Membrane in water
40344
    1TMC1    C1    1   1.056   2.197  11.486  0.0446 -0.2300  0.2524
    1TMC1    C2    2   1.145   2.303  11.479 -0.5630 -0.4039 -1.2257
    1TMC1    C3    3   1.180   2.361  11.362  0.2941  0.9166  0.1092
    1TMC1    C4    4   0.994   2.152  11.375  0.3272  0.0135  0.2816
    1TMC1    C5    5   1.024   2.214  11.255 -0.0863  0.1388  0.3191
    1TMC1    C6    6   1.112   2.318  11.248  0.3761 -0.1281 -0.0113
    1TMC1     C    7   1.019   2.142  11.614 -0.2805  0.6723 -0.2510
    1TMC1     O    8   1.078   2.188  11.716 -0.2851 -0.5012 -0.4527
    1TMC1     H    9   1.190   2.345  11.568 -0.7211 -0.2105 -1.2366
    1TMC1    H1   10   0.948   2.054  11.378 -1.2383  0.7701  0.9553
    1TMC1    H2   11   1.131   2.363  11.151  0.7572  2.5049  1.2917
    1TMC1    C7   12   1.027   2.126  11.137 -0.2876 -0.6062  0.5053
    1TMC1    C8   13   1.264   2.484  11.358 -0.3165  0.5853  0.2441
    1TMC1    O1   14   0.952   2.033  11.112  0.5662  0.5716  0.6972
    1TMC1    O2   15   1.317   2.514  11.251 -0.3415  0.3051 -0.0896
    1TMC1    O3   16   1.162   2.121  11.123  0.0690 -0.3621 -1.1292
    1TMC1    H3   17   1.210   2.180  11.185  2.6161 -2.0026 -1.5256
    1TMC1    O5   18   1.208   2.573  11.444  1.0346  0.2660  0.2767
    1TMC1    H5   19   1.146   2.530  11.506  1.0672 -0.8595 -0.4653
    2MPD2     C   20   0.737   1.887  11.948 -0.2941 -0.0467  0.1438
    2MPD2    C1   21   0.807   2.008  11.969  0.3686 -0.4411  0.8544
    2MPD2    C2   22   0.856   2.061  11.848 -0.4709 -0.6735  0.0817
    2MPD2    C3   23   0.864   1.990  11.729 -0.0416 -0.3687 -0.2224
    2MPD2    C4   24   0.796   1.872  11.718 -0.8480 -0.2062 -0.1494
    2MPD2    C5   25   0.728   1.828  11.824 -0.5234 -0.0199  0.0853
    2MPD2     H   26   0.902   2.160  11.851 -0.9104 -0.4591 -0.3062
    2MPD2    H1   27   0.781   1.824  11.622 -0.3227  2.0467 -1.3517
    2MPD2    H2   28   0.688   1.837  12.031 -0.1974 -0.0696  0.1873
    2MPD2    H3   29   0.671   1.736  11.816  0.6110 -0.8642  1.7690
    2MPD2     N   30   0.928   2.039  11.613  0.4930 -0.6034  0.4892
    2MPD2    H5   31   0.917   1.984  11.528 -2.5948 -1.1674  1.2412
    2MPD2    N1   32   0.813   2.088  12.086  0.5124 -0.3618  0.9960
    2MPD2    H7   33   0.864   2.175  12.073 -2.5593  1.0017 -1.9363
    3TMC1    C1   34   0.106   0.070  10.201 -0.1999  0.6655  0.5080
    3TMC1    C2   35   0.043   0.134  10.096  0.6357  0.2574  0.0419
    3TMC1    C3   36   4.681   0.071  10.031 -0.2042  0.2974  0.0351
    3TMC1    C4   37   0.081   4.680  10.236 -0.3791  0.1129  0.5214
    3TMC1    C5   38   4.718   4.621  10.172  0.3535 -0.6351  0.0825
    3TMC1    C6   39   4.643   4.682  10.072 -0.3055 -0.8547  0.1131
    3TMC1     C   40   0.176   0.157  10.297 -0.0041  0.4550  0.9081
    3TMC1     O   41   0.212   0.266  10.261  0.2030 -0.9323 -0.3729
    3TMC1     H   42   0.083   0.228  10.062  0.2588  1.0638  1.8443
    3TMC1    H1   43   0.146   4.620  10.300  1.2838 -0.1984 -1.4763
    3TMC1    H2   44   4.564   4.639  10.012 -0.1889 -0.9173  0.0030
    3TMC1    C7   45   4.709   4.479  10.172  0.1908 -0.3305 -0.6611
    3TMC1    C8   46   4.596   0.137   9.929  0.1652 -0.2580 -0.5175
    3TMC1    O1   47   4.652   4.419  10.082 -0.3117 -0.1465  0.0729
    3TMC1    O2   48   4.534   0.070   9.845  0.1143  0.1592  0.2550
    3TMC1    O3   49   4.711   4.431  10.297  0.0625  0.1608  0.5505
    3TMC1    H3   50   0.013   4.492  10.364  0.5753  0.3544  0.0719
    3TMC1    O5   51   4.598   0.269   9.945  0.8569  0.4617 -0.5407
    3TMC1    H5   52   4.648   0.294  10.026  0.0166 -2.8596  1.0002
    4MPD2     C   53   0.367   0.272  10.761 -0.8735  0.4617 -0.0845
    4MPD2    C1   54   0.275   0.174  10.772 -0.1083 -0.0282 -0.0157
    4MPD2    C2   55   0.213   0.125  10.658 -0.3383 -0.1797 -0.5178
    4MPD2    C3   56   0.236   0.166  10.534  0.0167 -0.3891  0.7527
    4MPD2    C4   57   0.327   0.269  10.527  0.3687 -0.5595 -0.1396
    4MPD2    C5   58   0.391   0.321  10.637 -0.3462 -0.5592  0.5262
    4MPD2     H   59   0.147   0.041  10.666  1.5862 -1.6126  0.3057
    4MPD2    H1   60   0.357   0.318  10.435 -0.1963  0.1782  0.0742
    4MPD2    H2   61   0.425   0.305  10.847  0.9324 -2.5825 -0.1180
    4MPD2    H3   62   0.458   0.406  10.627  0.8405 -1.4133  1.2615
    4MPD2     N   63   0.171   0.103  10.424 -0.2191 -0.0492 -0.2311
    4MPD2    H5   64   0.119   0.019  10.449  1.1594 -0.3857  1.5021
    4MPD2    N1   65   0.240   0.110  10.896 -0.8873 -0.4343  0.7762
    4MPD2    H7   66   0.155   0.056  10.909 -1.0451 -0.5262 -0.6209
    5TCq1    O1   67   1.598   0.167  11.837 -0.3764 -0.5807  0.2228
    5TCq1    C1   68   1.531   0.273  11.787 -0.0527 -0.2710  0.0090
    5TCq1    O2   69   1.543   0.309  11.668  0.3261  0.3176  0.0649
    5TCq1    C2   70   1.400   0.253  11.846 -0.2851 -0.9056  0.6289
    5TCq1    C3   71   1.371   0.326  11.955  0.4173  0.4058  0.2424
    5TCq1    C4   72   1.239   0.377  11.959  0.6078 -0.2678  0.2418
    5TCq1    C5   73   1.147   0.351  11.855 -0.0512 -0.1727 -0.4776
    5TCq1    C6   74   1.183   0.272  11.751  0.7483  0.1844 -0.4225
    5TCq1    C7   75   1.308   0.226  11.746  0.7237  0.2235 -0.2100
    5TCq1    C8   76   1.100   0.277  11.634  0.0505  0.6149 -0.0480
    5TCq1    O4   77   1.129   0.205  11.539 -0.2635  0.0804  0.2311
    5TCq1    C9   78   1.188   0.465  12.063  0.3745  0.1106 -0.2836
    5TCq1    O5   79   1.062   0.489  12.061  0.3550 -0.1717  0.2676
    5TCq1    O6   80   1.269   0.489  12.153  0.5116  0.4668 -0.0732
    5TCq1    H1   81   1.565   0.130  11.921  0.0111  0.2437  0.7397
    5TCq1    H2   82   1.444   0.354  12.030 -0.0485 -0.0420  0.8697
    5TCq1    H3   83   1.045   0.382  11.875  1.3659  2.9836  1.8793
    5TCq1    H4   84   1.351   0.171  11.663  0.3890 -0.6826  0.2266
    6MPD2     C   85   0.828   0.497  11.544  0.2187  0.5580  0.0557
    6MPD2    C1   86   0.936   0.418  11.515 -0.8679 -0.5040  0.2247
    6MPD2    C2   87   0.967   0.383  11.384 -0.7107 -0.3714 -0.6818
    6MPD2    C3   88   0.889   0.432  11.283  0.5153  0.1512  0.1452
    6MPD2    C4   89   0.774   0.504  11.316  0.4927  0.2566  0.7275
    6MPD2    C5   90   0.747   0.540  11.446  0.1609 -0.2876  0.7417
    6MPD2     H   91   1.049   0.317  11.359 -0.9598 -1.5483  1.6111
    6MPD2    H1   92   0.701   0.544  11.246  0.8844  1.4082  0.9719
    6MPD2    H2   93   0.806   0.531  11.644 -0.5971  3.5618 -1.1304
    6MPD2    H3   94   0.663   0.602  11.474 -0.4866 -0.3904 -0.9370
    6MPD2     N   95   0.924   0.407  11.150 -0.4275  0.0531  0.3956
    6MPD2    H5   96   1.002   0.345  11.133 -0.1522  0.1218  1.4355
    6MPD2    N1   97   1.016   0.383  11.632 -0.1759 -0.3284 -0.4149
    6MPD2    H7   98   1.005   0.431  11.721 -0.8628  0.7017 -1.0556
    7TCq1    O1   99   2.963   0.275  13.610 -1.0307  0.0891 -0.3361
    7TCq1    C1  100   3.035   0.394  13.609 -0.2740 -0.2474 -0.5013
    7TCq1    O2  101   2.990   0.506  13.619 -0.0859  0.0733  0.0228
    7TCq1    C2  102   3.173   0.359  13.643  1.0063 -0.5267 -0.3987
    7TCq1    C3  103   3.266   0.457  13.636 -0.0853  0.4695  0.6854
    7TCq1    C4  104   3.389   0.432  13.696 -0.0296 -0.7430  0.1206
    7TCq1    C5  105   3.423   0.311  13.742  0.3848  0.3583 -0.0185
    7TCq1    C6  106   3.327   0.220  13.740  0.2412  0.2727 -0.2195
    7TCq1    C7  107   3.202   0.236  13.686  0.6259  0.2156  0.6795
    7TCq1    C8  108   3.367   0.081  13.760 -0.0103 -0.0913  1.0275
    7TCq1    O4  109   3.283   4.725  13.762 -0.0906 -0.4232 -0.5958
    7TCq1    C9  110   3.479   0.542  13.707  0.4642  0.2845 -0.4470
    7TCq1    O5  111   3.596   0.534  13.748  0.3480  0.4724 -0.4099
    7TCq1    O6  112   3.439   0.649  13.650 -0.5361  0.8490 -0.4645
    7TCq1    H1  113   3.018   0.197  13.588 -0.7840  0.6863 -1.8291
    7TCq1    H2  114   3.240   0.560  13.617  5.1354  1.1917 -2.3309
    7TCq1    H3  115   3.517   0.306  13.797  0.0062 -0.0857  0.5902
    7TCq1    H4  116   3.136   0.150  13.693  1.6543 -0.8344 -2.6378
    8MPD2     C  117   3.763   4.488  13.724 -0.0496 -0.0457  0.3681
    8MPD2    C1  118   3.629   4.464  13.713  0.1976 -0.3836 -0.5585
    8MPD2    C2  119   3.541   4.568  13.745 -0.0215  0.0759 -0.1735
    8MPD2    C3  120   3.587   4.698  13.758 -0.0676 -0.4146  0.1572
    8MPD2    C4  121   3.722   4.716  13.758  0.5001 -0.2832  0.2995
    8MPD2    C5  122   3.808   4.610  13.750  0.3674  1.0023  0.0082
    8MPD2     H  123   3.436   4.543  13.745  0.7396 -3.0273 -0.2931
    8MPD2    H1  124   3.778   0.071  13.773  0.8348 -0.2613 -1.0769
    8MPD2    H2  125   3.844   4.420  13.701 -0.5520 -0.4029 -0.3485
    8MPD2    H3  126   3.916   4.614  13.744  0.4125  0.2182  0.3666
    8MPD2     N  127   3.506   0.075  13.768 -0.4542  0.2520  0.6542
    8MPD2    H5  128   3.555   0.164  13.781  1.9479 -0.8721 -0.6444
    8MPD2    N1  129   3.568   4.356  13.658  0.0232  0.1687 -0.0452
    8MPD2    H7  130   3.467   4.351  13.656  0.0629 -0.7206  0.1541
    9TMC1    C1  131   0.582   3.929  11.213 -0.1639 -0.1855 -0.1230
    9TMC1    C2  132   0.465   3.904  11.280 -0.4261  0.5264 -0.5353
    9TMC1    C3  133   0.352   3.964  11.231  0.2579  0.4859 -0.1923
    9TMC1    C4  134   0.593   4.000  11.105  0.3554 -0.5925  0.0535
    9TMC1    C5  135   0.476   4.062  11.069  0.0620 -0.0429 -0.0884
    9TMC1    C6  136   0.352   4.040  11.119 -0.7516 -0.7757  0.2898
    9TMC1     C  137   0.714   3.886  11.266 -0.0120 -0.3896 -0.4624
    9TMC1     O  138   0.807   3.950  11.239  0.2618  0.4604 -0.5639
    9TMC1     H  139   0.473   3.851  11.373  0.5953  1.3571 -0.1522
    9TMC1    H1  140   0.690   4.032  11.071  0.3778  1.1958  1.7617
    9TMC1    H2  141   0.262   4.082  11.078  0.7942  0.4094 -1.8744
    9TMC1    C7  142   0.486   4.152  10.956  0.1756 -0.3198  0.0115
    9TMC1    C8  143   0.259   4.023  11.333 -0.5549 -0.3380 -0.1683
    9TMC1    O1  144   0.396   4.175  10.876  0.3401  0.2950  0.1670
    9TMC1    O2  145   0.219   4.136  11.325  0.0054 -0.0117  0.0709
    9TMC1    O3  146   0.595   4.229  10.980  0.3330 -1.3337 -0.0356
    9TMC1    H3  147   0.634   4.215  11.068 -2.3938 -2.6398  0.9838
    9TMC1    O5  148   0.288   3.958  11.448  0.3510  0.3336 -0.4849
    9TMC1    H5  149   0.308   3.865  11.425 -0.5526 -0.1417  0.7093
   10MPD2     C  150   0.915   3.757  11.437  0.0284  0.1325  0.3799
   10MPD2    C1  151   0.811   3.689  11.375  0.1204  0.2756 -0.0688
   10MPD2    C2  152   0.788   3.555  11.411  0.1192  0.1589  0.1546
   10MPD2    C3  153   0.887   3.480  11.478  0.1928 -0.4698  0.7501
   10MPD2    C4  154   1.001   3.542  11.506 -0.3595 -0.8741  0.0771
   10MPD2    C5  155   1.019   3.680  11.489  0.1325 -0.0419  0.3090
   10MPD2     H  156   0.694   3.512  11.380  0.9776 -1.9287  0.4736
   10MPD2    H1  157   1.079   3.483  11.554 -0.8007 -1.8822 -0.4491
   10MPD2    H2  158   0.933   3.862  11.422 -0.5611  0.4051  1.5892
   10MPD2    H3  159   1.114   3.729  11.508  0.0253 -0.1743  1.2021
   10MPD2     N  160   0.877   3.341  11.504  0.3489  0.3022  0.2606
   10MPD2    H5  161   0.954   3.302  11.557  0.6913 -0.0470 -0.4909
   10MPD2    N1  162   0.709   3.753  11.308  0.0244 -0.3000 -0.3242
   10MPD2    H7  163   0.621   3.703  11.308  0.0573 -0.3589 -0.3104
   11TCq1    O1  164   1.642   3.356  13.669  0.4173 -0.1178 -0.3159
   11TCq1    C1  165   1.522   3.307  13.714  1.2870 -0.1919 -0.7748
   11TCq1    O2  166   1.423   3.379  13.724 -0.4501 -0.1296  0.5740
   11TCq1    C2  167   1.550   3.221  13.825  0.3344  0.0530 -0.8162
   11TCq1    C3  168   1.672   3.225  13.892 -0.1562 -0.0474 -0.0516
   11TCq1    C4  169   1.684   3.170  14.020 -0.3480  0.3485  0.2770
   11TCq1    C5  170   1.578   3.107  14.074 -0.8088  0.1754 -0.1071
   11TCq1    C6  171   1.458   3.101  14.003  0.0688  0.4233  0.5977
   11TCq1    C7  172   1.437   3.180  13.889 -0.3177 -0.1418 -0.2328
   11TCq1    C8  173   1.372   2.987  14.015  0.1889 -0.3644 -0.1556
   11TCq1    O4  174   1.420   2.876  14.031  0.3333 -0.1190  0.3804
   11TCq1    C9  175   1.805   3.192  14.094  0.1038  0.0425 -0.3411
   11TCq1    O5  176   1.821   3.135  14.208 -0.6195 -0.3237  0.0995
   11TCq1    O6  177   1.871   3.298  14.069  0.0436 -0.3109  0.0876
   11TCq1    H1  178   1.721   3.299  13.671 -0.0238 -0.7497 -0.7924
   11TCq1    H2  179   1.763   3.276  13.861 -0.5004  0.9834  0.6288
   11TCq1    H3  180   1.595   3.054  14.167 -2.8912 -1.0544 -0.4371
   11TCq1    H4  181   1.352   3.159  13.826 -0.2500 -3.1658  0.6802
   12MPD2     C  182   1.005   3.002  13.998  0.2419  1.0630  0.1964
   12MPD2    C1  183   1.127   2.941  14.005  0.0165 -0.0982 -0.2097
   12MPD2    C2  184   1.136   2.805  13.976  0.4510  0.0078  0.6550
   12MPD2    C3  185   1.020   2.741  13.937  0.4162  0.5001  0.0416
   12MPD2    C4  186   0.901   2.806  13.920 -0.2599 -0.0817  0.0542
   12MPD2    C5  187   0.894   2.940  13.947  0.2989 -0.3103 -0.2153
   12MPD2     H  188   1.229   2.750  13.981  0.9189  0.3537 -3.8439
   12MPD2    H1  189   0.810   2.754  13.894  1.4106 -1.5766 -2.7528
   12MPD2    H2  190   1.007   3.105  14.031 -1.6156  0.8596  0.9570
   12MPD2    H3  191   0.798   2.990  13.947  0.2690 -0.3572  1.2793
   12MPD2     N  192   1.022   2.599  13.908 -0.6402 -0.4216  0.2232
   12MPD2    H5  193   0.948   2.558  13.851  0.4019 -2.8183  0.5789
   12MPD2    N1  194   1.242   3.024  14.023  0.1272  0.1726  0.2202
   12MPD2    H7  195   1.233   3.125  14.020 -2.5159 -0.1339 -1.4171
   13TCq1    O1  196   1.226   4.206  11.893 -0.2568 -0.0282 -0.3698
   13TCq1    C1  197   1.176   4.207  11.771  0.3336 -0.2088  0.2246
   13TCq1    O2  198   1.065   4.181  11.739  0.2683  0.3560  0.4190
   13TCq1    C2  199   1.284   4.171  11.680 -0.9595  0.8352  0.0655
   13TCq1    C3  200   1.410   4.228  11.692  0.0743  0.0438 -0.0351
   13TCq1    C4  201   1.505   4.184  11.606  0.5146  0.0428  0.1515
   13TCq1    C5  202   1.473   4.091  11.511 -0.3174  0.4105 -0.0380
   13TCq1    C6  203   1.347   4.043  11.500 -0.0924  0.4894  0.1636
   13TCq1    C7  204   1.248   4.082  11.584  0.3563  0.2666 -0.0273
   13TCq1    C8  205   1.314   3.936  11.411  0.8554 -0.2240  0.3886
   13TCq1    O4  206   1.208   3.939  11.350  0.1524 -0.0330 -0.5529
   13TCq1    C9  207   1.631   4.252  11.605 -0.3863 -0.4570  0.2562
   13TCq1    O5  208   1.669   4.305  11.709  0.6353  0.0046 -0.2720
   13TCq1    O6  209   1.713   4.211  11.514 -0.8691  0.8904 -0.1998
   13TCq1    H1  210   1.324   4.212  11.890 -0.2273  0.5854  1.7101
   13TCq1    H2  211   1.428   4.314  11.755 -0.9278  1.0589 -1.1335
   13TCq1    H3  212   1.545   4.069  11.433 -0.9255 -1.3787 -0.0903
   13TCq1    H4  213   1.152   4.030  11.586  0.7117 -0.4403 -1.7299
   14MPD2     C  214   1.472   3.607  11.396 -0.2761 -0.1425 -0.1338
   14MPD2    C1  215   1.383   3.710  11.373  0.1339 -0.7006  0.0791
   14MPD2    C2  216   1.288   3.677  11.283  0.2569  0.1528 -0.3762
   14MPD2    C3  217   1.263   3.559  11.217 -0.6520  0.2498 -0.8568
   14MPD2    C4  218   1.364   3.476  11.218 -0.0392  0.1031 -0.1521
   14MPD2    C5  219   1.467   3.496  11.316  0.1094 -0.2723 -0.0619
   14MPD2     H  220   1.200   3.741  11.284 -1.0921 -1.6600 -2.7117
   14MPD2    H1  221   1.365   3.380  11.167 -0.9565 -0.5570  1.0542
   14MPD2    H2  222   1.544   3.616  11.476 -1.0875  0.7557  0.5062
   14MPD2    H3  223   1.535   3.419  11.348  0.8311 -0.3381 -1.7954
   14MPD2     N  224   1.150   3.541  11.144 -0.2394 -0.0317  0.2705
   14MPD2    H5  225   1.085   3.619  11.150 -3.2779 -2.6102  1.0809
   14MPD2    N1  226   1.397   3.829  11.434 -0.2320  0.2085 -0.9566
   14MPD2    H7  227   1.470   3.834  11.505  0.5148 -2.1031 -1.5668
   15TCq1    O1  228   3.352   2.741   1.452  0.2598  0.2268 -0.6371
   15TCq1    C1  229   3.298   2.635   1.379 -0.1860  0.5074 -0.0968
   15TCq1    O2  230   3.353   2.572   1.290 -0.1589  0.5523  0.2256
   15TCq1    C2  231   3.156   2.601   1.405 -0.3631 -0.0668  1.0414
   15TCq1    C3  232   3.075   2.679   1.489  0.1265 -0.3219  0.3228
   15TCq1    C4  233   2.940   2.664   1.483 -0.1164 -0.1873 -0.1312
   15TCq1    C5  234   2.887   2.585   1.389 -0.7613 -0.4335  0.3207
   15TCq1    C6  235   2.964   2.505   1.306 -0.4438 -0.2209 -0.4697
   15TCq1    C7  236   3.102   2.512   1.314 -0.5339  0.0613  0.2894
   15TCq1    C8  237   2.910   2.412   1.207 -0.0455 -0.3286  0.4271
   15TCq1    O4  238   2.987   2.333   1.153  0.2078  0.3523  0.5672
   15TCq1    C9  239   2.859   2.766   1.541  0.5576  0.1565  0.9831
   15TCq1    O5  240   2.733   2.753   1.530  0.0623 -0.0484 -0.3583
   15TCq1    O6  241   2.928   2.854   1.598 -0.1974 -0.1164  0.4430
   15TCq1    H1  242   3.299   2.772   1.529  1.6580 -0.2978  0.5263
   15TCq1    H2  243   3.117   2.759   1.549 -0.7950  0.0560  0.4575
   15TCq1    H3  244   2.781   2.595   1.370 -0.8273 -2.1349 -0.1474
   15TCq1    H4  245   3.165   2.462   1.241  0.3568 -0.9437  1.7371
   16MPD2     C  246   2.583   2.441   1.045  0.6824  0.0061  0.5562
   16MPD2    C1  247   2.697   2.377   1.091 -0.1797 -0.0872 -0.2307
   16MPD2    C2  248   2.714   2.239   1.070  0.1873 -0.3601 -0.0704
   16MPD2    C3  249   2.633   2.176   0.971  0.4417 -0.1646  0.0874
   16MPD2    C4  250   2.535   2.249   0.913  0.2743  0.2985 -0.2853
   16MPD2    C5  251   2.503   2.373   0.962  0.2117  0.0979 -0.7363
   16MPD2     H  252   2.795   2.184   1.118  1.1482  0.8894 -0.2615
   16MPD2    H1  253   2.464   2.211   0.840 -1.4964  2.2335  0.4334
   16MPD2    H2  254   2.558   2.543   1.072 -1.7097 -0.7980  1.3039
   16MPD2    H3  255   2.414   2.420   0.923 -1.0770 -1.4942  0.3101
   16MPD2     N  256   2.671   2.046   0.933  0.3188  0.8372  0.0018
   16MPD2    H5  257   2.755   2.011   0.978 -0.0715 -1.4854 -1.0986
   16MPD2    N1  258   2.783   2.450   1.174 -0.4278 -0.0530 -0.4654
   16MPD2    H7  259   2.747   2.536   1.214  0.7607  0.7573 -1.1256
   17TMC1    C1  260   0.401   2.222  11.152  0.2822  0.1322  0.5003
   17TMC1    C2  261   0.449   2.322  11.239 -0.6271  0.1698  0.1767
   17TMC1    C3  262   0.389   2.339  11.365  0.1299 -0.1002 -0.4664
   17TMC1    C4  263   0.309   2.136  11.190  0.6418 -0.2688 -0.4374
   17TMC1    C5  264   0.255   2.152  11.316 -0.5203 -0.3531  0.0204
   17TMC1    C6  265   0.296   2.246  11.410  0.1000  0.0302 -0.0387
   17TMC1     C  266   0.468   2.188  11.026 -0.3447  0.0391  0.2764
   17TMC1     O  267   0.398   2.135  10.941 -0.4300 -0.3872  0.3668
   17TMC1     H  268   0.520   2.399  11.211 -0.5328 -0.2022 -0.6153
   17TMC1    H1  269   0.278   2.054  11.126 -1.8267  0.0917  0.2646
   17TMC1    H2  270   0.253   2.235  11.509 -0.5274 -1.7068 -0.5100
   17TMC1    C7  271   0.192   2.033  11.368 -0.2309  0.6224  0.0132
   17TMC1    C8  272   0.449   2.442  11.443  0.0403 -0.1891 -0.2546
   17TMC1    O1  273   0.237   1.992  11.474 -0.5093  0.1856  0.5033
   17TMC1    O2  274   0.566   2.466  11.424 -0.8792  0.4186 -0.0028
   17TMC1    O3  275   0.065   2.075  11.356 -0.1847  0.0322  0.3687
   17TMC1    H3  276   0.055   2.150  11.293 -1.1121 -0.6153 -0.2603
   17TMC1    O5  277   0.379   2.432  11.557  0.4157  0.2660 -0.3396
   17TMC1    H5  278   0.282   2.420  11.546  0.0903  1.2181  1.5157
   18MPD2     C  279   0.667   2.127  10.825  0.0064  0.1957 -0.2037
   18MPD2    C1  280   0.691   2.218  10.923 -0.5198  0.7320  0.0567
   18MPD2    C2  281   0.800   2.293  10.926  0.2542 -0.1487 -0.0369
   18MPD2    C3  282   0.909   2.274  10.836  0.9357 -0.5753  0.1730
   18MPD2    C4  283   0.886   2.184  10.737 -0.5258  0.0561  0.2616
   18MPD2    C5  284   0.768   2.108  10.731  0.0417 -0.2095  0.5709
   18MPD2     H  285   0.792   2.367  11.005 -0.1847 -2.1119  1.7710
   18MPD2    H1  286   0.962   2.161  10.663 -1.7422  0.2759 -1.0452
   18MPD2    H2  287   0.580   2.061  10.824 -0.7446  1.1794  0.5141
   18MPD2    H3  288   0.754   2.039  10.648 -1.4040  0.6125  0.1363
   18MPD2     N  289   1.027   2.347  10.830 -0.5876 -0.0709  0.2688
   18MPD2    H5  290   1.091   2.328  10.754  0.0514 -1.2950  1.1029
   18MPD2    N1  291   0.595   2.239  11.022 -0.4324  0.7633  0.4421
   18MPD2    H7  292   0.623   2.297  11.101  0.7630 -2.2414  2.1993
   19TMC2    C1  293   2.380   3.236  14.220  0.2267 -0.0244 -0.3829
   19TMC2    C2  294   2.296   3.334  14.262 -0.3285  0.5824 -0.1882
   19TMC2    C3  295   2.164   3.308  14.283  0.5789 -0.0149  0.3357
   19TMC2    C4  296   2.338   3.106  14.206  0.1443  0.1413  0.1689
   19TMC2    C5  297   2.203   3.081  14.228 -0.7638 -0.5285 -0.6137
   19TMC2    C6  298   2.117   3.181  14.264  0.0485  0.4759  0.4595
   19TMC2     C  299   2.517   3.271  14.198  0.1861 -0.2649 -0.1562
   19TMC2     O  300   2.543   3.388  14.191 -0.1858  0.1501  0.3311
   19TMC2     H  301   2.340   3.431  14.285 -0.3458  1.0808 -2.2654
   19TMC2    H1  302   2.398   3.031  14.156 -0.5775  1.4977 -2.7373
   19TMC2    H2  303   2.013   3.162  14.289  0.2042  1.3255  1.7889
   19TMC2    C7  304   2.154   2.943  14.220 -0.4831 -0.1527 -0.5353
   19TMC2    C8  305   2.082   3.407  14.344 -0.2578 -0.6285 -0.5774
   19TMC2    O1  306   2.243   2.861  14.215 -0.0178  0.1719 -0.0906
   19TMC2    O2  307   2.124   3.477  14.432  0.0406 -0.2773  0.4859
   19TMC2    O5  308   1.956   3.386  14.297 -0.0122  0.1870  0.1130
   19TMC2    H5  309   1.948   3.332  14.215 -1.6425  1.3136 -0.4712
   20MPD2     C  310   2.807   3.275  14.181 -0.5667 -0.8430 -0.0944
   20MPD2    C1  311   2.739   3.157  14.220 -0.1923 -0.5172 -0.8284
   20MPD2    C2  312   2.811   3.047  14.269  0.6043 -0.0237 -0.9421
   20MPD2    C3  313   2.946   3.055  14.281  0.8117  0.2803  0.2713
   20MPD2    C4  314   3.010   3.168  14.235  0.0939 -0.0719 -0.6299
   20MPD2    C5  315   2.941   3.279  14.195  0.6559  0.2819  0.9629
   20MPD2     H  316   2.754   2.956  14.287  0.2079  0.0826 -1.6563
   20MPD2    H1  317   3.116   3.170  14.254 -0.0614  0.4337  0.1726
   20MPD2    H2  318   2.762   3.358  14.127  0.6518  0.0522  0.2603
   20MPD2    H3  319   2.991   3.368  14.158  1.0754 -0.8933 -1.2840
   20MPD2     N  320   3.030   2.950  14.330  0.5142  0.1950  0.0748
   20MPD2    H5  321   3.131   2.964  14.329  0.6334 -0.2187  4.7394
   20MPD2    N1  322   2.599   3.162  14.216  0.7795 -0.5483 -0.1687
   20MPD2    H7  323   2.555   3.075  14.246 -0.9925  0.0948 -0.9170
   21TMC2    C1  324   0.167   3.215  14.641  0.3236 -1.1882  0.4100
   21TMC2    C2  325   0.180   3.093  14.690  0.2904 -0.4605  0.1876
   21TMC2    C3  326   0.083   3.038  14.770  0.0030 -0.0400  0.6783
   21TMC2    C4  327   0.049   3.277  14.658  0.0775 -0.3868 -0.1485
   21TMC2    C5  328   4.689   3.220  14.736 -0.2045  0.0154  0.3017
   21TMC2    C6  329   4.700   3.101  14.800  0.3885 -0.1922  0.0883
   21TMC2     C  330   0.287   3.297  14.634 -0.3438 -0.6991  1.3942
   21TMC2     O  331   0.389   3.237  14.659  0.9887  0.4649  0.1912
   21TMC2     H  332   0.280   3.049  14.687  0.1282 -0.6989 -1.8393
   21TMC2    H1  333   0.036   3.380  14.629 -1.5629 -0.2398  1.0874
   21TMC2    H2  334   4.642   3.076  14.888  0.9253  2.6581  1.2489
   21TMC2    C7  335   4.622   3.320  14.817  0.5537  0.2561 -0.0706
   21TMC2    C8  336   0.123   2.928  14.854  0.3649  0.1187 -0.6136
   21TMC2    O1  337   4.632   3.320  14.941  0.3779  0.4026 -0.6657
   21TMC2    O2  338   0.089   2.912  14.972  0.7043  0.0103 -0.0098
   21TMC2    O5  339   0.195   2.843  14.781 -0.5163  0.5618 -0.2494
   21TMC2    H5  340   0.214   2.874  14.690  0.9272 -0.3336 -0.2490
   22MPD2     C  341   0.581   3.715  14.603  0.6463 -0.2974 -0.1697
   22MPD2    C1  342   0.589   3.607  14.691 -0.2919 -0.4178  0.7562
   22MPD2    C2  343   0.495   3.504  14.677  0.9844 -0.3639  0.2000
   22MPD2    C3  344   0.385   3.523  14.588  0.1587  0.4142  0.5422
   22MPD2    C4  345   0.370   3.635  14.510  0.3350 -0.9899 -0.1460
   22MPD2    C5  346   0.477   3.724  14.512 -0.6720 -0.6718 -0.4765
   22MPD2     H  347   0.501   3.415  14.738 -0.5622  1.2702  2.7575
   22MPD2    H1  348   0.282   3.653  14.450  2.0074 -0.5730 -2.5073
   22MPD2    H2  349   0.657   3.792  14.606  1.1616 -0.7620 -1.0728
   22MPD2    H3  350   0.470   3.819  14.461 -1.7218  1.1382  2.9767
   22MPD2     N  351   0.280   3.429  14.586  0.0723  0.0367  0.3711
   22MPD2    H5  352   0.198   3.462  14.535 -0.1239 -1.5339 -0.3340
   22MPD2    N1  353   0.695   3.591  14.783  0.5530 -0.2626  0.1934
   22MPD2    H7  354   0.681   3.513  14.846 -1.6855 -0.7770 -0.9678
   23TMC2    C1  355   1.288   0.191  14.550 -0.1112 -0.1430  0.0389
   23TMC2    C2  356   1.249   0.188  14.412  0.7368  0.3623 -0.8889
   23TMC2    C3  357   1.114   0.189  14.384  0.3216 -0.5830 -0.3982
   23TMC2    C4  358   1.187   0.199  14.650 -0.0248 -0.0453  0.2846
   23TMC2    C5  359   1.059   0.180  14.612 -0.1163 -0.0200  0.4075
   23TMC2    C6  360   1.021   0.177  14.481  0.0001  0.6732  0.0830
   23TMC2     C  361   1.424   0.152  14.581 -0.2679  0.2663 -0.7217
   23TMC2     O  362   1.513   0.169  14.496 -0.4014 -0.3111 -0.6000
   23TMC2     H  363   1.319   0.186  14.329 -0.4028  1.0144 -1.8584
   23TMC2    H1  364   1.204   0.206  14.757  2.2104 -0.0706 -0.0552
   23TMC2    H2  365   0.915   0.177  14.460  0.2180  0.3666 -1.0659
   23TMC2    C7  366   0.964   0.211  14.718 -0.1340  0.1454  0.2049
   23TMC2    C8  367   1.071   0.155  14.249  0.5674  0.0096 -0.2679
   23TMC2    O1  368   1.003   0.284  14.807 -0.3839  0.3764 -0.0055
   23TMC2    O2  369   0.954   0.184  14.219 -0.4389  0.0963  0.3602
   23TMC2    O5  370   1.142   0.051  14.199  0.4220  0.2360  0.4916
   23TMC2    H5  371   1.208   0.021  14.265  0.5026  1.3550  0.9069
   24MPD2     C  372   1.734   4.539  14.797 -0.1102 -0.0200  0.7946
   24MPD2    C1  373   1.618   4.541  14.868 -0.2581 -0.0993 -0.1408
   24MPD2    C2  374   1.517   4.630  14.831 -0.5570 -0.2134  0.7527
   24MPD2    C3  375   1.530   4.724  14.727 -0.3217  0.3304  0.5493
   24MPD2    C4  376   1.658   4.725  14.672 -0.9702 -0.2897 -0.6065
   24MPD2    C5  377   1.755   4.634  14.700 -0.3860 -0.3959  0.4701
   24MPD2     H  378   1.423   4.628  14.885 -0.3129  2.0022  1.2583
   24MPD2    H1  379   1.684   0.069  14.606 -0.5645 -1.5194 -1.9579
   24MPD2    H2  380   1.813   4.466  14.808  0.4918  0.1055 -2.5786
   24MPD2    H3  381   1.852   4.637  14.651 -1.7957  1.3956 -2.2294
   24MPD2     N  382   1.426   0.075  14.699 -0.3935  0.0668  0.3486
   24MPD2    H5  383   1.338   0.063  14.749 -0.9872  0.4488 -0.5938
   24MPD2    N1  384   1.592   4.454  14.977  0.7725 -0.3669  0.2379
   24MPD2    H7  385   1.508   4.465  15.033  1.1015  2.6631  0.1453
   25TMC2    C1  386   0.563   2.096  11.555  0.5602 -0.2763  0.3849
   25TMC2    C2  387   0.618   2.216  11.603 -0.2175 -0.0925 -0.0987
   25TMC2    C3  388   0.596   2.244  11.736  0.1609  0.3947  0.5678
   25TMC2    C4  389   0.487   2.017  11.646 -0.2140  0.0039 -0.3472
   25TMC2    C5  390   0.477   2.052  11.773  0.0985 -0.4224  0.4136
   25TMC2    C6  391   0.532   2.166  11.826 -0.7949  0.3237 -0.3795
   25TMC2     C  392   0.610   2.045  11.430 -0.8389  0.6887  0.0802
   25TMC2     O  393   0.697   2.102  11.369  0.0617 -0.6826 -0.3516
   25TMC2     H  394   0.674   2.279  11.535 -1.0590  0.1159 -0.5925
   25TMC2    H1  395   0.437   1.928  11.610  1.3325  0.1160 -2.8112
   25TMC2    H2  396   0.509   2.198  11.926 -0.8174  1.6004 -0.7861
   25TMC2    C7  397   0.372   1.999  11.854  0.1845  0.8896  0.2502
   25TMC2    C8  398   0.676   2.356  11.778  0.2502  0.0617 -0.4987
   25TMC2    O1  399   0.365   2.047  11.967  0.1510 -0.5581  0.1017
   25TMC2    O2  400   0.790   2.367  11.734 -0.0350  0.0438  0.1324
   25TMC2    O5  401   0.641   2.381  11.906 -0.6000  0.0872 -0.5263
   25TMC2    H5  402   0.543   2.376  11.908 -0.5279 -0.8854  0.6580
   26MPD2     C  403   0.471   1.775  11.023 -0.4902  0.5514 -0.1853
   26MPD2    C1  404   0.381   1.751  11.123 -0.1594 -0.0077 -0.1372
   26MPD2    C2  405   0.413   1.794  11.253 -0.2127 -0.4318  0.3521
   26MPD2    C3  406   0.526   1.875  11.271  0.0574  0.5902  0.9750
   26MPD2    C4  407   0.614   1.906  11.164 -0.4488  0.1822 -0.0145
   26MPD2    C5  408   0.594   1.842  11.041 -0.4618 -0.2119 -0.3453
   26MPD2     H  409   0.358   1.763  11.342 -1.0629  0.7903  0.2479
   26MPD2    H1  410   0.708   1.957  11.176 -0.4211  0.0349  0.3806
   26MPD2    H2  411   0.445   1.746  10.922 -2.1408  2.8508 -0.4222
   26MPD2    H3  412   0.660   1.874  10.961  0.0833  0.7248  0.4765
   26MPD2     N  413   0.535   1.930  11.400 -0.0494 -0.0527 -0.3107
   26MPD2    H5  414   0.459   1.901  11.461 -0.8744 -0.9196 -1.7492
   26MPD2    N1  415   0.269   1.676  11.087 -0.3743 -0.3634 -0.0244
   26MPD2    H7  416   0.251   1.656  10.989  0.4883  2.1627 -0.6950
   27TMC2    C1  417   3.971   0.065  12.486 -0.6113 -0.1724 -0.3048
   27TMC2    C2  418   4.039   0.178  12.521  0.6459  0.0676 -0.0020
   27TMC2    C3  419   4.142   0.166  12.613  0.2226  0.1044  0.0229
   27TMC2    C4  420   4.011   4.676  12.524 -0.4818  0.4830  0.0637
   27TMC2    C5  421   4.116   4.674  12.611 -0.6698 -0.0490  0.1411
   27TMC2    C6  422   4.178   0.041  12.662  0.1811  0.8059  0.1393
   27TMC2     C  423   3.851   0.084  12.408  0.3420 -0.0156  0.4813
   27TMC2     O  424   3.819   0.197  12.377 -0.1850 -0.0824  0.4988
   27TMC2     H  425   3.999   0.277  12.504  1.7950  0.4542 -0.4806
   27TMC2    H1  426   3.975   4.579  12.493 -2.0291  2.2401 -3.6828
   27TMC2    H2  427   4.278   0.027  12.703 -1.0227 -0.6018  2.6384
   27TMC2    C7  428   4.172   4.542  12.622 -0.1224  0.6941 -0.1459
   27TMC2    C8  429   4.144   0.272  12.709 -0.0101 -0.4333  0.5083
   27TMC2    O1  430   4.172   4.469  12.526 -0.4162 -0.2554 -0.1160
   27TMC2    O2  431   4.039   0.299  12.764 -0.1859 -0.4707 -0.1280
   27TMC2    O5  432   4.260   0.260  12.773  0.3369  0.7397  0.0961
   27TMC2    H5  433   4.334   0.236  12.714  0.2603  0.5821  0.0633
   28MPD2     C  434   3.371   4.655  12.291  0.0887 -0.5670  0.7993
   28MPD2    C1  435   3.445   4.550  12.337  0.3580  0.4214  0.0848
   28MPD2    C2  436   3.585   4.566  12.363  0.6237  0.7880 -0.2382
   28MPD2    C3  437   3.643   4.694  12.357 -0.0926 -0.0288 -0.7078
   28MPD2    C4  438   3.564   0.061  12.311  0.8366  0.2387  0.7800
   28MPD2    C5  439   3.434   0.037  12.271  0.1458  0.0950  0.0300
   28MPD2     H  440   3.643   4.479  12.392  0.2239  0.3479 -0.7565
   28MPD2    H1  441   3.602   0.162  12.299 -0.9793  0.9026  0.6559
   28MPD2    H2  442   3.264   4.645  12.276 -0.0320  0.4416  0.9599
   28MPD2    H3  443   3.375   0.118  12.230  0.7899  0.8813  0.6463
   28MPD2     N  444   3.777   4.707  12.393 -0.4774  0.3922 -0.1670
   28MPD2    H5  445   3.821   4.618  12.414  1.6328  2.0951  2.6767
   28MPD2    N1  446   3.378   4.431  12.364 -0.0337 -0.0052 -0.0713
   28MPD2    H7  447   3.277   4.433  12.371 -0.0884 -0.8105 -0.6876
   29TMC2    C1  448   3.156   1.740  14.552  0.8665  0.4741 -1.2078
   29TMC2    C2  449   3.117   1.766  14.679  0.3434  0.0456  0.6085
   29TMC2    C3  450   3.102   1.898  14.721 -0.3671 -0.7906  0.3339
   29TMC2    C4  451   3.166   1.844  14.461  0.4000  0.7126 -0.4356
   29TMC2    C5  452   3.154   1.977  14.508 -0.3126  0.0093 -0.9616
   29TMC2    C6  453   3.118   2.006  14.639 -0.0072 -0.6282 -0.3995
   29TMC2     C  454   3.166   1.605  14.503 -0.0086 -0.8748 -0.2612
   29TMC2     O  455   3.176   1.509  14.585  0.4208  0.6711  0.3079
   29TMC2     H  456   3.121   1.686  14.752 -0.3395  0.7409  1.4122
   29TMC2    H1  457   3.208   1.821  14.363  0.1422 -0.5773 -0.2393
   29TMC2    H2  458   3.092   2.105  14.673 -3.1796 -1.6207  0.0646
   29TMC2    C7  459   3.210   2.082  14.422 -0.1026 -0.1185  0.7035
   29TMC2    C8  460   3.098   1.907  14.869  0.5433 -0.5086  0.2070
   29TMC2    O1  461   3.233   2.045  14.309  0.6611 -0.2363 -0.7654
   29TMC2    O2  462   3.068   1.808  14.934 -0.4508 -0.1478  0.2818
   29TMC2    O5  463   3.108   2.034  14.919 -0.4233 -0.3944  0.5305
   29TMC2    H5  464   3.153   2.107  14.871 -1.2353  0.0970  0.5068
   30MPD2     C  465   3.138   1.254  14.123  0.6398 -0.7020  0.6392
   30MPD2    C1  466   3.157   1.235  14.258  0.6324  0.7800  0.3530
   30MPD2    C2  467   3.165   1.349  14.339  0.4042  0.1255  0.0395
   30MPD2    C3  468   3.147   1.479  14.290  0.3829  0.4845 -0.4488
   30MPD2    C4  469   3.118   1.493  14.158  0.1424  0.1410 -0.4862
   30MPD2    C5  470   3.119   1.380  14.075  0.0227 -0.3663 -0.7227
   30MPD2     H  471   3.189   1.339  14.445 -1.5925 -0.1798  0.4638
   30MPD2    H1  472   3.116   1.593  14.116  1.5106  0.7974  0.9908
   30MPD2    H2  473   3.152   1.174  14.052 -0.2868  3.4658 -4.2285
   30MPD2    H3  474   3.104   1.390  13.968 -2.3091  2.1708 -0.1812
   30MPD2     N  475   3.158   1.598  14.366  0.1956  0.2306 -0.5584
   30MPD2    H5  476   3.149   1.687  14.319 -0.3457  0.2609 -0.3991
   30MPD2    N1  477   3.173   1.106  14.316  0.7148  0.1419  0.0017
   30MPD2    H7  478   3.211   1.093  14.409  0.6105 -0.1192  0.0071
   31TMC2    C1  479   1.338   0.415  15.610  0.2269 -0.2662 -0.0252
   31TMC2    C2  480   1.234   0.492  15.656  0.5247 -1.1212 -0.0462
   31TMC2    C3  481   1.206   0.497  15.790  0.7416  0.3775 -0.1891
   31TMC2    C4  482   1.416   0.343  15.697  0.3065 -0.0051  0.0534
   31TMC2    C5  483   1.388   0.361  15.831 -0.0676 -0.6450  0.3266
   31TMC2    C6  484   1.281   0.435  15.880 -0.1868  0.5380  0.1498
   31TMC2     C  485   1.363   0.424  15.466  0.6719  0.0885 -0.4300
   31TMC2     O  486   1.276   0.452  15.384  0.2207 -0.0167  0.1011
   31TMC2     H  487   1.171   0.559  15.599  0.2208  0.0556  1.6392
   31TMC2    H1  488   1.485   0.271  15.656  2.7460  2.0661  0.5020
   31TMC2    H2  489   1.250   0.432  15.984  0.1145  1.3918  0.2595
   31TMC2    C7  490   1.466   0.302  15.934  0.8195 -0.7242  0.0812
   31TMC2    C8  491   1.085   0.565  15.830  0.9287  0.7085 -0.4684
   31TMC2    O1  492   1.512   0.189  15.918 -0.0208 -0.1613  0.1415
   31TMC2    O2  493   0.996   0.592  15.752  0.2571  0.4231  0.8148
   31TMC2    O5  494   1.137   0.655  15.916  0.1170  0.7029 -0.3589
   31TMC2    H5  495   1.228   0.635  15.946  0.0920  1.5377  0.2394
   32MPD2     C  496   1.729   0.544  15.123  0.7610  0.2586  0.1925
   32MPD2    C1  497   1.598   0.533  15.106  0.7124  0.0482 -0.1189
   32MPD2    C2  498   1.518   0.489  15.215  0.2568  0.1960  0.1268
   32MPD2    C3  499   1.568   0.466  15.344  0.0941 -0.0572 -0.2834
   32MPD2    C4  500   1.708   0.487  15.358  0.1519 -0.9104 -0.2377
   32MPD2    C5  501   1.786   0.515  15.246  0.4146 -0.6629  0.3762
   32MPD2     H  502   1.410   0.477  15.208  0.4524 -0.6899 -1.3537
   32MPD2    H1  503   1.753   0.477  15.456 -2.1777  0.8699  1.0023
   32MPD2    H2  504   1.789   0.573  15.038 -1.4610  2.5789 -0.5784
   32MPD2    H3  505   1.893   0.512  15.262  0.4112  0.2638  0.5686
   32MPD2     N  506   1.499   0.422  15.454  0.3807  0.2552 -0.3799
   32MPD2    H5  507   1.542   0.424  15.546  0.4646 -0.2343 -0.4123
   32MPD2    N1  508   1.539   0.565  14.980  0.5014 -0.5289  0.1221
   32MPD2    H7  509   1.608   0.596  14.912 -1.0405  1.0097 -0.7517
   33TMC2    C1  510   0.861   3.415  10.623 -0.0161  0.1892 -0.2512
   33TMC2    C2  511   0.726   3.410  10.649  0.0704 -0.4238  0.3734
   33TMC2    C3  512   0.648   3.499  10.590 -0.3165  0.2793  1.1067
   33TMC2    C4  513   0.913   3.500  10.526  0.0856  0.1264  0.1601
   33TMC2    C5  514   0.832   3.600  10.487  0.3656 -0.2205 -0.6455
   33TMC2    C6  515   0.698   3.600  10.519  1.0167  0.8148 -0.3609
   33TMC2     C  516   0.944   3.310  10.678 -0.0497 -0.1646 -0.3987
   33TMC2     O  517   0.899   3.205  10.718 -0.3748 -0.1069  0.0714
   33TMC2     H  518   0.687   3.325  10.703  0.1696 -0.5996  0.1705
   33TMC2    H1  519   1.020   3.497  10.509  0.4174 -3.2746  2.7761
   33TMC2    H2  520   0.649   3.697  10.516  0.2669  0.4821  1.0485
   33TMC2    C7  521   0.861   3.651  10.350  0.9351  0.0735 -0.2433
   33TMC2    C8  522   0.515   3.499  10.639 -0.1265  0.4841 -0.1518
   33TMC2    O1  523   0.966   3.618  10.298 -0.7514 -0.1941 -0.2928
   33TMC2    O2  524   0.487   3.426  10.732 -0.6279  0.5122  0.2735
   33TMC2    O5  525   0.431   3.570  10.569 -0.3679 -0.3895 -0.0221
   33TMC2    H5  526   0.480   3.624  10.503 -0.2261 -1.6819 -0.9791
   34MPD2     C  527   1.419   3.189  10.832 -0.4247  0.7556  0.1120
   34MPD2    C1  528   1.308   3.110  10.797  0.2254 -0.6149  0.6681
   34MPD2    C2  529   1.189   3.163  10.764 -0.3648  0.6757  0.4629
   34MPD2    C3  530   1.180   3.305  10.760  0.3614  0.2242  0.5834
   34MPD2    C4  531   1.286   3.387  10.781  0.8251  0.1659 -0.0179
   34MPD2    C5  532   1.403   3.327  10.821  0.2831 -0.0523 -0.0952
   34MPD2     H  533   1.099   3.106  10.746 -0.6598  1.1478  0.4173
   34MPD2    H1  534   1.275   3.495  10.784  0.1046  0.0655  1.4002
   34MPD2    H2  535   1.519   3.164  10.865 -0.2673  0.5753 -0.5056
   34MPD2    H3  536   1.490   3.391  10.831  0.7620 -0.6809 -0.2041
   34MPD2     N  537   1.057   3.378  10.719  0.7488 -0.5693  0.5660
   34MPD2    H5  538   1.057   3.479  10.718 -2.2373 -0.5917 -1.1126
   34MPD2    N1  539   1.326   2.966  10.804 -0.2053  0.1530  0.1718
   34MPD2    H7  540   1.412   2.931  10.844 -0.3605  0.2336  0.5843
   35TMC2    C1  541   2.177   4.363  11.292 -0.5745  0.5458  0.3651
   35TMC2    C2  542   2.058   4.424  11.269 -0.0593 -0.2786  0.1476
   35TMC2    C3  543   1.941   4.358  11.294 -0.0117  0.2467 -0.0596
   35TMC2    C4  544   2.183   4.235  11.342 -0.3757  0.6811  0.2160
   35TMC2    C5  545   2.061   4.181  11.374  0.2975 -0.3118 -0.6093
   35TMC2    C6  546   1.943   4.231  11.343  0.0459  0.7613  0.3411
   35TMC2     C  547   2.291   4.444  11.293  0.3240 -0.6830 -0.2113
   35TMC2     O  548   2.275   4.554  11.248  0.0250 -0.8948  0.1397
   35TMC2     H  549   2.048   4.525  11.231 -1.8680 -1.3862 -2.3519
   35TMC2    H1  550   2.271   4.172  11.341 -0.7426  0.1748  0.5051
   35TMC2    H2  551   1.851   4.174  11.329 -0.7206  1.7114  1.4967
   35TMC2    C7  552   2.048   4.040  11.411  0.2756  0.2645 -0.6243
   35TMC2    C8  553   1.820   4.402  11.234  0.1682 -0.5822 -0.4777
   35TMC2    O1  554   1.938   3.995  11.435  0.2114  0.0619  0.4906
   35TMC2    O2  555   1.810   4.495  11.156 -0.0614 -0.1951  0.2334
   35TMC2    O5  556   1.717   4.365  11.321 -0.5317 -0.1640  0.0680
   35TMC2    H5  557   1.742   4.305  11.394  0.1859 -0.0677 -0.0971
   36MPD2     C  558   2.732   4.624  11.474  0.1130  0.2512 -0.2514
   36MPD2    C1  559   2.708   4.502  11.541 -0.1183 -0.5696 -0.5961
   36MPD2    C2  560   2.603   4.429  11.496 -0.6601  0.6440  1.1537
   36MPD2    C3  561   2.521   4.462  11.388  0.3975 -0.2209  0.1019
   36MPD2    C4  562   2.543   4.590  11.333 -0.6412  0.2892  0.0417
   36MPD2    C5  563   2.650   4.663  11.366  0.0719  0.1758  0.0694
   36MPD2     H  564   2.581   4.335  11.545 -0.3673 -0.4784 -0.8818
   36MPD2    H1  565   2.491   4.623  11.244  0.6285 -1.3960 -1.3262
   36MPD2    H2  566   2.812   4.691  11.503  0.2152  0.1848 -0.3778
   36MPD2    H3  567   2.669   0.019  11.314 -0.3113 -0.4101 -1.1184
   36MPD2     N  568   2.399   4.391  11.369 -0.2338  0.2377  0.0747
   36MPD2    H5  569   2.395   4.305  11.424 -0.9469  0.9848  1.1773
   36MPD2    N1  570   2.790   4.470  11.650 -0.0995 -0.1153  0.5118
   36MPD2    H7  571   2.857   4.536  11.688  1.2141 -0.3467 -1.4018
   37TMC2    C1  572   0.250   4.592  12.072 -0.5466  0.6812  0.0124
   37TMC2    C2  573   0.131   4.628  12.015 -1.1942 -0.8588  0.1902
   37TMC2    C3  574   0.117   4.617  11.880 -0.2661  0.3205 -0.2009
   37TMC2    C4  575   0.358   4.544  12.000  1.2380 -0.1505  0.2945
   37TMC2    C5  576   0.344   4.531  11.866 -0.0496  1.3718 -1.0559
   37TMC2    C6  577   0.221   4.553  11.809 -0.2771  0.6302 -1.3115
   37TMC2     C  578   0.248   4.583  12.218  0.3915 -0.2980 -0.2859
   37TMC2     O  579   0.155   4.640  12.279 -0.3679  0.4282  0.1293
   37TMC2     H  580   0.055   4.674  12.079 -0.9258 -0.0762 -0.0514
   37TMC2    H1  581   0.451   4.522  12.051  0.4309 -1.1717  1.3288
   37TMC2    H2  582   0.214   4.517  11.707  2.2283  2.4366 -2.1259
   37TMC2    C7  583   0.414   4.418  11.811  0.5442 -0.0085  0.6421
   37TMC2    C8  584   0.010   4.683  11.808  0.3550 -0.1423 -0.3227
   37TMC2    O1  585   0.533   4.420  11.823  0.2573 -0.6003 -0.5906
   37TMC2    O2  586   4.651   4.731  11.863  0.0970  0.4669  0.4247
   37TMC2    O5  587   0.046   4.697  11.679 -0.2355  0.0652  0.0114
   37TMC2    H5  588   0.140   4.684  11.656  0.0025 -1.9094  2.0831
   38MPD2     C  589   0.499   4.459  12.641  0.5693  0.0860  0.4228
   38MPD2    C1  590   0.544   4.372  12.548 -0.0064 -0.2112 -0.3506
   38MPD2    C2  591   0.483   4.383  12.424 -0.6533 -0.1196  0.3578
   38MPD2    C3  592   0.381   4.481  12.406 -1.1129  0.2165 -0.0225
   38MPD2    C4  593   0.336   4.562  12.506  0.4527 -0.7223  0.1075
   38MPD2    C5  594   0.397   4.547  12.627  0.5455  0.6229 -0.3835
   38MPD2     H  595   0.517   4.314  12.347  1.0090  1.6170 -0.4555
   38MPD2    H1  596   0.260   4.639  12.492 -0.1580 -1.1920  0.8808
   38MPD2    H2  597   0.560   4.460  12.730  1.0695 -0.8160  0.0903
   38MPD2    H3  598   0.388   4.619  12.708  1.2184 -2.0580  2.0748
   38MPD2     N  599   0.346   4.503  12.270  0.3195 -0.3050  0.3487
   38MPD2    H5  600   0.391   4.448  12.197 -2.9351 -0.0408 -1.8662
   38MPD2    N1  601   0.649   4.269  12.561 -0.6009 -0.1835  0.8430
   38MPD2    H7  602   0.664   4.201  12.487 -0.3002 -0.4677  1.1681
   39TMC2    C1  603   3.341   1.143   1.449 -0.8616 -0.8709  0.4043
   39TMC2    C2  604   3.358   1.187   1.577 -0.3976  0.2872  0.1788
   39TMC2    C3  605   3.492   1.203   1.618  0.3380  0.8332 -0.1269
   39TMC2    C4  606   3.449   1.125   1.362  0.4481  0.6059  0.1496
   39TMC2    C5  607   3.573   1.156   1.409 -0.4330 -0.2749 -0.0559
   39TMC2    C6  608   3.597   1.191   1.537 -0.0879 -0.2315 -0.0707
   39TMC2     C  609   3.210   1.131   1.397  0.3146  0.6575 -0.0473
   39TMC2     O  610   3.127   1.215   1.427  0.1208  0.5852 -0.0199
   39TMC2     H  611   3.280   1.190   1.652  1.5256  3.4461  2.0259
   39TMC2    H1  612   3.431   1.084   1.264 -0.6001 -2.6155  1.6914
   39TMC2    H2  613   3.688   1.233   1.578 -0.8163  1.5174 -0.2148
   39TMC2    C7  614   3.687   1.158   1.322 -0.2412 -0.2687 -0.0900
   39TMC2    C8  615   3.517   1.226   1.765  0.4532 -0.1158  0.0042
   39TMC2    O1  616   3.794   1.172   1.372  0.3655 -0.4326  0.2409
   39TMC2    O2  617   3.612   1.291   1.804  0.3353 -0.0822 -0.0253
   39TMC2    O5  618   3.473   1.105   1.816 -0.6266  0.2177  0.1293
   39TMC2    H5  619   3.400   1.059   1.770  1.6865 -1.3409 -2.0073
   40MPD2     C  620   3.163   0.946   1.088  0.4085 -0.0892 -0.3471
   40MPD2    C1  621   3.126   1.031   1.185  0.2403 -0.3012  0.0367
   40MPD2    C2  622   3.021   1.114   1.168 -0.1147 -0.6068 -0.3729
   40MPD2    C3  623   2.953   1.115   1.045 -0.5668  0.2474 -0.2921
   40MPD2    C4  624   2.984   1.022   0.952  0.2401 -0.1760 -0.9886
   40MPD2    C5  625   3.095   0.942   0.972 -0.5391  0.0660 -0.1926
   40MPD2     H  626   2.990   1.187   1.242 -1.3328 -1.5229  0.0276
   40MPD2    H1  627   2.930   1.023   0.858 -0.6186 -0.9459 -0.5044
   40MPD2    H2  628   3.251   0.886   1.105  1.1480  0.9266 -0.6102
   40MPD2    H3  629   3.129   0.879   0.890 -1.4430 -0.7230  0.0441
   40MPD2     N  630   2.863   1.216   1.002 -0.0585  0.6864  0.7643
   40MPD2    H5  631   2.847   1.218   0.902 -0.8068 -1.7577  0.8443
   40MPD2    N1  632   3.208   1.035   1.299  0.0386  0.6449  0.2978
   40MPD2    H7  633   3.290   0.976   1.291 -0.6013  0.0745 -2.1770
   41TMC2    C1  634   2.702   4.581  13.615  0.4878  0.2468  0.3195
   41TMC2    C2  635   2.617   4.677  13.566  0.5209  0.5502 -0.1315
   41TMC2    C3  636   2.572   4.660  13.443 -0.4710 -0.0687 -0.1447
   41TMC2    C4  637   2.750   4.481  13.540 -0.2190  0.2788  0.7974
   41TMC2    C5  638   2.712   4.478  13.406  0.0105  0.1770  0.4666
   41TMC2    C6  639   2.610   4.561  13.358 -0.5519 -0.1621 -0.0163
   41TMC2     C  640   2.740   4.570  13.756  0.5798  0.0005 -0.1966
   41TMC2     O  641   2.853   4.532  13.776  0.3201 -0.0686  0.1091
   41TMC2     H  642   2.578   0.024  13.623  1.1886 -0.4362  1.7681
   41TMC2    H1  643   2.814   4.401  13.575 -1.9891 -1.6896 -0.4420
   41TMC2    H2  644   2.559   4.543  13.264  2.1232  1.5925 -1.8244
   41TMC2    C7  645   2.754   4.366  13.325  0.1182 -0.5121 -0.2914
   41TMC2    C8  646   2.491   0.026  13.390  0.1536  0.0380  0.9151
   41TMC2    O1  647   2.783   4.263  13.378  0.3811 -0.2326 -0.3161
   41TMC2    O2  648   2.426   0.097  13.463 -0.6920 -0.4468 -0.0659
   41TMC2    O5  649   2.537   0.052  13.260 -0.0249 -0.0171 -0.1383
   41TMC2    H5  650   2.622   0.004  13.246  1.1502  1.6438  1.2891
   42MPD2     C  651   2.733   4.653  14.053 -0.0098  0.1163  0.2677
   42MPD2    C1  652   2.627   4.646  13.970 -0.4402 -0.2545 -0.5983
   42MPD2    C2  653   2.499   4.665  14.024 -0.5011 -0.5572  1.0433
   42MPD2    C3  654   2.479   4.693  14.156 -0.0678  0.3740 -0.5603
   42MPD2    C4  655   2.586   4.692  14.237  0.0862  0.2189 -0.2657
   42MPD2    C5  656   2.709   4.686  14.183  0.1910 -0.6232 -0.5534
   42MPD2     H  657   2.420   4.655  13.951 -1.4896  1.2162  1.8605
   42MPD2    H1  658   2.567   4.699  14.343  0.0752 -0.7241 -0.2119
   42MPD2    H2  659   2.836   4.637  14.022 -0.4496 -0.8483 -0.7045
   42MPD2    H3  660   2.789   4.696  14.255 -0.5710  1.5487 -0.0240
   42MPD2     N  661   2.348   4.711  14.206  0.1105 -0.3405  0.7140
   42MPD2    H5  662   2.335   0.010  14.300  1.1403  0.9246  0.3855
   42MPD2    N1  663   2.636   4.611  13.833  0.4290 -0.5073 -0.1654
   42MPD2    H7  664   2.547   4.614  13.785  1.5088 -2.0202 -2.2911
   43TMC2    C1  665   3.452   2.715   0.535  0.1653  0.2549  0.0832
   43TMC2    C2  666   3.347   2.760   0.614  0.6960  0.4638  0.3079
   43TMC2    C3  667   3.368   2.879   0.682 -0.8422  0.4950 -0.0544
   43TMC2    C4  668   3.572   2.782   0.527  0.1181  0.0935  0.8297
   43TMC2    C5  669   3.584   2.905   0.593  0.3070 -0.0181 -0.4857
   43TMC2    C6  670   3.484   2.953   0.673 -1.2030  0.4662 -0.5110
   43TMC2     C  671   3.442   2.604   0.443  0.4438 -0.2376  0.5187
   43TMC2     O  672   3.538   2.568   0.379  0.0732 -0.4922  0.5852
   43TMC2     H  673   3.263   2.697   0.640 -0.0848 -0.1362 -3.6555
   43TMC2    H1  674   3.657   2.748   0.469 -1.8740 -2.6505 -0.4714
   43TMC2    H2  675   3.495   3.044   0.730 -0.5977  0.8205 -1.1991
   43TMC2    C7  676   3.720   2.948   0.601  0.3752  0.3358 -0.1958
   43TMC2    C8  677   3.254   2.939   0.736 -0.4383 -0.2678 -0.5309
   43TMC2    O1  678   3.784   2.938   0.499  0.3875 -0.3392  0.0240
   43TMC2    O2  679   3.144   2.904   0.699 -0.2766  0.1055  0.4578
   43TMC2    O5  680   3.282   2.993   0.859 -0.4567 -0.0179  0.7956
   43TMC2    H5  681   3.376   2.987   0.889  0.1255  0.7754 -0.8961
   44MPD2     C  682   3.162   2.225   0.248 -0.3372  0.0261  0.2549
   44MPD2    C1  683   3.295   2.256   0.229 -0.1378  0.2003 -0.0641
   44MPD2    C2  684   3.341   2.378   0.275  0.1902 -0.3914 -0.1647
   44MPD2    C3  685   3.262   2.457   0.361  0.2737 -0.6175  0.0658
   44MPD2    C4  686   3.126   2.424   0.375  0.1378  0.1222 -0.9031
   44MPD2    C5  687   3.077   2.312   0.309  0.0731 -0.2004 -0.4316
   44MPD2     H  688   3.450   2.378   0.271  0.2310  1.4392  1.1039
   44MPD2    H1  689   3.062   2.481   0.441  1.1250  0.0776  0.0850
   44MPD2    H2  690   3.110   2.133   0.224 -2.0659  0.9517  0.4275
   44MPD2    H3  691   2.984   2.264   0.337  1.4811 -2.3824  0.5005
   44MPD2     N  692   3.311   2.554   0.446 -0.4743 -0.2035  0.3260
   44MPD2    H5  693   3.241   2.579   0.515 -0.0964 -0.6692  0.8772
   44MPD2    N1  694   3.387   2.167   0.178 -0.3681 -0.1808  0.0111
   44MPD2    H7  695   3.482   2.201   0.167 -0.1747 -1.1272 -1.1795
   45TMC2    C1  696   4.157   4.713   9.896 -0.1888  0.3093 -0.2654
   45TMC2    C2  697   4.052   4.658   9.829  0.4040  0.3386 -0.4620
   45TMC2    C3  698   3.975   4.733   9.743 -0.2826  1.2090 -0.2050
   45TMC2    C4  699   4.182   0.114   9.875 -0.9001 -0.6863  0.4198
   45TMC2    C5  700   4.107   0.180   9.788 -0.4269 -0.0310 -0.6052
   45TMC2    C6  701   4.002   0.127   9.716 -0.2270 -0.3392 -0.7302
   45TMC2     C  702   4.210   4.652  10.010 -0.0472  0.0774  0.5584
   45TMC2     O  703   4.301   4.713  10.058  0.4237 -0.8427  0.2071
   45TMC2     H  704   4.031   4.552   9.833 -0.8388  0.5991 -0.0901
   45TMC2    H1  705   4.248   0.164   9.945 -0.4171 -0.6787 -0.0354
   45TMC2    H2  706   3.930   0.183   9.657 -1.0011 -2.2325 -1.5608
   45TMC2    C7  707   4.147   0.327   9.773  0.1467  0.5066  0.3618
   45TMC2    C8  708   3.862   4.659   9.690 -0.6081 -0.4020  0.1889
   45TMC2    O1  709   4.263   0.353   9.807 -0.1890 -0.3620 -0.8045
   45TMC2    O2  710   3.789   4.589   9.761 -0.3700 -0.4639  0.4298
   45TMC2    O5  711   3.826   4.732   9.582  0.1198 -0.2502 -0.2841
   45TMC2    H5  712   3.904   0.037   9.540 -1.9441  1.9727 -1.9141
   46MPD2     C  713   4.335   4.432  10.140 -0.5239  0.2539  0.0498
   46MPD2    C1  714   4.197   4.444  10.124 -0.0748  0.7252 -0.1133
   46MPD2    C2  715   4.114   4.351  10.172  0.4543 -0.3309  0.2994
   46MPD2    C3  716   4.171   4.237  10.228 -0.5825 -0.2520 -0.0758
   46MPD2    C4  717   4.306   4.226  10.251  0.0336  0.3138 -0.5966
   46MPD2    C5  718   4.383   4.328  10.211  0.4286  1.0402  0.1106
   46MPD2     H  719   4.007   4.362  10.163  0.6904  2.0457  0.3832
   46MPD2    H1  720   4.352   4.137  10.290 -1.3439 -1.0597 -2.0585
   46MPD2    H2  721   4.406   4.503  10.098 -0.9143  0.7669  0.2657
   46MPD2    H3  722   4.489   4.330  10.232  1.0002 -2.3611 -2.5500
   46MPD2     N  723   4.078   4.132  10.257 -0.2074  0.0278 -0.0155
   46MPD2    H5  724   3.980   4.139  10.231  0.2394  2.0323 -1.0855
   46MPD2    N1  725   4.137   4.543  10.045 -0.5382 -0.1064 -0.8119
   46MPD2    H7  726   4.055   4.513   9.993  0.4411  0.0363 -2.4393
   47TMC2    C1  727   1.101   4.486   8.305  0.0116 -0.0873 -0.2157
   47TMC2    C2  728   1.108   4.600   8.235 -0.1774  0.0273  0.0715
   47TMC2    C3  729   1.153   4.711   8.311 -0.3098  0.0109  0.3792
   47TMC2    C4  730   1.116   4.466   8.434 -0.8008 -0.2443  0.0641
   47TMC2    C5  731   1.160   4.575   8.500  0.4613 -0.8998 -0.1875
   47TMC2    C6  732   1.183   4.695   8.440  0.7820 -0.2976 -0.4759
   47TMC2     C  733   1.073   4.367   8.223  0.2531 -0.1296 -0.3722
   47TMC2     O  734   1.006   4.381   8.120  0.1494 -0.2922  0.0273
   47TMC2     H  735   1.090   4.608   8.128 -2.3299  0.8606  0.4930
   47TMC2    H1  736   1.109   4.369   8.483  1.0647 -0.4006  0.0321
   47TMC2    H2  737   1.211   0.044   8.501  0.9122 -0.2826 -0.5568
   47TMC2    C7  738   1.158   4.581   8.639 -0.1969  0.4707 -0.6168
   47TMC2    C8  739   1.213   0.088   8.250 -0.6049  0.3171 -0.2158
   47TMC2    O1  740   1.107   4.683   8.688 -0.1567  0.6279  0.0012
   47TMC2    O2  741   1.285   0.168   8.301 -0.2435  0.1463 -0.4756
   47TMC2    O5  742   1.175   0.090   8.123  0.4894 -0.0429  0.1460
   47TMC2    H5  743   1.096   0.038   8.095  0.5559  0.6443 -1.2810
   48MPD2     C  744   1.049   4.080   8.119 -0.3194 -0.1780  0.9660
   48MPD2    C1  745   1.120   4.124   8.232 -0.4255  0.4182 -0.2256
   48MPD2    C2  746   1.168   4.026   8.316  0.3945  0.6944 -0.1378
   48MPD2    C3  747   1.158   3.891   8.272  0.3165 -0.0399 -0.4819
   48MPD2    C4  748   1.085   3.853   8.162  0.2224 -0.0398  0.1986
   48MPD2    C5  749   1.036   3.949   8.079 -0.1352  0.0204  0.0219
   48MPD2     H  750   1.213   4.055   8.410  0.9263  0.3202 -0.2762
   48MPD2    H1  751   1.071   3.751   8.128  3.8650 -1.7241  3.8115
   48MPD2    H2  752   1.021   4.158   8.050 -0.0123  0.7707  1.9095
   48MPD2    H3  753   0.983   3.919   7.990  1.0923 -1.2942 -0.2794
   48MPD2     N  754   1.201   3.784   8.347  0.3172 -0.6148  0.4612
   48MPD2    H5  755   1.180   3.688   8.321 -1.4259  0.0292 -0.4353
   48MPD2    N1  756   1.127   4.259   8.277  0.0480 -0.5416  0.1108
   48MPD2    H7  757   1.175   4.285   8.363 -1.1933 -2.3937  1.3780
   49TMC2    C1  758   0.210   2.332  10.372 -0.3121 -0.3003  0.7066
   49TMC2    C2  759   0.241   2.257  10.265  0.3332  0.1398 -0.5375
   49TMC2    C3  760   0.206   2.128  10.275  0.1176 -0.4334 -0.8200
   49TMC2    C4  761   0.149   2.284  10.492  0.2926 -0.5333  0.2560
   49TMC2    C5  762   0.110   2.157  10.485  0.2894  0.5055  0.5510
   49TMC2    C6  763   0.128   2.074  10.375  0.3027  0.1562  0.2312
   49TMC2     C  764   0.250   2.466  10.378 -0.7883  0.3278  0.1793
   49TMC2     O  765   0.269   2.507  10.262 -0.3241  0.4167 -0.6468
   49TMC2     H  766   0.301   2.288  10.181  0.1992 -1.3552 -1.1893
   49TMC2    H1  767   0.122   2.345  10.577  1.6079 -0.2837  0.5029
   49TMC2    H2  768   0.105   1.968  10.369  2.0382 -0.1894 -0.2972
   49TMC2    C7  769   0.059   2.087  10.601  0.1647 -0.0199  0.0434
   49TMC2    C8  770   0.206   2.057  10.148  0.2859  0.0862  0.7535
   49TMC2    O1  771   4.732   1.988  10.564  0.1931  0.1023 -0.7128
   49TMC2    O2  772   0.300   2.067  10.072  0.8243 -0.3076  0.2722
   49TMC2    O5  773   0.078   2.059  10.107  0.4610  0.4049 -0.0456
   49TMC2    H5  774   0.015   2.075  10.180  2.0770 -0.3968  1.5264
   50MPD2     C  775   0.296   2.757  10.434 -0.2556 -0.0698  0.4501
   50MPD2    C1  776   0.272   2.662  10.533  0.2940 -0.3617  0.2570
   50MPD2    C2  777   0.259   2.712  10.663 -0.1711  0.2692 -0.4811
   50MPD2    C3  778   0.274   2.850  10.689 -0.0898 -0.1325 -0.1884
   50MPD2    C4  779   0.303   2.940  10.585  1.4860 -0.5702  0.5460
   50MPD2    C5  780   0.319   2.893  10.463  0.0504 -0.6946  0.4405
   50MPD2     H  781   0.231   2.638  10.737 -0.3141  1.0580  0.2483
   50MPD2    H1  782   0.323   3.045  10.604 -1.6065 -0.6291  4.0056
   50MPD2    H2  783   0.315   2.740  10.329  0.6487  1.0913  0.4344
   50MPD2    H3  784   0.350   2.956  10.381 -3.6333  0.9269  0.3078
   50MPD2     N  785   0.239   2.911  10.809 -0.5438  0.1407  0.1128
   50MPD2    H5  786   0.217   3.010  10.804  1.0651  0.5192  0.7178
   50MPD2    N1  787   0.257   2.524  10.506  0.3586  0.0098 -0.3124
   50MPD2    H7  788   0.240   2.460  10.584 -1.8105  0.1927 -0.6334
   51TMC2    C1  789   1.875   1.126   1.745 -0.3804  0.3637  0.3498
   51TMC2    C2  790   1.963   1.095   1.850  0.3733 -0.2589  0.0219
   51TMC2    C3  791   1.933   1.161   1.969  0.0113 -0.0927 -0.2624
   51TMC2    C4  792   1.772   1.217   1.764 -0.7038  0.5057  0.6018
   51TMC2    C5  793   1.752   1.281   1.882 -0.3102 -0.3784 -0.6512
   51TMC2    C6  794   1.837   1.258   1.987 -0.0061  0.4004  1.0080
   51TMC2     C  795   1.863   1.031   1.638  0.0262 -0.6017  0.8083
   51TMC2     O  796   1.800   1.058   1.539  0.1099  0.4690  0.0128
   51TMC2     H  797   2.047   1.027   1.847 -1.4997 -2.5007 -1.4785
   51TMC2    H1  798   1.703   1.230   1.681  0.0359 -3.1747 -0.6094
   51TMC2    H2  799   1.817   1.306   2.082 -3.4590 -1.3377  1.1872
   51TMC2    C7  800   1.625   1.358   1.905 -0.1319 -0.1028 -0.5070
   51TMC2    C8  801   2.023   1.133   2.076  0.1954  0.5205  0.4585
   51TMC2    O1  802   1.617   1.431   2.001  0.3028 -0.0830 -0.0269
   51TMC2    O2  803   2.122   1.059   2.062 -0.3178 -0.4972 -0.1328
   51TMC2    O5  804   1.945   1.121   2.182  0.2274  0.0137 -0.0405
   51TMC2    H5  805   1.849   1.113   2.163 -0.1356  2.3905  0.8412
   52MPD2     C  806   1.970   0.551   1.498 -0.2183  0.5165  0.5745
   52MPD2    C1  807   1.882   0.641   1.437  0.2209 -0.1985 -0.8795
   52MPD2    C2  808   1.874   0.767   1.495  0.2533 -0.3408 -0.4417
   52MPD2    C3  809   1.933   0.797   1.612  0.0477  0.4503  0.3900
   52MPD2    C4  810   2.012   0.701   1.676  0.4542 -0.2570 -0.2756
   52MPD2    C5  811   2.034   0.584   1.608  0.0938 -0.9894  0.4536
   52MPD2     H  812   1.819   0.844   1.442 -0.1193 -0.5063 -0.2886
   52MPD2    H1  813   2.068   0.718   1.766  0.3777  0.4917 -0.3686
   52MPD2    H2  814   2.016   0.469   1.444  1.4083  1.5075  0.4375
   52MPD2    H3  815   2.100   0.511   1.654  0.6509 -0.3350  0.6840
   52MPD2     N  816   1.920   0.919   1.674 -0.2136 -0.3368 -0.2273
   52MPD2    H5  817   1.960   0.919   1.767  1.6520  0.2071 -1.0290
   52MPD2    N1  818   1.806   0.606   1.325 -0.1095  0.9066  0.4724
   52MPD2    H7  819   1.749   0.682   1.290 -0.4284  1.2011  1.6314
   53TMC2    C1  820   0.816   3.822  11.887  0.2103 -0.9345  0.6929
   53TMC2    C2  821   0.903   3.719  11.861  0.2234 -0.0458 -0.0431
   53TMC2    C3  822   1.022   3.716  11.933 -0.3542 -0.4946 -0.9570
   53TMC2    C4  823   0.848   3.926  11.973  0.2533 -0.1275 -0.1063
   53TMC2    C5  824   0.966   3.922  12.043 -0.7557 -0.0762 -0.1987
   53TMC2    C6  825   1.053   3.818  12.023  0.5670 -0.3682 -0.5780
   53TMC2     C  826   0.688   3.838  11.817  0.0936  0.4350  0.0664
   53TMC2     O  827   0.647   3.730  11.776 -0.3832  0.4484 -0.4572
   53TMC2     H  828   0.872   3.641  11.793  1.6457 -0.8816  0.2789
   53TMC2    H1  829   0.776   4.000  12.005  0.3429 -0.3657  0.6650
   53TMC2    H2  830   1.153   3.805  12.062  0.4701  2.0149  0.4781
   53TMC2    C7  831   0.974   4.001  12.160 -1.1840  1.0767 -0.5224
   53TMC2    C8  832   1.136   3.645  11.885  0.3906  0.2265 -0.1706
   53TMC2    O1  833   0.872   4.060  12.195 -0.1980  0.0259  0.6374
   53TMC2    O2  834   1.252   3.692  11.878  0.3333  0.0035  0.3660
   53TMC2    O5  835   1.096   3.529  11.828  0.4661 -0.0400  0.9603
   53TMC2    H5  836   1.011   3.491  11.857  0.3240 -0.3203  0.1686
   54MPD2     C  837   0.415   3.902  11.771  0.0006 -0.5582  0.4974
   54MPD2    C1  838   0.521   3.995  11.784 -0.1716  0.2115 -0.0328
   54MPD2    C2  839   0.480   4.127  11.784  0.3409 -0.0836  0.2593
   54MPD2    C3  840   0.356   4.179  11.764 -0.3617  0.2058 -0.1043
   54MPD2    C4  841   0.258   4.085  11.741 -0.6970  0.2401 -0.1318
   54MPD2    C5  842   0.288   3.949  11.749  0.2471 -0.0829 -0.8459
   54MPD2     H  843   0.559   4.195  11.814 -1.4065  1.5892  1.1186
   54MPD2    H1  844   0.153   4.109  11.734  0.0532  3.1367 -1.2494
   54MPD2    H2  845   0.437   3.798  11.791  1.6109 -0.4023 -0.4441
   54MPD2    H3  846   0.203   3.885  11.732 -1.4392  1.7564  0.6957
   54MPD2     N  847   0.321   4.312  11.783  0.3276 -0.1391  0.1423
   54MPD2    H5  848   0.221   4.332  11.778  0.3892  0.2316  0.3771
   54MPD2    N1  849   0.654   3.964  11.808 -0.1886  0.1923  0.4178
   54MPD2    H7  850   0.706   4.047  11.836 -1.5249  0.9861  0.5802
   55TMC2    C1  851   1.712   2.474   0.229 -0.7671  0.6329  0.1196
   55TMC2    C2  852   1.684   2.416   0.112  0.0682 -0.0747 -0.9887
   55TMC2    C3  853   1.697   2.280   0.102  0.2984 -0.0124  0.2280
   55TMC2    C4  854   1.741   2.411   0.346 -0.5322 -0.3087 -0.8432
   55TMC2    C5  855   1.747   2.274   0.337  0.6334 -0.6792 -0.4530
   55TMC2    C6  856   1.731   2.210   0.212 -0.3317  0.0793  0.0024
   55TMC2     C  857   1.690   2.618   0.253 -0.5344  0.0610 -0.9419
   55TMC2     O  858   1.661   2.660   0.365 -0.5404 -0.2176  0.0537
   55TMC2     H  859   1.649   2.483   0.036 -1.8292  1.3564  1.1476
   55TMC2    H1  860   1.775   2.466   0.433 -0.3382  0.6833 -1.5524
   55TMC2    H2  861   1.724   2.102   0.214 -1.0932  0.1279  0.1173
   55TMC2    C7  862   1.748   2.187   0.449  0.0488  0.0089 -0.5468
   55TMC2    C8  863   1.634   2.217  17.737 -0.3149  0.0496  0.2702
   55TMC2    O1  864   1.748   2.066   0.434  0.3141 -0.3462  0.0772
   55TMC2    O2  865   1.657   2.103  17.702  0.2470  0.1500  0.0453
   55TMC2    O5  866   1.507   2.261  17.732 -0.2803 -0.3262  0.0110
   55TMC2    H5  867   1.491   2.335   0.049 -1.1876 -0.8062  0.3532
   56MPD2     C  868   1.676   2.869  17.723  0.0678  0.3862 -0.0033
   56MPD2    C1  869   1.659   2.826   0.107 -0.0233  0.0136 -0.0887
   56MPD2    C2  870   1.614   2.914   0.208  0.0950  0.6759 -1.2942
   56MPD2    C3  871   1.586   3.043   0.168 -0.0540  0.1248 -0.5653
   56MPD2    C4  872   1.598   3.091   0.040 -0.0389 -0.0710 -0.2747
   56MPD2    C5  873   1.639   3.001  17.691 -0.9002  0.3284 -0.4589
   56MPD2     H  874   1.595   2.872   0.306  3.7956  0.5899 -0.6317
   56MPD2    H1  875   1.577   3.194   0.014 -0.5313  0.2599  1.4912
   56MPD2    H2  876   1.708   2.795  17.651  0.3641  1.9346 -1.4802
   56MPD2    H3  877   1.652   3.035  17.589  0.5179 -0.9886 -0.7254
   56MPD2     N  878   1.527   3.117   0.271 -0.5177  0.3498 -0.1932
   56MPD2    H5  879   1.548   3.083   0.364 -0.3175  0.2732 -0.2667
   56MPD2    N1  880   1.700   2.690   0.132  0.6065 -0.7335 -0.0942
   56MPD2    H7  881   1.750   2.651   0.053  0.0728  0.6938 -1.1411
   57TMC2    C1  882   0.890   2.999  13.334 -0.1835  0.1623 -0.3595
   57TMC2    C2  883   0.919   2.872  13.369 -0.3576 -0.2266  0.2300
   57TMC2    C3  884   1.032   2.820  13.328  0.0365 -0.1653  0.0509
   57TMC2    C4  885   0.970   3.081  13.256  0.8217  0.1809  1.0977
   57TMC2    C5  886   1.087   3.022  13.214  0.1898  0.2264  0.2496
   57TMC2    C6  887   1.124   2.894  13.255  0.2362 -0.5389 -0.6730
   57TMC2     C  888   0.786   3.060  13.399 -0.5553 -0.2444  0.4103
   57TMC2     O  889   0.805   3.122  13.502  0.0327 -0.2208 -0.1436
   57TMC2     H  890   0.848   2.814  13.427 -0.6937 -0.4411 -0.4019
   57TMC2    H1  891   0.950   3.187  13.248  0.9153  0.1111 -0.0218
   57TMC2    H2  892   1.224   2.853  13.242  0.5997  0.4745 -1.0644
   57TMC2    C7  893   1.176   3.100  13.134 -0.2830 -0.1824 -0.3212
   57TMC2    C8  894   1.060   2.692  13.394 -0.7454  0.5764 -0.7589
   57TMC2    O1  895   1.142   3.210  13.102 -0.3623  0.3555 -0.0481
   57TMC2    O2  896   1.017   2.671  13.504  0.2372  0.2026  0.0034
   57TMC2    O5  897   1.163   2.628  13.331 -0.1901 -0.2687  0.5087
   57TMC2    H5  898   1.177   2.650  13.237 -1.9145  1.2079  0.5966
   58MPD2     C  899   0.282   3.060  13.530 -0.0295  1.4512 -0.5642
   58MPD2    C1  900   0.395   3.101  13.601  0.4665 -0.0654  0.2021
   58MPD2    C2  901   0.522   3.082  13.547 -0.2971  0.0495  1.1854
   58MPD2    C3  902   0.544   3.031  13.417  0.5243  0.7842 -0.0196
   58MPD2    C4  903   0.427   2.979  13.354  0.4105 -0.0279 -0.4784
   58MPD2    C5  904   0.302   2.996  13.411 -0.9006  0.2288  0.1578
   58MPD2     H  905   0.611   3.102  13.606 -0.2257 -2.2061  1.8309
   58MPD2    H1  906   0.436   2.922  13.262 -0.9154  0.6817 -1.0356
   58MPD2    H2  907   0.184   3.064  13.576  0.0041 -1.2075 -0.2838
   58MPD2    H3  908   0.220   2.955  13.353 -0.1188  1.8774 -2.1112
   58MPD2     N  909   0.666   3.014  13.350 -0.8872  0.2332  0.3586
   58MPD2    H5  910   0.662   2.960  13.264 -0.2788 -0.3500  0.6892
   58MPD2    N1  911   0.385   3.168  13.728  0.7574 -0.2783 -0.9550
   58MPD2    H7  912   0.466   3.213  13.768 -1.4773 -0.1365  3.4381
   59TMC2    C1  913   3.546   3.655  12.530  0.1716 -0.2355 -0.0115
   59TMC2    C2  914   3.547   3.548  12.620 -0.9055  0.4065 -0.1204
   59TMC2    C3  915   3.495   3.430  12.573 -0.8737  0.0833 -0.4690
   59TMC2    C4  916   3.468   3.653  12.417 -0.0731  0.2715  0.2847
   59TMC2    C5  917   3.399   3.537  12.382  0.0544  0.4227 -0.7322
   59TMC2    C6  918   3.427   3.423  12.453 -0.0819 -1.0371 -0.4998
   59TMC2     C  919   3.594   3.786  12.579  0.0518  0.9798  0.5780
   59TMC2     O  920   3.548   3.884  12.523  0.6638 -0.2229  0.1172
   59TMC2     H  921   3.606   3.538  12.710  2.3442 -1.6725 -2.4726
   59TMC2    H1  922   3.452   3.741  12.356  4.7242 -0.1406 -1.6220
   59TMC2    H2  923   3.383   3.332  12.414 -0.1148 -0.7131 -1.2315
   59TMC2    C7  924   3.339   3.534  12.252  0.6006  0.3517  0.0951
   59TMC2    C8  925   3.523   3.317  12.646 -0.1591 -0.0151  0.1552
   59TMC2    O1  926   3.319   3.421  12.214  0.0362 -0.0280  0.1929
   59TMC2    O2  927   3.559   3.327  12.763 -0.0383 -0.4623  0.0353
   59TMC2    O5  928   3.534   3.209  12.570 -0.1248  0.6056  0.0258
   59TMC2    H5  929   3.525   3.233  12.475 -0.5685  1.2439  0.2238
   60MPD2     C  930   3.655   4.018  12.756 -0.1822 -0.5776  1.1121
   60MPD2    C1  931   3.692   3.891  12.789 -0.1273  0.3575  0.1638
   60MPD2    C2  932   3.749   3.865  12.911 -0.6926 -0.0262  0.1676
   60MPD2    C3  933   3.775   3.965  13.004  0.3942  0.0201  0.2326
   60MPD2    C4  934   3.756   4.100  12.965  0.4821 -0.4728  0.1967
   60MPD2    C5  935   3.693   4.118  12.844 -0.2912 -0.3808 -0.3527
   60MPD2     H  936   3.764   3.764  12.949 -0.0014 -0.6105 -1.6743
   60MPD2    H1  937   3.787   4.186  13.022  2.2902 -1.2824  0.4357
   60MPD2    H2  938   3.621   4.050  12.658 -0.0109  0.0702  1.2641
   60MPD2    H3  939   3.660   4.217  12.817  0.3148 -0.4558 -1.3811
   60MPD2     N  940   3.832   3.932  13.128  0.9207 -0.6499 -0.3309
   60MPD2    H5  941   3.878   3.841  13.130 -0.4802 -1.3654 -0.6394
   60MPD2    N1  942   3.662   3.783  12.702 -0.5129  0.6748 -0.1650
   60MPD2    H7  943   3.690   3.693  12.741  1.5477  1.5473  0.3603
   61TMC2    C1  944   2.587   0.253  16.166  0.3442  0.1682 -0.0287
   61TMC2    C2  945   2.563   0.165  16.270  0.4288  1.3563  0.6510
   61TMC2    C3  946   2.452   0.194  16.348  0.0114 -0.8516 -0.2625
   61TMC2    C4  947   2.506   0.362  16.137  0.7077 -0.4391 -0.4722
   61TMC2    C5  948   2.387   0.360  16.202 -0.1035 -0.6100  0.4601
   61TMC2    C6  949   2.362   0.291  16.321 -0.8163  0.2286 -0.1392
   61TMC2     C  950   2.695   0.223  16.067 -0.2156 -0.3156  0.3091
   61TMC2     O  951   2.788   0.160  16.103  0.2410 -0.0476  0.0384
   61TMC2     H  952   2.640   0.092  16.293 -0.6158  0.0083 -0.1269
   61TMC2    H1  953   2.545   0.449  16.085  2.2227 -0.1581  1.1143
   61TMC2    H2  954   2.267   0.312  16.370  0.3268  0.5251  1.9408
   61TMC2    C7  955   2.291   0.459  16.171 -0.3342  0.1623 -0.7241
   61TMC2    C8  956   2.422   0.092  16.452  0.0787 -0.6386 -0.2605
   61TMC2    O1  957   2.222   0.505  16.263 -0.2571  0.3455 -0.1714
   61TMC2    O2  958   2.473   4.718  16.455  0.2701 -0.9581  0.0920
   61TMC2    O5  959   2.377   0.169  16.551 -0.0185 -0.3344 -0.2335
   61TMC2    H5  960   2.390   0.265  16.538  1.9637 -0.3648  1.7899
   62MPD2     C  961   2.903   0.270  15.859 -0.1439  0.1954  0.4461
   62MPD2    C1  962   2.772   0.292  15.840  0.6723 -0.2852 -0.0166
   62MPD2    C2  963   2.735   0.339  15.717  0.1718  0.3117 -0.1149
   62MPD2    C3  964   2.826   0.362  15.616 -0.8616  0.3861  0.4894
   62MPD2    C4  965   2.965   0.357  15.646  0.0732 -0.2879  0.3130
   62MPD2    C5  966   2.998   0.308  15.768 -0.4397 -0.1545 -1.0254
   62MPD2     H  967   2.629   0.351  15.696 -0.2791 -2.5872  0.5695
   62MPD2    H1  968   3.049   0.384  15.584  1.0195 -1.6985  0.9898
   62MPD2    H2  969   2.945   0.230  15.951 -2.0696  1.6873  1.9681
   62MPD2    H3  970   3.104   0.309  15.791 -1.1240  2.3653  2.0601
   62MPD2     N  971   2.788   0.408  15.487  0.1911  0.1013 -0.2833
   62MPD2    H5  972   2.862   0.459  15.440  0.3770  0.5818  0.5327
   62MPD2    N1  973   2.679   0.285  15.946  0.4438 -0.3422 -0.3563
   62MPD2    H7  974   2.583   0.308  15.925  0.6501  0.9636  0.1259
   63TMC2    C1  975   1.587   0.894  10.262 -0.7584  0.1552 -0.2525
   63TMC2    C2  976   1.516   1.009  10.283 -0.7233 -0.2950 -0.3730
   63TMC2    C3  977   1.498   1.087  10.177  0.3610  0.4796 -0.1046
   63TMC2    C4  978   1.639   0.864  10.137 -0.2515 -0.0570  0.3672
   63TMC2    C5  979   1.620   0.950  10.029  0.1269  0.3979  0.2251
   63TMC2    C6  980   1.549   1.063  10.056 -0.3536 -0.2494 -0.2852
   63TMC2     C  981   1.613   0.812  10.379  0.2906 -0.6314  0.8424
   63TMC2     O  982   1.593   0.865  10.487 -0.2416 -0.2186  0.0326
   63TMC2     H  983   1.459   1.031  10.373 -0.7778 -0.3569 -0.3930
   63TMC2    H1  984   1.682   0.767  10.112 -0.7224 -0.2092  0.1501
   63TMC2    H2  985   1.513   1.125   9.975  0.7083  1.6195  0.6491
   63TMC2    C7  986   1.654   0.908   9.891  0.3420 -0.5099 -0.1785
   63TMC2    C8  987   1.435   1.211  10.192 -0.1506  0.7498  0.4738
   63TMC2    O1  988   1.707   0.797   9.887  0.1711  0.2754  0.4390
   63TMC2    O2  989   1.376   1.260  10.096 -0.2135 -0.0627 -0.7025
   63TMC2    O5  990   1.483   1.272  10.300  0.3539  0.4741 -0.3323
   63TMC2    H5  991   1.569   1.226  10.316  0.9465  1.6775 -0.0648
   64MPD2     C  992   1.846   0.440  10.623 -0.5554 -0.6156  0.9865
   64MPD2    C1  993   1.836   0.400  10.494 -0.1876 -0.7785  0.1990
   64MPD2    C2  994   1.780   0.487  10.397 -0.0056  0.2237 -0.2923
   64MPD2    C3  995   1.749   0.616  10.435 -0.4776 -0.6574  0.2261
   64MPD2    C4  996   1.776   0.655  10.563 -0.3973 -0.2582 -0.3981
   64MPD2    C5  997   1.815   0.567  10.657 -0.1584 -0.3000  0.8127
   64MPD2     H  998   1.763   0.450  10.297  0.3789  1.0022 -0.6417
   64MPD2    H1  999   1.760   0.753  10.609  2.0403 -0.5310  1.0007
   64MPD2    H2 1000   1.875   0.370  10.701 -0.5753  0.5326  2.0095
   64MPD2    H3 1001   1.822   0.609  10.757 -1.6485  2.0415 -0.0717
   64MPD2     N 1002   1.678   0.698  10.344 -0.0595  0.0571 -0.3709
   64MPD2    H5 1003   1.691   0.664  10.249  1.7248  0.7081 -0.3502
   64MPD2    N1 1004   1.897   0.271  10.464 -0.1062  0.7959  0.1384
   64MPD2    H7 1005   1.932   0.216  10.542 -1.3999 -1.8123 -1.1342
   65TMC2    C1 1006   3.615   4.487  15.645  0.1672  0.0129  0.6999
   65TMC2    C2 1007   3.615   4.468  15.511  0.3260 -0.0655  0.8311
   65TMC2    C3 1008   3.608   4.574  15.424 -0.1459  0.5285  0.2144
   65TMC2    C4 1009   3.594   4.612  15.695 -0.1568 -0.3190 -0.0887
   65TMC2    C5 1010   3.571   4.712  15.605 -0.0385  0.0324  0.2901
   65TMC2    C6 1011   3.586   4.698  15.472 -0.1588  0.0191 -0.0987
   65TMC2     C 1012   3.603   4.377  15.730  0.5266 -0.7685 -0.6043
   65TMC2     O 1013   3.617   4.396  15.850  0.5604  0.6530 -0.1850
   65TMC2     H 1014   3.634   4.371  15.466 -0.0049 -0.0680  0.6997
   65TMC2    H1 1015   3.585   4.634  15.801  1.5688 -1.8097  0.3681
   65TMC2    H2 1016   3.577   0.055  15.420  2.1464  0.2882  0.0138
   65TMC2    C7 1017   3.540   0.107  15.659 -0.4516 -0.2144 -0.6726
   65TMC2    C8 1018   3.627   4.572  15.276 -0.7317  0.3692  0.0452
   65TMC2    O1 1019   3.582   0.204  15.603 -0.6457 -0.4153  0.2229
   65TMC2    O2 1020   3.703   4.650  15.218 -0.2969 -0.3086  0.4653
   65TMC2    O5 1021   3.553   4.475  15.222 -0.0218  0.5858  0.6537
   65TMC2    H5 1022   3.508   4.418  15.288 -0.6554  1.3951  0.9157
   66MPD2     C 1023   3.558   4.105  15.845  0.0935  0.5201  0.5882
   66MPD2    C1 1024   3.495   4.158  15.730  0.1275 -0.3504  0.1663
   66MPD2    C2 1025   3.408   4.080  15.658  0.4577  0.0228  0.0262
   66MPD2    C3 1026   3.370   3.957  15.702  0.4793  0.1069  0.2132
   66MPD2    C4 1027   3.417   3.915  15.827  0.2973 -1.2150  0.0904
   66MPD2    C5 1028   3.512   3.986  15.902  0.0231  0.1049  0.4807
   66MPD2     H 1029   3.357   4.121  15.572  2.6281  0.4803 -1.0383
   66MPD2    H1 1030   3.380   3.818  15.857 -0.6574 -0.9079 -0.0777
   66MPD2    H2 1031   3.635   4.161  15.897  0.7083 -0.6830  0.9743
   66MPD2    H3 1032   3.563   3.940  15.987  0.4139 -1.1483 -0.4333
   66MPD2     N 1033   3.279   3.875  15.633  0.8589  0.1927 -0.3242
   66MPD2    H5 1034   3.234   3.799  15.683  2.5538 -0.4636  0.2104
   66MPD2    N1 1035   3.548   4.275  15.670 -0.1363  0.5812  0.0910
   66MPD2    H7 1036   3.520   4.297  15.575  0.1851  0.8516  0.0583
   67TMC2    C1 1037   3.407   3.468  14.317 -0.3397 -0.3274  0.3359
   67TMC2    C2 1038   3.298   3.453  14.404  0.2533  0.6488 -0.0299
   67TMC2    C3 1039   3.310   3.497  14.530 -0.1725  0.0860 -0.1162
   67TMC2    C4 1040   3.536   3.508  14.362  0.1368  0.6506  0.1449
   67TMC2    C5 1041   3.535   3.545  14.494  0.0330  0.2851 -0.3880
   67TMC2    C6 1042   3.427   3.546  14.577 -0.3782  0.5905  0.2798
   67TMC2     C 1043   3.392   3.443  14.175  0.3274 -0.3696 -0.6584
   67TMC2     O 1044   3.497   3.410  14.116 -0.2959 -0.3641  0.1772
   67TMC2     H 1045   3.206   3.411  14.365  0.9183  1.3761 -2.4362
   67TMC2    H1 1046   3.618   3.524  14.293 -2.9873 -0.1088 -3.7130
   67TMC2    H2 1047   3.431   3.559  14.685  1.1094  1.7098  0.0879
   67TMC2    C7 1048   3.660   3.584  14.547  0.0585 -0.0345 -0.9438
   67TMC2    C8 1049   3.206   3.481  14.626 -0.6236 -0.1542 -0.4050
   67TMC2    O1 1050   3.757   3.575  14.471  0.8262 -0.4333  0.4741
   67TMC2    O2 1051   3.154   3.576  14.688  0.1341 -0.1863  0.3030
   67TMC2    O5 1052   3.150   3.362  14.585  0.2114 -0.4982  0.0419
   67TMC2    H5 1053   3.212   3.297  14.547  1.6675  0.2588  1.1273
   68MPD2     C 1054   3.323   3.475  13.886  0.0647  0.3278 -0.2622
   68MPD2    C1 1055   3.242   3.510  13.988  0.2460  0.2586 -0.3428
   68MPD2    C2 1056   3.119   3.559  13.957  0.5558 -0.0084  0.2994
   68MPD2    C3 1057   3.075   3.585  13.825  0.0859  0.1331 -0.2655
   68MPD2    C4 1058   3.158   3.542  13.722  0.4383 -0.9118 -0.3750
   68MPD2    C5 1059   3.284   3.498  13.761 -0.0955  0.3544 -0.5211
   68MPD2     H 1060   3.056   3.580  14.042  0.1446 -1.4281  0.3410
   68MPD2    H1 1061   3.136   3.562  13.618  2.3324  1.3059 -0.3585
   68MPD2    H2 1062   3.417   3.423  13.903 -0.2248  0.3370  1.4031
   68MPD2    H3 1063   3.353   3.469  13.683 -0.4801 -0.3188 -0.6130
   68MPD2     N 1064   2.952   3.652  13.794 -0.4186 -0.4767 -0.4070
   68MPD2    H5 1065   2.935   3.672  13.696  3.5078 -0.7961 -1.1628
   68MPD2    N1 1066   3.270   3.488  14.126 -0.3280  0.7650  0.7545
   68MPD2    H7 1067   3.207   3.523  14.197  0.1062 -0.0544  1.5440
   69TMC2    C1 1068   1.088   0.217  12.508  0.5058  0.8199 -0.2440
   69TMC2    C2 1069   0.991   0.309  12.481 -0.3156  0.2766  0.0368
   69TMC2    C3 1070   0.965   0.330  12.346  0.0226 -0.0843 -0.1106
   69TMC2    C4 1071   1.144   0.138  12.409  0.1418  0.8836  0.2838
   69TMC2    C5 1072   1.099   0.154  12.281 -0.0173  0.6871  0.2545
   69TMC2    C6 1073   1.014   0.255  12.244  0.3200  0.2592  0.0657
   69TMC2     C 1074   1.105   0.168  12.646 -0.0275  0.1239  0.5544
   69TMC2     O 1075   1.021   0.186  12.731  0.2707 -0.9389 -0.2698
   69TMC2     H 1076   0.939   0.371  12.553  2.1606  1.3836  0.8967
   69TMC2    H1 1077   1.202   0.051  12.438 -1.9495 -0.3153  0.8016
   69TMC2    H2 1078   0.981   0.260  12.141  0.2396 -1.4007  0.0222
   69TMC2    C7 1079   1.150   0.071  12.180 -0.5641 -0.2849 -0.1193
   69TMC2    C8 1080   0.851   0.421  12.328  0.3771 -0.8541  0.0824
   69TMC2    O1 1081   1.268   0.049  12.183 -0.4987  0.0362  0.1360
   69TMC2    O2 1082   0.759   0.426  12.406  0.6613  0.4522  0.4729
   69TMC2    O5 1083   0.832   0.438  12.191 -0.6082 -0.0768  0.3826
   69TMC2    H5 1084   0.919   0.446  12.147 -0.4712  3.7933  1.4094
   70MPD2     C 1085   1.434   0.092  12.796 -0.3841  0.0343 -0.2824
   70MPD2    C1 1086   1.301   0.087  12.783 -0.1646 -0.2413 -0.4786
   70MPD2    C2 1087   1.226   0.025  12.886 -0.2915  0.1331  1.3629
   70MPD2    C3 1088   1.299   4.707  12.993 -0.6496  0.7055  0.0221
   70MPD2    C4 1089   1.437   4.719  13.003  0.1423 -0.5475 -0.1672
   70MPD2    C5 1090   1.500   0.046  12.902 -0.2504 -0.1852  0.6257
   70MPD2     H 1091   1.120   0.003  12.875 -0.0608 -0.6561  0.6906
   70MPD2    H1 1092   1.492   4.681  13.088 -1.2668 -1.4315  0.3464
   70MPD2    H2 1093   1.495   0.141  12.721 -1.5313  0.5278 -0.8978
   70MPD2    H3 1094   1.604   0.076  12.912 -0.2733  0.5241 -1.2363
   70MPD2     N 1095   1.245   4.618  13.087  0.4593  0.3480 -0.0636
   70MPD2    H5 1096   1.311   4.559  13.138 -0.2284  0.3546  0.8449
   70MPD2    N1 1097   1.237   0.132  12.663  0.1794 -0.5333  0.0985
   70MPD2    H7 1098   1.303   0.160  12.591 -0.8812  0.5705 -0.4379
   71TMC2    C1 1099   3.144   0.576   1.030  0.3058 -0.0239  0.1211
   71TMC2    C2 1100   3.279   0.567   0.994 -0.8503  0.1307 -0.3140
   71TMC2    C3 1101   3.367   0.583   1.100 -0.7746 -0.1483 -0.1309
   71TMC2    C4 1102   3.096   0.578   1.160 -0.0982  0.0252  0.4622
   71TMC2    C5 1103   3.192   0.583   1.260  0.5614  0.4348  0.2748
   71TMC2    C6 1104   3.327   0.587   1.231  0.1919 -0.1396 -0.6069
   71TMC2     C 1105   3.051   0.585   0.919 -0.2311  0.2186  0.0232
   71TMC2     O 1106   3.082   0.651   0.819  0.6878 -0.2066 -0.1390
   71TMC2     H 1107   3.318   0.570   0.893  1.2685 -1.8619  0.4402
   71TMC2    H1 1108   2.990   0.585   1.184 -0.6422  1.7350 -2.4879
   71TMC2    H2 1109   3.396   0.594   1.314 -1.1294  1.1687  0.3668
   71TMC2    C7 1110   3.157   0.636   1.392  0.7115 -0.6161 -0.3086
   71TMC2    C8 1111   3.506   0.608   1.061  0.0159 -0.4193 -0.1978
   71TMC2    O1 1112   3.243   0.660   1.473 -0.0064 -0.5183 -0.2240
   71TMC2    O2 1113   3.555   0.681   0.971  0.1398 -0.9212  0.1296
   71TMC2    O5 1114   3.577   0.509   1.118  0.5086  0.1573  0.1840
   71TMC2    H5 1115   3.524   0.451   1.176 -0.7403  0.2167 -0.9069
   72MPD2     C 1116   2.588   0.501   0.710  0.1007 -0.2016 -0.3030
   72MPD2    C1 1117   2.698   0.578   0.661  0.1950 -0.4223  0.7697
   72MPD2    C2 1118   2.818   0.577   0.733 -0.1558  0.3353 -0.3419
   72MPD2    C3 1119   2.816   0.521   0.860 -0.0694 -0.1969 -0.6017
   72MPD2    C4 1120   2.708   0.459   0.913 -0.0189 -0.8127 -0.0157
   72MPD2    C5 1121   2.593   0.450   0.834  0.0944  0.4794 -0.5847
   72MPD2     H 1122   2.906   0.620   0.688  0.0214  0.1636 -0.1635
   72MPD2    H1 1123   2.707   0.420   1.015 -1.3316  0.3507  0.4138
   72MPD2    H2 1124   2.501   0.471   0.652  0.6405  0.4960 -1.4595
   72MPD2    H3 1125   2.502   0.402   0.868  0.8851 -0.2804  0.4739
   72MPD2     N 1126   2.929   0.521   0.941  0.6477 -0.4709  0.3931
   72MPD2    H5 1127   2.924   0.477   1.032  1.8257  0.2583  0.8068
   72MPD2    N1 1128   2.705   0.640   0.533 -0.1290  0.1203  0.2470
   72MPD2    H7 1129   2.771   0.712   0.506  2.7677 -2.5345  0.2506
   73TMC2    C1 1130   2.546   2.570  14.045  0.4429 -0.1489  0.2716
   73TMC2    C2 1131   2.472   2.585  14.167 -0.4067  0.2881  0.3721
   73TMC2    C3 1132   2.532   2.532  14.281  0.1252 -0.0525 -0.1590
   73TMC2    C4 1133   2.659   2.492  14.045 -0.4208  0.1799  0.6634
   73TMC2    C5 1134   2.711   2.450  14.160 -0.2046 -0.4460 -0.2387
   73TMC2    C6 1135   2.654   2.475  14.284  0.4304  0.2312  0.0816
   73TMC2     C 1136   2.575   2.695  13.978  0.2266  0.1012 -0.1094
   73TMC2     O 1137   2.683   2.688  13.921 -0.4946 -0.0497 -0.2827
   73TMC2     H 1138   2.383   2.646  14.168 -0.7701 -0.2565  0.9273
   73TMC2    H1 1139   2.716   2.472  13.955  2.8292 -1.0071  2.9950
   73TMC2    H2 1140   2.706   2.458  14.378  1.8860 -0.4069 -0.8379
   73TMC2    C7 1141   2.852   2.458  14.175 -0.8507 -0.3384  0.0173
   73TMC2    C8 1142   2.494   2.587  14.408  0.4547 -0.0516  0.0709
   73TMC2    O1 1143   2.905   2.385  14.258 -0.0711  0.5675 -0.2728
   73TMC2    O2 1144   2.580   2.614  14.484 -0.3034  0.2803  0.0759
   73TMC2    O5 1145   2.387   2.662  14.385  0.0207  0.1565  0.8087
   73TMC2    H5 1146   2.325   2.620  14.322  0.1892  1.5203 -0.2510
   74MPD2     C 1147   2.521   3.182  13.843 -0.1940  0.4490 -0.4233
   74MPD2    C1 1148   2.633   3.109  13.863 -0.7964  0.5910  0.0410
   74MPD2    C2 1149   2.620   2.982  13.916  0.3831 -0.1391 -0.4120
   74MPD2    C3 1150   2.497   2.921  13.935 -0.3289 -0.1788  0.4089
   74MPD2    C4 1151   2.381   2.994  13.911  0.1469 -0.2687 -0.0973
   74MPD2    C5 1152   2.397   3.126  13.861  0.1634  0.7774 -0.2512
   74MPD2     H 1153   2.704   2.925  13.953  1.2146  1.6700  0.5297
   74MPD2    H1 1154   2.287   2.945  13.932  0.5671 -1.3663 -0.7875
   74MPD2    H2 1155   2.526   3.283  13.803 -0.6307  0.8270  0.4726
   74MPD2    H3 1156   2.305   3.181  13.845 -0.9832 -1.2247 -0.6411
   74MPD2     N 1157   2.474   2.790  13.985  0.1303 -0.3150 -0.3703
   74MPD2    H5 1158   2.383   2.765  14.021  1.0900 -1.6726  1.1384
   74MPD2    N1 1159   2.757   3.179  13.837  0.4735 -0.0707 -0.1243
   74MPD2    H7 1160   2.760   3.266  13.784  2.4353 -0.2791 -0.3846
   75TMC2    C1 1161   2.770   3.800  13.824  0.3940  0.1436  0.1130
   75TMC2    C2 1162   2.690   3.866  13.913  0.2754  0.1711  0.0110
   75TMC2    C3 1163   2.583   3.936  13.868  0.9188 -0.2895  0.1930
   75TMC2    C4 1164   2.733   3.803  13.689  0.1531 -0.8501  0.3419
   75TMC2    C5 1165   2.627   3.884  13.646  0.2632 -0.0469  0.9647
   75TMC2    C6 1166   2.545   3.940  13.740 -0.2739 -0.2684  0.1963
   75TMC2     C 1167   2.860   3.699  13.882  0.4006 -0.2664  0.5331
   75TMC2     O 1168   2.860   3.695  14.005 -0.0058 -0.2570 -0.4034
   75TMC2     H 1169   2.719   3.874  14.018 -0.7946  0.8344  0.2577
   75TMC2    H1 1170   2.792   3.743  13.620  0.6428  1.2773 -1.0730
   75TMC2    H2 1171   2.460   3.997  13.703 -0.3741  0.0381  0.8906
   75TMC2    C7 1172   2.600   3.916  13.507  0.7562  0.0526  0.0290
   75TMC2    C8 1173   2.485   3.972  13.971  1.2274 -0.3776  0.0443
   75TMC2    O1 1174   2.630   3.825  13.427 -0.2116 -0.2791 -0.3654
   75TMC2    O2 1175   2.521   3.985  14.086 -0.3513 -0.4881  0.0299
   75TMC2    O5 1176   2.371   3.918  13.926 -0.3268  0.0570 -0.0704
   75TMC2    H5 1177   2.376   3.881  13.835 -3.4892  1.5823 -0.8597
   76TMC2    C1 1178   2.118   3.854  11.794 -0.0274  0.7972 -1.1510
   76TMC2    C2 1179   2.039   3.739  11.779 -0.2903  0.0193 -0.3690
   76TMC2    C3 1180   2.091   3.625  11.828  0.0881 -0.0161  0.3556
   76TMC2    C4 1181   2.232   3.854  11.876  0.0476 -0.3573 -0.2859
   76TMC2    C5 1182   2.267   3.735  11.935  0.8906 -0.0406 -0.8050
   76TMC2    C6 1183   2.196   3.615  11.911  0.2209 -0.0735  0.6302
   76TMC2     C 1184   2.065   3.986  11.755 -0.0462  0.0076 -0.3408
   76TMC2     O 1185   1.946   3.989  11.717  0.6157 -0.1879 -0.2582
   76TMC2     H 1186   1.949   3.740  11.719  0.3212 -1.3780 -1.3204
   76TMC2    H1 1187   2.303   3.935  11.873 -0.7112  0.4529  4.1660
   76TMC2    H2 1188   2.227   3.526  11.964 -3.1427 -0.9382  1.1321
   76TMC2    C7 1189   2.392   3.721  12.003  1.2905  0.1543  0.2590
   76TMC2    C8 1190   2.001   3.511  11.828 -0.4480 -0.2621 -0.6799
   76TMC2    O1 1191   2.426   3.607  12.025  0.7675 -0.7458  0.3167
   76TMC2    O2 1192   1.882   3.520  11.840 -0.5272  0.4700  0.6311
   76TMC2    O5 1193   2.062   3.405  11.774 -0.3856  0.1285 -0.1001
   76TMC2    H5 1194   2.157   3.424  11.761 -0.2129  0.1957  1.2633
   77MPD2     C 1195   2.127   4.501  11.687 -0.1743 -0.3788 -0.6303
   77MPD2    C1 1196   2.017   4.414  11.683  0.1068  0.3648 -0.5166
   77MPD2    C2 1197   2.021   4.282  11.710  0.3473 -0.7779  0.2429
   77MPD2    C3 1198   2.141   4.222  11.726 -0.2641 -0.4727 -0.0824
   77MPD2    C4 1199   2.254   4.300  11.706  0.6398  0.4319  0.5643
   77MPD2    C5 1200   2.251   4.440  11.693  0.4430 -0.2671 -0.2007
   77MPD2     H 1201   1.931   4.222  11.701  0.1998 -0.5863  0.4559
   77MPD2    H1 1202   2.354   4.260  11.717  0.7366  0.3957 -0.4022
   77MPD2    H2 1203   2.125   4.609  11.676 -1.4588 -0.6073 -2.7118
   77MPD2    H3 1204   2.348   4.488  11.691 -0.1821  0.8702 -2.3317
   77MPD2     N 1205   2.163   4.082  11.752  0.3087  0.1875  0.2023
   77MPD2    H5 1206   2.259   4.051  11.765 -0.6362 -2.3478  1.2495
   77MPD2    N1 1207   1.888   4.462  11.644  0.4167  0.5056 -0.1505
   77MPD2    H7 1208   1.806   4.403  11.652  0.2040  0.9579  1.0194
   78TMC2    C1 1209   3.465   4.039   1.278 -0.4356 -0.7498 -0.0361
   78TMC2    C2 1210   3.513   3.973   1.167 -0.2246  0.3404 -0.3135
   78TMC2    C3 1211   3.645   3.999   1.131 -0.7518  0.1443  0.0767
   78TMC2    C4 1212   3.553   4.115   1.359 -0.3912 -0.5411  0.5934
   78TMC2    C5 1213   3.675   4.152   1.305 -0.4292 -0.6789 -0.2472
   78TMC2    C6 1214   3.714   4.094   1.188 -0.0157 -0.2974 -0.0232
   78TMC2     C 1215   3.339   4.008   1.341 -0.8731  0.2960 -0.1196
   78TMC2     O 1216   3.315   4.073   1.442  0.4232  0.0287  0.5033
   78TMC2     H 1217   3.447   3.918   1.100 -1.5346  0.7867  0.6276
   78TMC2    H1 1218   3.524   4.155   1.455 -1.4371  1.4353 -0.5536
   78TMC2    H2 1219   3.807   4.120   1.139 -0.5493  1.1315 -0.2628
   78TMC2    C7 1220   3.737   4.281   1.336  0.3804  0.8257 -0.3320
   78TMC2    C8 1221   3.679   3.964   0.990 -0.1697  0.1777  0.0375
   78TMC2    O1 1222   3.798   4.333   1.245 -0.2103 -0.4518  0.0440
   78TMC2    O2 1223   3.589   3.950   0.905 -0.0342  0.0067  0.2132
   78TMC2    O5 1224   3.806   3.959   0.972  0.0936  0.2259  0.1156
   78TMC2    H5 1225   3.863   3.965   1.051  1.3945 -1.8643 -0.6764
   79MPD1     C 1226   2.832   3.920   1.291  0.1609  0.7202  0.0283
   79MPD1    C1 1227   2.902   3.988   1.385  0.1685  0.2915 -0.0281
   79MPD1    C2 1228   3.037   4.006   1.374 -0.0639  0.0040 -0.1432
   79MPD1    C3 1229   3.103   3.945   1.273  0.1853  0.3165  0.0753
   79MPD1    C4 1230   3.039   3.870   1.183 -0.4470 -0.4895  0.0169
   79MPD1    C5 1231   2.907   3.850   1.197  0.2140  0.6190 -0.3736
   79MPD1     H 1232   3.086   4.062   1.453 -0.5738 -0.5788  0.5866
   79MPD1    H1 1233   3.089   3.824   1.098  1.5462  0.9911  0.4129
   79MPD1    H2 1234   2.724   3.913   1.293  0.1742 -0.4157 -2.4083
   79MPD1    H3 1235   2.852   3.787   1.128  0.9204  0.9592 -1.2406
   79MPD1     N 1236   3.252   3.947   1.260  0.4264  0.2705  0.3148
   79MPD1    H5 1237   3.291   3.890   1.186  1.1134 -0.3861  1.1866
   79MPD1    N1 1238   2.833   4.066   1.479  0.2074 -0.5488 -0.3104
   79MPD1    H6 1239   2.744   4.021   1.503 -0.0050 -0.0096 -0.0999
   79MPD1    H7 1240   2.876   4.071   1.571  0.5591 -0.3009 -0.4884
   80TMC2    C1 1241   0.604   3.419  11.905 -0.1439 -0.0720  0.1001
   80TMC2    C2 1242   0.590   3.442  11.771 -0.8211  0.9899  0.6764
   80TMC2    C3 1243   0.460   3.459  11.722 -0.5759 -0.3338  0.1422
   80TMC2    C4 1244   0.500   3.437  11.995 -0.5142  0.9749  0.0162
   80TMC2    C5 1245   0.372   3.458  11.940 -0.9522 -0.1179 -0.6433
   80TMC2    C6 1246   0.347   3.454  11.801  0.6858  0.1405  0.0298
   80TMC2     C 1247   0.737   3.426  11.956  0.1189  0.6008  0.0497
   80TMC2     O 1248   0.836   3.406  11.883 -0.1555  0.9786  0.0926
   80TMC2     H 1249   0.673   3.451  11.702  0.2771 -3.0192  1.5114
   80TMC2    H1 1250   0.528   3.409  12.096  1.3586 -1.0917 -1.0855
   80TMC2    H2 1251   0.250   3.463  11.754  1.1824  1.4382 -0.7694
   80TMC2    C7 1252   0.260   3.472  12.039  0.0613  0.2855 -0.6677
   80TMC2    C8 1253   0.445   3.503  11.586  0.1639  0.3857 -0.2031
   80TMC2    O1 1254   0.158   3.520  11.989  0.0104 -0.0523 -0.4376
   80TMC2    O2 1255   0.333   3.481  11.542  0.0539  0.2407 -0.0568
   80TMC2    O5 1256   0.521   3.612  11.571 -0.3074  0.2730 -0.0876
   80TMC2    H5 1257   0.574   3.634  11.650  0.8045 -0.2003 -0.7152
   81MPD2     C 1258   0.961   3.445  12.161 -0.5609  0.2643 -0.0041
   81MPD2    C1 1259   0.849   3.528  12.159 -0.1334  0.1420  0.5313
   81MPD2    C2 1260   0.845   3.625  12.259  0.0176 -0.2409  0.2181
   81MPD2    C3 1261   0.945   3.650  12.351 -0.6415  0.0738 -0.0946
   81MPD2    C4 1262   1.059   3.566  12.347 -0.6156 -0.6941  1.0012
   81MPD2    C5 1263   1.058   3.468  12.255  0.1028 -0.2822 -0.2782
   81MPD2     H 1264   0.755   3.684  12.271 -0.8467 -1.0494 -2.2204
   81MPD2    H1 1265   1.136   3.566  12.423 -2.6772 -2.9251  3.0943
   81MPD2    H2 1266   0.980   3.367  12.088 -1.6436  0.8955 -0.9772
   81MPD2    H3 1267   1.148   3.407  12.249  0.6657  0.7391 -2.4663
   81MPD2     N 1268   0.941   3.752  12.452  0.3430 -0.8212  0.5185
   81MPD2    H5 1269   1.027   3.768  12.504  1.0956 -1.4298 -0.5349
   81MPD2    N1 1270   0.739   3.507  12.070 -0.2908 -0.3877  0.0527
   81MPD2    H7 1271   0.650   3.550  12.092 -0.3732 -0.9219  0.7591
   82TMC2    C1 1272   3.255   3.126  10.648 -0.7132 -0.0235  0.0369
   82TMC2    C2 1273   3.330   3.235  10.682  0.4728  0.4772 -0.5671
   82TMC2    C3 1274   3.401   3.232  10.800  0.3335 -0.0010  0.5676
   82TMC2    C4 1275   3.230   3.029  10.740 -0.2059  0.0754  0.2508
   82TMC2    C5 1276   3.303   3.033  10.862  0.2025 -0.2767  0.5293
   82TMC2    C6 1277   3.402   3.127  10.885 -0.3864  0.3164 -0.1241
   82TMC2     C 1278   3.159   3.123  10.538  0.7664 -0.1707  0.2112
   82TMC2     O 1279   3.139   3.015  10.478  0.2335 -0.1572  0.4333
   82TMC2     H 1280   3.348   3.308  10.604 -0.8230 -1.6353 -2.8693
   82TMC2    H1 1281   3.153   2.957  10.716  1.4354 -1.7784  0.5967
   82TMC2    H2 1282   3.471   3.108  10.966 -1.3093  0.1306  0.6224
   82TMC2    C7 1283   3.284   2.916  10.951  0.1555  0.4239 -0.4725
   82TMC2    C8 1284   3.510   3.319  10.811  0.1787  0.0177  0.5587
   82TMC2    O1 1285   3.354   2.920  11.055  0.3957 -0.5032  0.1152
   82TMC2    O2 1286   3.568   3.376  10.721 -0.2628  0.0513 -0.0910
   82TMC2    O5 1287   3.524   3.347  10.939 -0.2119 -0.1703 -0.6916
   82TMC2    H5 1288   3.455   3.304  10.993  0.6586  1.0895  1.4289
   83MPD2     C 1289   2.843   3.347  10.211  1.0727 -0.3119  1.1183
   83MPD2    C1 1290   2.866   3.431  10.321  0.4129 -0.5662 -0.0999
   83MPD2    C2 1291   2.958   3.392  10.417 -0.0727 -0.2385  0.3014
   83MPD2    C3 1292   3.034   3.279  10.398 -0.4358  0.4101 -0.4231
   83MPD2    C4 1293   3.019   3.204  10.284 -0.7916  0.3165 -0.7757
   83MPD2    C5 1294   2.915   3.237  10.196  0.2830 -0.3666 -0.8203
   83MPD2     H 1295   2.983   3.450  10.506 -2.2286  0.5767  0.3782
   83MPD2    H1 1296   3.080   3.115  10.278 -2.1688 -0.7636  1.1402
   83MPD2    H2 1297   2.768   3.373  10.137  2.1469  1.3443  0.6377
   83MPD2    H3 1298   2.890   3.164  10.120 -0.9653 -2.4011  1.5224
   83MPD2     N 1299   3.121   3.249  10.504 -0.0922  0.1551  0.1070
   83MPD2    H5 1300   3.122   3.314  10.581 -1.4065  0.2296  0.0731
   83MPD2    N1 1301   2.787   3.544  10.336 -0.7559  0.3122  0.4164
   83MPD2    H7 1302   2.709   3.545  10.272 -1.0939 -0.8243  0.8137
   84TMC2    C1 1303   0.045   3.117  11.087 -0.3054 -0.4166  0.2035
   84TMC2    C2 1304   4.695   3.053  11.174 -0.0432 -0.2131 -0.3446
   84TMC2    C3 1305   4.708   2.919  11.182 -0.5908  0.2424  0.1068
   84TMC2    C4 1306   0.140   3.047  11.010  0.3430  0.8506  0.6260
   84TMC2    C5 1307   0.142   2.909  11.017 -0.6952  0.3505 -1.0292
   84TMC2    C6 1308   0.061   2.846  11.113 -0.7167 -0.0944  0.4674
   84TMC2     C 1309   0.059   3.254  11.121  0.4559 -0.0188  0.8428
   84TMC2     O 1310   4.720   3.301  11.200  0.1201 -0.2573  0.4297
   84TMC2     H 1311   4.622   3.110  11.230 -0.4561  1.0984 -2.2464
   84TMC2    H1 1312   0.233   3.086  10.969 -0.4896 -0.6181 -2.6853
   84TMC2    H2 1313   0.051   2.738  11.122 -0.1823 -0.3567 -1.9869
   84TMC2    C7 1314   0.219   2.836  10.922 -0.0987 -0.2003  0.0738
   84TMC2    C8 1315   4.611   2.849  11.262 -0.4799 -0.1331 -0.2603
   84TMC2    O1 1316   0.245   2.717  10.954 -0.4124 -0.3427 -0.3120
   84TMC2    O2 1317   4.564   2.743  11.229 -0.1950 -0.3848  0.2550
   84TMC2    O5 1318   4.573   2.928  11.367 -0.8072  0.7696  0.1826
   84TMC2    H5 1319   4.637   2.998  11.392 -1.2661  1.2667 -0.0472
   85TMC2    C1 1320   1.066   1.097  16.142 -0.4115 -0.1536 -0.7071
   85TMC2    C2 1321   0.975   1.084  16.039  0.3353 -0.2208 -0.1853
   85TMC2    C3 1322   0.957   1.190  15.956 -0.9263  0.2031 -0.1520
   85TMC2    C4 1323   1.141   1.203  16.149  0.5329  0.2032  0.6518
   85TMC2    C5 1324   1.116   1.312  16.068 -0.3440 -0.1464 -0.7154
   85TMC2    C6 1325   1.029   1.308  15.962  0.4454 -0.2122 -0.3970
   85TMC2     C 1326   1.116   0.984  16.222  0.3876 -0.0149  0.2721
   85TMC2     O 1327   1.201   1.007  16.306  0.1640 -0.2659 -0.5906
   85TMC2     H 1328   0.905   1.003  16.021 -1.0428  1.1603 -1.0556
   85TMC2    H1 1329   1.225   1.206  16.217  1.7174  2.6875 -0.8883
   85TMC2    H2 1330   1.004   1.394  15.900 -1.5700  0.6782  1.6224
   85TMC2    C7 1331   1.231   1.399  16.044  0.0315 -0.1998  0.3467
   85TMC2    C8 1332   0.842   1.200  15.877  0.8496  0.3659 -0.3651
   85TMC2    O1 1333   1.334   1.386  16.111 -0.2946 -0.1188  0.5940
   85TMC2    O2 1334   0.787   1.300  15.850  0.0337 -0.6591  0.1748
   85TMC2    O5 1335   0.848   1.088  15.792  0.3060 -0.4054  0.3873
   85TMC2    H5 1336   0.901   1.013  15.826  0.5063  0.5522  2.2355
   86MPD2     C 1337   1.002   0.536  16.441 -1.4158 -0.5556 -0.1264
   86MPD2    C1 1338   0.940   0.534  16.325 -0.5155 -0.1071  0.3472
   86MPD2    C2 1339   0.969   0.633  16.233  0.2942  0.2865  0.9592
   86MPD2    C3 1340   1.042   0.750  16.273  0.1156  0.3572  0.5942
   86MPD2    C4 1341   1.099   0.747  16.399 -0.0850  0.1847  0.0868
   86MPD2    C5 1342   1.086   0.634  16.478  0.1426  0.2909 -0.0169
   86MPD2     H 1343   0.929   0.637  16.133 -1.1630 -1.3954  1.4880
   86MPD2    H1 1344   1.153   0.834  16.435  0.0473 -0.6740  1.9260
   86MPD2    H2 1345   0.997   0.447  16.502  2.5292  0.0765  1.1022
   86MPD2    H3 1346   1.134   0.629  16.575  0.9107 -0.9803 -0.4622
   86MPD2     N 1347   1.036   0.875  16.202  0.3814  0.0357 -0.4181
   86MPD2    H5 1348   0.986   0.870  16.114  0.7830 -1.4194 -0.5564
   86MPD2    N1 1349   0.853   0.429  16.288 -0.3017 -0.4706  0.6343
   86MPD2    H7 1350   0.821   0.433  16.191 -1.0094  0.6528  0.9196
   87TMC2    C1 1351   3.192   3.970   0.740  0.3232 -0.6736  0.2713
   87TMC2    C2 1352   3.313   4.018   0.791  0.3117 -0.2680 -0.6034
   87TMC2    C3 1353   3.302   4.089   0.905 -0.2661  0.2440 -0.1158
   87TMC2    C4 1354   3.072   3.997   0.790  0.6601  0.0830 -0.7281
   87TMC2    C5 1355   3.070   4.058   0.913  1.1742  0.4560  0.3428
   87TMC2    C6 1356   3.186   4.109   0.961 -0.1138 -0.0031 -0.6649
   87TMC2     C 1357   3.190   3.881   0.619  0.2667  0.4519 -1.3813
   87TMC2     O 1358   3.087   3.815   0.595 -0.8850  0.4394  0.1174
   87TMC2     H 1359   3.410   4.002   0.746  1.2060 -0.6095  1.4420
   87TMC2    H1 1360   2.985   3.981   0.728  0.2789  1.7998 -0.6281
   87TMC2    H2 1361   3.187   4.169   1.052 -0.5317  0.1344 -0.7489
   87TMC2    C7 1362   2.951   4.108   0.970 -0.4221 -0.4834 -0.1197
   87TMC2    C8 1363   3.397   4.197   0.931 -1.1862  0.2232 -0.6363
   87TMC2    O1 1364   2.956   4.223   1.019  0.1599  0.5742  0.0274
   87TMC2    O2 1365   3.422   4.240   1.042  0.7449  0.1385 -0.3685
   87TMC2    O5 1366   3.427   4.262   0.816  0.1867 -0.5451 -0.0742
   87TMC2    H5 1367   3.390   4.226   0.733 -0.1547 -0.9055  0.2284
   88MPD2     C 1368   2.623   3.967   0.977 -0.1632  0.6505 -0.1677
   88MPD2    C1 1369   2.710   4.065   0.983 -0.4426  0.3625  0.6295
   88MPD2    C2 1370   2.670   4.195   1.015 -0.0088  0.3490  0.4610
   88MPD2    C3 1371   2.537   4.222   1.030  0.5505  0.4613  0.1286
   88MPD2    C4 1372   2.449   4.117   1.018  0.3239  0.4372  0.5819
   88MPD2    C5 1373   2.493   3.988   1.000 -0.0239  0.4670  0.4302
   88MPD2     H 1374   2.741   4.277   1.013 -0.4746  0.7772  1.2742
   88MPD2    H1 1375   2.344   4.137   1.036 -0.3871 -0.9903 -2.0719
   88MPD2    H2 1376   2.655   3.866   0.954 -1.6917 -0.0810  0.8989
   88MPD2    H3 1377   2.416   3.912   0.994 -1.3136  1.7485  0.7413
   88MPD2     N 1378   2.479   4.352   1.034 -0.1637 -0.0087  0.9752
   88MPD2    H5 1379   2.378   4.357   1.027  0.0159  1.2623 -0.7547
   88MPD2    N1 1380   2.843   4.029   0.941 -0.8222  0.2651  0.1776
   88MPD2    H7 1381   2.852   3.938   0.899  1.9209  1.6831 -2.2888
   89TMC2    C1 1382   3.711   1.462   0.545 -0.0558 -0.1610 -0.0512
   89TMC2    C2 1383   3.585   1.506   0.591 -0.3479 -0.8824 -0.1986
   89TMC2    C3 1384   3.556   1.641   0.570 -0.0581 -0.8248  0.0103
   89TMC2    C4 1385   3.811   1.533   0.477  0.4639  0.9479  0.4042
   89TMC2    C5 1386   3.764   1.659   0.440 -0.1850 -0.1620  0.3261
   89TMC2    C6 1387   3.647   1.715   0.490 -0.0514  0.3475  0.4674
   89TMC2     C 1388   3.768   1.354   0.624  0.7961  0.2241  0.0728
   89TMC2     O 1389   3.876   1.308   0.582  0.0274  0.1881 -0.3938
   89TMC2     H 1390   3.513   1.437   0.633  1.4190 -0.7356  3.0859
   89TMC2    H1 1391   3.881   1.473   0.421  0.8572 -3.7044  5.7330
   89TMC2    H2 1392   3.610   1.807   0.448  2.4766  0.5786 -1.2372
   89TMC2    C7 1393   3.838   1.718   0.329  0.7763 -0.2783 -0.3300
   89TMC2    C8 1394   3.420   1.676   0.553  0.1348  0.4423  0.1559
   89TMC2    O1 1395   3.924   1.650   0.275  0.2913 -0.3498 -0.9134
   89TMC2    O2 1396   3.351   1.730   0.640  0.0889  0.0530 -0.4612
   89TMC2    O5 1397   3.378   1.586   0.461  0.1036  0.4199  0.1885
   89TMC2    H5 1398   3.444   1.566   0.392 -2.2694 -1.7620 -1.4442
   90MPD2     C 1399   3.884   1.154   1.090 -0.3904 -0.5715 -0.6352
   90MPD2    C1 1400   3.748   1.186   1.083  0.0828  0.5256 -0.4203
   90MPD2    C2 1401   3.699   1.242   0.964 -0.2731  0.3749  0.3370
   90MPD2    C3 1402   3.776   1.267   0.856 -0.6905 -0.3382 -0.1973
   90MPD2    C4 1403   3.910   1.237   0.863 -0.1987  0.0434  0.6076
   90MPD2    C5 1404   3.958   1.178   0.983  0.6244  0.0551  0.0027
   90MPD2     H 1405   3.594   1.267   0.969 -0.5070 -0.7956  1.1056
   90MPD2    H1 1406   3.978   1.236   0.779  0.9837 -2.0827  1.5958
   90MPD2    H2 1407   3.930   1.106   1.176  1.8405  0.0932 -1.4533
   90MPD2    H3 1408   4.058   1.136   0.988  0.9845  0.7114 -1.3827
   90MPD2     N 1409   3.714   1.338   0.750 -0.3901  0.4337  0.3175
   90MPD2    H5 1410   3.630   1.392   0.772 -0.2141  0.6101  0.5573
   90MPD2    N1 1411   3.653   1.177   1.190  0.2044  0.7055 -0.0017
   90MPD2    H7 1412   3.557   1.195   1.164 -0.0986 -1.8822 -0.6506
   91TMC2    C1 1413   4.701   1.719  16.256 -0.0289 -0.3986 -0.0304
   91TMC2    C2 1414   0.043   1.741  16.361 -0.3518 -0.2093  0.3297
   91TMC2    C3 1415   0.093   1.636  16.438  0.2126 -0.8531  0.4938
   91TMC2    C4 1416   4.670   1.589  16.219 -0.5606  0.4659  0.5429
   91TMC2    C5 1417   4.727   1.488  16.289  0.2741 -0.2756  0.0351
   91TMC2    C6 1418   0.073   1.504  16.404 -0.0244 -0.7844  0.1116
   91TMC2     C 1419   4.700   1.817  16.157  0.5846 -0.4504 -0.2757
   91TMC2     O 1420   4.609   1.813  16.073 -0.1008 -0.2198 -0.2586
   91TMC2     H 1421   0.029   1.842  16.397  1.5367 -0.5319  1.9704
   91TMC2    H1 1422   4.619   1.576  16.125  0.5357  0.7719 -0.0883
   91TMC2    H2 1423   0.103   1.421  16.466 -0.1139 -1.1428 -0.3207
   91TMC2    C7 1424   0.013   1.357  16.229 -0.1350  0.0422  0.0808
   91TMC2    C8 1425   0.163   1.657  16.561 -0.2946 -0.0273  0.6361
   91TMC2    O1 1426   0.100   1.290  16.281 -0.4095  0.4489 -0.4241
   91TMC2    O2 1427   0.143   1.584  16.660 -0.3913 -0.2392  0.2434
   91TMC2    O5 1428   0.203   1.782  16.558 -0.0137 -0.1685  0.3692
   91TMC2    H5 1429   0.191   1.821  16.469  2.0190  0.4401  0.3576
   92MPD2     C 1430   0.014   2.036  15.979 -0.2248 -0.3317 -0.0209
   92MPD2    C1 1431   0.117   1.974  16.047 -0.3130  0.5203  1.0509
   92MPD2    C2 1432   0.245   2.020  16.026  0.0841  0.1179  0.2774
   92MPD2    C3 1433   0.281   2.107  15.927 -0.0862 -0.0358  0.0786
   92MPD2    C4 1434   0.178   2.166  15.854 -0.2086  0.1614 -0.1406
   92MPD2    C5 1435   0.049   2.122  15.884  0.1340  0.0344 -0.7888
   92MPD2     H 1436   0.323   1.970  16.082 -0.1128 -0.6418 -0.1299
   92MPD2    H1 1437   0.188   2.231  15.768  1.3512 -0.9191 -0.7748
   92MPD2    H2 1438   4.649   2.002  15.993  0.0829 -0.8438  1.0166
   92MPD2    H3 1439   4.713   2.170  15.819 -0.9422 -1.4760 -0.6932
   92MPD2     N 1440   0.415   2.134  15.892 -0.4986 -0.3093  0.3709
   92MPD2    H5 1441   0.485   2.093  15.953  1.0107  2.3278  0.4398
   92MPD2    N1 1442   0.088   1.877  16.145  0.3087 -0.3992 -0.4945
   92MPD2    H7 1443   0.156   1.841  16.212 -0.4739  1.4253  1.2786
   93TMC2    C1 1444   2.600   1.764  13.317  0.1054  0.7805  0.0331
   93TMC2    C2 1445   2.585   1.632  13.317 -0.1249 -0.1417  0.5600
   93TMC2    C3 1446   2.689   1.545  13.359  0.0807  0.1626  0.4738
   93TMC2    C4 1447   2.719   1.813  13.350  0.3330  0.0497  0.6476
   93TMC2    C5 1448   2.823   1.732  13.388 -0.1214 -0.2307 -0.0735
   93TMC2    C6 1449   2.814   1.594  13.394  0.4636 -0.0962  0.2103
   93TMC2     C 1450   2.486   1.845  13.276  0.0688 -0.5436 -0.5245
   93TMC2     O 1451   2.505   1.952  13.218  0.1138 -0.3615  0.0757
   93TMC2     H 1452   2.490   1.587  13.291 -0.6634  1.2144  0.1873
   93TMC2    H1 1453   2.719   1.921  13.337  0.3237  0.0228  0.4329
   93TMC2    H2 1454   2.900   1.533  13.419  0.1313 -0.9607 -0.7859
   93TMC2    C7 1455   2.961   1.790  13.412  0.4145 -0.1195 -0.2203
   93TMC2    C8 1456   2.665   1.402  13.335  0.5350  0.1751 -0.2461
   93TMC2    O1 1457   3.043   1.708  13.439 -0.1882 -0.3150 -0.0558
   93TMC2    O2 1458   2.569   1.350  13.279 -0.0504 -0.1002  0.0206
   93TMC2    O5 1459   2.773   1.325  13.383 -0.1372 -0.7793  0.5516
   93TMC2    H5 1460   2.836   1.374  13.440 -0.0816  0.6076 -0.7140
   94MPD2     C 1461   2.217   1.951  13.205  0.2628 -0.1984 -0.1047
   94MPD2    C1 1462   2.244   1.842  13.286  0.8532 -0.2437  0.1085
   94MPD2    C2 1463   2.133   1.775  13.344  0.3914 -0.0341  0.7696
   94MPD2    C3 1464   2.004   1.830  13.337 -0.5948 -0.1351  0.2040
   94MPD2    C4 1465   1.983   1.937  13.262 -0.0129  0.5804 -0.0697
   94MPD2    C5 1466   2.090   1.995  13.190 -0.6310 -0.4625  0.7614
   94MPD2     H 1467   2.149   1.687  13.404  0.4042  0.3424  1.3136
   94MPD2    H1 1468   1.880   1.968  13.246  0.6535  3.0646  0.3859
   94MPD2    H2 1469   2.288   2.001  13.142 -0.4433  0.7696 -0.1355
   94MPD2    H3 1470   2.070   2.078  13.124 -2.2804 -0.0704  1.7571
   94MPD2     N 1471   1.897   1.784  13.413  0.7151  0.2376  0.3593
   94MPD2    H5 1472   1.818   1.848  13.411  0.2744 -0.3152 -0.0234
   94MPD2    N1 1473   2.370   1.784  13.310  0.0713 -0.5969  0.2931
   94MPD2    H7 1474   2.372   1.693  13.353 -0.0849  0.0246  1.6259
   95TMC2    C1 1475   2.560   3.718  16.235  0.3186  0.1369 -0.2676
   95TMC2    C2 1476   2.541   3.608  16.322 -0.0381  0.0034  0.1730
   95TMC2    C3 1477   2.532   3.629  16.453 -0.6309 -0.1454  0.2529
   95TMC2    C4 1478   2.573   3.841  16.288  0.0269  0.3885  0.2634
   95TMC2    C5 1479   2.568   3.861  16.420  0.0179  0.3930 -0.5120
   95TMC2    C6 1480   2.539   3.757  16.509  0.4483 -0.8111 -0.0296
   95TMC2     C 1481   2.582   3.702  16.096  0.0279  0.5470  0.4104
   95TMC2     O 1482   2.647   3.791  16.044 -0.2960  0.4276  0.0566
   95TMC2     H 1483   2.546   3.505  16.287 -2.6390 -0.6284  1.6014
   95TMC2    H1 1484   2.567   3.924  16.218 -1.1681 -1.1830 -1.4966
   95TMC2    H2 1485   2.565   3.777  16.612  2.1669  1.3141 -0.8918
   95TMC2    C7 1486   2.571   3.997  16.468  0.1225 -0.1842  0.1008
   95TMC2    C8 1487   2.514   3.516  16.540  1.1604  0.5648 -0.3363
   95TMC2    O1 1488   2.618   4.090  16.402  0.6627  0.1932 -0.2335
   95TMC2    O2 1489   2.525   3.399  16.505 -0.1934  0.7591 -0.2463
   95TMC2    O5 1490   2.436   3.556  16.640 -0.3440 -0.3085 -0.0083
   95TMC2    H5 1491   2.423   3.652  16.656  0.4421 -0.1746 -0.1556
   96MPD2     C 1492   2.613   3.419  15.669 -0.1124 -0.3029  0.3421
   96MPD2    C1 1493   2.686   3.535  15.704 -0.2292 -0.4928  0.3767
   96MPD2    C2 1494   2.668   3.595  15.826  0.3456 -0.2574 -0.0134
   96MPD2    C3 1495   2.579   3.530  15.919  0.2226  0.4732 -0.4437
   96MPD2    C4 1496   2.507   3.413  15.880  0.4139 -0.9932  0.5141
   96MPD2    C5 1497   2.523   3.365  15.754  1.1635 -0.4340  0.6689
   96MPD2     H 1498   2.732   3.674  15.864  2.1719 -1.3530 -0.8093
   96MPD2    H1 1499   2.431   3.361  15.938 -0.7082  1.4809  1.2398
   96MPD2    H2 1500   2.650   3.377  15.576 -2.5308 -5.8324  1.8553
   96MPD2    H3 1501   2.474   3.270  15.738  1.4103 -0.6209  1.0220
   96MPD2     N 1502   2.559   3.570  16.050 -0.1492 -0.3603 -0.1618
   96MPD2    H5 1503   2.523   3.498  16.112 -2.0460  1.8705  1.3036
   96MPD2    N1 1504   2.788   3.574  15.611 -0.0476  0.9569 -0.1141
   96MPD2    H7 1505   2.780   3.523  15.523  1.2843  0.0531  0.2776
   97TMC2    C1 1506   4.708   1.913   1.205  0.4600  0.0598 -0.0917
   97TMC2    C2 1507   4.581   1.938   1.255 -0.0526 -0.2681 -0.4195
   97TMC2    C3 1508   4.534   2.068   1.261  0.0264  0.3861 -0.6952
   97TMC2    C4 1509   0.054   2.014   1.158 -0.7533 -0.4012 -0.0855
   97TMC2    C5 1510   4.736   2.145   1.161  0.5320 -0.6166  0.3724
   97TMC2    C6 1511   4.612   2.171   1.202  0.4112  0.0270  0.2312
   97TMC2     C 1512   0.000   1.778   1.162 -0.2393  0.9099  0.3172
   97TMC2     O 1513   4.674   1.695   1.220  0.2830 -0.0454  0.6862
   97TMC2     H 1514   4.514   1.856   1.279  0.6095 -0.9253 -0.8051
   97TMC2    H1 1515   0.152   1.999   1.113 -0.8004 -0.5971 -0.1226
   97TMC2    H2 1516   4.580   2.274   1.212  0.7747 -0.1401  3.1617
   97TMC2    C7 1517   0.058   2.218   1.058  0.4468 -0.8979 -0.2274
   97TMC2    C8 1518   4.390   2.082   1.303 -0.4471 -0.0981 -0.2200
   97TMC2    O1 1519   0.180   2.210   1.038 -0.1341  0.1844  0.0531
   97TMC2    O2 1520   4.344   2.040   1.412 -0.0987 -0.5860 -0.4224
   97TMC2    O5 1521   4.338   2.177   1.228  0.0648 -0.1845  0.4398
   97TMC2    H5 1522   4.388   2.191   1.145 -0.3586 -2.8146 -0.2748
   98MPD2     C 1523   0.257   1.430   0.875 -0.2864 -0.1771 -0.3866
   98MPD2    C1 1524   0.135   1.420   0.947 -0.0240  0.0370  0.0834
   98MPD2    C2 1525   0.093   1.529   1.030  0.7575 -0.1813 -0.3293
   98MPD2    C3 1526   0.157   1.647   1.018 -0.3189 -0.5958 -0.8583
   98MPD2    C4 1527   0.279   1.664   0.950 -0.1728  0.1210  0.1547
   98MPD2    C5 1528   0.324   1.547   0.885 -0.5452  0.4073 -0.4457
   98MPD2     H 1529   4.735   1.520   1.082  1.5987  2.8913  1.6874
   98MPD2    H1 1530   0.332   1.758   0.955 -0.1561 -0.0875  3.9867
   98MPD2    H2 1531   0.288   1.336   0.831  1.6892  0.1480  0.3170
   98MPD2    H3 1532   0.425   1.551   0.845  0.6737  1.3907  2.7341
   98MPD2     N 1533   0.102   1.766   1.072 -0.4859 -0.0603 -0.1225
   98MPD2    H5 1534   0.155   1.852   1.057  0.4623 -0.6981 -0.4057
   98MPD2    N1 1535   0.075   1.288   0.941 -0.6473 -0.5591  0.4055
   98MPD2    H7 1536   0.108   1.221   0.872 -1.1176 -0.5267  0.1487
   99TMC2    C1 1537   4.114   3.311   1.254 -0.2905  0.7413 -0.0896
   99TMC2    C2 1538   4.224   3.381   1.304 -0.8158  0.4272  1.2829
   99TMC2    C3 1539   4.188   3.456   1.412  0.1386  0.2574  0.5624
   99TMC2    C4 1540   3.987   3.304   1.313 -0.2177  0.1687  1.1059
   99TMC2    C5 1541   3.969   3.379   1.422  0.1286 -0.0717  0.5996
   99TMC2    C6 1542   4.066   3.458   1.472 -0.1906 -0.1324  1.0798
   99TMC2     C 1543   4.145   3.226   1.136  0.0598  0.1131 -0.2375
   99TMC2     O 1544   4.262   3.199   1.117 -0.0381  0.0611 -0.3728
   99TMC2     H 1545   4.320   3.399   1.255 -0.7390 -0.5642  1.0663
   99TMC2    H1 1546   3.913   3.232   1.279  0.4589  0.4742 -1.0078
   99TMC2    H2 1547   4.052   3.517   1.562  0.5644 -0.9359  1.7228
   99TMC2    C7 1548   3.838   3.404   1.485  0.2578  0.1323 -0.6012
   99TMC2    C8 1549   4.293   3.522   1.496  0.3389  0.6609  0.3621
   99TMC2    O1 1550   3.829   3.467   1.586 -0.1470 -0.0782  0.6115
   99TMC2    O2 1551   4.265   3.603   1.583  0.3106  0.4441  0.2567
   99TMC2    O5 1552   4.398   3.438   1.505  0.0545  0.1166 -0.1167
   99TMC2    H5 1553   4.386   3.360   1.446 -0.3690 -0.3433  0.5855
  100MPD2     C 1554   4.144   3.089   0.865 -0.2802 -0.2699  0.7149
  100MPD2    C1 1555   4.035   3.110   0.948 -0.0866  0.1918 -0.0870
  100MPD2    C2 1556   3.911   3.072   0.899 -0.5731 -0.8247 -0.1545
  100MPD2    C3 1557   3.889   3.009   0.773 -0.2814 -0.1001 -0.5805
  100MPD2    C4 1558   4.004   2.996   0.688  0.1389 -0.7466  0.1520
  100MPD2    C5 1559   4.130   3.022   0.743  0.6436  0.7167 -0.4874
  100MPD2     H 1560   3.822   3.088   0.959 -0.7230 -1.3007 -0.2489
  100MPD2    H1 1561   3.988   2.951   0.590 -1.7434 -1.0140  0.5786
  100MPD2    H2 1562   4.244   3.117   0.896  0.0422 -1.3818  0.6826
  100MPD2    H3 1563   4.220   3.018   0.682  1.5235 -2.7557  1.0674
  100MPD2     N 1564   3.761   2.979   0.729  0.1434 -0.2991 -0.0418
  100MPD2    H5 1565   3.690   2.990   0.801  0.2639 -1.1305  0.2066
  100MPD2    N1 1566   4.035   3.183   1.070 -0.2472 -0.3943  0.2548
  100MPD2    H7 1567   3.944   3.218   1.100 -1.2975 -0.2978 -3.1277
  101TMC2    C1 1568   4.635   4.482  13.173  0.1575 -0.3744  0.1379
  101TMC2    C2 1569   4.544   4.569  13.111 -0.0381  0.7317 -0.0283
  101TMC2    C3 1570   4.584   4.675  13.037 -0.7226  0.2508 -0.2201
  101TMC2    C4 1571   0.038   4.500  13.164 -0.9976 -0.4667 -0.0518
  101TMC2    C5 1572   0.070   4.609  13.080  0.5204 -0.4454 -0.0456
  101TMC2    C6 1573   4.716   4.694  13.024 -0.2273 -0.0552  0.4763
  101TMC2     C 1574   4.577   4.363  13.224 -0.0054  0.1633 -0.2782
  101TMC2     O 1575   4.462   4.371  13.260 -0.2300  1.0887  0.3710
  101TMC2     H 1576   4.445   4.529  13.097  0.4050 -0.9511  1.7424
  101TMC2    H1 1577   0.108   4.452  13.231 -1.6830 -2.3617 -0.7010
  101TMC2    H2 1578   0.016   0.049  12.979  1.7559  0.0426  2.2781
  101TMC2    C7 1579   0.211   4.636  13.053  0.0104  0.4098  0.4294
  101TMC2    C8 1580   4.479   0.003  12.952  0.5100 -0.1694  0.1318
  101TMC2    O1 1581   0.243   4.707  12.961 -0.1547  0.0318  0.2083
  101TMC2    O2 1582   4.369   4.694  12.938 -0.2213  0.0504 -0.2037
  101TMC2    O5 1583   4.533   0.122  12.914  0.7314 -0.4406 -0.1613
  101TMC2    H5 1584   4.624   0.137  12.949 -0.1040 -1.0477  2.2897
  102MPD2     C 1585   4.695   4.021  13.230 -0.5065 -0.4094  0.3980
  102MPD2    C1 1586   4.609   4.121  13.234  0.1543  0.1988 -0.8742
  102MPD2    C2 1587   4.472   4.086  13.261 -0.5788  0.5883 -0.2343
  102MPD2    C3 1588   4.432   3.959  13.281  0.4061  0.8448  0.0807
  102MPD2    C4 1589   4.526   3.865  13.255 -0.5360  0.1496  0.9579
  102MPD2    C5 1590   4.653   3.895  13.239 -0.6188  0.9886 -0.1278
  102MPD2     H 1591   4.397   4.163  13.279 -0.0278  1.2285 -0.7057
  102MPD2    H1 1592   4.499   3.760  13.263 -0.4071  0.2291  2.3830
  102MPD2    H2 1593   0.063   4.046  13.230 -0.9105  1.3093 -3.8720
  102MPD2    H3 1594   4.725   3.814  13.245 -0.2436  1.2235 -1.3689
  102MPD2     N 1595   4.302   3.936  13.322 -0.5416 -0.5811 -0.2126
  102MPD2    H5 1596   4.232   4.009  13.327 -1.1215 -1.1083 -0.6000
  102MPD2    N1 1597   4.664   4.257  13.224  0.5989  0.0423 -0.2697
  102MPD2    H7 1598   0.021   4.274  13.190  1.0736 -0.4321  0.8335
  103TMC2    C1 1599   2.703   4.351  12.305 -0.3039 -0.5101  0.0684
  103TMC2    C2 1600   2.668   4.478  12.253  0.3841 -0.7624 -0.2407
  103TMC2    C3 1601   2.657   4.584  12.337  0.8079  0.3472  0.1173
  103TMC2    C4 1602   2.719   4.334  12.437  0.8116  1.0343  0.3044
  103TMC2    C5 1603   2.695   4.439  12.521 -0.3441  0.1901 -0.0389
  103TMC2    C6 1604   2.673   4.565  12.474 -0.0096 -0.0507 -0.2206
  103TMC2     C 1605   2.701   4.242  12.208  0.0548  0.0664  0.1323
  103TMC2     O 1606   2.686   4.281  12.094  0.0007  0.4109  0.1183
  103TMC2     H 1607   2.656   4.491  12.146 -0.1997 -0.5471 -0.1489
  103TMC2    H1 1608   2.743   4.240  12.485 -0.3348  0.5853 -0.0083
  103TMC2    H2 1609   2.645   4.645  12.541  0.1125 -1.3995  1.4332
  103TMC2    C7 1610   2.683   4.425  12.664  0.3689  0.3745  0.5895
  103TMC2    C8 1611   2.637   4.717  12.288 -0.3429  0.1105 -0.2142
  103TMC2    O1 1612   2.647   4.524  12.728 -0.2872 -0.1499  0.1852
  103TMC2    O2 1613   2.566   0.012  12.196 -0.1253 -0.0830  0.1697
  103TMC2    O5 1614   2.708   0.063  12.363 -0.2601 -1.0181 -0.3244
  103TMC2    H5 1615   2.769   0.011  12.420 -2.6387 -1.1180  2.1490
  104MPD2     C 1616   2.788   3.902  12.269 -0.2280 -0.8888 -0.4299
  104MPD2    C1 1617   2.722   4.005  12.216 -0.3282  0.0882 -0.0260
  104MPD2    C2 1618   2.613   3.983  12.138  0.5611  0.2621 -0.2776
  104MPD2    C3 1619   2.563   3.858  12.118  0.0821 -0.2246 -0.7962
  104MPD2    C4 1620   2.630   3.750  12.171 -0.4859  0.6266  0.8046
  104MPD2    C5 1621   2.755   3.769  12.241 -0.0092  0.0690 -0.2842
  104MPD2     H 1622   2.553   4.066  12.103 -0.9818  0.1062  1.9747
  104MPD2    H1 1623   2.604   3.645  12.168 -0.8847  0.7595 -0.7277
  104MPD2    H2 1624   2.871   3.915  12.337  1.1126 -5.2859 -1.2077
  104MPD2    H3 1625   2.806   3.685  12.288 -1.3816 -0.5945  0.0019
  104MPD2     N 1626   2.448   3.838  12.037 -0.2197  0.0060 -0.2591
  104MPD2    H5 1627   2.404   3.927  12.014 -1.2792 -0.3170  0.4910
  104MPD2    N1 1628   2.754   4.127  12.259  0.1214  0.3854  0.2243
  104MPD2    H7 1629   2.827   4.136  12.329 -0.5309 -1.4920  1.1381
  105TMC2    C1 1630   3.152   3.139   0.013 -0.0520 -0.1362 -1.0014
  105TMC2    C2 1631   3.025   3.142   0.050  0.0997  0.1371  0.4884
  105TMC2    C3 1632   2.975   3.251   0.116  0.2473  0.1648  0.8412
  105TMC2    C4 1633   3.243   3.243   0.044  0.2474 -0.4844  0.0186
  105TMC2    C5 1634   3.190   3.351   0.103 -0.4118  0.3224  0.7854
  105TMC2    C6 1635   3.060   3.360   0.153  0.3441 -0.5940  0.4949
  105TMC2     C 1636   3.197   3.035  17.665  0.4501  0.0600  0.8242
  105TMC2     O 1637   3.114   2.950  17.627 -0.1792  0.2978  0.6167
  105TMC2     H 1638   2.956   3.062   0.027 -0.4888 -0.2110  3.5109
  105TMC2    H1 1639   3.349   3.254   0.022  0.1286  0.0871 -0.2748
  105TMC2    H2 1640   3.018   3.454   0.185 -1.1555 -0.0853 -2.8462
  105TMC2    C7 1641   3.273   3.462   0.119  0.2394  0.9627  0.4529
  105TMC2    C8 1642   2.847   3.220   0.180 -1.1149 -0.2707  0.4082
  105TMC2    O1 1643   3.356   3.482   0.032 -0.0259  0.0069  0.0972
  105TMC2    O2 1644   2.807   3.256   0.292  1.0050 -0.2989  0.5050
  105TMC2    O5 1645   2.769   3.232   0.068 -0.1909  0.7547  0.2966
  105TMC2    H5 1646   2.816   3.203  17.732  1.2022  1.1345  0.9600
  106MPD2     C 1647   3.513   2.961  17.266 -0.1709 -0.0707 -1.1134
  106MPD2    C1 1648   3.576   3.052  17.352 -1.3009  0.0617  0.0464
  106MPD2    C2 1649   3.505   3.073  17.469 -0.4136  0.5357 -0.8077
  106MPD2    C3 1650   3.386   3.011  17.507  0.1479  0.1657  0.7639
  106MPD2    C4 1651   3.330   2.926  17.418 -0.1114  1.2239 -0.7244
  106MPD2    C5 1652   3.401   2.905  17.304  0.6229  0.0506  0.4207
  106MPD2     H 1653   3.550   3.147  17.535  0.4301  0.3132 -1.1285
  106MPD2    H1 1654   3.236   2.875  17.433  0.5926  0.1383  0.0638
  106MPD2    H2 1655   3.540   2.956  17.161  0.2701  2.4386 -1.1166
  106MPD2    H3 1656   3.348   2.858  17.221  0.4968 -0.1873  0.6359
  106MPD2     N 1657   3.325   3.063  17.617  0.7195  0.5823 -0.1766
  106MPD2    H5 1658   3.373   3.146  17.650 -0.1117  1.6890 -1.7326
  106MPD2    N1 1659   3.684   3.140  17.318  0.3024 -0.4377 -0.2780
  106MPD2    H7 1660   3.696   3.223  17.375  1.8757 -0.9618  0.1379
  107TMC2    C1 1661   4.377   3.794  11.379 -0.3922  0.5371 -0.6621
  107TMC2    C2 1662   4.302   3.910  11.370  0.0504 -0.1884 -0.2782
  107TMC2    C3 1663   4.350   4.005  11.291  0.1773  0.1376 -0.5799
  107TMC2    C4 1664   4.504   3.789  11.337 -0.2371  0.6145 -0.2795
  107TMC2    C5 1665   4.556   3.894  11.266  0.3188  0.2810 -0.1020
  107TMC2    C6 1666   4.481   4.002  11.242 -0.0719 -0.3425  0.3068
  107TMC2     C 1667   4.310   3.687  11.453  0.1750  0.4832 -0.3959
  107TMC2     O 1668   4.202   3.713  11.505  0.5957 -0.2998  0.3759
  107TMC2     H 1669   4.203   3.907  11.413 -0.2276  1.4517 -0.8391
  107TMC2    H1 1670   4.565   3.706  11.368  0.5416  0.6898 -1.6116
  107TMC2    H2 1671   4.521   4.083  11.181  1.5817 -0.1483  1.6751
  107TMC2    C7 1672   4.670   3.873  11.171  1.0335 -0.9814 -0.0974
  107TMC2    C8 1673   4.282   4.138  11.292  0.5243 -0.3070  0.2444
  107TMC2    O1 1674   4.676   3.948  11.073  0.0348 -0.7333  0.5158
  107TMC2    O2 1675   4.345   4.246  11.303  0.0526 -0.2870  0.0915
  107TMC2    O5 1676   4.156   4.125  11.330  0.0485 -0.5497  0.2703
  107TMC2    H5 1677   4.126   4.032  11.318 -1.4651  0.1691 -1.5223
  108MPD2     C 1678   4.411   3.339  11.476  0.8195  0.3408  0.6807
  108MPD2    C1 1679   4.354   3.452  11.516 -0.1697 -0.1010  0.8594
  108MPD2    C2 1680   4.273   3.454  11.625 -0.1178  0.2437 -1.0590
  108MPD2    C3 1681   4.255   3.339  11.695 -0.4005  0.0362 -0.1351
  108MPD2    C4 1682   4.310   3.220  11.651 -0.1350 -0.0392  0.2495
  108MPD2    C5 1683   4.393   3.224  11.543 -0.1620 -0.5085  0.2991
  108MPD2     H 1684   4.214   3.542  11.650  0.0948 -0.5631  2.2966
  108MPD2    H1 1685   4.279   3.126  11.694  0.7042 -0.5333 -0.2378
  108MPD2    H2 1686   4.469   3.337  11.384  0.2866 -1.2105  0.3817
  108MPD2    H3 1687   4.434   3.133  11.499 -1.0734 -0.0127 -1.5881
  108MPD2     N 1688   4.169   3.351  11.809 -0.0360  0.6821 -0.5131
  108MPD2    H5 1689   4.134   3.443  11.833 -1.8943 -0.5480  1.5279
  108MPD2    N1 1690   4.378   3.568  11.440 -0.0101 -0.5675  0.0413
  108MPD2    H7 1691   4.438   3.560  11.358 -1.0418  0.0720 -0.7691
  109TMC2    C1 1692   3.954   0.605   0.190  0.4350  0.5304 -0.3297
  109TMC2    C2 1693   3.917   0.656   0.070  0.8403 -0.3452 -0.1350
  109TMC2    C3 1694   3.991   0.758   0.012 -0.0757 -0.0062 -0.4715
  109TMC2    C4 1695   4.069   0.643   0.250 -0.6102 -0.5382  0.1173
  109TMC2    C5 1696   4.147   0.734   0.185 -0.8120  0.4875  0.0062
  109TMC2    C6 1697   4.107   0.800   0.071 -0.2065  0.1717 -0.3518
  109TMC2     C 1698   3.913   0.470   0.227 -0.0695  0.2794  0.8842
  109TMC2     O 1699   3.889   0.391   0.134 -0.0931 -0.6643  0.6931
  109TMC2     H 1700   3.828   0.619   0.020  0.1904  0.5521  0.3419
  109TMC2    H1 1701   4.090   0.610   0.351 -5.4531  1.5963  1.8410
  109TMC2    H2 1702   4.149   0.896   0.043 -0.2437 -0.1733 -1.6116
  109TMC2    C7 1703   4.257   0.774   0.279  0.3516  0.7857 -0.2800
  109TMC2    C8 1704   3.942   0.821  17.641 -0.2610 -0.1624  0.0097
  109TMC2    O1 1705   4.263   0.720   0.390  0.7761 -0.1872  0.4874
  109TMC2    O2 1706   3.966   0.937  17.621  0.1978  0.2442  0.0598
  109TMC2    O5 1707   3.886   0.741  17.553 -0.1007 -0.0574 -0.4295
  109TMC2    H5 1708   3.904   0.648  17.581 -2.2277 -0.5784 -0.7563
  110MPD2     C 1709   3.829   0.094   0.566  0.7017  0.1801 -0.1015
  110MPD2    C1 1710   3.868   0.208   0.634  0.4872  0.8515 -0.5881
  110MPD2    C2 1711   3.906   0.321   0.565 -0.0390 -0.3723 -0.2104
  110MPD2    C3 1712   3.887   0.328   0.426  0.7045 -0.6901  0.7457
  110MPD2    C4 1713   3.845   0.211   0.362  0.2395  0.0725  0.4691
  110MPD2    C5 1714   3.820   0.093   0.427 -0.3837  0.5209  0.3077
  110MPD2     H 1715   3.903   0.411   0.625 -1.3545  0.7347 -1.9174
  110MPD2    H1 1716   3.829   0.207   0.254 -0.5155 -0.6625  0.6050
  110MPD2    H2 1717   3.819   4.734   0.615 -1.9364  0.7586  0.5061
  110MPD2    H3 1718   3.791   0.005   0.370  0.9573  2.0151 -2.6368
  110MPD2     N 1719   3.911   0.447   0.364  0.7480 -0.1696  0.0046
  110MPD2    H5 1720   3.933   0.527   0.422 -1.4286  1.2916 -1.1788
  110MPD2    N1 1721   3.870   0.202   0.777 -0.8418 -0.4457  0.3634
  110MPD2    H7 1722   3.860   0.111   0.821 -1.1048 -0.5480  0.0952
  111TMC2    C1 1723   0.485   0.315  11.638 -0.5432  0.2979  0.2904
  111TMC2    C2 1724   0.524   0.220  11.550 -0.1589 -0.2096 -0.1327
  111TMC2    C3 1725   0.642   0.160  11.578 -0.1652  0.4655 -0.2458
  111TMC2    C4 1726   0.563   0.358  11.744 -0.2262  0.3532  0.2303
  111TMC2    C5 1727   0.674   0.289  11.769 -0.0782  0.6258  0.0212
  111TMC2    C6 1728   0.719   0.188  11.688 -0.4454 -0.2840  0.3570
  111TMC2     C 1729   0.344   0.340  11.660  0.6584 -0.7432  0.7941
  111TMC2     O 1730   0.314   0.371  11.775  0.2958  0.3763  0.2939
  111TMC2     H 1731   0.451   0.166  11.490 -1.3601  2.9709 -1.5519
  111TMC2    H1 1732   0.531   0.433  11.815 -0.7522  0.3859 -0.0443
  111TMC2    H2 1733   0.805   0.133  11.725 -0.3590 -0.3109  0.1155
  111TMC2    C7 1734   0.673   0.245  11.902 -0.3277  0.4549 -0.2116
  111TMC2    C8 1735   0.719   0.093  11.473 -0.3426 -0.2315 -0.6793
  111TMC2    O1 1736   0.782   0.204  11.946 -0.2644 -0.1235 -0.1050
  111TMC2    O2 1737   0.798   0.001  11.485  0.5876  0.5306 -0.5762
  111TMC2    O5 1738   0.663   0.127  11.360 -0.4311  0.0560 -0.6531
  111TMC2    H5 1739   0.606   0.205  11.375  0.7354  0.5836  1.0507
  112MPD2     C 1740   4.593   0.331  11.536  0.2425 -0.7925  0.1268
  112MPD2    C1 1741   4.658   0.359  11.424  0.3327 -0.5289 -0.2764
  112MPD2    C2 1742   0.061   0.345  11.424 -0.0456  0.2989  0.4980
  112MPD2    C3 1743   0.125   0.323  11.545  0.0353 -0.0157 -0.2739
  112MPD2    C4 1744   0.051   0.308  11.660 -0.5375  0.4511 -0.1969
  112MPD2    C5 1745   4.655   0.305  11.656  0.3707  0.1646 -0.6272
  112MPD2     H 1746   0.124   0.364  11.338 -1.6364  0.7219 -0.5660
  112MPD2    H1 1747   0.098   0.284  11.754  4.5872 -0.1068 -2.8571
  112MPD2    H2 1748   4.484   0.334  11.542  0.2306 -1.2896  0.2106
  112MPD2    H3 1749   4.591   0.292  11.743  0.9267 -0.9254 -0.3709
  112MPD2     N 1750   0.263   0.324  11.550 -0.0469 -0.1359 -0.3609
  112MPD2    H5 1751   0.311   0.331  11.461 -0.2695 -1.0066 -0.5421
  112MPD2    N1 1752   4.600   0.384  11.297  0.2943  0.2036 -0.2002
  112MPD2    H7 1753   4.662   0.374  11.217 -0.8959  1.0447 -1.2157
  113TMC2    C1 1754   2.214   3.035   0.694  0.8613  0.1356  0.0147
  113TMC2    C2 1755   2.117   3.122   0.657 -0.4414 -0.8452 -0.4544
  113TMC2    C3 1756   2.006   3.074   0.602  0.1387 -0.2050 -0.2811
  113TMC2    C4 1757   2.195   2.902   0.672  0.1612 -0.3725 -1.2787
  113TMC2    C5 1758   2.076   2.859   0.621 -0.3417 -0.0182  0.3345
  113TMC2    C6 1759   1.976   2.944   0.583  0.8009 -0.1270 -0.0813
  113TMC2     C 1760   2.330   3.089   0.752 -1.0715  0.3364 -0.0678
  113TMC2     O 1761   2.335   3.197   0.811 -0.2226 -0.4322 -0.0897
  113TMC2     H 1762   2.134   3.229   0.668 -1.4709 -0.5776 -1.4698
  113TMC2    H1 1763   2.269   2.829   0.702 -0.4397 -0.3766  0.2150
  113TMC2    H2 1764   1.880   2.912   0.544  0.2951  0.5078  0.6223
  113TMC2    C7 1765   2.036   2.719   0.626 -0.1491 -0.1520  0.3344
  113TMC2    C8 1766   1.893   3.165   0.610 -0.1959 -0.8665  0.7019
  113TMC2    O1 1767   1.932   2.693   0.565 -0.1928 -0.2856  0.0224
  113TMC2    O2 1768   1.875   3.239   0.708  0.8673 -0.1494  0.4340
  113TMC2    O5 1769   1.884   3.195   0.476 -0.4564 -0.6805 -0.0960
  113TMC2    H5 1770   1.931   3.131   0.418  1.4349  1.2100 -0.6331
  114MPD2     C 1771   2.834   3.101   0.863  0.0585  0.0052  0.3592
  114MPD2    C1 1772   2.724   3.174   0.917  0.1827 -0.2884  0.0026
  114MPD2    C2 1773   2.600   3.143   0.864  0.0264 -0.7610 -0.0023
  114MPD2    C3 1774   2.576   3.053   0.770 -0.1293 -0.1426 -0.0795
  114MPD2    C4 1775   2.686   2.985   0.716 -0.4792  0.3087 -0.3353
  114MPD2    C5 1776   2.808   3.012   0.762 -0.2639  0.5583  0.3047
  114MPD2     H 1777   2.525   3.200   0.918  1.9403  1.5946  0.1729
  114MPD2    H1 1778   2.674   2.904   0.646 -1.5806 -1.4351  1.8817
  114MPD2    H2 1779   2.934   3.105   0.905 -0.0602  1.7588  0.4498
  114MPD2    H3 1780   2.893   2.970   0.710  1.0509  0.9798  2.0820
  114MPD2     N 1781   2.442   3.016   0.729 -0.3600  0.3167 -0.2324
  114MPD2    H5 1782   2.433   2.943   0.659 -0.3294  0.0612  0.0324
  114MPD2    N1 1783   2.740   3.273   1.015  0.4201 -0.1655 -0.0866
  114MPD2    H7 1784   2.657   3.309   1.061  1.0615  0.7973  0.3122
  115TMC2    C1 1785   3.216   0.500   0.110 -0.0835  0.0056 -0.9207
  115TMC2    C2 1786   3.355   0.487   0.076  0.3573  0.0907  0.2013
  115TMC2    C3 1787   3.389   0.570  17.720 -0.1034  0.3099 -0.2993
  115TMC2    C4 1788   3.133   0.588   0.051  0.1491  0.8191 -0.0115
  115TMC2    C5 1789   3.172   0.665  17.687 -0.4634  1.1417 -0.6760
  115TMC2    C6 1790   3.307   0.661  17.655 -0.1156  0.7609  0.1170
  115TMC2     C 1791   3.158   0.372   0.134 -0.4038  0.2440  0.3725
  115TMC2     O 1792   3.235   0.284   0.098  0.1324  0.2212 -0.1404
  115TMC2     H 1793   3.419   0.410   0.118 -1.0450 -1.2904 -0.1488
  115TMC2    H1 1794   3.027   0.598   0.073  0.3012  0.3579  0.9103
  115TMC2    H2 1795   3.354   0.726  17.582  1.7804  0.3624  0.9920
  115TMC2    C7 1796   3.105   0.789  17.658  0.1042 -0.2594 -0.4208
  115TMC2    C8 1797   3.520   0.550  17.656 -0.1740 -0.4650 -0.4290
  115TMC2    O1 1798   3.028   0.816   0.003  0.1108 -0.0643  0.4359
  115TMC2    O2 1799   3.546   0.596  17.543  0.1086  0.0791  0.1111
  115TMC2    O5 1800   3.609   0.517   0.003  0.0666  0.0693  0.4242
  115TMC2    H5 1801   3.572   0.504   0.093 -1.1748  0.6539 -0.0076
  116MPD2     C 1802   2.697   0.160   0.066  0.0215  1.1190  0.5818
  116MPD2    C1 1803   2.821   0.135   0.007 -0.3078  0.6094 -0.1220
  116MPD2    C2 1804   2.933   0.192   0.061  0.2780 -0.2396  1.6042
  116MPD2    C3 1805   2.920   0.296   0.152 -0.1874  1.1665 -0.3189
  116MPD2    C4 1806   2.794   0.327   0.198  0.4405 -0.7841 -0.4827
  116MPD2    C5 1807   2.683   0.252   0.164  0.1226  0.9250 -0.3056
  116MPD2     H 1808   3.033   0.170   0.024 -0.3788 -1.2914  0.4835
  116MPD2    H1 1809   2.774   0.409   0.266  1.3273  0.1851 -1.3932
  116MPD2    H2 1810   2.606   0.110   0.036  1.2524  0.0547 -1.3759
  116MPD2    H3 1811   2.582   0.274   0.197 -0.7850 -1.4791 -1.5224
  116MPD2     N 1812   3.030   0.374   0.189  0.2279 -0.4425  0.7074
  116MPD2    H5 1813   3.005   0.456   0.244 -0.0790 -0.0502 -0.0187
  116MPD2    N1 1814   2.834   0.039  17.644  0.8208 -0.4213  0.0920
  116MPD2    H7 1815   2.747   4.724  17.632  0.4322  0.2996 -0.2097
  117TMC2    C1 1816   2.031   2.063  14.260 -0.3170 -0.1500  0.1131
  117TMC2    C2 1817   2.152   2.003  14.282 -0.1396  0.6644 -1.1789
  117TMC2    C3 1818   2.257   2.096  14.275 -0.2644 -0.2003 -0.5934
  117TMC2    C4 1819   2.020   2.196  14.233 -0.1161 -0.4737 -0.1761
  117TMC2    C5 1820   2.132   2.274  14.247 -0.6053  0.7606 -0.3857
  117TMC2    C6 1821   2.255   2.226  14.266 -0.4191 -0.1088 -0.5792
  117TMC2     C 1822   1.917   1.970  14.242  0.2540 -0.4864  0.0943
  117TMC2     O 1823   1.928   1.857  14.293 -0.0194 -1.0704  0.5649
  117TMC2     H 1824   2.172   1.900  14.255 -0.8870 -0.1889  1.5966
  117TMC2    H1 1825   1.920   2.233  14.218  0.6181  1.6720  0.2295
  117TMC2    H2 1826   2.345   2.287  14.256 -0.2005 -0.5064 -1.0145
  117TMC2    C7 1827   2.119   2.420  14.241  0.3229 -0.0185  0.4147
  117TMC2    C8 1828   2.395   2.037  14.267 -0.4202  0.2393  0.1207
  117TMC2    O1 1829   2.216   2.486  14.279 -0.4732 -0.3186 -0.7322
  117TMC2    O2 1830   2.487   2.075  14.193 -0.1633 -0.2706 -0.1122
  117TMC2    O5 1831   2.383   1.926  14.339 -0.4994 -0.0052  0.4067
  117TMC2    H5 1832   2.325   1.945  14.416 -0.0743  1.1984  0.4220
  118MPD2     C 1833   1.805   2.590  14.157 -0.1746 -0.3835 -0.4051
  118MPD2    C1 1834   1.941   2.576  14.184  0.3299  0.2111 -0.4373
  118MPD2    C2 1835   2.007   2.695  14.202  0.1017  0.3057  0.0989
  118MPD2    C3 1836   1.947   2.822  14.208 -0.1250 -0.4329  0.6361
  118MPD2    C4 1837   1.808   2.832  14.193  0.0911  0.4267  0.0423
  118MPD2    C5 1838   1.745   2.715  14.169  0.2402  0.4268  0.1125
  118MPD2     H 1839   2.115   2.685  14.194  0.0820 -0.0106  0.2017
  118MPD2    H1 1840   1.749   2.923  14.190 -1.6793 -0.7227 -0.0504
  118MPD2    H2 1841   1.745   2.502  14.134  0.0074 -0.6519  0.1634
  118MPD2    H3 1842   1.639   2.719  14.150  0.3879  1.1131 -0.5683
  118MPD2     N 1843   2.017   2.934  14.211  0.1425 -0.7249 -0.2762
  118MPD2    H5 1844   1.964   3.016  14.236  1.0437  0.2705 -1.6714
  118MPD2    N1 1845   1.997   2.449  14.189  0.4679 -0.3749  0.7485
  118MPD2    H7 1846   1.936   2.376  14.153  0.4029  0.5540 -1.0436
  119TMC2    C1 1847   0.056   3.269  13.440 -0.2434 -0.0474  0.1291
  119TMC2    C2 1848   0.082   3.219  13.314  0.3713 -0.6664  0.3368
  119TMC2    C3 1849   4.708   3.162  13.247 -0.4870  0.3343 -0.3432
  119TMC2    C4 1850   4.668   3.268  13.497  0.3180  0.2472  0.5391
  119TMC2    C5 1851   4.570   3.214  13.425  0.0374  0.8299  0.7153
  119TMC2    C6 1852   4.584   3.156  13.303  0.0287 -0.0717  0.7110
  119TMC2     C 1853   0.145   3.375  13.487 -0.2609 -0.1331  0.3563
  119TMC2     O 1854   0.109   3.458  13.569  0.4309 -0.4025  0.0493
  119TMC2     H 1855   0.179   3.227  13.267 -1.5913 -1.4156 -3.8622
  119TMC2    H1 1856   4.652   3.311  13.596  2.5309  0.5320  0.7772
  119TMC2    H2 1857   4.494   3.126  13.252 -0.8214  2.3082  0.8166
  119TMC2    C7 1858   4.434   3.245  13.467 -0.4661 -0.5482 -0.2067
  119TMC2    C8 1859   4.736   3.081  13.131  0.3850  1.2288 -0.6654
  119TMC2    O1 1860   4.342   3.283  13.395  0.5556 -0.0736 -0.4134
  119TMC2    O2 1861   0.111   3.046  13.102  0.1088 -0.5395  0.5911
  119TMC2    O5 1862   4.628   3.089  13.053  0.2365 -0.2910 -0.4045
  119TMC2    H5 1863   4.556   3.134  13.102  0.8757  0.3246 -0.0336
  120MPD2     C 1864   0.626   3.539  13.572 -0.1614  0.5619  0.1514
  120MPD2    C1 1865   0.513   3.550  13.649  0.0675 -0.1024 -0.2871
  120MPD2    C2 1866   0.395   3.505  13.594 -0.5861 -0.0944 -1.2714
  120MPD2    C3 1867   0.392   3.423  13.480  0.5609 -0.1011 -0.3798
  120MPD2    C4 1868   0.512   3.398  13.411 -0.3505 -0.2068 -0.9248
  120MPD2    C5 1869   0.630   3.454  13.463 -0.3184 -0.0059 -0.0911
  120MPD2     H 1870   0.299   3.524  13.641  0.6627  2.9008  0.0809
  120MPD2    H1 1871   0.511   3.341  13.319 -1.9008  0.3628 -1.2634
  120MPD2    H2 1872   0.723   3.580  13.597 -0.9137  1.8337  0.9783
  120MPD2    H3 1873   0.724   3.431  13.415 -1.7308 -2.1876 -1.8465
  120MPD2     N 1874   0.271   3.362  13.440 -0.6367  0.1990  0.5617
  120MPD2    H5 1875   0.285   3.289  13.371 -1.6174 -1.6805  2.3419
  120MPD2    N1 1876   0.524   3.622  13.775 -0.4828 -0.2399 -0.3589
  120MPD2    H7 1877   0.615   3.667  13.777 -0.6520  0.1169 -0.6771
  121TMC2    C1 1878   1.923   0.383  14.214 -0.4618  0.5201  0.5852
  121TMC2    C2 1879   1.885   0.472  14.312  0.6155 -0.2422 -1.4499
  121TMC2    C3 1880   1.748   0.466  14.346  0.2712  0.0078 -0.2253
  121TMC2    C4 1881   1.843   0.283  14.158  0.2503  0.8782 -0.0695
  121TMC2    C5 1882   1.705   0.287  14.194  1.2413 -0.3051 -0.1543
  121TMC2    C6 1883   1.662   0.377  14.285  0.2890  0.1861  0.3437
  121TMC2     C 1884   2.035   0.429  14.137  0.1509 -0.2618  0.0509
  121TMC2     O 1885   2.137   0.457  14.195  0.1227  0.5424  0.1207
  121TMC2     H 1886   1.949   0.551  14.349 -1.1103  0.7511 -0.5794
  121TMC2    H1 1887   1.877   0.206  14.089  1.4558  0.6303  0.7998
  121TMC2    H2 1888   1.563   0.365  14.327  1.1775 -0.5758  2.2117
  121TMC2    C7 1889   1.626   0.207  14.102 -0.6141 -0.4543  0.5797
  121TMC2    C8 1890   1.688   0.589  14.406  0.2922 -1.3505 -0.2804
  121TMC2    O1 1891   1.677   0.106  14.059 -0.4184 -0.2702 -0.3748
  121TMC2    O2 1892   1.727   0.653  14.504  0.2488 -0.3806 -0.2098
  121TMC2    O5 1893   1.617   0.645  14.305  0.5843  0.3333 -0.5097
  121TMC2    H5 1894   1.633   0.601  14.219 -1.7769  2.2227 -1.9423
  122MPD2     C 1895   2.193   0.555  13.918 -1.0392  0.1332  0.2282
  122MPD2    C1 1896   2.060   0.522  13.903 -0.4649  0.5572  0.1572
  122MPD2    C2 1897   2.009   0.528  13.777  0.0075 -0.6586 -0.4908
  122MPD2    C3 1898   2.071   0.581  13.671  0.2338 -0.6386 -0.7082
  122MPD2    C4 1899   2.203   0.601  13.685  0.3232 -0.1900  0.2784
  122MPD2    C5 1900   2.263   0.586  13.800  0.3572 -0.0307  0.2561
  122MPD2     H 1901   1.909   0.488  13.766 -0.3404  0.1960 -0.4205
  122MPD2    H1 1902   2.248   0.669  13.613 -0.9252 -0.2632 -0.5761
  122MPD2    H2 1903   2.248   0.537  14.010 -0.4029 -0.6082 -0.2953
  122MPD2    H3 1904   2.369   0.600  13.817  0.3998  1.6533 -1.4406
  122MPD2     N 1905   2.015   0.611  13.547  0.1682 -0.5726  0.4484
  122MPD2    H5 1906   2.076   0.626  13.467 -1.1371 -2.7500 -0.9711
  122MPD2    N1 1907   1.988   0.459  14.011  0.0740  0.4438 -0.1376
  122MPD2    H7 1908   1.887   0.472  14.005  0.0331 -0.3316 -1.0322
  123TMC2    C1 1909   4.529   3.648  10.909 -0.4426  0.8567 -0.6669
  123TMC2    C2 1910   4.495   3.778  10.869 -0.2853  0.1666  0.3542
  123TMC2    C3 1911   4.548   3.822  10.750 -0.4631  0.4949 -0.2280
  123TMC2    C4 1912   4.617   3.570  10.843  0.4062 -0.1813 -0.9341
  123TMC2    C5 1913   4.665   3.620  10.728 -0.6821 -0.2047  0.9114
  123TMC2    C6 1914   4.638   3.748  10.684 -0.6442  0.4613  0.7595
  123TMC2     C 1915   4.438   3.582  11.011  0.0206 -0.8672  0.0220
  123TMC2     O 1916   4.371   3.654  11.085  0.1003  0.1388 -0.1177
  123TMC2     H 1917   4.409   3.828  10.911 -0.3416  2.1224 -2.0737
  123TMC2    H1 1918   4.639   3.469  10.877  2.9553  0.4672 -0.6638
  123TMC2    H2 1919   4.667   3.786  10.586 -1.5331  1.1406  0.7678
  123TMC2    C7 1920   4.726   3.526  10.637  0.1617  0.1117  0.8542
  123TMC2    C8 1921   4.524   3.958  10.721  0.2532  0.1934 -0.3298
  123TMC2    O1 1922   4.714   3.409  10.670  0.1479 -0.1851 -0.1904
  123TMC2    O2 1923   4.505   3.984  10.603  0.3935  0.2132 -0.0755
  123TMC2    O5 1924   4.609   4.025  10.798 -0.4034  0.6859  0.5921
  123TMC2    H5 1925   4.629   3.971  10.878 -2.2720  0.1955  0.7193
  124MPD2     C 1926   4.229   3.164  11.229  1.1436  0.1856  0.0452
  124MPD2    C1 1927   4.330   3.126  11.146  0.2232  0.6740  0.4806
  124MPD2    C2 1928   4.406   3.223  11.085  0.2620  0.5006  0.7653
  124MPD2    C3 1929   4.373   3.356  11.091  0.1978  1.1633  0.3394
  124MPD2    C4 1930   4.263   3.397  11.166 -0.2901  0.2697 -0.0783
  124MPD2    C5 1931   4.195   3.295  11.225  0.2650 -0.1777 -0.1900
  124MPD2     H 1932   4.486   3.201  11.015  0.1236 -1.5226  1.2232
  124MPD2    H1 1933   4.237   3.499  11.190  4.2787  1.3302  0.5113
  124MPD2    H2 1934   4.160   3.101  11.285  0.4048  1.2131  0.2772
  124MPD2    H3 1935   4.115   3.326  11.291 -0.9262  1.5656 -2.4196
  124MPD2     N 1936   4.438   3.444  11.004  0.8155 -0.1462  0.0073
  124MPD2    H5 1937   4.502   3.403  10.937 -1.4688 -1.0105 -1.6546
  124MPD2    N1 1938   4.335   2.988  11.116  0.6633  0.3744  0.1671
  124MPD2    H7 1939   4.265   2.932  11.164 -0.4457  1.6969  0.0980
  125TMC2    C1 1940   1.181   0.241   9.346  0.1894  0.0579 -0.0031
  125TMC2    C2 1941   1.220   0.248   9.478 -0.4654 -0.5577 -0.2390
  125TMC2    C3 1942   1.252   0.134   9.545  0.1084  0.6010 -0.3106
  125TMC2    C4 1943   1.181   0.122   9.282  0.1878 -0.3538 -0.0105
  125TMC2    C5 1944   1.212   0.007   9.351 -0.7462 -0.4897 -0.1567
  125TMC2    C6 1945   1.250   0.008   9.482 -0.2920  0.3770  0.0559
  125TMC2     C 1946   1.203   0.363   9.262  0.3558  0.4797 -0.0663
  125TMC2     O 1947   1.234   0.353   9.142  0.3162  0.6414 -0.4627
  125TMC2     H 1948   1.245   0.343   9.525 -4.1857  1.1086 -1.6451
  125TMC2    H1 1949   1.141   0.119   9.181  2.2655  2.4321 -0.9196
  125TMC2    H2 1950   1.284   4.655   9.533  0.4046  1.9643  2.4199
  125TMC2    C7 1951   1.214   4.611   9.295 -0.6564  0.3368  0.1936
  125TMC2    C8 1952   1.320   0.147   9.674 -0.2941  0.3025 -0.4368
  125TMC2    O1 1953   1.236   4.517   9.369 -0.2370  0.2072  0.1651
  125TMC2    O2 1954   1.356   0.253   9.728  0.0761 -0.1463  0.1814
  125TMC2    O5 1955   1.272   0.042   9.746  0.3351 -0.1184 -0.3640
  125TMC2    H5 1956   1.196   4.727   9.712  0.6173 -0.8789  0.1539
  126MPD1     C 1957   1.315   0.846   9.184  0.5599 -0.1209  0.6581
  126MPD1    C1 1958   1.230   0.832   9.287 -0.1355  0.0959  1.0029
  126MPD1    C2 1959   1.186   0.711   9.331  0.4166 -0.5407  0.7548
  126MPD1    C3 1960   1.231   0.601   9.264  0.0908 -0.5870  0.7733
  126MPD1    C4 1961   1.318   0.620   9.157 -0.5359 -0.7419  0.1144
  126MPD1    C5 1962   1.358   0.738   9.114 -0.4248 -0.3897  0.1691
  126MPD1     H 1963   1.121   0.700   9.417  0.5363  0.3768  0.9579
  126MPD1    H1 1964   1.363   0.539   9.100  0.0697 -0.3101 -0.0266
  126MPD1    H2 1965   1.346   0.945   9.151 -0.1740  0.4229  1.5834
  126MPD1    H3 1966   1.425   0.760   9.031  0.2196  0.2022  0.8467
  126MPD1     N 1967   1.188   0.480   9.326 -0.4197 -0.3884  0.1747
  126MPD1    H5 1968   1.135   0.482   9.412 -1.5891 -1.2724 -0.5184
  126MPD1    N1 1969   1.203   0.951   9.351  0.2771  0.0213 -0.1655
  126MPD1    H6 1970   1.199   1.032   9.288 -0.1740 -1.1660 -1.6567
  126MPD1    H7 1971   1.109   0.939   9.387 -0.1640  0.5416 -1.1453
  127TMC2    C1 1972   1.241   3.889   9.560 -0.8063  0.2801 -0.6517
  127TMC2    C2 1973   1.355   3.863   9.635 -0.0106  0.0365  0.1672
  127TMC2    C3 1974   1.350   3.908   9.773  0.6653 -0.2598 -0.6203
  127TMC2    C4 1975   1.125   3.943   9.616 -0.3793 -0.2214 -0.4450
  127TMC2    C5 1976   1.126   3.961   9.751 -0.0390  0.2439 -0.2739
  127TMC2    C6 1977   1.237   3.950   9.832 -0.6465  0.0715 -0.4707
  127TMC2     C 1978   1.225   3.821   9.437 -1.3003  0.0785 -0.1957
  127TMC2     O 1979   1.329   3.778   9.388  0.1436  0.2382 -0.3382
  127TMC2     H 1980   1.447   3.842   9.582 -0.3709 -3.7269  0.9827
  127TMC2    H1 1981   1.040   3.981   9.561 -0.4549  1.5672  0.9155
  127TMC2    H2 1982   1.237   3.993   9.931  1.0056  2.5276 -1.5578
  127TMC2    C7 1983   0.994   3.988   9.810  0.2064  0.2679  0.4633
  127TMC2    C8 1984   1.477   3.904   9.847  0.2154 -0.5518  0.5524
  127TMC2    O1 1985   0.899   4.020   9.740 -0.1477 -0.4872 -0.4330
  127TMC2    O2 1986   1.581   3.881   9.786 -0.0214 -0.5586 -0.1999
  127TMC2    O5 1987   1.434   3.832   9.944  0.4696 -0.1258  0.4972
  127TMC2    H5 1988   1.345   3.850   9.981  0.5654 -0.3997  0.8533
  128MPD2     C 1989   0.909   3.700   9.282  0.0467  0.6338  0.3979
  128MPD2    C1 1990   1.042   3.733   9.295  0.5336 -0.4737 -0.3617
  128MPD2    C2 1991   1.120   3.728   9.181 -0.3899  0.8912  0.0410
  128MPD2    C3 1992   1.070   3.682   9.060 -0.1500  0.0996 -0.1795
  128MPD2    C4 1993   0.937   3.651   9.046 -0.7863 -0.4256  0.5570
  128MPD2    C5 1994   0.860   3.667   9.159  0.7366  0.1889 -0.7662
  128MPD2     H 1995   1.222   3.763   9.181  0.3838 -1.3522  0.5800
  128MPD2    H1 1996   0.881   3.633   8.955  0.9653 -0.8344 -0.4448
  128MPD2    H2 1997   0.838   3.710   9.364 -0.9380 -1.2909 -0.2207
  128MPD2    H3 1998   0.755   3.645   9.150  0.8228 -0.9260  0.8044
  128MPD2     N 1999   1.158   3.683   8.945  0.0245  0.2002  0.3336
  128MPD2    H5 2000   1.256   3.699   8.962  0.0907 -0.8021  0.8801
  128MPD2    N1 2001   1.090   3.789   9.414 -0.2581 -0.2498  0.2022
  128MPD2    H7 2002   1.023   3.802   9.488 -2.2836  0.3188 -1.7521
  129TMC2    C1 2003   0.733   0.027   1.471 -0.2260  0.8518 -0.0057
  129TMC2    C2 2004   0.676   0.155   1.456  0.6903 -0.0947  0.3628
  129TMC2    C3 2005   0.571   0.182   1.534  0.6221 -0.3347  0.7086
  129TMC2    C4 2006   0.683   4.661   1.551 -0.3759 -0.5012 -0.5716
  129TMC2    C5 2007   0.564   4.697   1.613 -0.5885  0.3548 -0.2664
  129TMC2    C6 2008   0.501   0.081   1.606 -0.1733  0.4209 -0.5256
  129TMC2     C 2009   0.832   4.718   1.368 -0.3821 -0.3831 -0.1048
  129TMC2     O 2010   0.832   4.600   1.338  0.3894 -0.9488  0.1848
  129TMC2     H 2011   0.733   0.223   1.395  0.9870 -0.9578 -0.3224
  129TMC2    H1 2012   0.727   4.563   1.535 -0.1940 -0.5957  0.4962
  129TMC2    H2 2013   0.408   0.094   1.662 -0.1384 -1.4386 -0.0436
  129TMC2    C7 2014   0.496   4.592   1.688  0.5438  0.1880 -0.1045
  129TMC2    C8 2015   0.509   0.316   1.528  0.6153  0.3811 -0.3410
  129TMC2    O1 2016   0.378   4.605   1.709 -0.0739 -0.4246  0.3183
  129TMC2    O2 2017   0.577   0.393   1.458  0.3603  0.5607 -0.5774
  129TMC2    O5 2018   0.442   0.330   1.645 -0.4296  0.4299  0.1463
  129TMC2    H5 2019   0.396   0.251   1.679  0.2470 -0.5353 -1.1817
  130MPD2     C 2020   1.033   4.693   1.142  0.3620  0.3901 -0.5896
  130MPD2    C1 2021   1.025   0.064   1.216  0.0734 -0.3445  0.5646
  130MPD2    C2 2022   1.114   0.164   1.192 -0.4885 -0.1274 -0.5664
  130MPD2    C3 2023   1.229   0.143   1.115  0.3667 -0.5497  0.0329
  130MPD2    C4 2024   1.244   0.021   1.044 -0.1441 -0.5412  0.2004
  130MPD2    C5 2025   1.138   4.673   1.052  0.0697 -0.0460 -0.3522
  130MPD2     H 2026   1.103   0.257   1.247  1.6932 -0.0223 -0.3157
  130MPD2    H1 2027   1.321   4.734   0.970  0.6738 -0.1451  0.9285
  130MPD2    H2 2028   0.968   4.607   1.148 -0.9377  1.3481 -0.7102
  130MPD2    H3 2029   1.141   4.579   0.997 -1.5160 -0.6122  0.5148
  130MPD2     N 2030   1.320   0.246   1.111 -0.2818 -0.1400 -0.3540
  130MPD2    H5 2031   1.305   0.334   1.159 -1.7269 -0.1119 -0.8673
  130MPD2    N1 2032   0.924   0.077   1.320  0.1774 -0.8063 -0.2781
  130MPD2    H7 2033   0.917   0.166   1.369 -0.1765 -0.0169 -1.7439
  131TMC2    C1 2034   4.400   3.231  10.139  0.3307 -0.0595 -0.4681
  131TMC2    C2 2035   4.404   3.210  10.002  0.0593 -0.5513 -0.5294
  131TMC2    C3 2036   4.427   3.324   9.930  0.1721 -0.3658  0.1372
  131TMC2    C4 2037   4.414   3.348  10.198 -0.5342  0.2584  0.1541
  131TMC2    C5 2038   4.434   3.464  10.121 -0.4158  0.1364  0.1604
  131TMC2    C6 2039   4.445   3.445   9.987  0.4501 -0.2292 -0.1738
  131TMC2     C 2040   4.372   3.128  10.236 -0.3684  0.0945 -0.2013
  131TMC2     O 2041   4.411   3.149  10.348  0.4451  0.7248  0.1875
  131TMC2     H 2042   4.381   3.118   9.949  1.1517 -0.3385 -1.3822
  131TMC2    H1 2043   4.430   3.354  10.305  1.3516 -0.0852 -0.1098
  131TMC2    H2 2044   4.448   3.527   9.916  1.3163 -0.9916 -1.0236
  131TMC2    C7 2045   4.480   3.583  10.194  0.5014 -0.1616  0.6254
  131TMC2    C8 2046   4.452   3.322   9.785 -0.4795  0.6084 -0.0001
  131TMC2    O1 2047   4.448   3.598  10.310  0.3599  0.6955  0.0739
  131TMC2    O2 2048   4.377   3.384   9.712  0.1383  0.2551 -0.0012
  131TMC2    O5 2049   4.498   3.196   9.760 -0.9222  0.1457 -0.0981
  131TMC2    H5 2050   4.567   3.183   9.829 -1.7525 -0.8143  0.5584
  132MPD2     C 2051   4.297   2.779  10.173 -0.4914 -0.2023 -0.0973
  132MPD2    C1 2052   4.319   2.890  10.251 -0.1883  0.8046 -0.1498
  132MPD2    C2 2053   4.316   2.871  10.391 -0.4470  0.3100 -0.5486
  132MPD2    C3 2054   4.283   2.747  10.444  0.3846 -0.1132  0.3752
  132MPD2    C4 2055   4.240   2.650  10.362 -0.4064  0.4767  0.0498
  132MPD2    C5 2056   4.243   2.665  10.226  0.6606  0.2837 -0.1174
  132MPD2     H 2057   4.344   2.952  10.456  1.3169 -2.2015  1.8133
  132MPD2    H1 2058   4.190   2.561  10.401  1.4529 -1.3588 -1.7336
  132MPD2    H2 2059   4.300   2.789  10.065  0.6582 -0.1637 -0.0625
  132MPD2    H3 2060   4.209   2.579  10.169  0.7998  0.0538  0.1418
  132MPD2     N 2061   4.288   2.733  10.586 -0.1489 -0.2142  0.5380
  132MPD2    H5 2062   4.338   2.801  10.643  0.9971  0.6191 -1.4815
  132MPD2    N1 2063   4.338   3.010  10.181 -0.0597 -0.1986 -0.2080
  132MPD2    H7 2064   4.328   3.004  10.081  0.6672 -0.7651 -0.2406
  133TMC2    C1 2065   4.007   2.902  10.447  0.7171 -0.6330  0.3021
  133TMC2    C2 2066   3.980   2.811  10.351  0.0247  0.0634  0.4501
  133TMC2    C3 2067   3.943   2.692  10.402 -0.1490  0.1042  0.0142
  133TMC2    C4 2068   4.006   2.885  10.585 -0.2493  0.5354 -0.4780
  133TMC2    C5 2069   3.964   2.761  10.624  0.0982 -0.3071 -0.0538
  133TMC2    C6 2070   3.937   2.663  10.536 -0.2142  0.3209  0.4180
  133TMC2     C 2071   4.022   3.040  10.403 -0.1387  0.0469  0.6493
  133TMC2     O 2072   4.025   3.121  10.498  0.3360 -0.3919  0.3690
  133TMC2     H 2073   3.973   2.823  10.244 -3.0624 -2.0496  0.4308
  133TMC2    H1 2074   4.021   2.968  10.653  0.4460  0.0709 -0.0645
  133TMC2    H2 2075   3.890   2.571  10.570 -0.2114 -0.1830 -0.9545
  133TMC2    C7 2076   3.961   2.729  10.767  0.3153  0.4936  0.5204
  133TMC2    C8 2077   3.884   2.601  10.308 -0.0099 -0.0881  0.0541
  133TMC2    O1 2078   4.005   2.812  10.845 -0.0066  0.4788  0.3458
  133TMC2    O2 2079   3.884   2.481  10.314  0.4834  0.0252  0.0747
  133TMC2    O5 2080   3.797   2.670  10.231 -0.6105  0.5484  0.1880
  133TMC2    H5 2081   3.787   2.767  10.234  1.9112  0.8367 -0.6972
  134MPD2     C 2082   4.053   3.195  10.072  0.0510  0.2556  0.0525
  134MPD2    C1 2083   4.031   3.187  10.207  0.0951 -0.7315  0.2342
  134MPD2    C2 2084   4.019   3.310  10.285 -0.4414 -0.3762  0.3234
  134MPD2    C3 2085   4.026   3.433  10.218  0.0797  0.1472  0.5559
  134MPD2    C4 2086   4.052   3.438  10.082 -0.0704 -0.0807 -0.0046
  134MPD2    C5 2087   4.062   3.322  10.015 -0.0725  0.1242 -0.6286
  134MPD2     H 2088   4.007   3.307  10.393 -1.2992  0.7410  0.2528
  134MPD2    H1 2089   4.068   3.532  10.030  1.5742 -0.7034 -0.6338
  134MPD2    H2 2090   4.070   3.106  10.011 -1.9319  0.1137 -0.2799
  134MPD2    H3 2091   4.079   3.333   9.909 -0.3361  0.5863 -0.6252
  134MPD2     N 2092   3.991   3.554  10.275 -0.0516  0.1889  0.7291
  134MPD2    H5 2093   3.996   3.642  10.225  1.5864  1.0808  2.4321
  134MPD2    N1 2094   4.022   3.059  10.268 -0.6461  0.0204 -0.2721
  134MPD2    H7 2095   4.025   2.975  10.211  0.5473 -0.3478  0.3413
  135TMC2    C1 2096   0.612   1.063   9.043 -0.7092 -0.3527  0.5042
  135TMC2    C2 2097   0.477   1.032   9.071  0.7447  0.1507 -0.7061
  135TMC2    C3 2098   0.450   0.958   9.182 -0.5995  0.2123  0.0362
  135TMC2    C4 2099   0.710   1.002   9.121 -0.7464  0.1905 -0.0462
  135TMC2    C5 2100   0.673   0.924   9.226 -0.8932 -0.2294  0.5620
  135TMC2    C6 2101   0.543   0.899   9.259  0.1672  0.3275 -0.3714
  135TMC2     C 2102   0.646   1.153   8.931 -0.9907  0.5646  0.2510
  135TMC2     O 2103   0.557   1.191   8.857 -0.1520  0.0374  0.4031
  135TMC2     H 2104   0.409   1.071   8.995  0.7668  1.0626 -0.2633
  135TMC2    H1 2105   0.816   1.011   9.101 -0.4349 -1.8903  0.6583
  135TMC2    H2 2106   0.518   0.836   9.343  0.7638 -0.3893 -0.7332
  135TMC2    C7 2107   0.770   0.914   9.334  0.0069  0.2180  0.5229
  135TMC2    C8 2108   0.308   0.926   9.213  0.7969 -1.2205  0.6316
  135TMC2    O1 2109   0.853   1.003   9.340  0.4991  0.7324 -0.4033
  135TMC2    O2 2110   0.271   0.817   9.260  0.4684 -0.3706  0.8294
  135TMC2    O5 2111   0.227   1.021   9.163 -0.3404 -0.4391  0.1815
  135TMC2    H5 2112   0.273   1.099   9.124  0.9313 -0.5038  1.5098
  136MPD2     C 2113   0.801   1.318   8.721 -0.1061 -0.0176 -0.1266
  136MPD2    C1 2114   0.851   1.253   8.832  0.1160 -0.6836 -0.2578
  136MPD2    C2 2115   0.982   1.256   8.854 -0.1313 -0.2373  0.3689
  136MPD2    C3 2116   1.075   1.321   8.773 -0.2907  0.2983 -0.1031
  136MPD2    C4 2117   1.025   1.388   8.670 -0.3435 -0.0997 -0.2126
  136MPD2    C5 2118   0.894   1.390   8.645 -0.3876  0.1227  0.9547
  136MPD2     H 2119   1.008   1.190   8.936 -0.2972  0.5604  1.0626
  136MPD2    H1 2120   1.091   1.439   8.601 -0.7906  2.1099  1.0224
  136MPD2    H2 2121   0.697   1.310   8.694 -0.3167 -0.1423  0.7279
  136MPD2    H3 2122   0.853   1.428   8.552  0.7054  1.2032  0.9249
  136MPD2     N 2123   1.217   1.329   8.801 -0.0754  0.7924 -0.2537
  136MPD2    H5 2124   1.272   1.379   8.733 -0.2876  0.6047 -0.5671
  136MPD2    N1 2125   0.779   1.181   8.931  0.2156  0.3776  0.4436
  136MPD2    H7 2126   0.832   1.157   9.014 -0.5303 -0.9448  0.5520
  137TMC2    C1 2127   1.104   4.066   9.131 -0.0516  0.4802  0.2492
  137TMC2    C2 2128   1.160   4.052   9.004  0.7085 -0.1036 -0.3402
  137TMC2    C3 2129   1.074   4.043   8.899 -0.0047 -0.3628  0.3502
  137TMC2    C4 2130   0.972   4.067   9.156 -0.1838  0.6647 -0.1436
  137TMC2    C5 2131   0.890   4.055   9.047  0.4374 -0.1625 -0.8113
  137TMC2    C6 2132   0.940   4.046   8.919  0.2843 -0.4768  0.7432
  137TMC2     C 2133   1.189   4.101   9.244 -0.1730  0.4060  0.2320
  137TMC2     O 2134   1.131   4.133   9.348  0.2091  0.3596  0.5729
  137TMC2     H 2135   1.265   4.037   8.981  1.1879  0.1940  1.6676
  137TMC2    H1 2136   0.928   4.068   9.254  0.8520  3.5502  0.2895
  137TMC2    H2 2137   0.868   4.012   8.845  0.0176  1.6244  0.0327
  137TMC2    C7 2138   0.761   4.002   9.064  0.4478 -0.5772  0.3393
  137TMC2    C8 2139   1.130   4.052   8.765  0.4802  0.8712  0.6691
  137TMC2    O1 2140   0.724   3.917   8.986 -0.0754  0.3791  0.1314
  137TMC2    O2 2141   1.251   4.033   8.746  0.7655 -0.4963  0.3362
  137TMC2    O5 2142   1.050   4.141   8.695  0.1023 -0.5270  0.5159
  137TMC2    H5 2143   0.957   4.153   8.726 -0.1768  1.2840 -1.0708
  138MPD2     C 2144   1.553   4.055   9.249 -0.5198  0.4023 -0.0118
  138MPD2    C1 2145   1.427   4.096   9.298  0.6802 -0.5182  0.3182
  138MPD2    C2 2146   1.414   4.151   9.422  0.6717 -0.4590  0.1808
  138MPD2    C3 2147   1.526   4.166   9.506 -0.3618 -0.4210 -0.0891
  138MPD2    C4 2148   1.652   4.115   9.459  0.0658 -0.5587  0.3828
  138MPD2    C5 2149   1.667   4.058   9.335  0.2887  0.0060 -0.6487
  138MPD2     H 2150   1.317   4.179   9.460  0.0327 -3.4145  0.7485
  138MPD2    H1 2151   1.740   4.113   9.521  1.3178  2.8842 -1.2563
  138MPD2    H2 2152   1.572   4.004   9.155 -0.9934 -0.0035  0.1135
  138MPD2    H3 2153   1.762   4.017   9.304 -0.7389 -3.0310  0.2190
  138MPD2     N 2154   1.506   4.239   9.628 -0.0723  0.0231  0.3414
  138MPD2    H5 2155   1.415   4.281   9.641 -0.9138 -1.0766 -1.9753
  138MPD2    N1 2156   1.319   4.069   9.213 -0.1279  0.1848 -0.1344
  138MPD2    H7 2157   1.348   4.016   9.131  1.3381  0.0492  0.4674
  139TMC2    C1 2158   1.886   3.070  13.319 -0.3603  0.3451  0.7195
  139TMC2    C2 2159   1.939   3.138  13.211  0.0943 -0.0679 -0.4553
  139TMC2    C3 2160   1.859   3.235  13.157  0.7157  0.9984  0.4825
  139TMC2    C4 2161   1.759   3.086  13.369  0.9818 -0.2454  0.1607
  139TMC2    C5 2162   1.687   3.183  13.308 -0.9277  0.2877 -0.4169
  139TMC2    C6 2163   1.737   3.256  13.206 -0.2926 -0.1647 -0.0782
  139TMC2     C 2164   1.977   2.985  13.394  0.8331  0.6429 -0.1554
  139TMC2     O 2165   2.074   2.933  13.341 -0.5527 -1.0017 -0.2386
  139TMC2     H 2166   2.040   3.124  13.175  0.2420 -1.1317  0.3937
  139TMC2    H1 2167   1.721   3.016  13.442 -2.1805  1.0966 -0.2234
  139TMC2    H2 2168   1.674   3.329  13.157  0.3048 -1.3041 -2.5752
  139TMC2    C7 2169   1.545   3.189  13.339  0.0695 -0.7481 -0.0512
  139TMC2    C8 2170   1.901   3.335  13.062 -0.5281  0.1685  0.4951
  139TMC2    O1 2171   1.486   3.297  13.325  0.1514 -0.4600  0.4289
  139TMC2    O2 2172   1.857   3.371  12.955  0.0806 -0.0204 -0.7238
  139TMC2    O5 2173   2.025   3.374  13.099  0.1408 -0.7893 -0.8872
  139TMC2    H5 2174   2.058   3.344  13.186  2.7255 -0.4616 -1.7617
  140MPD2     C 2175   1.971   2.986  13.757 -0.1762  0.2354 -0.1226
  140MPD2    C1 2176   1.999   2.935  13.631  0.3681  0.3359 -0.3639
  140MPD2    C2 2177   2.076   2.825  13.612  0.1973 -0.0888  0.3900
  140MPD2    C3 2178   2.124   2.762  13.722 -0.4193  0.2735  0.2282
  140MPD2    C4 2179   2.092   2.807  13.847 -0.4153 -0.5073 -0.2235
  140MPD2    C5 2180   2.017   2.920  13.866  0.2158 -0.0168 -0.2991
  140MPD2     H 2181   2.098   2.783  13.514 -1.3591  0.9687 -0.4093
  140MPD2    H1 2182   2.122   2.751  13.934 -1.9862  0.8061  1.1642
  140MPD2    H2 2183   1.929   3.086  13.765  0.9553  0.7375 -0.5690
  140MPD2    H3 2184   1.996   2.961  13.964  0.3851 -0.3128 -0.1401
  140MPD2     N 2185   2.216   2.661  13.686  1.0812 -0.1794 -0.1799
  140MPD2    H5 2186   2.226   2.650  13.585 -2.6524 -1.2497 -0.4537
  140MPD2    N1 2187   1.939   3.007  13.528  0.3945  0.3092  0.2245
  140MPD2    H7 2188   1.870   3.079  13.546  0.0903  0.0097  0.2567
  141TMC2    C1 2189   2.115   0.001  14.208 -0.1164  0.3634  0.0942
  141TMC2    C2 2190   2.000   4.673  14.187  0.5618 -0.6280  0.9988
  141TMC2    C3 2191   1.897   4.701  14.272  0.4911  0.1232  0.3504
  141TMC2    C4 2192   2.135   0.096  14.313  0.3761 -0.2727 -0.2257
  141TMC2    C5 2193   2.031   0.114  14.400 -0.1540  0.5690  0.4468
  141TMC2    C6 2194   1.912   0.054  14.375 -0.7120  0.5576  0.0826
  141TMC2     C 2195   2.228   4.696  14.130  0.6605  0.0845 -0.6360
  141TMC2     O 2196   2.215   4.640  14.021  0.5357 -0.8339  0.2632
  141TMC2     H 2197   1.979   4.619  14.095 -1.0106  0.5512  0.6554
  141TMC2    H1 2198   2.227   0.153  14.323  0.3436 -0.3244  0.3270
  141TMC2    H2 2199   1.829   0.063  14.445 -0.4831  1.2242  0.2665
  141TMC2    C7 2200   2.029   0.225  14.493 -0.4618  0.1597  0.4102
  141TMC2    C8 2201   1.792   4.599  14.284  0.8891  0.1260 -0.2353
  141TMC2    O1 2202   1.918   0.259  14.530 -0.2609 -0.1552 -0.6816
  141TMC2    O2 2203   1.682   4.626  14.325  0.0300  0.5314 -0.4196
  141TMC2    O5 2204   1.850   4.479  14.304  0.8251 -0.2300  0.3546
  141TMC2    H5 2205   1.947   4.492  14.314  0.9766 -0.7422 -0.4113
  142TMC2    C1 2206   4.664   2.733  10.314  0.1657 -0.0649  0.7530
  142TMC2    C2 2207   4.633   2.707  10.183 -0.1371  0.6144 -0.6059
  142TMC2    C3 2208   4.641   2.818  10.097 -0.1201 -0.4029  1.1398
  142TMC2    C4 2209   4.714   2.851  10.362 -0.2049 -0.2817 -0.4760
  142TMC2    C5 2210   4.706   2.956  10.272 -0.2008  0.1604 -0.2697
  142TMC2    C6 2211   4.665   2.947  10.143 -0.2644  0.0109  0.0988
  142TMC2     C 2212   4.626   2.626  10.404  0.7886 -0.2065  0.1289
  142TMC2     O 2213   4.603   2.518  10.352 -0.4276  0.0517 -0.1261
  142TMC2     H 2214   4.592   2.612  10.151 -1.8059  1.5412 -1.2216
  142TMC2    H1 2215   4.734   2.867  10.467 -1.8599  1.3449 -0.4018
  142TMC2    H2 2216   4.669   3.028  10.071  1.9757 -2.0873 -2.1787
  142TMC2    C7 2217   0.009   3.089  10.315  0.6312 -0.2673 -0.3099
  142TMC2    C8 2218   4.562   2.807   9.974  0.1765  0.6199  0.1531
  142TMC2    O1 2219   0.037   3.094  10.434  0.0143  0.5952 -0.5291
  142TMC2    O2 2220   4.495   2.897   9.926  0.2813 -0.2578  0.2831
  142TMC2    O5 2221   4.590   2.691   9.910 -0.2769 -0.1803  0.2102
  142TMC2    H5 2222   4.655   2.650   9.971  1.5138  2.7674  0.3272
  143MPD2     C 2223   4.580   2.400  10.862  0.7776 -0.5939 -0.0813
  143MPD2    C1 2224   4.551   2.359  10.728 -0.4035 -0.7643 -0.4201
  143MPD2    C2 2225   4.574   2.443  10.624  0.8203 -0.1097  0.9150
  143MPD2    C3 2226   4.642   2.564  10.645 -0.0641  0.3618  0.1022
  143MPD2    C4 2227   4.667   2.613  10.775 -0.4313 -0.3132  0.0063
  143MPD2    C5 2228   4.636   2.527  10.879 -0.4926 -0.2211 -0.3235
  143MPD2     H 2229   4.539   2.411  10.527 -0.7282 -0.1202  1.4849
  143MPD2    H1 2230   4.714   2.711  10.782  2.2802 -1.5212 -1.3926
  143MPD2    H2 2231   4.560   2.331  10.943  1.0402 -0.8178 -0.2081
  143MPD2    H3 2232   4.646   2.566  10.980 -0.3029  0.0580 -0.4483
  143MPD2     N 2233   4.652   2.654  10.537  0.4474 -0.3224  0.2447
  143MPD2    H5 2234   4.689   2.746  10.559 -1.7877  0.3146  1.3906
  143MPD2    N1 2235   4.481   2.235  10.708 -0.4397 -0.2192  0.6337
  143MPD2    H7 2236   4.448   2.191  10.793 -3.5573  3.4592  1.3319
  144TMC2    C1 2237   2.940   2.107   0.583  0.7324 -0.1887  0.4818
  144TMC2    C2 2238   2.931   1.993   0.513 -0.1297 -0.4609 -0.3475
  144TMC2    C3 2239   3.051   1.939   0.469 -0.3610  0.2292  0.9379
  144TMC2    C4 2240   3.061   2.157   0.626 -0.4812  0.2755  0.0197
  144TMC2    C5 2241   3.175   2.094   0.584 -0.4860 -0.0417  0.0038
  144TMC2    C6 2242   3.177   1.983   0.502 -0.7744  0.1831  0.7807
  144TMC2     C 2243   2.810   2.183   0.602 -0.0461 -0.6024  0.1261
  144TMC2     O 2244   2.713   2.145   0.536  0.0689 -0.1860  0.5354
  144TMC2     H 2245   2.836   1.961   0.470 -0.3255 -0.4112  0.0524
  144TMC2    H1 2246   3.064   2.258   0.666 -1.3369  0.9294 -1.5248
  144TMC2    H2 2247   3.268   1.928   0.484 -1.0165  0.3549 -0.9560
  144TMC2    C7 2248   3.299   2.137   0.626  0.0621 -0.1733  0.1284
  144TMC2    C8 2249   3.036   1.808   0.409  0.4886 -0.0089  0.1356
  144TMC2    O1 2250   3.398   2.117   0.558  0.0157  0.5594 -0.2395
  144TMC2    O2 2251   2.940   1.736   0.429 -0.1551 -0.2139  0.2410
  144TMC2    O5 2252   3.142   1.781   0.338  0.2138  0.3679  0.8620
  144TMC2    H5 2253   3.183   1.864   0.305  2.4140 -1.5040 -1.1192
  145MPD2     C 2254   2.593   2.634   0.692  0.1254  0.6198  0.2361
  145MPD2    C1 2255   2.571   2.548   0.589 -0.0545  0.9698  0.0569
  145MPD2    C2 2256   2.648   2.433   0.585 -0.6301  0.4082 -0.4096
  145MPD2    C3 2257   2.747   2.414   0.679 -0.2214  1.0055 -0.1969
  145MPD2    C4 2258   2.775   2.506   0.781 -0.0449 -0.5697 -0.2283
  145MPD2    C5 2259   2.692   2.610   0.786  0.1351  0.8195  0.0815
  145MPD2     H 2260   2.637   2.373   0.496 -1.4071  0.4835 -0.3656
  145MPD2    H1 2261   2.845   2.498   0.864  1.6561 -2.5418 -1.8491
  145MPD2    H2 2262   2.532   2.721   0.712  1.3924  1.8583 -1.3059
  145MPD2    H3 2263   2.710   2.678   0.869  0.3857  1.5872 -0.6095
  145MPD2     N 2264   2.832   2.301   0.673 -0.5615 -0.3555 -0.3713
  145MPD2    H5 2265   2.901   2.288   0.746  0.4028  1.4899 -0.9427
  145MPD2    N1 2266   2.475   2.580   0.491  0.7174  0.1423  0.3572
  145MPD2    H7 2267   2.455   2.506   0.425 -0.9936  0.4324  0.5414
  146TMC2    C1 2268   4.012   0.439  12.211 -0.3992  0.7678  0.8278
  146TMC2    C2 2269   3.921   0.353  12.142  0.1536  0.2427  0.2623
  146TMC2    C3 2270   3.974   0.292  12.025  0.9401 -0.7086 -0.0361
  146TMC2    C4 2271   4.140   0.463  12.171 -0.0582  0.5768 -0.1980
  146TMC2    C5 2272   4.183   0.405  12.053  0.1430 -0.6388  0.1044
  146TMC2    C6 2273   4.101   0.320  11.978 -0.3490 -1.1148 -0.1126
  146TMC2     C 2274   3.965   0.509  12.331 -0.8528  0.2776  1.2002
  146TMC2     O 2275   3.848   0.502  12.353 -0.4086 -0.0111 -0.4267
  146TMC2     H 2276   3.817   0.347  12.169  0.8591 -6.2597  1.5576
  146TMC2    H1 2277   4.207   0.526  12.228  0.1350  0.1368  0.0580
  146TMC2    H2 2278   4.145   0.264  11.895  0.8374 -1.4594  0.7545
  146TMC2    C7 2279   4.316   0.432  12.011  0.4845  0.1399 -0.1149
  146TMC2    C8 2280   3.872   0.278  11.926  0.2657 -0.5185 -0.1219
  146TMC2    O1 2281   4.333   0.399  11.893 -0.3259  0.0145 -0.0056
  146TMC2    O2 2282   3.775   0.353  11.925 -0.3026  0.0638  0.2520
  146TMC2    O5 2283   3.935   0.230  11.820  0.4268 -0.4185  0.0593
  146TMC2    H5 2284   3.983   0.153  11.856  0.1087 -0.7429 -0.2077
  147MPD2     C 2285   0.077   0.469  12.126  0.1140  0.2144 -0.2377
  147MPD2    C1 2286   0.008   0.457  12.242 -0.0358 -0.4361  0.1130
  147MPD2    C2 2287   4.609   0.459  12.227  0.0411  0.0030  0.5930
  147MPD2    C3 2288   4.542   0.462  12.112 -0.0647  0.2183 -0.5613
  147MPD2    C4 2289   4.614   0.474  12.000  0.4405  0.5359 -0.4184
  147MPD2    C5 2290   0.017   0.489  12.008 -0.6866 -0.0393 -0.6190
  147MPD2     H 2291   4.546   0.443  12.314  0.8229  1.9173  1.5007
  147MPD2    H1 2292   4.571   0.493  11.902  0.6489 -0.1652 -0.6435
  147MPD2    H2 2293   0.185   0.472  12.120  0.3665 -3.0224  2.6161
  147MPD2    H3 2294   0.075   0.493  11.917 -0.5998 -0.6675 -0.5904
  147MPD2     N 2295   4.403   0.456  12.117  0.2207 -0.7409  0.6501
  147MPD2    H5 2296   4.359   0.443  12.208 -1.6169 -0.9776 -0.2832
  147MPD2    N1 2297   0.074   0.437  12.370 -0.3966 -0.2642  0.1776
  147MPD2    H7 2298   0.175   0.443  12.373 -0.2827 -0.6150 -2.7004
  148TMC2    C1 2299   3.291   4.256  10.561  0.3534 -0.2999  0.2589
  148TMC2    C2 2300   3.410   4.319  10.594 -0.3531  0.6787  0.1162
  148TMC2    C3 2301   3.495   4.268  10.685  0.8538  0.2249  0.6403
  148TMC2    C4 2302   3.254   4.143  10.625  0.0784  0.0418 -0.4228
  148TMC2    C5 2303   3.346   4.089  10.709  0.6756  0.2499 -0.2509
  148TMC2    C6 2304   3.468   4.143  10.732  0.3138 -0.2107  0.2393
  148TMC2     C 2305   3.193   4.344  10.493 -0.7506  0.0308  0.2592
  148TMC2     O 2306   3.213   4.465  10.506 -0.6380 -0.7219  0.2058
  148TMC2     H 2307   3.438   4.408  10.538  1.6074 -0.0173 -0.0181
  148TMC2    H1 2308   3.153   4.103  10.622  0.0108  0.1111  0.9351
  148TMC2    H2 2309   3.541   4.110  10.804 -1.2620 -2.3026  0.8713
  148TMC2    C7 2310   3.292   4.002  10.806 -0.2686 -0.1803 -0.5170
  148TMC2    C8 2311   3.609   4.343  10.752 -0.5927 -0.0612 -0.3452
  148TMC2    O1 2312   3.169   3.987  10.802  0.2251  0.0213  0.3114
  148TMC2    O2 2313   3.684   4.283  10.829 -0.0820 -0.1893  0.4078
  148TMC2    O5 2314   3.600   4.473  10.730  0.0372 -0.2215 -0.1693
  148TMC2    H5 2315   3.661   4.531  10.779  1.1929 -1.0023 -0.6808
  149MPD2     C 2316   2.984   4.491  10.328  0.0876 -0.4161 -0.2133
  149MPD2    C1 2317   3.020   4.359  10.319  0.0711 -0.7008 -0.4848
  149MPD2    C2 2318   2.966   4.283  10.226  0.3496  0.1476 -0.1894
  149MPD2    C3 2319   2.893   4.332  10.121  0.9835 -0.5745 -0.1145
  149MPD2    C4 2320   2.856   4.470  10.126  0.2135 -0.0023 -0.1947
  149MPD2    C5 2321   2.905   4.547  10.231  0.5181 -0.2820  0.1275
  149MPD2     H 2322   3.000   4.180  10.222 -0.1131 -0.0603  1.0245
  149MPD2    H1 2323   2.793   4.524  10.056 -1.0157 -1.6575 -0.3588
  149MPD2    H2 2324   3.008   4.543  10.420  2.4130 -0.3129 -0.8817
  149MPD2    H3 2325   2.860   4.643  10.256 -0.1973 -0.9868  1.5372
  149MPD2     N 2326   2.852   4.251  10.014 -0.2298 -0.1695  0.5428
  149MPD2    H5 2327   2.802   4.294   9.937  0.4197 -0.0725  0.1782
  149MPD2    N1 2328   3.113   4.284  10.404  0.0047 -0.6509  0.3196
  149MPD2    H7 2329   3.121   4.184  10.395  3.0257 -0.5224  1.8060
  150TMC2    C1 2330   1.609   3.606  12.041 -0.0510  1.3406 -0.3192
  150TMC2    C2 2331   1.538   3.680  11.946 -0.0587  0.3956 -0.1082
  150TMC2    C3 2332   1.598   3.797  11.913  0.1604  0.5407 -0.2441
  150TMC2    C4 2333   1.701   3.665  12.125  0.1508  0.0592  0.2138
  150TMC2    C5 2334   1.744   3.792  12.094 -0.3161  0.0182  0.6680
  150TMC2    C6 2335   1.693   3.856  11.991  0.6345 -0.0651  0.3613
  150TMC2     C 2336   1.558   3.479  12.089  0.7569 -0.3024  0.1779
  150TMC2     O 2337   1.626   3.414  12.167 -0.0263  0.0563 -0.1653
  150TMC2     H 2338   1.462   3.626  11.890 -0.9371 -0.5833  2.0272
  150TMC2    H1 2339   1.742   3.609  12.208 -0.0652 -2.6001 -1.4335
  150TMC2    H2 2340   1.737   3.948  11.954  0.9295 -0.3274  0.0584
  150TMC2    C7 2341   1.866   3.846  12.158 -0.2460  0.2728 -0.5209
  150TMC2    C8 2342   1.553   3.886  11.812 -0.6942  0.0898 -0.9623
  150TMC2    O1 2343   1.893   3.965  12.137 -0.0254  0.2844 -0.6465
  150TMC2    O2 2344   1.634   3.962  11.760 -0.1441  0.4173  0.6984
  150TMC2    O5 2345   1.438   3.841  11.747  0.6483  0.3934 -0.3977
  150TMC2    H5 2346   1.370   3.809  11.810 -0.6945  0.3002 -1.9079
  151MPD2     C 2347   1.165   3.142  12.142 -0.9804  0.1883  0.2829
  151MPD2    C1 2348   1.162   3.192  12.018  1.1377 -0.0192 -0.1698
  151MPD2    C2 2349   1.254   3.289  11.979  0.6493  0.0313  0.1743
  151MPD2    C3 2350   1.350   3.330  12.067 -0.2279 -0.8657 -0.4356
  151MPD2    C4 2351   1.355   3.276  12.195  0.0454  0.2730  0.0352
  151MPD2    C5 2352   1.258   3.193  12.230 -0.0502  0.5230 -0.2208
  151MPD2     H 2353   1.247   3.335  11.881  0.2656 -2.8623 -1.1409
  151MPD2    H1 2354   1.432   3.297  12.268 -0.3729 -0.3468  0.6542
  151MPD2    H2 2355   1.107   3.059  12.178  1.2768 -1.4441  0.1585
  151MPD2    H3 2356   1.269   3.164  12.334  0.5003 -1.3926 -0.8109
  151MPD2     N 2357   1.439   3.436  12.028 -0.3517 -0.3705  0.0227
  151MPD2    H5 2358   1.410   3.493  11.949  0.9550 -0.3399 -0.4338
  151MPD2    N1 2359   1.048   3.143  11.946 -0.1132 -0.0136 -0.3941
  151MPD2    H7 2360   0.986   3.077  11.992  0.7304 -0.0432  0.6988
  152TMC2    C1 2361   1.338   3.163  12.601  0.3593  0.2712  0.4664
  152TMC2    C2 2362   1.439   3.076  12.596  0.1939 -0.1638 -0.7210
  152TMC2    C3 2363   1.566   3.127  12.556 -0.0298  0.6489  0.1269
  152TMC2    C4 2364   1.362   3.292  12.565  0.2206  0.3036  0.6548
  152TMC2    C5 2365   1.480   3.337  12.515  0.0229  0.7411 -0.2080
  152TMC2    C6 2366   1.587   3.253  12.509 -0.3871 -0.3920  0.0605
  152TMC2     C 2367   1.203   3.123  12.628 -0.1104  0.0125 -1.2778
  152TMC2     O 2368   1.119   3.195  12.572  0.7969  0.2083 -0.0314
  152TMC2     H 2369   1.432   2.970  12.618  0.4943 -0.1397 -0.5013
  152TMC2    H1 2370   1.286   3.367  12.585  1.1963  1.0233  1.6945
  152TMC2    H2 2371   1.681   3.273  12.458 -0.6190  1.3023  0.2920
  152TMC2    C7 2372   1.504   3.483  12.493  0.7794  0.3481  0.2737
  152TMC2    C8 2373   1.667   3.023  12.530 -0.6293  0.3952 -0.2361
  152TMC2    O1 2374   1.415   3.560  12.470  0.2939 -0.6376 -0.0339
  152TMC2    O2 2375   1.635   2.916  12.480  0.4694 -0.2306  0.0112
  152TMC2    O5 2376   1.792   3.072  12.514  0.2212 -0.1452 -0.1313
  152TMC2    H5 2377   1.808   3.166  12.537  1.1308 -0.2297 -0.3974
  153MPD2     C 2378   1.107   2.842  12.844  0.0564 -0.0931  0.2019
  153MPD2    C1 2379   1.086   2.953  12.771 -0.3759  0.2984 -0.1177
  153MPD2    C2 2380   0.959   3.009  12.774  0.0314  0.1258 -0.0869
  153MPD2    C3 2381   0.865   2.953  12.853 -0.3218  0.0354  0.6988
  153MPD2    C4 2382   0.890   2.841  12.929  0.1249  0.8967 -0.1377
  153MPD2    C5 2383   1.011   2.785  12.921  0.0429  0.1481  0.4422
  153MPD2     H 2384   0.935   3.099  12.719  0.9421 -0.6353 -1.7382
  153MPD2    H1 2385   0.815   2.800  12.995  0.3885  0.5516 -0.0530
  153MPD2    H2 2386   1.204   2.795  12.838 -0.3188 -0.6088 -1.8554
  153MPD2    H3 2387   1.032   2.697  12.980  0.5440 -0.9943 -1.4464
  153MPD2     N 2388   0.745   3.024  12.850 -0.0230 -0.0745  0.5716
  153MPD2    H5 2389   0.749   3.103  12.785  2.2396  0.6062  1.5051
  153MPD2    N1 2390   1.193   3.008  12.705  0.5507 -0.1032  0.4512
  153MPD2    H7 2391   1.281   2.959  12.718  0.0106 -0.3265  3.3456
  154TMC2    C1 2392   2.788   3.384   0.645  0.6299  0.4358  0.4878
  154TMC2    C2 2393   2.829   3.495   0.719  0.1297 -0.0872 -0.1896
  154TMC2    C3 2394   2.960   3.523   0.742 -0.1205  0.5400  0.1734
  154TMC2    C4 2395   2.881   3.299   0.587  0.1379  0.1661  0.5843
  154TMC2    C5 2396   3.013   3.338   0.599  0.0719 -0.0010 -0.6224
  154TMC2    C6 2397   3.058   3.449   0.676  0.0414  0.1874 -0.4032
  154TMC2     C 2398   2.647   3.382   0.613 -0.4750 -0.3073 -0.4754
  154TMC2     O 2399   2.570   3.457   0.672 -0.3997 -0.7840  0.2729
  154TMC2     H 2400   2.756   3.554   0.773 -0.4068  1.5495 -2.7192
  154TMC2    H1 2401   2.855   3.211   0.530 -1.0720 -1.0583  3.0340
  154TMC2    H2 2402   3.159   3.489   0.685 -0.5658  1.9394 -1.3244
  154TMC2    C7 2403   3.123   3.276   0.523 -0.3640  0.2793  0.2098
  154TMC2    C8 2404   3.000   3.618   0.853 -0.0355 -0.1732 -0.2837
  154TMC2    O1 2405   3.233   3.331   0.533  0.4211  0.3430 -0.4632
  154TMC2    O2 2406   3.076   3.583   0.942  0.2522 -0.6311 -0.1092
  154TMC2    O5 2407   2.914   3.717   0.849  0.0691 -0.2397 -0.1166
  154TMC2    H5 2408   2.864   3.720   0.765  1.6990 -0.3513 -1.0754
  155MPD2     C 2409   2.483   3.243   0.319  0.0966  0.3129  0.3227
  155MPD2    C1 2410   2.490   3.301   0.444  0.7926 -1.0645  0.4433
  155MPD2    C2 2411   2.383   3.367   0.501 -0.6972 -0.8675  0.0659
  155MPD2    C3 2412   2.271   3.376   0.429 -0.1575 -0.2553  0.1324
  155MPD2    C4 2413   2.263   3.326   0.302 -0.2415  0.4402  0.4573
  155MPD2    C5 2414   2.363   3.246   0.255 -0.0869  0.3552 -0.4682
  155MPD2     H 2415   2.368   3.385   0.607 -2.7506  0.0054 -0.3798
  155MPD2    H1 2416   2.170   3.326   0.246 -1.7458  0.8490  2.9581
  155MPD2    H2 2417   2.570   3.198   0.273 -0.7796 -0.6472 -0.3863
  155MPD2    H3 2418   2.352   3.193   0.161 -0.7372  1.9551 -1.2980
  155MPD2     N 2419   2.163   3.444   0.494 -0.8601 -0.5225  0.6173
  155MPD2    H5 2420   2.175   3.456   0.594  1.8565  0.2907  0.1938
  155MPD2    N1 2421   2.621   3.309   0.502  0.0012  0.0909 -0.3353
  155MPD2    H7 2422   2.692   3.245   0.468  0.4870 -0.0049  0.8506
  156TMC2    C1 2423   1.238   0.655  11.558 -0.0539 -0.2877  0.4068
  156TMC2    C2 2424   1.320   0.553  11.517  0.2595  0.2409 -0.7462
  156TMC2    C3 2425   1.321   0.529  11.384 -1.2404  0.1375 -0.2891
  156TMC2    C4 2426   1.159   0.734  11.481 -0.1123  0.3319  0.3568
  156TMC2    C5 2427   1.163   0.700  11.346  1.1143 -0.0714 -0.2301
  156TMC2    C6 2428   1.236   0.595  11.295 -0.7910 -0.4649 -0.3189
  156TMC2     C 2429   1.240   0.690  11.700  0.0535 -0.3781 -0.3295
  156TMC2     O 2430   1.136   0.723  11.749  0.0555  0.2007 -0.7619
  156TMC2     H 2431   1.367   0.479  11.581 -0.1814  1.1350  0.6239
  156TMC2    H1 2432   1.091   0.806  11.526 -0.4980  1.0531 -1.3932
  156TMC2    H2 2433   1.223   0.577  11.189 -1.7757  0.2279 -0.3194
  156TMC2    C7 2434   1.059   0.748  11.256 -0.1273  0.1215  0.7243
  156TMC2    C8 2435   1.360   0.391  11.346 -0.6918  0.0637  0.5757
  156TMC2    O1 2436   1.045   0.695  11.147 -0.1382  0.1988 -0.6517
  156TMC2    O2 2437   1.314   0.341  11.247  0.3135 -0.2764  0.0977
  156TMC2    O5 2438   1.485   0.360  11.399 -0.5214  0.2588 -0.1424
  156TMC2    H5 2439   1.524   0.428  11.459 -2.2085  1.3517 -0.2870
  157MPD2     C 2440   1.531   0.661  11.912 -0.0567 -0.3121 -0.0579
  157MPD2    C1 2441   1.410   0.711  11.877  0.5612  0.2074  0.3830
  157MPD2    C2 2442   1.336   0.787  11.970 -0.0907  0.6081 -0.4212
  157MPD2    C3 2443   1.395   0.826  12.090 -0.4271  0.4697  0.5943
  157MPD2    C4 2444   1.513   0.769  12.121  0.0170  0.0160  0.1111
  157MPD2    C5 2445   1.580   0.685  12.039  0.4180  0.0620 -0.1232
  157MPD2     H 2446   1.235   0.821  11.949 -0.8661 -1.2573  0.2206
  157MPD2    H1 2447   1.571   0.795  12.209  1.1382 -0.4626 -0.4885
  157MPD2    H2 2448   1.594   0.600  11.848 -1.5019 -1.3093 -0.5223
  157MPD2    H3 2449   1.674   0.649  12.078  0.2007  0.2410  0.5566
  157MPD2     N 2450   1.320   0.909  12.181 -0.7309  0.0482 -0.5153
  157MPD2    H5 2451   1.234   0.938  12.135 -0.2997 -0.9493 -1.9602
  157MPD2    N1 2452   1.369   0.685  11.744 -0.3832 -0.0033 -0.2564
  157MPD2    H7 2453   1.441   0.661  11.676  1.0402  1.8451  0.5953
  158TMC2    C1 2454   1.724   4.189  13.688 -0.0122  0.1429  0.6950
  158TMC2    C2 2455   1.774   4.306  13.644 -0.1030 -0.2521  0.4225
  158TMC2    C3 2456   1.688   4.416  13.641  0.1027 -0.1180 -0.1769
  158TMC2    C4 2457   1.598   4.180  13.739 -0.0683  0.2847  0.6785
  158TMC2    C5 2458   1.514   4.289  13.731 -0.5161  0.6015  0.4014
  158TMC2    C6 2459   1.553   4.410  13.682  0.1972 -0.0231  0.9909
  158TMC2     C 2460   1.828   4.090  13.698  0.6763  0.2723 -0.0453
  158TMC2     O 2461   1.945   4.125  13.697 -0.2333 -0.5940  0.4073
  158TMC2     H 2462   1.877   4.321  13.613 -0.7040 -0.8292 -1.8350
  158TMC2    H1 2463   1.570   4.094  13.798 -1.1221  0.0710 -0.1447
  158TMC2    H2 2464   1.492   4.498  13.668 -0.2264 -0.1240  2.1431
  158TMC2    C7 2465   1.374   4.279  13.761  0.7965  0.3826  0.7146
  158TMC2    C8 2466   1.735   4.546  13.623 -0.2194 -0.4399 -0.2283
  158TMC2    O1 2467   1.304   4.375  13.754 -0.3165 -0.5987  0.1786
  158TMC2    O2 2468   1.658   4.640  13.600 -0.1390 -0.2583  0.1083
  158TMC2    O5 2469   1.853   4.553  13.691 -0.1312  0.0593 -0.3923
  158TMC2    H5 2470   1.883   4.470  13.734 -0.2791 -0.2200 -0.8340
  159MPD2     C 2471   1.958   3.645  13.926  0.1283 -0.2802 -0.3352
  159MPD2    C1 2472   1.820   3.645  13.906 -0.3052  0.1542  0.6372
  159MPD2    C2 2473   1.765   3.750  13.834 -0.1969 -0.0699 -0.1497
  159MPD2    C3 2474   1.846   3.853  13.782  0.8914 -0.2664 -0.3282
  159MPD2    C4 2475   1.977   3.851  13.804  0.0757 -0.2217 -0.2336
  159MPD2    C5 2476   2.034   3.746  13.876 -0.1965 -0.0761  0.5508
  159MPD2     H 2477   1.657   3.756  13.826 -0.3280  0.3592  1.8908
  159MPD2    H1 2478   2.046   3.926  13.767 -1.3966 -0.4073 -3.3557
  159MPD2    H2 2479   2.009   3.565  13.979 -2.0322 -1.0397  0.5625
  159MPD2    H3 2480   2.141   3.741  13.893 -0.2836 -0.4609  0.9582
  159MPD2     N 2481   1.777   3.968  13.728 -0.4428 -0.6167 -0.8077
  159MPD2    H5 2482   1.676   3.967  13.728 -0.4366 -1.1521 -1.0315
  159MPD2    N1 2483   1.739   3.551  13.980  0.0883 -0.2556  0.2852
  159MPD2    H7 2484   1.790   3.485  14.038 -1.2232 -0.6376  0.9933
  160TMC2    C1 2485   1.206   2.657   1.567 -0.5564  0.1766  0.1710
  160TMC2    C2 2486   1.228   2.778   1.620 -0.4409 -0.2668  0.2611
  160TMC2    C3 2487   1.353   2.824   1.603 -0.3924 -1.3024  0.1297
  160TMC2    C4 2488   1.307   2.590   1.500  0.1715 -0.3640 -0.5671
  160TMC2    C5 2489   1.436   2.632   1.510  0.3979 -0.0525  0.4498
  160TMC2    C6 2490   1.461   2.758   1.550 -0.6434 -0.2383 -0.6645
  160TMC2     C 2491   1.068   2.623   1.539 -0.3292 -0.4550  0.6474
  160TMC2     O 2492   1.034   2.506   1.531 -0.7921  0.8076 -0.3657
  160TMC2     H 2493   1.161   2.836   1.684 -0.1504 -0.0199  0.3434
  160TMC2    H1 2494   1.283   2.492   1.461 -2.5681  0.3939 -0.8182
  160TMC2    H2 2495   1.561   2.798   1.569 -0.0318 -2.8086  1.5208
  160TMC2    C7 2496   1.534   2.572   1.422  0.6917  0.6132 -0.3660
  160TMC2    C8 2497   1.395   2.949   1.661 -0.8216 -0.4896  0.7494
  160TMC2    O1 2498   1.524   2.453   1.387 -0.4940  0.3882 -0.3571
  160TMC2    O2 2499   1.479   3.013   1.599  0.6906  0.9338  0.3683
  160TMC2    O5 2500   1.377   2.948   1.800  0.1161 -0.0379  0.3248
  160TMC2    H5 2501   1.312   2.887   1.839 -0.8339  1.1388  0.5656
  161MPD2     C 2502   0.770   2.644   1.485 -0.2834 -0.2673  0.0712
  161MPD2    C1 2503   0.865   2.745   1.464 -0.2870  0.6275 -0.5038
  161MPD2    C2 2504   0.821   2.862   1.406 -0.1539 -0.5648 -0.1346
  161MPD2    C3 2505   0.694   2.888   1.368 -0.0132  0.3038 -0.0301
  161MPD2    C4 2506   0.608   2.789   1.398 -0.2607 -0.0422 -0.0456
  161MPD2    C5 2507   0.642   2.669   1.442 -0.0261  0.2709  0.4239
  161MPD2     H 2508   0.892   2.942   1.387  1.3504 -1.8317  0.1547
  161MPD2    H1 2509   0.503   2.798   1.374 -1.4125 -2.1540  4.2191
  161MPD2    H2 2510   0.800   2.544   1.516 -2.5302  0.1355  3.5444
  161MPD2    H3 2511   0.558   2.602   1.454 -0.1745  0.2229 -0.9189
  161MPD2     N 2512   0.649   3.002   1.303 -0.1293 -0.0005 -0.6141
  161MPD2    H5 2513   0.549   3.016   1.299 -0.1567 -0.0007  0.0141
  161MPD2    N1 2514   1.003   2.733   1.490 -0.3662  0.1043 -0.0605
  161MPD2    H7 2515   1.064   2.811   1.466  0.3439 -0.7659 -1.1323
  162TMC2    C1 2516   4.106   0.151   1.530  0.9668  0.3565  0.8255
  162TMC2    C2 2517   4.103   0.254   1.618 -0.0890 -0.3608 -0.0048
  162TMC2    C3 2518   4.069   0.230   1.752  0.1105 -0.4433 -0.4090
  162TMC2    C4 2519   4.059   0.023   1.554  0.0548 -0.3225  0.4526
  162TMC2    C5 2520   4.020   0.005   1.686 -0.0952  0.0387  0.1303
  162TMC2    C6 2521   4.019   0.101   1.778 -0.3285  0.1769  0.1499
  162TMC2     C 2522   4.169   0.171   1.397  0.0912  0.1506  0.1376
  162TMC2     O 2523   4.120   0.100   1.307  0.3620  0.0705 -1.0670
  162TMC2     H 2524   4.148   0.350   1.594 -0.6543 -0.0023  0.3517
  162TMC2    H1 2525   4.039   4.684   1.478 -0.7070 -1.0897  1.4209
  162TMC2    H2 2526   3.981   0.072   1.875 -0.3827 -0.5386 -0.0915
  162TMC2    C7 2527   4.001   4.607   1.730  0.0401  0.2896 -0.2387
  162TMC2    C8 2528   4.074   0.350   1.845  0.2029 -0.2501 -0.4125
  162TMC2    O1 2529   3.952   4.596   1.843 -0.2591 -0.0962  0.0626
  162TMC2    O2 2530   4.068   0.468   1.811  0.0229  0.5787 -0.2368
  162TMC2    O5 2531   4.034   0.294   1.959  0.2758  0.0741 -0.0761
  162TMC2    H5 2532   4.065   0.202   1.970  0.7774  0.0423 -1.7230
  163MPD2     C 2533   4.561   0.254   1.085 -0.0869 -0.0196 -0.4470
  163MPD2    C1 2534   4.429   0.236   1.055 -0.5063  0.1144 -0.0231
  163MPD2    C2 2535   4.342   0.232   1.164  0.1120  0.2965 -0.4659
  163MPD2    C3 2536   4.386   0.242   1.296  0.4026 -0.0395  0.1059
  163MPD2    C4 2537   4.521   0.256   1.318  0.3970  0.3170 -0.1243
  163MPD2    C5 2538   4.606   0.265   1.213  0.6053 -0.4242  0.2630
  163MPD2     H 2539   4.235   0.226   1.147 -0.0764 -1.8473  1.6177
  163MPD2    H1 2540   4.564   0.266   1.418 -0.2835 -0.5884  0.2556
  163MPD2    H2 2541   4.638   0.267   1.010 -0.8253 -0.2301 -1.2415
  163MPD2    H3 2542   4.714   0.275   1.225  0.7733 -0.5092 -1.2499
  163MPD2     N 2543   4.296   0.223   1.406 -0.3451 -0.2139 -0.7479
  163MPD2    H5 2544   4.335   0.241   1.498 -0.0859  2.6835 -1.4026
  163MPD2    N1 2545   4.400   0.209   0.921 -0.2269  0.4372  0.1719
  163MPD2    H7 2546   4.481   0.188   0.864  0.5263 -3.7963  2.7968
  164TMC2    C1 2547   0.234   0.049  11.117  0.3011 -0.6342 -0.0102
  164TMC2    C2 2548   0.316   0.011  11.226 -0.0794  0.1046  0.3612
  164TMC2    C3 2549   0.253   4.703  11.334 -0.4092 -1.1345 -0.7903
  164TMC2    C4 2550   0.095   0.065  11.126  0.1432 -0.2039  0.3107
  164TMC2    C5 2551   0.034   0.017  11.241  0.8577  0.0300 -0.7103
  164TMC2    C6 2552   0.115   4.706  11.344  0.1547  0.3237 -0.2692
  164TMC2     C 2553   0.308   0.117  11.012  0.3877 -0.3951  0.4947
  164TMC2     O 2554   0.411   0.184  11.042 -0.2287  0.0169  0.0180
  164TMC2     H 2555   0.423   0.022  11.208 -0.2506 -1.2398 -1.5283
  164TMC2    H1 2556   0.033   0.107  11.048  0.5756 -2.2790 -1.1655
  164TMC2    H2 2557   0.072   4.663  11.434 -2.4247 -1.4936 -2.3870
  164TMC2    C7 2558   4.627   0.038  11.261  0.1207 -0.0455  0.0008
  164TMC2    C8 2559   0.328   4.643  11.447  0.2430 -0.4568 -0.0254
  164TMC2    O1 2560   4.566   0.080  11.168 -0.1691  0.2125 -0.4358
  164TMC2    O2 2561   0.296   4.681  11.557 -0.0120  0.5651  0.3295
  164TMC2    O5 2562   0.443   4.602  11.402 -0.1252  0.2671 -0.3278
  164TMC2    H5 2563   0.441   4.566  11.310  1.0586 -3.4720  1.0973
  165TMC2    C1 2564   1.250   1.896   1.975  1.3344  0.4977  0.2985
  165TMC2    C2 2565   1.128   1.945   1.933 -0.1691 -0.6265 -0.1883
  165TMC2    C3 2566   1.123   2.079   1.902 -0.2710 -0.7351 -0.3596
  165TMC2    C4 2567   1.361   1.973   1.960 -0.1682  0.3435  0.2551
  165TMC2    C5 2568   1.350   2.101   1.918 -0.2817  0.6425  0.0785
  165TMC2    C6 2569   1.228   2.164   1.892  1.1797  0.3354 -0.3567
  165TMC2     C 2570   1.289   1.755   1.989 -0.1107 -0.1459 -0.1195
  165TMC2     O 2571   1.371   1.712   2.073 -0.2120  0.3790 -0.2296
  165TMC2     H 2572   1.036   1.890   1.948 -0.3509 -0.2788 -0.0273
  165TMC2    H1 2573   1.453   1.930   1.997 -0.5315 -1.0582 -0.4830
  165TMC2    H2 2574   1.220   2.268   1.863 -0.7746 -0.3526 -2.3133
  165TMC2    C7 2575   1.473   2.162   1.879  1.1535  0.8961 -0.1144
  165TMC2    C8 2576   0.994   2.131   1.883  0.4073  1.2421  0.4594
  165TMC2    O1 2577   1.569   2.091   1.854 -0.0446  0.3731  0.3225
  165TMC2    O2 2578   0.967   2.244   1.920 -0.3659 -0.3617 -0.5569
  165TMC2    O5 2579   0.911   2.047   1.827 -0.1761 -0.2788  0.1338
  165TMC2    H5 2580   0.959   1.988   1.765  1.5008 -1.0276  2.1313
  166MPD2     C 2581   1.291   1.316   1.742  0.1476  0.1377  0.8589
  166MPD2    C1 2582   1.390   1.379   1.812 -0.4136  0.2912 -0.3234
  166MPD2    C2 2583   1.359   1.503   1.868 -0.4192  0.2357 -0.8182
  166MPD2    C3 2584   1.235   1.555   1.855  0.8551  0.0552  0.7903
  166MPD2    C4 2585   1.137   1.487   1.788 -0.5529 -0.3240  0.3920
  166MPD2    C5 2586   1.166   1.366   1.731  0.3501 -0.3623 -0.7337
  166MPD2     H 2587   1.441   1.557   1.915 -1.4063  2.5804 -1.8221
  166MPD2    H1 2588   1.037   1.527   1.772  0.2289  0.4234 -2.5058
  166MPD2    H2 2589   1.317   1.221   1.696  0.8396  0.2195  1.0734
  166MPD2    H3 2590   1.098   1.313   1.666 -2.2899  2.6351 -0.3953
  166MPD2     N 2591   1.211   1.689   1.897 -0.2289  0.3528  0.6123
  166MPD2    H5 2592   1.128   1.728   1.854 -1.0764 -0.9100  1.1083
  166MPD2    N1 2593   1.522   1.316   1.819 -0.0488 -0.0037  0.0352
  166MPD2    H7 2594   1.536   1.227   1.773 -0.6775 -0.2079  0.2394
  167TMC2    C1 2595   4.094   3.813  12.692 -0.1878 -0.3609 -0.1778
  167TMC2    C2 2596   3.999   3.853  12.602 -0.2181  0.3478  0.0298
  167TMC2    C3 2597   3.978   3.781  12.492 -0.5955 -0.1586 -0.8291
  167TMC2    C4 2598   4.161   3.695  12.668 -0.1370 -0.4361 -0.4411
  167TMC2    C5 2599   4.136   3.619  12.556  0.4789 -0.2798 -0.0589
  167TMC2    C6 2600   4.043   3.657  12.466  0.2435 -0.3822 -0.0108
  167TMC2     C 2601   4.144   3.907  12.795  0.4083  0.4513 -0.3922
  167TMC2     O 2602   4.217   3.860  12.885 -0.3361 -0.3257 -0.2343
  167TMC2     H 2603   3.929   3.930  12.632 -0.8702 -0.1827 -0.1207
  167TMC2    H1 2604   4.247   3.671  12.731  0.5101  3.1909  0.0704
  167TMC2    H2 2605   4.022   3.589  12.384  2.4383  0.8092 -1.5491
  167TMC2    C7 2606   4.226   3.516  12.523  0.4220  1.0288  0.3183
  167TMC2    C8 2607   3.873   3.817  12.398  0.0740  0.5812 -0.1790
  167TMC2    O1 2608   4.276   3.451  12.612  0.4203  0.1699  0.7790
  167TMC2    O2 2609   3.807   3.734  12.337  0.2122  1.1173 -0.4737
  167TMC2    O5 2610   3.918   3.929  12.329  0.3795  0.1728  0.0185
  167TMC2    H5 2611   3.992   3.970  12.377  2.9038 -0.4336 -3.3223
  168MPD2     C 2612   4.220   4.141  12.947  1.1881 -0.1027 -0.0644
  168MPD2    C1 2613   4.193   4.149  12.808  0.7274 -0.1043  0.5148
  168MPD2    C2 2614   4.177   4.268  12.744 -0.5394 -0.0552 -0.1076
  168MPD2    C3 2615   4.208   4.385  12.813 -0.4165  0.0942  0.0591
  168MPD2    C4 2616   4.231   4.378  12.947 -0.0360  0.4356  0.4456
  168MPD2    C5 2617   4.246   4.259  13.013  0.0205 -0.2481  0.0158
  168MPD2     H 2618   4.138   4.270  12.643 -3.2695  1.3024  0.9610
  168MPD2    H1 2619   4.244   4.469  13.004 -1.0856  1.0921 -0.3519
  168MPD2    H2 2620   4.227   4.050  13.004  0.1545 -0.5967 -0.7137
  168MPD2    H3 2621   4.271   4.253  13.118 -4.2485 -0.8755  0.9850
  168MPD2     N 2622   4.193   4.513  12.756 -0.3603 -0.0256  1.0565
  168MPD2    H5 2623   4.210   4.587  12.822 -0.5483 -0.4769  1.6084
  168MPD2    N1 2624   4.146   4.030  12.738  0.3598  0.3372 -0.6440
  168MPD2    H7 2625   4.124   4.044  12.640  2.1989  0.2504 -1.0829
  169MPD1     C 2626   0.599   4.495   9.748  0.5003  0.1883 -0.3878
  169MPD1    C1 2627   0.702   4.432   9.671  1.4260 -0.0887  0.4835
  169MPD1    C2 2628   0.708   4.293   9.672  0.4868 -0.1286  0.7116
  169MPD1    C3 2629   0.606   4.217   9.736 -0.3313  0.3007  0.3258
  169MPD1    C4 2630   0.507   4.288   9.806  0.0662  0.5345 -0.4511
  169MPD1    C5 2631   0.497   4.428   9.816  0.3723 -0.3975  0.7105
  169MPD1     H 2632   0.785   4.250   9.609  0.2678 -0.3700  0.6097
  169MPD1    H1 2633   0.429   4.231   9.856 -0.1343 -0.6467 -2.0976
  169MPD1    H2 2634   0.600   4.603   9.756  1.1753  0.1174  0.4100
  169MPD1    H3 2635   0.424   4.471   9.884 -0.2085  0.4755 -0.4654
  169MPD1     N 2636   0.614   4.074   9.731 -0.6853  0.6125  0.7264
  169MPD1    H5 2637   0.707   4.041   9.708 -0.7176  1.6483 -0.8797
  169MPD1    N1 2638   0.803   4.507   9.608 -0.3110  0.6863 -0.4445
  169MPD1    H6 2639   0.852   4.448   9.542  1.0864  3.2029 -1.6350
  169MPD1    H7 2640   0.757   4.583   9.559 -0.3695  1.9124  1.5085
  170MPD1     C 2641   0.416   1.385  13.271 -0.4064  0.4467  0.5082
  170MPD1    C1 2642   0.395   1.367  13.403  0.2186  0.1296  0.0565
  170MPD1    C2 2643   0.325   1.472  13.467 -0.3488 -0.3857  0.6837
  170MPD1    C3 2644   0.285   1.584  13.401  0.2866 -0.1398  0.3778
  170MPD1    C4 2645   0.321   1.604  13.268 -0.5748  0.9240 -0.0283
  170MPD1    C5 2646   0.386   1.499  13.207  0.4936 -0.0945 -0.1023
  170MPD1     H 2647   0.303   1.474  13.573  1.4546 -3.8774  1.1093
  170MPD1    H1 2648   0.316   1.696  13.211 -1.0570 -1.4084 -3.7216
  170MPD1    H2 2649   0.464   1.310  13.209 -2.6419 -0.9440  0.4369
  170MPD1    H3 2650   0.432   1.505  13.109 -0.3681  0.3050 -0.4876
  170MPD1     N 2651   0.217   1.683  13.478  0.0469  0.0006 -0.1326
  170MPD1    H5 2652   0.183   1.651  13.568 -0.3921  1.0965  0.0911
  170MPD1    N1 2653   0.420   1.250  13.469  0.0823  0.0379  0.4157
  170MPD1    H6 2654   0.495   1.195  13.425 -1.8682 -0.9037 -1.7510
  170MPD1    H7 2655   0.435   1.278  13.565 -0.3125 -0.5806  0.6589
  171MPD1     C 2656   3.013   2.958  15.402 -0.3012  0.0474 -0.3820
  171MPD1    C1 2657   2.940   2.851  15.436 -0.1185 -0.4737  0.4397
  171MPD1    C2 2658   3.002   2.743  15.505 -0.2213  0.5952  0.2897
  171MPD1    C3 2659   3.132   2.749  15.541  0.7133  0.1432 -1.1624
  171MPD1    C4 2660   3.207   2.861  15.505  0.9078  0.5279  0.2143
  171MPD1    C5 2661   3.143   2.967  15.435  0.3028  0.0622  1.0780
  171MPD1     H 2662   2.946   2.651  15.519 -2.7288  1.9451 -0.7371
  171MPD1    H1 2663   3.308   2.873  15.542  1.0655  0.4587 -0.1999
  171MPD1    H2 2664   2.976   3.038  15.338 -0.3716  0.7420  0.5380
  171MPD1    H3 2665   3.202   3.050  15.397 -0.2624 -0.0921 -0.1038
  171MPD1     N 2666   3.200   2.646  15.609 -0.4167 -0.1173 -0.0561
  171MPD1    H5 2667   3.296   2.660  15.639 -0.5729 -0.5211  0.6402
  171MPD1    N1 2668   2.817   2.826  15.374  0.1931 -0.2816 -0.4799
  171MPD1    H6 2669   2.775   2.912  15.338  0.1453 -0.6671 -1.3539
  171MPD1    H7 2670   2.756   2.756  15.415 -2.9656  3.3428  1.0185
  172MPD1     C 2671   2.404   1.895   0.128 -0.3016 -0.3063  0.3720
  172MPD1    C1 2672   2.363   1.995   0.215 -0.0577  0.0373 -0.1932
  172MPD1    C2 2673   2.440   2.115   0.209 -0.2977 -0.1566 -1.0610
  172MPD1    C3 2674   2.548   2.134   0.124  0.3208 -0.2649 -0.3114
  172MPD1    C4 2675   2.580   2.026   0.043  0.1494 -0.0700  0.4115
  172MPD1    C5 2676   2.504   1.914   0.043  0.1663  0.0560  0.3001
  172MPD1     H 2677   2.414   2.185   0.287  2.9740 -0.4920  0.3251
  172MPD1    H1 2678   2.656   2.034  17.712 -2.2756 -3.4140 -2.3092
  172MPD1    H2 2679   2.354   1.798   0.124  0.6287 -0.8651  2.3416
  172MPD1    H3 2680   2.518   1.834  17.716  0.3352 -2.0577  2.6383
  172MPD1     N 2681   2.621   2.257   0.110 -0.1537 -0.5236 -0.4247
  172MPD1    H5 2682   2.693   2.259   0.039 -0.5431 -1.0847 -0.8411
  172MPD1    N1 2683   2.279   1.955   0.321 -0.1743  0.7328  0.3609
  172MPD1    H6 2684   2.216   1.879   0.296  0.3795  0.4558 -0.1783
  172MPD1    H7 2685   2.227   2.033   0.361 -1.8387 -1.2730  2.1139
  173MPD1     C 2686   3.902   2.355  13.628 -0.1943  0.3648 -0.1313
  173MPD1    C1 2687   4.015   2.298  13.678 -0.1815  0.0534  0.7450
  173MPD1    C2 2688   4.002   2.243  13.805  0.0921  0.7550 -0.6172
  173MPD1    C3 2689   3.880   2.223  13.863 -0.4264 -0.2818  0.1982
  173MPD1    C4 2690   3.770   2.278  13.805 -0.1103 -0.9372  0.1886
  173MPD1    C5 2691   3.782   2.355  13.690 -0.3240  0.5675 -1.2439
  173MPD1     H 2692   4.087   2.210  13.863 -0.5372 -1.0065 -0.6851
  173MPD1    H1 2693   3.670   2.255  13.841  0.6981 -4.4946  0.0764
  173MPD1    H2 2694   3.902   2.408  13.533  0.3234 -1.3142 -1.0801
  173MPD1    H3 2695   3.697   2.407  13.646  0.6485  1.1569 -2.4142
  173MPD1     N 2696   3.870   2.142  13.983 -0.3185 -0.1322  0.1146
  173MPD1    H5 2697   3.948   2.099  14.031 -0.5084 -1.6322 -0.9317
  173MPD1    N1 2698   4.142   2.300  13.605 -0.5912 -0.2092 -0.1832
  173MPD1    H6 2699   4.119   2.318  13.508 -1.4535 -0.1948  0.0225
  173MPD1    H7 2700   4.195   2.215  13.620 -1.2822 -0.8669 -1.5278
  174MPD1     C 2701   3.886   1.183  14.299 -0.6171 -0.2975 -0.2318
  174MPD1    C1 2702   3.890   1.245  14.175  0.0523  0.1020  0.1378
  174MPD1    C2 2703   3.862   1.379  14.173  0.4878 -0.3082 -0.6813
  174MPD1    C3 2704   3.844   1.452  14.292  0.2205 -0.0663 -0.1111
  174MPD1    C4 2705   3.840   1.383  14.415  0.6447  0.1372 -0.4098
  174MPD1    C5 2706   3.857   1.253  14.413  0.3293  0.1602 -0.0555
  174MPD1     H 2707   3.851   1.423  14.075  0.9495 -0.1626 -0.6700
  174MPD1    H1 2708   3.842   1.425  14.515  0.0843 -2.0129  0.5052
  174MPD1    H2 2709   3.915   1.078  14.298  1.1787  0.1781  0.8136
  174MPD1    H3 2710   3.853   1.205  14.510  1.2131  0.4020  0.0993
  174MPD1     N 2711   3.843   1.590  14.295  0.0422 -0.0898 -0.0263
  174MPD1    H5 2712   3.830   1.634  14.386 -0.6155  0.2579 -0.2876
  174MPD1    N1 2713   3.905   1.176  14.052  0.6286 -0.0369  0.0417
  174MPD1    H6 2714   3.989   1.220  14.016  0.9694  1.4458  2.6499
  174MPD1    H7 2715   3.924   1.077  14.068 -0.5975 -0.5736 -1.9508
  175MPD1     C 2716   2.452   2.238  15.096  0.3280  0.1196  0.6058
  175MPD1    C1 2717   2.320   2.282  15.089 -0.5707 -0.0379 -0.6183
  175MPD1    C2 2718   2.274   2.353  15.193  0.1434  0.4443 -0.9759
  175MPD1    C3 2719   2.361   2.386  15.299  0.0950 -0.5412 -0.1231
  175MPD1    C4 2720   2.488   2.342  15.300  0.2541 -0.1696  0.3442
  175MPD1    C5 2721   2.535   2.271  15.196 -0.0118 -0.0525  0.1876
  175MPD1     H 2722   2.174   2.395  15.190  1.0934  2.7315 -0.7511
  175MPD1    H1 2723   2.563   2.365  15.375 -0.7385 -0.8452  1.5515
  175MPD1    H2 2724   2.481   2.177  15.010  2.1105  2.1078 -0.2053
  175MPD1    H3 2725   2.641   2.246  15.199 -0.2711 -1.7296 -4.8126
  175MPD1     N 2726   2.317   2.460  15.415  0.0151  0.5278  0.0689
  175MPD1    H5 2727   2.374   2.460  15.499  0.1342  0.8967 -0.0095
  175MPD1    N1 2728   2.235   2.222  14.996  0.0416 -0.5208 -0.2955
  175MPD1    H6 2729   2.284   2.218  14.907 -0.3887 -0.7835 -0.5203
  175MPD1    H7 2730   2.148   2.275  14.991  1.2357  1.3066 -1.5107
  176MPD1     C 2731   4.473   4.516  16.540 -0.4008  0.1899 -0.0221
  176MPD1    C1 2732   4.395   4.471  16.643  1.1449 -0.4317  0.4595
  176MPD1    C2 2733   4.367   4.565  16.746  0.4316 -0.0986  0.4274
  176MPD1    C3 2734   4.407   4.698  16.737  0.4978  0.1010  0.1219
  176MPD1    C4 2735   4.475   0.002  16.628  0.0386 -0.8076 -0.4797
  176MPD1    C5 2736   4.513   4.648  16.532 -0.4644  0.3486 -0.7303
  176MPD1     H 2737   4.301   4.535  16.827 -1.7040 -2.3387 -2.1351
  176MPD1    H1 2738   4.493   0.107  16.606 -1.6841 -0.7345 -1.5654
  176MPD1    H2 2739   4.516   4.444  16.471  0.2176  0.2103  0.3388
  176MPD1    H3 2740   4.573   4.688  16.452  1.3054 -0.5192  0.1705
  176MPD1     N 2741   4.367   0.052  16.840  0.7802  0.2210 -0.2276
  176MPD1    H5 2742   4.300   0.015  16.906  2.7079 -1.1992  0.9399
  176MPD1    N1 2743   4.389   4.330  16.673 -0.3114  0.1634 -0.0407
  176MPD1    H6 2744   4.396   4.269  16.592  0.6681  0.5019 -0.2107
  176MPD1    H7 2745   4.313   4.305  16.736 -0.3230 -1.2713 -0.6314
  177MPD1     C 2746   1.889   3.689   9.159  0.8631  0.1604  0.1186
  177MPD1    C1 2747   1.802   3.583   9.184 -0.6824  0.1169 -0.0769
  177MPD1    C2 2748   1.723   3.537   9.080 -0.1223 -0.3194  0.1151
  177MPD1    C3 2749   1.710   3.611   8.962 -0.2197 -0.1178 -0.2057
  177MPD1    C4 2750   1.783   3.730   8.951 -0.4519 -0.4716 -0.4561
  177MPD1    C5 2751   1.890   3.752   9.036  0.6411 -0.2349 -0.9097
  177MPD1     H 2752   1.656   3.458   9.109  0.3400 -0.3181  1.1948
  177MPD1    H1 2753   1.772   3.794   8.864 -0.8478 -0.4366 -0.3802
  177MPD1    H2 2754   1.964   3.705   9.235  2.4342 -2.5508 -0.8755
  177MPD1    H3 2755   1.949   3.841   9.019 -0.9315  1.1268  0.7024
  177MPD1     N 2756   1.608   3.581   8.873 -0.5895  0.5194  0.2642
  177MPD1    H5 2757   1.548   3.502   8.892 -1.6433  1.0940 -0.7071
  177MPD1    N1 2758   1.814   3.516   9.304  0.2470 -0.5717  0.4235
  177MPD1    H6 2759   1.735   3.455   9.322  0.5510 -1.6156 -1.8203
  177MPD1    H7 2760   1.840   3.580   9.379  0.1740  1.6763 -1.4511
  178MPD1     C 2761   4.731   1.917  17.618 -0.5550  0.1291  0.4471
  178MPD1    C1 2762   0.077   1.870  17.719 -0.3626 -0.2739 -0.3419
  178MPD1    C2 2763   0.160   1.758  17.698 -1.3358 -0.2074 -0.1721
  178MPD1    C3 2764   0.165   1.695  17.574  0.3491 -0.0371 -0.3402
  178MPD1    C4 2765   0.088   1.746  17.472 -0.1904 -0.0273 -0.4500
  178MPD1    C5 2766   0.007   1.857  17.496 -0.4462  0.2496 -0.1441
  178MPD1     H 2767   0.220   1.722   0.035 -2.1838  2.1890  1.5141
  178MPD1    H1 2768   0.094   1.711  17.369 -1.9298 -0.5870 -0.3497
  178MPD1    H2 2769   4.683   2.012  17.633  0.8702  0.7543  1.0236
  178MPD1    H3 2770   4.676   1.903  17.425 -0.4131  1.5164  0.6430
  178MPD1     N 2771   0.254   1.591  17.542 -0.0993  0.1454 -0.4671
  178MPD1    H5 2772   0.259   1.551  17.449 -1.6502 -0.2389 -0.3880
  178MPD1    N1 2773   0.099   1.948   0.089 -0.0731  0.0534 -0.1133
  178MPD1    H6 2774   0.135   1.897   0.169 -0.5237  1.8409  1.2523
  178MPD1    H7 2775   0.021   2.007   0.120  0.5226  0.9450 -0.3110
  179MPD1     C 2776   0.019   4.288  15.927 -0.5778 -0.0665  0.3916
  179MPD1    C1 2777   4.715   4.232  15.805  0.1340 -0.5316 -0.4107
  179MPD1    C2 2778   4.675   4.100  15.804 -1.0462 -0.0695 -0.1947
  179MPD1    C3 2779   4.692   4.024  15.918 -0.1795  0.4776 -0.1942
  179MPD1    C4 2780   0.010   4.071  16.032 -0.3071  0.2254  0.1493
  179MPD1    C5 2781   0.045   4.207  16.035 -0.1317 -0.1779 -0.1344
  179MPD1     H 2782   4.638   4.056  15.712  0.6020 -2.0020  0.0709
  179MPD1    H1 2783   0.034   4.008  16.116 -0.8741 -0.4416 -0.1939
  179MPD1    H2 2784   0.040   4.394  15.932 -0.2022 -0.1878  1.3651
  179MPD1    H3 2785   0.105   4.234  16.121 -2.1663  4.0729 -0.0798
  179MPD1     N 2786   4.674   3.881  15.913  1.1686 -0.3138 -0.1284
  179MPD1    H5 2787   4.683   3.826  15.998  0.0389  0.3027  0.3918
  179MPD1    N1 2788   4.684   4.317  15.701  0.4957 -1.0778  0.0464
  179MPD1    H6 2789   4.708   4.266  15.616  1.6044  1.1856 -0.9846
  179MPD1    H7 2790   0.013   4.394  15.692  0.5835 -1.4344 -2.3996
  180MPD1     C 2791   3.199   0.487  14.788  0.0430  0.0014  0.4509
  180MPD1    C1 2792   3.305   0.571  14.772 -0.1798  0.1629 -0.1095
  180MPD1    C2 2793   3.421   0.513  14.749  0.1526  0.2222 -0.0670
  180MPD1    C3 2794   3.436   0.382  14.709  0.1556 -0.4978 -0.4739
  180MPD1    C4 2795   3.328   0.304  14.729 -0.4491  0.1722 -0.0103
  180MPD1    C5 2796   3.209   0.355  14.769 -0.2088  0.2763 -0.1856
  180MPD1     H 2797   3.512   0.572  14.741 -0.3214  0.9205 -0.3900
  180MPD1    H1 2798   3.320   0.199  14.705  0.0026 -0.0642  0.8412
  180MPD1    H2 2799   3.104   0.529  14.820 -0.3450  0.5786 -1.4822
  180MPD1    H3 2800   3.122   0.291  14.779 -0.1851 -0.2505 -3.2178
  180MPD1     N 2801   3.560   0.334  14.655  0.0522  0.2622 -0.8242
  180MPD1    H5 2802   3.637   0.399  14.640 -0.3939  0.9417 -0.1425
  180MPD1    N1 2803   3.298   0.690  14.843 -1.4493  0.5296 -0.6816
  180MPD1    H6 2804   3.370   0.760  14.829 -1.2919  0.7848  1.2922
  180MPD1    H7 2805   3.213   0.743  14.825 -1.3173  1.1848  0.5793
  181MPD1     C 2806   0.910   2.381  10.476  0.0785  0.4603  0.4043
  181MPD1    C1 2807   0.986   2.277  10.429  0.1975 -0.7584  0.1861
  181MPD1    C2 2808   1.118   2.307  10.401  0.6865 -0.1246 -0.7695
  181MPD1    C3 2809   1.189   2.427  10.431  0.5629  0.3270  0.4484
  181MPD1    C4 2810   1.111   2.520  10.502  0.3497  0.3140  0.3330
  181MPD1    C5 2811   0.981   2.495  10.516 -0.1492  0.2558  0.2024
  181MPD1     H 2812   1.170   2.231  10.344  1.2763  0.7069 -1.3335
  181MPD1    H1 2813   1.148   2.612  10.547  2.1112  0.0100 -0.4936
  181MPD1    H2 2814   0.803   2.380  10.493 -0.2025  0.3187 -1.3593
  181MPD1    H3 2815   0.924   2.571  10.567 -0.3165  0.3527 -0.1264
  181MPD1     N 2816   1.325   2.453  10.394  0.9149 -0.6141  0.3534
  181MPD1    H5 2817   1.368   2.369  10.357 -0.5231 -1.4996  0.6708
  181MPD1    N1 2818   0.924   2.163  10.369 -0.0068  0.2226  0.1887
  181MPD1    H6 2819   0.828   2.139  10.390 -0.0419  1.7491  1.7616
  181MPD1    H7 2820   0.985   2.084  10.390 -1.7486 -0.9438  0.8135
  182MPD1     C 2821   2.781   0.951   1.323  0.2460  0.0306  0.4965
  182MPD1    C1 2822   2.769   0.888   1.199 -0.3241 -0.4807 -0.5120
  182MPD1    C2 2823   2.657   0.912   1.118  0.4530 -0.7185 -0.5352
  182MPD1    C3 2824   2.564   1.004   1.156  0.4247 -0.2876  0.3610
  182MPD1    C4 2825   2.575   1.063   1.280  1.0996  0.8555  0.2178
  182MPD1    C5 2826   2.678   1.031   1.363 -0.6764 -0.1898  0.2430
  182MPD1     H 2827   2.646   0.870   1.019 -0.7622 -0.3336 -0.5638
  182MPD1    H1 2828   2.499   1.132   1.316  0.5501  0.7197 -0.6843
  182MPD1    H2 2829   2.860   0.931   1.395  0.6377  0.0485  0.0736
  182MPD1    H3 2830   2.689   1.086   1.456  0.9322 -0.7931  0.4086
  182MPD1     N 2831   2.450   1.034   1.082  0.8578  0.0083 -0.2164
  182MPD1    H5 2832   2.398   1.110   1.124 -0.7378 -1.0638 -0.2680
  182MPD1    N1 2833   2.863   0.788   1.158 -0.4269 -0.3878 -0.1034
  182MPD1    H6 2834   2.875   0.782   1.057 -3.0925 -0.9165 -0.3665
  182MPD1    H7 2835   2.952   0.820   1.196 -0.8614 -0.0921  0.6544
  183MPD1     C 2836   2.106   1.788   8.377  0.4220  0.0360  0.0851
  183MPD1    C1 2837   2.158   1.824   8.496  0.5099  0.1818  0.5063
  183MPD1    C2 2838   2.154   1.740   8.596 -0.0808  0.7591  0.4714
  183MPD1    C3 2839   2.101   1.613   8.580 -0.4333  0.8872  0.5219
  183MPD1    C4 2840   2.060   1.572   8.455 -0.2830 -0.0984  0.0465
  183MPD1    C5 2841   2.062   1.663   8.356  0.2991 -0.0543  0.4433
  183MPD1     H 2842   2.185   1.769   8.696  0.3675  1.4369  0.1338
  183MPD1    H1 2843   2.017   1.474   8.439 -0.1944 -0.5300  2.4112
  183MPD1    H2 2844   2.114   1.856   8.293 -0.0118 -0.6739 -0.5250
  183MPD1    H3 2845   2.007   1.640   8.265  0.8295 -1.2693  0.4312
  183MPD1     N 2846   2.099   1.528   8.690 -0.1488 -0.3190  0.3629
  183MPD1    H5 2847   2.148   1.576   8.764 -2.6261 -0.9882  2.4305
  183MPD1    N1 2848   2.222   1.947   8.500 -0.2698 -0.0749  0.9093
  183MPD1    H6 2849   2.231   1.983   8.595 -0.1804  1.3578  0.3569
  183MPD1    H7 2850   2.168   2.010   8.443 -0.0608  0.6154  1.4718
  184MPD1     C 2851   2.499   4.543  10.166  0.6942  0.1484  0.0320
  184MPD1    C1 2852   2.373   4.498  10.153 -0.3819  0.0600  0.4000
  184MPD1    C2 2853   2.278   4.573  10.086  0.1928  0.5259  0.4844
  184MPD1    C3 2854   2.309   4.711  10.057 -0.3682  0.4309 -0.3417
  184MPD1    C4 2855   2.437   0.018  10.079 -0.0161 -0.2243 -0.0712
  184MPD1    C5 2856   2.532   4.670  10.133  0.0525  0.3584  0.0595
  184MPD1     H 2857   2.190   4.525  10.047  1.3112  0.6550 -2.1538
  184MPD1    H1 2858   2.473   0.119  10.060  1.2705 -1.0578 -2.0204
  184MPD1    H2 2859   2.569   4.470  10.204 -0.8269 -1.0792  0.4834
  184MPD1    H3 2860   2.631   4.712  10.138 -0.7123  2.1541  0.1737
  184MPD1     N 2861   2.212   0.060   9.993  0.0146  0.5729 -0.2508
  184MPD1    H5 2862   2.247   0.154   9.980  0.4887  0.0160 -2.9060
  184MPD1    N1 2863   2.343   4.362  10.189 -0.0979  0.0834 -0.4871
  184MPD1    H6 2864   2.243   4.342  10.196 -0.1837  1.5779  2.8042
  184MPD1    H7 2865   2.408   4.324  10.258 -1.6388  1.8411  1.9347
  185MPD1     C 2866   1.604   4.714   9.301 -0.7806 -0.2194  0.1978
  185MPD1    C1 2867   1.591   0.109   9.319 -0.0388 -0.0977 -0.1180
  185MPD1    C2 2868   1.607   0.156   9.447 -0.6691  0.3776 -0.1978
  185MPD1    C3 2869   1.650   0.073   9.551  0.5825 -0.8046 -0.2127
  185MPD1    C4 2870   1.644   4.672   9.538 -0.2188  0.4889  0.3761
  185MPD1    C5 2871   1.613   4.627   9.413  0.5907  0.2881  0.0420
  185MPD1     H 2872   1.604   0.264   9.461  0.7272  0.1243  2.0980
  185MPD1    H1 2873   1.659   4.605   9.622 -0.5558  0.9432  0.7993
  185MPD1    H2 2874   1.582   4.673   9.203  3.3871  0.7673 -1.1565
  185MPD1    H3 2875   1.586   4.522   9.406 -0.2951  0.5372 -0.3645
  185MPD1     N 2876   1.702   0.111   9.678 -0.4706 -0.0629 -0.1485
  185MPD1    H5 2877   1.700   0.044   9.754  0.2110  1.0280  0.8262
  185MPD1    N1 2878   1.571   0.192   9.205  0.7768 -0.6874 -0.2299
  185MPD1    H6 2879   1.531   0.283   9.230 -1.2097 -1.7076  0.2963
  185MPD1    H7 2880   1.523   0.143   9.130  1.8748 -0.9980 -0.7250
  186MPD1     C 2881   0.321   3.687  16.029  0.1293  0.4636 -0.5184
  186MPD1    C1 2882   0.335   3.659  16.160  0.0359  0.1183 -0.6327
  186MPD1    C2 2883   0.349   3.765  16.249 -0.2251 -0.1046  0.7843
  186MPD1    C3 2884   0.374   3.901  16.215  0.1709  0.1151 -0.4283
  186MPD1    C4 2885   0.363   3.920  16.081 -0.9669 -0.2252  0.2720
  186MPD1    C5 2886   0.338   3.817  15.991  0.1096 -0.2666  0.0225
  186MPD1     H 2887   0.342   3.740  16.354 -2.1974  0.2267  0.7363
  186MPD1    H1 2888   0.386   4.013  16.030 -1.2407 -0.9714 -1.2315
  186MPD1    H2 2889   0.301   3.614  15.952 -0.5970  1.1993 -1.0189
  186MPD1    H3 2890   0.331   3.830  15.884 -2.0818 -2.7933 -0.1354
  186MPD1     N 2891   0.387   4.009  16.301  0.1355  0.5974 -0.3941
  186MPD1    H5 2892   0.390   4.103  16.262  0.9699  1.3655  1.5106
  186MPD1    N1 2893   0.305   3.529  16.202 -0.2996  0.9014 -0.1414
  186MPD1    H6 2894   0.343   3.496  16.290  0.2772 -0.6299 -0.9539
  186MPD1    H7 2895   0.347   3.478  16.125 -0.1813 -0.5453  0.8836
  187MPD1     C 2896   4.456   0.562   0.018  0.3375  0.1311 -0.3711
  187MPD1    C1 2897   4.337   0.529  17.698 -0.0147 -0.0314 -0.8032
  187MPD1    C2 2898   4.281   0.617  17.608  0.5146 -0.0911  0.3476
  187MPD1    C3 2899   4.343   0.738  17.576  0.0494  0.4895 -0.1879
  187MPD1    C4 2900   4.469   0.770  17.638  0.4921  0.1176  0.3996
  187MPD1    C5 2901   4.522   0.682  17.727 -0.0514 -0.2446 -0.2166
  187MPD1     H 2902   4.193   0.584  17.555 -0.8523  0.5529  2.2057
  187MPD1    H1 2903   4.533   0.845  17.593 -0.1083  0.1155 -0.4461
  187MPD1    H2 2904   4.515   0.490   0.073 -2.5630 -2.2393 -0.4422
  187MPD1    H3 2905   4.621   0.703   0.019  0.0306 -1.6743  0.3667
  187MPD1     N 2906   4.298   0.836  17.483 -0.3230 -0.1336 -0.0862
  187MPD1    H5 2907   4.357   0.918  17.481  0.0252 -0.3571  1.3238
  187MPD1    N1 2908   4.273   0.408  17.732  0.1144 -0.4337  0.4687
  187MPD1    H6 2909   4.201   0.380  17.665 -0.1212  0.5715  0.3153
  187MPD1    H7 2910   4.331   0.331   0.021  1.6071 -1.2735 -3.7639
  188MPD1     C 2911   4.024   1.171  10.065 -0.5115 -0.4797 -0.1598
  188MPD1    C1 2912   4.085   1.121  10.182  1.0892 -0.1347 -0.3249
  188MPD1    C2 2913   4.108   0.987  10.205  0.0323  0.2644  0.0713
  188MPD1    C3 2914   4.069   0.897  10.107 -0.9989 -0.0986  1.4180
  188MPD1    C4 2915   3.992   0.947  10.006 -0.7422  0.0699  0.3092
  188MPD1    C5 2916   3.977   1.081   9.977  0.3629 -0.0174 -0.5428
  188MPD1     H 2917   4.160   0.949  10.293  0.1742 -0.3344 -0.2695
  188MPD1    H1 2918   3.961   0.886   9.922 -0.8875  0.4084  0.1206
  188MPD1    H2 2919   3.982   1.270  10.051  0.0714 -0.2044  0.0228
  188MPD1    H3 2920   3.921   1.115   9.890  0.5746 -1.4354 -1.2287
  188MPD1     N 2921   4.094   0.758  10.106 -0.1210 -0.2367  0.5213
  188MPD1    H5 2922   4.024   0.703  10.057  0.5144  0.9299 -1.7096
  188MPD1    N1 2923   4.101   1.204  10.286 -0.3296 -0.5780 -0.0907
  188MPD1    H6 2924   4.148   1.292  10.264 -0.4125 -0.6903 -0.7043
  188MPD1    H7 2925   4.153   1.167  10.366 -3.6090 -0.9394  1.8925
  189MPD1     C 2926   1.070   1.976   0.900 -0.5090 -0.3992 -0.3964
  189MPD1    C1 2927   0.932   1.958   0.891  0.1502 -0.3373  0.1828
  189MPD1    C2 2928   0.856   2.072   0.866  0.1479 -0.0826 -0.0564
  189MPD1    C3 2929   0.913   2.192   0.844  0.7665  0.0591 -0.8776
  189MPD1    C4 2930   1.048   2.209   0.857 -0.5146 -0.5203  0.1092
  189MPD1    C5 2931   1.128   2.098   0.889 -0.1018  0.1214  0.6300
  189MPD1     H 2932   0.749   2.063   0.851 -0.2521  0.8334  2.2383
  189MPD1    H1 2933   1.097   2.305   0.863  0.3852 -0.9481 -0.4080
  189MPD1    H2 2934   1.130   1.888   0.921 -2.2844 -1.8680 -1.4704
  189MPD1    H3 2935   1.235   2.111   0.903  0.0909  0.9589 -1.5847
  189MPD1     N 2936   0.826   2.292   0.793  0.1221 -0.0781 -0.3641
  189MPD1    H5 2937   0.727   2.272   0.800  0.4216 -0.9182  1.4495
  189MPD1    N1 2938   0.877   1.833   0.926 -0.0201 -0.6508 -0.3940
  189MPD1    H6 2939   0.784   1.821   0.886  0.5445  0.9705 -2.1771
  189MPD1    H7 2940   0.941   1.755   0.912  0.9290 -0.2047  1.5605
  190MPD1     C 2941   4.241   0.494  15.631 -0.2483 -0.6990  0.1507
  190MPD1    C1 2942   4.241   0.387  15.728 -0.0272 -0.1880 -0.4481
  190MPD1    C2 2943   4.367   0.342  15.770 -0.0603 -0.0564  0.2803
  190MPD1    C3 2944   4.483   0.396  15.720  0.2820 -0.4142 -0.9947
  190MPD1    C4 2945   4.475   0.496  15.630  0.6573 -0.2969 -0.0499
  190MPD1    C5 2946   4.354   0.539  15.577  0.9530  0.3366  0.6930
  190MPD1     H 2947   4.369   0.257  15.837 -1.8170 -2.2465 -2.4482
  190MPD1    H1 2948   4.555   0.562  15.597  0.4686 -0.0271  0.0282
  190MPD1    H2 2949   4.151   0.539  15.590  0.8879  0.8013 -0.7361
  190MPD1    H3 2950   4.357   0.622  15.507  1.4849  0.6016  1.0341
  190MPD1     N 2951   4.599   0.336  15.763  0.3409 -0.5631  0.8000
  190MPD1    H5 2952   4.595   0.280  15.848  2.7708 -0.3306  1.0952
  190MPD1    N1 2953   4.126   0.350  15.798 -0.3971 -0.3200  0.1932
  190MPD1    H6 2954   4.045   0.361  15.738 -0.6834  0.7292  0.7724
  190MPD1    H7 2955   4.121   0.252  15.826  2.9293 -1.0725 -1.7637
  191MPD1     C 2956   4.417   2.798  11.644 -0.1029 -0.3536  0.4332
  191MPD1    C1 2957   4.427   2.727  11.757  0.5267 -0.1119 -0.0392
  191MPD1    C2 2958   4.344   2.612  11.764 -0.2691  0.0330  0.8613
  191MPD1    C3 2959   4.250   2.581  11.672  0.7678 -0.0752  0.2024
  191MPD1    C4 2960   4.235   2.662  11.556  0.8697  0.2056 -0.2013
  191MPD1    C5 2961   4.318   2.765  11.545  0.0917  0.4138 -0.4104
  191MPD1     H 2962   4.343   2.555  11.856 -1.1624  0.5021  1.1513
  191MPD1    H1 2963   4.165   2.638  11.477 -0.3842 -2.1554  1.6101
  191MPD1    H2 2964   4.488   2.880  11.634  0.3984 -1.0403 -1.6456
  191MPD1    H3 2965   4.313   2.821  11.453  0.4827 -0.8867 -1.2200
  191MPD1     N 2966   4.169   2.466  11.698 -0.1767  0.0978 -0.0748
  191MPD1    H5 2967   4.183   2.412  11.783 -1.1386  0.1979  0.1507
  191MPD1    N1 2968   4.525   2.761  11.859 -0.4012 -0.1085  0.0977
  191MPD1    H6 2969   4.494   2.734  11.952  1.4233 -1.5524  0.2978
  191MPD1    H7 2970   4.549   2.860  11.854 -1.1930  0.1153  0.5835
  192MPD1     C 2971   3.500   1.750  11.231  0.0762 -0.2226 -0.0473
  192MPD1    C1 2972   3.561   1.858  11.182 -0.2487 -0.9096 -0.5248
  192MPD1    C2 2973   3.621   1.947  11.277  0.0863  0.5943 -0.8599
  192MPD1    C3 2974   3.644   1.901  11.409 -0.6005 -0.0277 -0.0902
  192MPD1    C4 2975   3.595   1.778  11.452  0.5056  0.5431  0.7438
  192MPD1    C5 2976   3.517   1.708  11.365  0.1437 -0.1752  0.1350
  192MPD1     H 2977   3.674   2.033  11.240  0.9561 -0.0537 -1.1104
  192MPD1    H1 2978   3.605   1.752  11.557  0.6159 -1.6941  0.1856
  192MPD1    H2 2979   3.443   1.684  11.166  2.9003 -2.3077 -0.4033
  192MPD1    H3 2980   3.473   1.614  11.396  0.1391 -0.7679 -1.6428
  192MPD1     N 2981   3.710   1.976  11.512 -0.2438 -0.1140 -0.5097
  192MPD1    H5 2982   3.697   1.938  11.605 -0.1669  0.9756 -0.0566
  192MPD1    N1 2983   3.528   1.886  11.047  0.3982 -0.3319 -0.2498
  192MPD1    H6 2984   3.526   1.794  11.004 -0.5698  0.2674 -1.4763
  192MPD1    H7 2985   3.600   1.936  10.995 -1.7591  0.5819 -2.3637
  193MPD1     C 2986   3.205   2.261  16.052  0.0333 -0.2657 -0.4822
  193MPD1    C1 2987   3.150   2.385  16.086 -0.0204  0.1495 -0.3654
  193MPD1    C2 2988   3.239   2.484  16.131  0.6783  0.1452 -0.2491
  193MPD1    C3 2989   3.372   2.468  16.141 -1.3492  0.1116 -0.0650
  193MPD1    C4 2990   3.424   2.347  16.098  0.5127 -0.6748 -0.8249
  193MPD1    C5 2991   3.340   2.248  16.049  0.2222 -0.7540 -0.0572
  193MPD1     H 2992   3.196   2.579  16.160  0.0011 -0.4221  0.6026
  193MPD1    H1 2993   3.530   2.326  16.095  0.9411  1.3586  0.5208
  193MPD1    H2 2994   3.147   2.174  16.024 -0.1323  0.1039 -1.2688
  193MPD1    H3 2995   3.381   2.159  16.002 -0.2473 -1.0455  0.0824
  193MPD1     N 2996   3.462   2.556  16.200  0.3124 -0.1561  0.0221
  193MPD1    H5 2997   3.555   2.518  16.216  0.2870 -0.0670  0.3916
  193MPD1    N1 2998   3.013   2.406  16.099  0.1220  0.1644  0.1021
  193MPD1    H6 2999   2.948   2.358  16.037 -0.5901 -0.0302  1.0108
  193MPD1    H7 3000   2.981   2.503  16.101 -0.0216  0.1448 -1.1400
  194MPD1     C 3001   1.381   4.716  17.288 -0.0688 -0.7665  0.3646
  194MPD1    C1 3002   1.382   4.718  17.153 -0.3579  0.5573  0.1115
  194MPD1    C2 3003   1.388   4.597  17.088 -0.4013  0.2198 -0.4719
  194MPD1    C3 3004   1.413   4.477  17.150  0.3642  0.6031 -0.0872
  194MPD1    C4 3005   1.422   4.491  17.293 -0.1419 -0.2017  0.7782
  194MPD1    C5 3006   1.390   4.605  17.362 -0.5053 -0.0548 -0.4191
  194MPD1     H 3007   1.382   4.599  16.980  0.7429  0.8724 -0.5206
  194MPD1    H1 3008   1.448   4.404  17.353 -1.6261  0.0588  1.7719
  194MPD1    H2 3009   1.379   0.073  17.342  1.9973  0.2524 -1.3203
  194MPD1    H3 3010   1.393   4.607  17.470  0.1892 -0.2635 -0.4286
  194MPD1     N 3011   1.437   4.353  17.097  0.4569 -0.0150  0.8330
  194MPD1    H5 3012   1.473   4.276  17.152  0.4748 -0.2702  0.4682
  194MPD1    N1 3013   1.358   0.101  17.087 -0.6452 -0.8047  0.3484
  194MPD1    H6 3014   1.404   0.100  16.997 -0.4636 -0.5364  0.4390
  194MPD1    H7 3015   1.389   0.186  17.134  3.5286 -1.2781 -1.6195
  195MPD1     C 3016   3.234   1.735  17.697 -0.6182 -0.2167 -0.5767
  195MPD1    C1 3017   3.326   1.708  17.607  0.2788  0.7183  0.2219
  195MPD1    C2 3018   3.356   1.579  17.576 -0.4073 -0.9461  0.2575
  195MPD1    C3 3019   3.303   1.471  17.646 -0.2358  0.1266  0.6242
  195MPD1    C4 3020   3.215   1.501  17.742 -0.3300  0.4413  0.7984
  195MPD1    C5 3021   3.176   1.633   0.019  0.4391  0.0193  0.1312
  195MPD1     H 3022   3.434   1.565  17.501 -1.3547 -2.3257 -0.4743
  195MPD1    H1 3023   3.173   1.422   0.058  1.1118  0.3819  1.7147
  195MPD1    H2 3024   3.200   1.838  17.702 -0.5939 -0.3111  1.3617
  195MPD1    H3 3025   3.098   1.646   0.093  1.8054  0.4927  1.5033
  195MPD1     N 3026   3.356   1.339  17.636 -0.5484  0.5660  0.0454
  195MPD1    H5 3027   3.318   1.272  17.702 -0.9665 -0.2080 -0.9610
  195MPD1    N1 3028   3.376   1.818  17.531 -0.5655 -0.3775 -0.4369
  195MPD1    H6 3029   3.461   1.808  17.476  0.5637 -2.0767  1.6223
  195MPD1    H7 3030   3.357   1.913  17.562 -1.7753 -0.9003  0.4170
  196MPD1     C 3031   2.889   0.501  17.348  0.7472 -0.4460 -0.7161
  196MPD1    C1 3032   2.884   0.637  17.364 -0.3557  0.2802 -0.1784
  196MPD1    C2 3033   2.811   0.689  17.469 -0.4907 -0.3661 -0.1184
  196MPD1    C3 3034   2.757   0.608  17.565 -0.0646 -0.0530  0.3290
  196MPD1    C4 3035   2.776   0.473  17.559 -0.7821 -0.7292 -0.0115
  196MPD1    C5 3036   2.837   0.424  17.446 -0.6617  0.1683 -0.2763
  196MPD1     H 3037   2.791   0.795  17.475 -0.0216 -0.2941  0.1829
  196MPD1    H1 3038   2.739   0.400  17.631  1.6544 -1.2350  0.7370
  196MPD1    H2 3039   2.956   0.456  17.276  0.8268 -0.8025 -0.4180
  196MPD1    H3 3040   2.858   0.319  17.435  3.4057  1.1723 -2.1913
  196MPD1     N 3041   2.703   0.659  17.684  0.7570  1.1393 -0.2133
  196MPD1    H5 3042   2.695   0.592   0.015 -1.0434  0.7795 -0.7366
  196MPD1    N1 3043   2.916   0.726  17.258 -0.2978  0.8459 -0.4511
  196MPD1    H6 3044   2.989   0.685  17.199 -0.7560  0.0311 -0.4491
  196MPD1    H7 3045   2.952   0.809  17.304  2.4013  0.2779 -1.5223
  197MPD1     C 3046   1.831   2.681  17.037  0.1586  0.8122  0.1821
  197MPD1    C1 3047   1.928   2.667  17.134  0.0702 -0.4587 -0.3467
  197MPD1    C2 3048   2.065   2.682  17.100  0.2687 -0.0229 -0.5846
  197MPD1    C3 3049   2.096   2.728  16.975  0.2380  0.1744 -0.1912
  197MPD1    C4 3050   2.003   2.754  16.884  0.1992  0.3340  0.3043
  197MPD1    C5 3051   1.873   2.720  16.909  1.1336  0.1469 -0.2141
  197MPD1     H 3052   2.142   2.660  17.173 -1.2102  0.3661  1.1055
  197MPD1    H1 3053   2.034   2.798  16.790 -0.7053  0.0890 -0.1112
  197MPD1    H2 3054   1.724   2.665  17.042  0.2334 -0.1657 -1.0784
  197MPD1    H3 3055   1.797   2.726  16.832 -0.2841 -1.8566  1.0471
  197MPD1     N 3056   2.222   2.767  16.930  0.0601 -0.5882  0.3027
  197MPD1    H5 3057   2.235   2.790  16.832  1.1014 -0.3780  0.4915
  197MPD1    N1 3058   1.888   2.619  17.256  0.2893  0.1803 -0.3498
  197MPD1    H6 3059   1.949   2.643  17.334  1.2315  1.0298 -1.3442
  197MPD1    H7 3060   1.795   2.655  17.278  0.1142  0.3294 -1.3034
  198MPD1     C 3061   4.552   1.202  14.575 -0.6831 -0.1694  0.4855
  198MPD1    C1 3062   4.618   1.317  14.612  0.6344 -0.2815 -0.2649
  198MPD1    C2 3063   4.651   1.327  14.745 -0.0879  0.2267 -0.2234
  198MPD1    C3 3064   4.641   1.221  14.838 -0.1155 -0.0779  0.0419
  198MPD1    C4 3065   4.583   1.101  14.800 -0.8897 -0.5173 -0.7993
  198MPD1    C5 3066   4.531   1.096  14.668  0.6559 -0.6353  0.1876
  198MPD1     H 3067   4.698   1.421  14.773  0.5173 -0.0204 -0.3962
  198MPD1    H1 3068   4.581   1.010  14.859  0.9881 -0.8035 -1.1668
  198MPD1    H2 3069   4.497   1.201  14.482 -1.5664  0.0100  1.0033
  198MPD1    H3 3070   4.486   1.005  14.631 -1.3301  0.0620  0.8786
  198MPD1     N 3071   4.694   1.246  14.969  0.1109 -0.3926  0.4896
  198MPD1    H5 3072   4.717   1.343  14.988  0.1515 -0.7179  2.0999
  198MPD1    N1 3073   4.619   1.424  14.521  0.5478  0.5881  0.3588
  198MPD1    H6 3074   4.699   1.486  14.522  1.7236 -0.8693 -1.5594
  198MPD1    H7 3075   4.635   1.381  14.430 -0.5326 -0.2638  0.5678
  199MPD1     C 3076   1.785   3.017  10.617  0.8341 -0.1734 -0.1055
  199MPD1    C1 3077   1.709   3.132  10.593 -0.3924 -0.4513  0.4990
  199MPD1    C2 3078   1.578   3.117  10.549  0.5064  0.8012 -0.0603
  199MPD1    C3 3079   1.531   2.993  10.515 -0.4558  0.7852  0.2787
  199MPD1    C4 3080   1.605   2.880  10.540 -0.0684  0.4018 -0.4264
  199MPD1    C5 3081   1.734   2.896  10.588  0.0354 -0.3171 -0.1474
  199MPD1     H 3082   1.515   3.204  10.536 -1.2156 -0.2965  0.9814
  199MPD1    H1 3083   1.561   2.784  10.517 -1.6357  1.6801 -2.7888
  199MPD1    H2 3084   1.886   3.015  10.656  1.1538  0.3058 -0.9216
  199MPD1    H3 3085   1.798   2.809  10.598  0.1184 -0.3111 -0.6403
  199MPD1     N 3086   1.401   2.969  10.462 -0.3672 -0.3264  0.5507
  199MPD1    H5 3087   1.374   2.872  10.457 -0.9308 -0.0904 -0.8527
  199MPD1    N1 3088   1.769   3.257  10.615 -0.3265  0.1341 -0.1306
  199MPD1    H6 3089   1.703   3.335  10.613 -2.0084 -1.2668  0.6119
  199MPD1    H7 3090   1.823   3.262  10.701  0.1234 -1.1295 -0.3457
  200MPD1     C 3091   1.456   2.169  14.397 -0.1380  0.7806 -0.0384
  200MPD1    C1 3092   1.460   2.268  14.303  0.0759  0.3305  0.0706
  200MPD1    C2 3093   1.351   2.348  14.292  0.2590 -0.0112  0.0090
  200MPD1    C3 3094   1.230   2.318  14.342 -0.8149 -0.1872 -0.2890
  200MPD1    C4 3095   1.232   2.222  14.436 -0.0726 -0.3876 -0.4429
  200MPD1    C5 3096   1.345   2.147  14.470  0.2874  0.2441 -0.2450
  200MPD1     H 3097   1.363   2.437  14.232 -0.7542 -0.1724 -0.4468
  200MPD1    H1 3098   1.152   2.221  14.509  0.2925  1.0156 -0.0253
  200MPD1    H2 3099   1.544   2.116  14.433  0.1965  1.1994 -0.2451
  200MPD1    H3 3100   1.351   2.065  14.541  1.2109  1.0770  0.6508
  200MPD1     N 3101   1.126   2.406  14.318  0.2092  0.7059 -0.1174
  200MPD1    H5 3102   1.143   2.468  14.240 -1.1103 -1.2324 -1.9192
  200MPD1    N1 3103   1.580   2.307  14.249  0.0645  0.6570 -0.0958
  200MPD1    H6 3104   1.576   2.368  14.167  0.0009  1.0104  0.1739
  200MPD1    H7 3105   1.642   2.229  14.226 -0.1790  0.6472 -0.7283
  201MPD1     C 3106   2.799   1.589  12.789  0.6797 -0.6113 -0.1706
  201MPD1    C1 3107   2.878   1.499  12.721  0.6809 -0.6489 -0.4070
  201MPD1    C2 3108   2.955   1.403  12.789 -0.4259 -0.0162 -0.5872
  201MPD1    C3 3109   2.950   1.402  12.930  0.3442  0.6803  0.5208
  201MPD1    C4 3110   2.875   1.499  12.995 -0.1131 -0.3589 -0.3500
  201MPD1    C5 3111   2.803   1.594  12.930  0.2042 -0.1167 -0.3811
  201MPD1     H 3112   3.017   1.334  12.733  1.7415  1.1708  0.3612
  201MPD1    H1 3113   2.856   1.508  13.101 -0.0744 -1.2562 -0.2599
  201MPD1    H2 3114   2.766   1.682  12.745 -1.4221 -0.6613  1.3050
  201MPD1    H3 3115   2.757   1.679  12.978  0.9637  0.0322  0.0856
  201MPD1     N 3116   3.015   1.298  13.002  0.0035  0.1541  0.2495
  201MPD1    H5 3117   3.045   1.218  12.947 -0.6551 -0.3543  0.6235
  201MPD1    N1 3118   2.900   1.517  12.583  0.7290 -0.1210  0.3348
  201MPD1    H6 3119   2.816   1.552  12.536 -0.5736 -0.2581  2.5517
  201MPD1    H7 3120   2.943   1.442  12.528  0.5940 -0.0023  0.0654
  202MPD1     C 3121   2.324   1.371   9.965 -0.3930  0.5584 -0.2057
  202MPD1    C1 3122   2.440   1.318  10.013 -0.3107  0.3085 -1.2834
  202MPD1    C2 3123   2.463   1.186   9.986  0.2564  0.9762 -0.1536
  202MPD1    C3 3124   2.404   1.115   9.883 -0.4702 -0.7421  0.3715
  202MPD1    C4 3125   2.302   1.181   9.820  0.1085  0.2198 -0.2839
  202MPD1    C5 3126   2.260   1.308   9.859  0.5280 -0.2413 -0.1994
  202MPD1     H 3127   2.553   1.137  10.021  1.0671  1.3536 -1.7142
  202MPD1    H1 3128   2.239   1.124   9.752 -0.2645 -1.8163  1.7926
  202MPD1    H2 3129   2.294   1.471   9.996 -3.1755 -0.6766  1.0845
  202MPD1    H3 3130   2.169   1.355   9.824  0.3186 -0.0746  0.5793
  202MPD1     N 3131   2.431   0.982   9.839 -0.4346 -0.2861  0.3339
  202MPD1    H5 3132   2.377   0.950   9.759  1.6291  1.6618 -1.8335
  202MPD1    N1 3133   2.492   1.368  10.135 -0.3826  0.0555  0.3258
  202MPD1    H6 3134   2.487   1.469  10.147  1.0254 -0.1083  2.2219
  202MPD1    H7 3135   2.589   1.349  10.159 -0.4582  0.1093  0.6793
  203MPD1     C 3136   1.445   1.534  12.141 -0.3602 -0.5217 -0.2286
  203MPD1    C1 3137   1.551   1.462  12.085  0.7562  0.3232 -0.1579
  203MPD1    C2 3138   1.666   1.449  12.159  0.6954  0.4403  0.4782
  203MPD1    C3 3139   1.689   1.530  12.273 -0.6154 -0.1114 -0.5018
  203MPD1    C4 3140   1.593   1.614  12.318  0.0437 -0.5815  0.7236
  203MPD1    C5 3141   1.467   1.607  12.257  0.0208 -0.0420  0.2850
  203MPD1     H 3142   1.748   1.386  12.125 -0.5643  1.0157 -3.5707
  203MPD1    H1 3143   1.604   1.678  12.405  1.0444 -2.6154  2.1006
  203MPD1    H2 3144   1.344   1.518  12.107 -0.2480  2.1791 -1.7976
  203MPD1    H3 3145   1.380   1.659  12.296  1.5870  3.7287 -1.3016
  203MPD1     N 3146   1.815   1.514  12.335 -0.0609  0.2734  0.5060
  203MPD1    H5 3147   1.881   1.456  12.283 -0.6525  0.8886 -0.9432
  203MPD1    N1 3148   1.515   1.374  11.978 -0.3972  0.0768 -0.4844
  203MPD1    H6 3149   1.430   1.405  11.932 -2.0185 -1.4457  1.4757
  203MPD1    H7 3150   1.586   1.362  11.906  1.4839 -1.0204  1.5522
  204MPD1     C 3151   0.931   3.437   0.312 -0.1236  0.9754 -1.0369
  204MPD1    C1 3152   1.025   3.464   0.219  0.0864 -0.2290 -0.1959
  204MPD1    C2 3153   1.098   3.350   0.170 -0.1733  0.7860  0.3956
  204MPD1    C3 3154   1.070   3.222   0.209 -0.3034  0.0339  0.4666
  204MPD1    C4 3155   0.975   3.208   0.307  0.4616  0.1074  0.0498
  204MPD1    C5 3156   0.907   3.313   0.356 -0.7188 -0.2509 -0.1672
  204MPD1     H 3157   1.168   3.358   0.088 -2.8834 -2.1544 -2.1897
  204MPD1    H1 3158   0.956   3.112   0.354  0.9878 -0.6629 -1.3358
  204MPD1    H2 3159   0.879   3.524   0.350  2.1047  1.4157  1.0115
  204MPD1    H3 3160   0.837   3.293   0.436 -1.9684 -0.5079 -1.3149
  204MPD1     N 3161   1.151   3.121   0.154 -0.4726 -0.0153  0.1595
  204MPD1    H5 3162   1.221   3.146   0.086  0.1789 -0.8763  0.5087
  204MPD1    N1 3163   1.052   3.591   0.165 -0.4821  0.1495  0.1232
  204MPD1    H6 3164   1.145   3.604   0.126 -0.5000  1.2542  0.4581
  204MPD1    H7 3165   1.029   3.666   0.229 -0.6816  1.2875 -1.2799
  205MPD1     C 3166   1.460   1.755   1.226 -0.6647  1.2834  0.0213
  205MPD1    C1 3167   1.396   1.845   1.150 -0.0668 -1.1225  0.5474
  205MPD1    C2 3168   1.384   1.828   1.012  0.7246  0.0433  0.5212
  205MPD1    C3 3169   1.444   1.722   0.950 -0.7700  0.5521  1.0621
  205MPD1    C4 3170   1.506   1.632   1.024 -0.1742 -0.5620  0.5329
  205MPD1    C5 3171   1.517   1.648   1.161  0.1704 -0.4442 -0.4711
  205MPD1     H 3172   1.321   1.894   0.953  0.5472 -0.4306  0.1845
  205MPD1    H1 3173   1.551   1.553   0.965  1.3888 -0.4497  1.5505
  205MPD1    H2 3174   1.453   1.753   1.334 -0.5644 -1.8180 -0.0346
  205MPD1    H3 3175   1.579   1.573   1.209 -0.7140 -1.8966 -1.6118
  205MPD1     N 3176   1.439   1.700   0.811 -0.1608 -0.8492  0.0811
  205MPD1    H5 3177   1.487   1.617   0.776  1.6854  0.5014 -0.6298
  205MPD1    N1 3178   1.325   1.956   1.207  0.1182 -0.5100 -0.2667
  205MPD1    H6 3179   1.342   2.044   1.159 -0.7561  0.2299  0.7804
  205MPD1    H7 3180   1.337   1.970   1.307  1.8139  1.7605 -0.8056
  206MPD1     C 3181   1.821   4.550  17.335 -0.1173 -0.2249  0.1242
  206MPD1    C1 3182   1.858   4.446  17.261  0.6203 -0.3100  0.4760
  206MPD1    C2 3183   1.845   4.452  17.121  0.0176 -0.2809  0.2790
  206MPD1    C3 3184   1.786   4.568  17.060 -0.0047  0.0922  0.7753
  206MPD1    C4 3185   1.749   4.677  17.142 -0.4479 -0.0797 -0.4368
  206MPD1    C5 3186   1.769   4.666  17.280  0.0479 -0.0897 -0.0960
  206MPD1     H 3187   1.862   4.358  17.069 -0.6219 -0.4974  0.4554
  206MPD1    H1 3188   1.709   0.031  17.098  1.0690  0.5607 -0.5085
  206MPD1    H2 3189   1.813   4.541  17.443 -0.5215 -0.0890  0.1077
  206MPD1    H3 3190   1.743   0.009  17.349 -1.6543  0.5747 -1.5062
  206MPD1     N 3191   1.761   4.575  16.920 -0.2141 -0.1303  0.4606
  206MPD1    H5 3192   1.732   4.665  16.885 -0.6003  0.0514  1.2448
  206MPD1    N1 3193   1.905   4.330  17.334  0.3781  0.1692 -0.1775
  206MPD1    H6 3194   1.878   4.334  17.432 -0.1961 -0.2815 -0.3180
  206MPD1    H7 3195   1.887   4.236  17.299  1.6335  0.2632 -1.0924
  207MPD1     C 3196   3.529   1.922  10.289  0.1744 -0.1511  0.6418
  207MPD1    C1 3197   3.585   2.042  10.319  0.6784  0.9953 -0.2752
  207MPD1    C2 3198   3.719   2.036  10.359  0.6325 -0.1456  0.5605
  207MPD1    C3 3199   3.781   1.915  10.388  0.1174  0.0609  0.3795
  207MPD1    C4 3200   3.720   1.798  10.354 -0.3744 -0.1308 -0.3439
  207MPD1    C5 3201   3.601   1.803  10.298 -0.6788  0.2165  0.1350
  207MPD1     H 3202   3.774   2.126  10.380  0.7428 -0.1842  0.4341
  207MPD1    H1 3203   3.778   1.706  10.357 -0.1468  0.0055 -0.6795
  207MPD1    H2 3204   3.433   1.917  10.239  0.1735  0.2518  0.6061
  207MPD1    H3 3205   3.556   1.716  10.252  1.2645 -0.3387 -0.7275
  207MPD1     N 3206   3.915   1.899  10.435 -0.2962 -0.4430  0.3954
  207MPD1    H5 3207   3.952   1.805  10.440 -2.0320 -1.1186  0.5763
  207MPD1    N1 3208   3.522   2.160  10.281 -0.0775 -0.3809 -0.1803
  207MPD1    H6 3209   3.568   2.238  10.328  0.1040  0.6877 -2.1506
  207MPD1    H7 3210   3.422   2.161  10.296  0.0688  0.7597  0.7236
  208MPD1     C 3211   0.863   0.537   1.222  0.6645  0.2921 -0.3693
  208MPD1    C1 3212   1.000   0.528   1.226 -0.5057  1.5060 -0.3937
  208MPD1    C2 3213   1.067   0.562   1.109 -0.0768  0.1445 -0.5347
  208MPD1    C3 3214   1.001   0.575   0.990  1.0279  0.4347 -0.7246
  208MPD1    C4 3215   0.867   0.549   0.985  0.2421 -0.0549  0.2100
  208MPD1    C5 3216   0.796   0.538   1.098  0.0027  0.0835  0.1591
  208MPD1     H 3217   1.175   0.569   1.115 -0.0605  1.7961 -2.7080
  208MPD1    H1 3218   0.805   0.540   0.896 -0.4152  1.6875  0.4973
  208MPD1    H2 3219   0.811   0.512   1.313  0.7345  0.1071 -0.3793
  208MPD1    H3 3220   0.688   0.530   1.102 -0.2412  2.9408 -0.7245
  208MPD1     N 3221   1.088   0.594   0.875 -0.4730  0.3006 -0.6765
  208MPD1    H5 3222   1.185   0.617   0.898 -0.4637 -0.1322 -0.2832
  208MPD1    N1 3223   1.070   0.533   1.349 -0.3990  0.1873  0.2063
  208MPD1    H6 3224   1.016   0.484   1.419 -0.8152  1.1806  0.5830
  208MPD1    H7 3225   1.161   0.487   1.350 -0.4092  0.1171 -2.1993
  209MPD1     C 3226   0.115   0.700  11.163 -0.6601  0.7439  0.3023
  209MPD1    C1 3227   0.058   0.716  11.282  0.0680 -0.7365 -0.6450
  209MPD1    C2 3228   4.664   0.758  11.283 -0.2597  0.1138 -0.6695
  209MPD1    C3 3229   4.582   0.777  11.171  0.0843 -0.1516 -0.3179
  209MPD1    C4 3230   4.633   0.740  11.046 -0.2529  0.0830 -0.4255
  209MPD1    C5 3231   0.033   0.699  11.050 -0.8914 -0.2081  0.5330
  209MPD1     H 3232   4.605   0.778  11.372  0.9703 -0.5567  0.3138
  209MPD1    H1 3233   4.584   0.735  10.949 -1.6711  2.2832  0.1787
  209MPD1    H2 3234   0.221   0.678  11.157 -0.6048  1.3663 -1.1357
  209MPD1    H3 3235   0.078   0.671  10.955 -1.0526  0.0822  0.3695
  209MPD1     N 3236   4.459   0.841  11.191  0.5921  0.0294  0.2610
  209MPD1    H5 3237   4.443   0.860  11.289  0.8504  0.5236  0.2103
  209MPD1    N1 3238   0.133   0.691  11.394  0.2993  0.0131  0.7086
  209MPD1    H6 3239   0.214   0.631  11.381  0.8959  1.0530 -0.3333
  209MPD1    H7 3240   0.092   0.677  11.486 -0.0549 -2.8030  0.1369
  210MPD1     C 3241   4.155   0.724  11.917  0.4163  0.4361 -0.2125
  210MPD1    C1 3242   4.207   0.846  11.903 -0.1024  0.0061 -0.3025
  210MPD1    C2 3243   4.198   0.899  11.774  0.0561 -0.7727  0.1908
  210MPD1    C3 3244   4.161   0.826  11.662 -0.1664 -0.3036  0.5344
  210MPD1    C4 3245   4.123   0.697  11.682 -0.2621 -0.4402 -0.2746
  210MPD1    C5 3246   4.111   0.651  11.811 -0.5052 -0.0506 -0.7897
  210MPD1     H 3247   4.228   1.003  11.764 -0.6306 -0.6982 -1.1416
  210MPD1    H1 3248   4.101   0.635  11.595 -2.1731  0.0947 -0.1808
  210MPD1    H2 3249   4.154   0.691  12.020  1.1670 -0.0555 -0.3654
  210MPD1    H3 3250   4.083   0.546  11.819  0.5282 -0.3649 -1.3211
  210MPD1     N 3251   4.159   0.881  11.532  0.2470 -0.8932 -0.2988
  210MPD1    H5 3252   4.140   0.817  11.455 -1.6646 -0.4394 -0.2136
  210MPD1    N1 3253   4.244   0.919  12.018 -0.3532 -0.5732  0.3805
  210MPD1    H6 3254   4.292   1.006  11.997  2.4390 -1.7467  1.9201
  210MPD1    H7 3255   4.286   0.875  12.099 -0.8630  0.2322  1.0904
  211MPD1     C 3256   1.131   1.887  15.106 -0.2015  0.1232  0.3560
  211MPD1    C1 3257   1.148   1.820  15.229 -0.0125 -0.4116 -0.2376
  211MPD1    C2 3258   1.077   1.866  15.336 -0.3090  0.3541 -0.2506
  211MPD1    C3 3259   0.977   1.960  15.331  0.3516 -0.6641 -0.0034
  211MPD1    C4 3260   0.956   2.014  15.209 -0.0718  0.7417 -0.0874
  211MPD1    C5 3261   1.030   1.975  15.098  0.3703 -0.0828  0.7233
  211MPD1     H 3262   1.109   1.829  15.433 -0.0871  1.8883  0.2677
  211MPD1    H1 3263   0.899   2.105  15.194 -0.1156  0.8934  0.9733
  211MPD1    H2 3264   1.196   1.865  15.022 -1.3836  0.3055 -0.5908
  211MPD1    H3 3265   1.019   2.032  15.007  0.7320  2.1010  2.0459
  211MPD1     N 3266   0.917   1.996  15.456 -0.4853 -0.5225 -0.1504
  211MPD1    H5 3267   0.943   1.939  15.536 -1.0563  0.4883  0.7433
  211MPD1    N1 3268   1.264   1.746  15.253 -0.1459 -0.5598  0.2768
  211MPD1    H6 3269   1.292   1.690  15.172 -1.2643 -1.4350  0.5011
  211MPD1    H7 3270   1.250   1.692  15.338  0.1130 -1.0500  0.0078
  212MPD1     C 3271   1.358   0.094  16.483 -0.0506  0.2641  0.9024
  212MPD1    C1 3272   1.293   0.178  16.561  0.5285  0.5402  0.2288
  212MPD1    C2 3273   1.225   0.130  16.674 -0.4262  0.3757  0.2926
  212MPD1    C3 3274   1.238   4.735  16.717  0.0206  0.2783 -0.5169
  212MPD1    C4 3275   1.312   4.646  16.638  0.0612 -0.2860 -0.3029
  212MPD1    C5 3276   1.368   4.697  16.520 -0.4859 -0.6327  0.0213
  212MPD1     H 3277   1.173   0.200  16.739 -0.3489  0.5612  0.1537
  212MPD1    H1 3278   1.331   4.543  16.663  0.6363 -0.4185 -1.2792
  212MPD1    H2 3279   1.409   0.126  16.393 -0.6034 -1.6062 -0.0827
  212MPD1    H3 3280   1.434   4.634  16.462 -1.1013 -1.9741  0.7872
  212MPD1     N 3281   1.179   4.680  16.828  0.0181 -1.1795  0.0273
  212MPD1    H5 3282   1.197   4.581  16.836  0.2107 -1.1397  0.0894
  212MPD1    N1 3283   1.274   0.312  16.512 -0.1804  0.2156  0.3074
  212MPD1    H6 3284   1.247   0.373  16.589 -1.0193  0.0547  0.1410
  212MPD1    H7 3285   1.345   0.345  16.447 -0.9415  1.3079  0.0152
  213MPD1     C 3286   4.395   0.641  14.617 -0.1182  0.2210 -0.0043
  213MPD1    C1 3287   4.387   0.736  14.720  0.3599 -0.4584  0.4640
  213MPD1    C2 3288   4.271   0.726  14.796  0.7053 -0.4163  0.3822
  213MPD1    C3 3289   4.156   0.663  14.756 -0.9720 -0.1156 -0.4013
  213MPD1    C4 3290   4.170   0.592  14.635 -0.0461  0.5760 -0.0586
  213MPD1    C5 3291   4.286   0.584  14.565  0.1237 -0.8314  0.5492
  213MPD1     H 3292   4.262   0.767  14.896  1.8184 -0.1241  0.3624
  213MPD1    H1 3293   4.078   0.551  14.594  0.0456 -0.1920  0.4971
  213MPD1    H2 3294   4.489   0.621  14.567  0.3001 -1.0366  1.3096
  213MPD1    H3 3295   4.294   0.510  14.486 -2.2510 -0.3959 -0.1095
  213MPD1     N 3296   4.039   0.666  14.835  0.3217  0.2441  0.0736
  213MPD1    H5 3297   4.036   0.734  14.910  0.8558 -1.0166  1.2496
  213MPD1    N1 3298   4.503   0.766  14.797  0.2389 -0.2147 -0.3672
  213MPD1    H6 3299   4.585   0.757  14.738  0.9214  1.2564  0.3465
  213MPD1    H7 3300   4.509   0.851  14.853 -0.9542  0.2090 -0.8995
  214MPD1     C 3301   3.149   0.309  15.322  0.3578 -0.4447  0.6528
  214MPD1    C1 3302   3.284   0.296  15.353 -0.3078 -0.9703  0.3793
  214MPD1    C2 3303   3.380   0.369  15.281  0.3574 -0.0708 -0.4133
  214MPD1    C3 3304   3.333   0.443  15.173 -0.1406  0.1486 -0.4724
  214MPD1    C4 3305   3.202   0.464  15.141  0.4352  0.6122  1.1568
  214MPD1    C5 3306   3.111   0.392  15.221 -0.6921  0.2875  0.0420
  214MPD1     H 3307   3.487   0.365  15.296  0.2573  0.4827  0.4140
  214MPD1    H1 3308   3.167   0.534  15.066 -0.2349 -0.7818  0.1524
  214MPD1    H2 3309   3.078   0.254  15.383 -1.1597 -0.7159 -1.3478
  214MPD1    H3 3310   3.008   0.386  15.188 -0.3278  1.3472 -1.3203
  214MPD1     N 3311   3.424   0.509  15.088 -0.1811  0.2108 -0.5877
  214MPD1    H5 3312   3.387   0.595  15.047  0.3062  1.1700  0.9899
  214MPD1    N1 3313   3.324   0.199  15.451  0.0770  0.1893 -0.2826
  214MPD1    H6 3314   3.248   0.177  15.515  0.4968 -4.5251 -1.4185
  214MPD1    H7 3315   3.391   0.235  15.519 -0.9311 -0.0375  0.8353
  215MPD1     C 3316   3.957   0.983  10.781  0.2017 -0.1574  0.0896
  215MPD1    C1 3317   3.939   1.087  10.698 -0.1590  0.0968 -0.0827
  215MPD1    C2 3318   3.947   1.217  10.748  0.4753 -0.0641 -0.1535
  215MPD1    C3 3319   3.957   1.242  10.885 -0.0622  0.2783 -0.4458
  215MPD1    C4 3320   3.965   1.127  10.966 -0.4366 -0.3077  0.1251
  215MPD1    C5 3321   3.964   1.003  10.916  0.2697 -0.4471  0.3656
  215MPD1     H 3322   3.951   1.298  10.676  0.6078  0.6618  0.6584
  215MPD1    H1 3323   3.987   1.133  11.072  0.7430  0.6853 -0.1710
  215MPD1    H2 3324   3.970   0.878  10.757  0.6034 -0.2376  0.6466
  215MPD1    H3 3325   3.993   0.923  10.983 -0.1098  1.2700  2.5955
  215MPD1     N 3326   3.971   1.371  10.935  0.1886  0.4432 -0.3419
  215MPD1    H5 3327   3.987   1.453  10.877 -2.4326  0.2438 -1.3442
  215MPD1    N1 3328   3.941   1.059  10.562  0.0030 -0.2278 -0.1885
  215MPD1    H6 3329   3.895   0.972  10.536 -1.5320  0.3039  0.6982
  215MPD1    H7 3330   3.917   1.135  10.499  0.0467 -1.4983 -1.7251
  216MPD1     C 3331   0.927   0.319  17.338 -0.1682 -0.0991  0.2006
  216MPD1    C1 3332   1.014   0.222  17.303  0.1979  0.2326  0.2569
  216MPD1    C2 3333   1.022   0.123  17.402 -0.5147 -0.2045  0.2189
  216MPD1    C3 3334   0.930   0.110  17.505 -1.1350  0.2007 -1.1511
  216MPD1    C4 3335   0.843   0.211  17.534  0.4065  0.4225  0.1423
  216MPD1    C5 3336   0.844   0.322  17.450  0.0626 -0.1837  0.6884
  216MPD1     H 3337   1.098   0.048  17.383  0.4595  0.1277  2.9024
  216MPD1    H1 3338   0.780   0.215  17.623  0.3501 -1.0961  0.1788
  216MPD1    H2 3339   0.925   0.413  17.285  0.2373  0.4844  1.2149
  216MPD1    H3 3340   0.789   0.408  17.486  0.9786  1.3332 -1.5376
  216MPD1     N 3341   0.925   4.721  17.573 -0.5573  0.0591  0.0580
  216MPD1    H5 3342   0.999   4.653  17.557 -0.6794 -0.4821  1.8046
  216MPD1    N1 3343   1.105   0.231  17.202  0.6375 -0.3729 -0.1235
  216MPD1    H6 3344   1.081   0.288  17.121 -0.2700 -1.9093 -0.9478
  216MPD1    H7 3345   1.147   0.141  17.179  2.2839 -0.0420  1.5468
  217MPD1     C 3346   1.678   1.948   8.537  0.0280  0.2682  0.6676
  217MPD1    C1 3347   1.781   1.873   8.593 -0.4262 -0.3728 -0.1130
  217MPD1    C2 3348   1.760   1.757   8.669  0.2173  0.9116  0.3724
  217MPD1    C3 3349   1.626   1.725   8.687 -0.2044 -0.6068 -0.2595
  217MPD1    C4 3350   1.522   1.802   8.637  0.2907 -0.7194  0.1879
  217MPD1    C5 3351   1.546   1.912   8.563 -0.0355 -0.2632  0.9132
  217MPD1     H 3352   1.837   1.703   8.723  1.4362  1.4095 -0.8718
  217MPD1    H1 3353   1.422   1.780   8.670 -0.0617 -0.5204 -0.7526
  217MPD1    H2 3354   1.692   2.038   8.479  0.8463  0.9980  1.9992
  217MPD1    H3 3355   1.466   1.968   8.517  0.8342  1.1331  1.1058
  217MPD1     N 3356   1.581   1.612   8.762  0.5235 -0.2437  0.0034
  217MPD1    H5 3357   1.483   1.589   8.749  0.2710 -0.7683  2.8975
  217MPD1    N1 3358   1.906   1.934   8.608 -0.1218 -0.1799  0.3441
  217MPD1    H6 3359   1.978   1.863   8.606 -0.1685 -0.1810 -1.6207
  217MPD1    H7 3360   1.933   2.009   8.544  0.1764  0.5748  1.3495
  218MPD1     C 3361   2.681   2.445  12.933  0.3908 -0.0379 -0.1373
  218MPD1    C1 3362   2.726   2.528  13.038  0.6015 -0.2440 -0.5631
  218MPD1    C2 3363   2.851   2.501  13.092  0.4488 -0.3085  0.4544
  218MPD1    C3 3364   2.931   2.401  13.054 -0.2770  0.4768 -1.0188
  218MPD1    C4 3365   2.893   2.320  12.947 -0.3047  0.3615 -0.2044
  218MPD1    C5 3366   2.765   2.342  12.895  0.1324  1.0204  0.0619
  218MPD1     H 3367   2.886   2.575  13.163  1.3470  0.6007 -0.9375
  218MPD1    H1 3368   2.961   2.248  12.903 -1.5216 -0.3156 -0.9701
  218MPD1    H2 3369   2.595   2.482  12.879 -0.1869 -1.2056 -0.0294
  218MPD1    H3 3370   2.730   2.279  12.814  0.1967 -0.2488  1.0276
  218MPD1     N 3371   3.065   2.385  13.106 -0.5276  0.1649 -0.3560
  218MPD1    H5 3372   3.095   2.460  13.168 -2.4078  1.2760 -0.7871
  218MPD1    N1 3373   2.663   2.650  13.052  0.0258  0.6616 -0.7244
  218MPD1    H6 3374   2.564   2.647  13.031 -0.9015  0.0482  3.5725
  218MPD1    H7 3375   2.676   2.690  13.145  0.6004  1.0593 -0.9798
  219MPD1     C 3376   3.831   2.629  12.574 -0.0071 -0.3320  0.3338
  219MPD1    C1 3377   3.739   2.707  12.636  0.1329 -0.3560  0.5072
  219MPD1    C2 3378   3.680   2.658  12.750 -0.3489  0.6080 -0.0065
  219MPD1    C3 3379   3.712   2.536  12.804  0.3830 -0.3951  0.0810
  219MPD1    C4 3380   3.817   2.462  12.749  0.0723 -0.0711 -0.7942
  219MPD1    C5 3381   3.870   2.508  12.631  0.2503 -0.1605  0.4437
  219MPD1     H 3382   3.604   2.715  12.802  1.5416  2.6126  0.5667
  219MPD1    H1 3383   3.842   2.361  12.776 -0.3140 -0.0261 -0.2673
  219MPD1    H2 3384   3.879   2.653  12.480  0.8343  1.9411  1.3292
  219MPD1    H3 3385   3.929   2.436  12.575  1.2139  1.2155 -0.3237
  219MPD1     N 3386   3.646   2.478  12.923  0.5530  0.0226  0.0781
  219MPD1    H5 3387   3.678   2.390  12.962  1.1242 -0.7410 -2.1179
  219MPD1    N1 3388   3.688   2.820  12.577  0.5063 -0.6709  0.2960
  219MPD1    H6 3389   3.753   2.866  12.514 -1.1407  0.0323 -0.9073
  219MPD1    H7 3390   3.641   2.890  12.635 -0.8531 -0.6010 -0.8800
  220MPD1     C 3391   3.204   1.213   9.818 -0.5364  0.1167  0.1562
  220MPD1    C1 3392   3.093   1.190   9.896  0.6165  0.0319  0.2764
  220MPD1    C2 3393   3.078   1.255  10.012  0.1324 -0.8507 -0.2162
  220MPD1    C3 3394   3.173   1.347  10.051  0.0615 -0.1574 -0.4066
  220MPD1    C4 3395   3.288   1.363   9.980 -0.0257 -0.2639  0.1132
  220MPD1    C5 3396   3.298   1.300   9.864  0.2523  0.0754  0.1266
  220MPD1     H 3397   2.982   1.242  10.062  1.1607 -1.6241  1.5440
  220MPD1    H1 3398   3.368   1.432  10.008  2.0946 -2.6582 -0.0424
  220MPD1    H2 3399   3.205   1.176   9.716  1.0992 -1.5466  0.7761
  220MPD1    H3 3400   3.385   1.310   9.799  1.5977 -2.3821  1.5242
  220MPD1     N 3401   3.149   1.419  10.172  0.1780 -0.4754  0.4389
  220MPD1    H5 3402   3.074   1.385  10.233  0.8441 -0.4926  1.2495
  220MPD1    N1 3403   2.984   1.117   9.838 -0.2480  0.1171 -0.0613
  220MPD1    H6 3404   2.910   1.084   9.900 -0.2516 -1.1953 -0.7715
  220MPD1    H7 3405   3.019   1.035   9.788 -0.8282 -1.9820  2.9720
  221MPD1     C 3406   2.410   2.024  17.475 -0.2770 -0.4646  0.0338
  221MPD1    C1 3407   2.480   2.048  17.358 -0.5471  0.0210 -0.9035
  221MPD1    C2 3408   2.417   2.014  17.241 -0.3384 -0.0320 -0.0078
  221MPD1    C3 3409   2.287   1.965  17.241 -0.1884  0.1257  0.5231
  221MPD1    C4 3410   2.217   1.946  17.359  0.2557 -0.5825 -0.2115
  221MPD1    C5 3411   2.283   1.973  17.476 -0.3183 -0.7601  0.2372
  221MPD1     H 3412   2.461   2.036  17.144  0.6484  2.0231  0.8880
  221MPD1    H1 3413   2.121   1.898  17.367 -1.0325  2.1900  0.7362
  221MPD1    H2 3414   2.460   2.036  17.571 -1.9593 -0.3314  0.8943
  221MPD1    H3 3415   2.234   1.951  17.569 -0.9370 -0.8535 -0.1092
  221MPD1     N 3416   2.211   1.929  17.127  0.1086  0.0871 -0.0338
  221MPD1    H5 3417   2.112   1.911  17.139  0.4931 -0.1502  2.7614
  221MPD1    N1 3418   2.610   2.097  17.352 -1.1016  0.4530 -0.0401
  221MPD1    H6 3419   2.632   2.149  17.436 -0.6379  1.1677 -0.5993
  221MPD1    H7 3420   2.630   2.151  17.268  1.7476  0.0203  0.3402
  222MPD1     C 3421   0.104   4.512   1.053 -0.3529 -0.7421 -0.6183
  222MPD1    C1 3422   0.211   4.461   0.992  0.2478  0.9387  0.2390
  222MPD1    C2 3423   0.289   4.551   0.920 -0.1266 -0.3996  0.1850
  222MPD1    C3 3424   0.276   4.688   0.914 -0.4276 -0.3718 -0.3358
  222MPD1    C4 3425   0.164   4.732   0.979  0.5328 -0.0209  0.1423
  222MPD1    C5 3426   0.080   4.650   1.050 -0.1392 -0.1598  0.3252
  222MPD1     H 3427   0.372   4.502   0.869  0.1976  0.0073  0.3187
  222MPD1    H1 3428   0.135   0.100   0.979 -3.6100 -1.1686 -1.4590
  222MPD1    H2 3429   0.044   4.440   1.108  0.9080 -1.5040 -0.2331
  222MPD1    H3 3430   4.727   4.682   1.102 -0.9533 -0.6008 -0.7900
  222MPD1     N 3431   0.354   0.045   0.844 -0.1320  0.1481 -0.8244
  222MPD1    H5 3432   0.323   0.138   0.815 -0.0380  0.5966  0.5217
  222MPD1    N1 3433   0.244   4.325   0.995  0.6136 -0.3962  0.0458
  222MPD1    H6 3434   0.204   4.284   1.079 -0.2058  0.3816  0.0417
  222MPD1    H7 3435   0.338   4.287   0.993  0.5186 -0.5315 -1.4849
  223MPD1     C 3436   1.041   0.391   0.060  0.1464 -0.1071  0.3324
  223MPD1    C1 3437   1.001   0.494   0.140  0.4805 -0.5599 -0.1953
  223MPD1    C2 3438   0.917   0.466   0.240  0.9010  0.0890  0.3174
  223MPD1    C3 3439   0.892   0.335   0.285 -0.1347 -0.9353 -0.0307
  223MPD1    C4 3440   0.947   0.230   0.208  0.0638 -0.4514  0.0990
  223MPD1    C5 3441   1.020   0.254   0.097  0.3364 -0.6494  0.3624
  223MPD1     H 3442   0.876   0.542   0.306 -2.3027 -0.5633 -0.9264
  223MPD1    H1 3443   0.928   0.126   0.230 -3.2476  0.6177  2.2717
  223MPD1    H2 3444   1.092   0.417  17.714 -1.0679 -1.6653 -0.7883
  223MPD1    H3 3445   1.048   0.172   0.032 -3.1017 -0.5120 -1.2944
  223MPD1     N 3446   0.807   0.321   0.397 -0.3493 -0.1586  0.0702
  223MPD1    H5 3447   0.763   0.406   0.432  0.7123  0.9559 -1.2694
  223MPD1    N1 3448   1.018   0.623   0.090 -0.0420  0.4012 -0.1174
  223MPD1    H6 3449   1.032   0.681   0.173  0.5783 -1.0596  0.8101
  223MPD1    H7 3450   1.104   0.631   0.037  0.3288 -0.4436  0.3563
  224MPD1     C 3451   1.638   1.707   9.164 -0.2326 -0.5647  0.4927
  224MPD1    C1 3452   1.550   1.775   9.236 -0.4802  0.2656 -0.1567
  224MPD1    C2 3453   1.538   1.744   9.369  0.3342 -0.0894 -0.2759
  224MPD1    C3 3454   1.600   1.639   9.426  0.3330 -0.0603  0.2366
  224MPD1    C4 3455   1.688   1.565   9.349  0.5547 -0.0879  0.3027
  224MPD1    C5 3456   1.708   1.596   9.221 -0.9460 -0.6438  0.2202
  224MPD1     H 3457   1.481   1.813   9.430  3.4337  0.4717  1.9641
  224MPD1    H1 3458   1.743   1.483   9.395  2.0728  0.7097 -0.0921
  224MPD1    H2 3459   1.662   1.734   9.062 -1.2867  0.0143  0.4005
  224MPD1    H3 3460   1.790   1.554   9.164 -0.8704 -1.9656  1.3176
  224MPD1     N 3461   1.591   1.609   9.562 -0.0773  0.1560 -0.3700
  224MPD1    H5 3462   1.646   1.534   9.605 -0.5543  0.0573  0.0745
  224MPD1    N1 3463   1.499   1.899   9.191  0.0770  0.6274 -0.7251
  224MPD1    H6 3464   1.493   1.904   9.090 -0.3160 -0.3599 -0.7463
  224MPD1    H7 3465   1.411   1.911   9.242  0.1974 -0.4937 -0.2480
  225MPD1     C 3466   4.043   2.814  11.907  0.1520  0.0171 -0.0928
  225MPD1    C1 3467   3.939   2.743  11.844  0.3562  0.2861 -0.7524
  225MPD1    C2 3468   3.821   2.743  11.906  0.1826  0.0777  0.0156
  225MPD1    C3 3469   3.804   2.791  12.031  0.6776 -0.5305  0.6133
  225MPD1    C4 3470   3.902   2.857  12.094 -0.0808  0.1267  0.0045
  225MPD1    C5 3471   4.018   2.878  12.024 -0.3625  0.3090  0.1455
  225MPD1     H 3472   3.734   2.707  11.852 -0.2241  1.2105 -0.0855
  225MPD1    H1 3473   3.884   2.905  12.189 -0.4950 -2.1221  1.0657
  225MPD1    H2 3474   4.139   2.835  11.860  0.8762  1.2474  1.9533
  225MPD1    H3 3475   4.098   2.941  12.062  0.0842 -1.7110  2.5430
  225MPD1     N 3476   3.675   2.793  12.098 -0.0512 -0.7815  0.5285
  225MPD1    H5 3477   3.677   2.860  12.174 -0.4133 -1.1972  0.8954
  225MPD1    N1 3478   3.949   2.717  11.705  0.1341 -0.3860  0.1163
  225MPD1    H6 3479   4.044   2.704  11.671  1.1927  0.1151  2.8550
  225MPD1    H7 3480   3.894   2.634  11.684 -0.3192 -0.0524 -0.0253
  226MPD1     C 3481   2.577   2.446   9.349 -0.3989  0.0776  0.9908
  226MPD1    C1 3482   2.441   2.462   9.329  0.1282  0.7482  0.1523
  226MPD1    C2 3483   2.356   2.405   9.422  0.2484  0.5674  0.7510
  226MPD1    C3 3484   2.398   2.313   9.516  0.1022 -0.3885 -0.4536
  226MPD1    C4 3485   2.533   2.285   9.519  0.1491  1.2104 -0.2355
  226MPD1    C5 3486   2.621   2.357   9.435  0.0192 -0.7079  0.3636
  226MPD1     H 3487   2.250   2.430   9.419  0.4452  1.4556  1.5947
  226MPD1    H1 3488   2.577   2.215   9.589 -0.8234 -2.1851 -3.0140
  226MPD1    H2 3489   2.651   2.474   9.275 -1.2661 -0.6148 -0.1292
  226MPD1    H3 3490   2.729   2.357   9.446  0.1146 -1.3658 -0.5549
  226MPD1     N 3491   2.295   2.248   9.593 -0.2087 -0.2629  0.0363
  226MPD1    H5 3492   2.204   2.293   9.581  0.3541  0.7989 -0.2664
  226MPD1    N1 3493   2.394   2.547   9.235 -0.3473 -0.2915 -0.1715
  226MPD1    H6 3494   2.457   2.546   9.155 -0.3298 -1.1950 -0.1463
  226MPD1    H7 3495   2.302   2.528   9.195  0.7031 -2.0866 -1.7436
  227MPD1     C 3496   1.494   2.480  10.041 -0.3661 -0.2319 -0.7210
  227MPD1    C1 3497   1.479   2.346  10.076  0.4254 -0.0608 -0.1908
  227MPD1    C2 3498   1.579   2.260  10.031  0.4819 -0.6231 -0.3532
  227MPD1    C3 3499   1.688   2.313   9.954 -0.1498  0.2350  0.0208
  227MPD1    C4 3500   1.690   2.445   9.920 -0.1871 -0.8811  0.1138
  227MPD1    C5 3501   1.589   2.526   9.962  0.4731 -0.3415  0.1883
  227MPD1     H 3502   1.592   2.156  10.056 -0.7461 -0.5934  0.3834
  227MPD1    H1 3503   1.769   2.485   9.858 -0.1765 -0.0820  0.6499
  227MPD1    H2 3504   1.416   2.552  10.065  0.2817 -0.3561  1.7468
  227MPD1    H3 3505   1.589   2.631   9.933  1.2279 -0.3886 -0.0036
  227MPD1     N 3506   1.789   2.224   9.926  0.1842 -0.0671  0.3223
  227MPD1    H5 3507   1.776   2.126   9.948 -0.0197 -0.6351 -2.3376
  227MPD1    N1 3508   1.382   2.298  10.166  0.4031 -0.5294  0.7085
  227MPD1    H6 3509   1.366   2.199  10.152  0.9499 -0.6995  1.2575
  227MPD1    H7 3510   1.296   2.352  10.161 -0.7261 -2.4134  0.1919
  228MPD1     C 3511   0.717   0.940  12.438  0.5330  0.0577 -0.3980
  228MPD1    C1 3512   0.685   0.834  12.353 -0.1808  0.3885  0.0158
  228MPD1    C2 3513   0.605   0.730  12.407 -0.6838  0.1969 -0.2565
  228MPD1    C3 3514   0.556   0.740  12.540 -0.4759 -0.4153  0.2043
  228MPD1    C4 3515   0.585   0.854  12.619 -0.1507  0.1983  0.0254
  228MPD1    C5 3516   0.677   0.944  12.571 -0.0936  0.4310 -0.2070
  228MPD1     H 3517   0.586   0.643  12.345 -1.1358  0.7195 -0.8520
  228MPD1    H1 3518   0.547   0.866  12.719 -3.4000 -0.1315 -1.1885
  228MPD1    H2 3519   0.788   1.018  12.415 -0.6790  1.0614 -0.7036
  228MPD1    H3 3520   0.695   1.036  12.625  2.5814  0.9107 -1.9378
  228MPD1     N 3521   0.462   0.640  12.576  0.2944 -0.2015  0.1421
  228MPD1    H5 3522   0.427   0.571  12.510 -0.0512  1.8807 -1.8468
  228MPD1    N1 3523   0.746   0.823  12.225  0.9385 -0.1897 -0.4851
  228MPD1    H6 3524   0.706   0.746  12.171  2.9024 -1.2150 -0.4482
  228MPD1    H7 3525   0.750   0.909  12.171  1.9157 -0.8583 -1.4598
  229MPD1     C 3526   4.451   4.418  14.866 -0.3141  0.0010 -0.4154
  229MPD1    C1 3527   4.427   4.285  14.845  0.1296  0.0636  0.1535
  229MPD1    C2 3528   4.469   4.191  14.943 -0.8724 -0.3350 -0.1334
  229MPD1    C3 3529   4.545   4.228  15.053 -0.0194  0.0691  1.1408
  229MPD1    C4 3530   4.582   4.364  15.063 -0.6249  0.6403  0.6261
  229MPD1    C5 3531   4.533   4.455  14.973  0.0005 -0.7035 -0.3955
  229MPD1     H 3532   4.444   4.088  14.922 -0.4105 -0.8987  1.9994
  229MPD1    H1 3533   4.650   4.391  15.144  0.9483  0.6999 -0.7064
  229MPD1    H2 3534   4.437   4.495  14.792  0.5793  0.7101  0.1583
  229MPD1    H3 3535   4.567   4.557  14.985 -0.6832 -0.3354 -1.5293
  229MPD1     N 3536   4.596   4.134  15.141  0.1000  0.0057  0.2150
  229MPD1    H5 3537   4.675   4.166  15.195 -0.6387 -0.9081  1.8421
  229MPD1    N1 3538   4.358   4.252  14.731  0.2554  0.0010 -0.3251
  229MPD1    H6 3539   4.326   4.332  14.677 -2.5338 -1.2664 -0.5470
  229MPD1    H7 3540   4.418   4.206  14.662  1.5163 -0.4738  1.0961
  230MPD1     C 3541   0.538   4.231  15.813 -0.2116 -0.1294 -0.0935
  230MPD1    C1 3542   0.557   4.095  15.791  0.5408  0.5699 -0.2033
  230MPD1    C2 3543   0.455   4.028  15.726  1.0280 -0.2094 -0.7735
  230MPD1    C3 3544   0.346   4.089  15.656 -0.1136 -0.1821 -0.4101
  230MPD1    C4 3545   0.338   4.225  15.688  0.5029 -0.8431  0.8121
  230MPD1    C5 3546   0.429   4.292  15.758 -0.5537  0.1851  0.8465
  230MPD1     H 3547   0.462   3.920  15.718  1.0075 -0.2829  0.2754
  230MPD1    H1 3548   0.266   4.285  15.632  1.2995 -0.0011  0.6952
  230MPD1    H2 3549   0.608   4.289  15.873 -0.5516  0.5229 -0.3289
  230MPD1    H3 3550   0.412   4.397  15.779 -0.6265  0.5358 -0.9465
  230MPD1     N 3551   0.265   4.008  15.571 -0.1327 -0.4951 -0.3866
  230MPD1    H5 3552   0.286   3.909  15.561 -0.2106 -0.2465 -2.8603
  230MPD1    N1 3553   0.656   4.015  15.853  0.2584  0.3031 -0.4009
  230MPD1    H6 3554   0.677   3.932  15.797 -1.7602  0.2276 -1.0529
  230MPD1    H7 3555   0.743   4.063  15.872 -0.3696  0.4349  2.0646
  231MPD1     C 3556   3.428   0.789  15.577 -0.4567 -0.0041 -0.3933
  231MPD1    C1 3557   3.362   0.722  15.474  0.7634 -0.4587 -0.4097
  231MPD1    C2 3558   3.342   0.793  15.353  0.5737 -0.7211 -0.4029
  231MPD1    C3 3559   3.402   0.918  15.334  0.3544  0.3170  0.6494
  231MPD1    C4 3560   3.479   0.980  15.437 -0.1626 -0.4613 -0.0372
  231MPD1    C5 3561   3.478   0.919  15.557 -0.3279  0.6639  0.1457
  231MPD1     H 3562   3.286   0.749  15.272  0.7350 -2.9936  0.7013
  231MPD1    H1 3563   3.516   1.081  15.431  0.3202 -0.6305  0.1314
  231MPD1    H2 3564   3.419   0.756  15.679  0.1129  2.1842  0.3716
  231MPD1    H3 3565   3.504   0.970  15.649  0.6126 -2.3947  1.5640
  231MPD1     N 3566   3.366   0.992  15.223 -0.2157  0.1520  0.1905
  231MPD1    H5 3567   3.292   0.953  15.166  0.1842 -1.8834  1.0495
  231MPD1    N1 3568   3.299   0.596  15.505 -0.4177 -0.6547 -0.4467
  231MPD1    H6 3569   3.286   0.537  15.424  0.7432  1.4963 -2.2166
  231MPD1    H7 3570   3.346   0.539  15.574 -1.9045  0.6891  1.6731
  232MPD1     C 3571   0.596   3.642   0.749 -0.2313 -0.0711  0.0751
  232MPD1    C1 3572   0.472   3.686   0.784  0.3456  0.4608 -0.0607
  232MPD1    C2 3573   0.367   3.643   0.701 -0.0161  0.3719  0.1084
  232MPD1    C3 3574   0.391   3.575   0.588  0.2253  0.2171 -0.2243
  232MPD1    C4 3575   0.518   3.544   0.549  0.1073  0.4604 -0.0562
  232MPD1    C5 3576   0.621   3.585   0.630  0.9254 -0.7288 -0.0601
  232MPD1     H 3577   0.264   3.659   0.731 -0.4906  0.2379 -1.4727
  232MPD1    H1 3578   0.543   3.481   0.465  1.2283  1.3085 -0.3631
  232MPD1    H2 3579   0.685   3.662   0.809 -0.7194 -1.5984  1.3089
  232MPD1    H3 3580   0.721   3.560   0.597 -0.0301 -1.4813 -2.3607
  232MPD1     N 3581   0.276   3.522   0.524 -0.4100  0.3110 -0.2158
  232MPD1    H5 3582   0.181   3.538   0.556 -0.6948 -1.4299 -0.2280
  232MPD1    N1 3583   0.443   3.740   0.906 -0.0636 -0.0427  0.8376
  232MPD1    H6 3584   0.517   3.802   0.936  1.3735  0.0187 -2.9091
  232MPD1    H7 3585   0.366   3.807   0.903  0.2638  0.2654 -0.5945
  233MPD1     C 3586   1.071   2.100   1.504 -0.0696 -0.4362 -0.5402
  233MPD1    C1 3587   1.096   1.973   1.552 -0.1465  0.2362 -0.1862
  233MPD1    C2 3588   1.227   1.942   1.587 -0.6442 -0.0761 -0.0538
  233MPD1    C3 3589   1.329   2.028   1.542  0.6595 -0.9781 -0.5150
  233MPD1    C4 3590   1.300   2.149   1.477  0.1563 -0.7922 -0.0295
  233MPD1    C5 3591   1.168   2.182   1.460 -0.0557 -0.2299 -0.2530
  233MPD1     H 3592   1.245   1.849   1.640  0.2667 -1.4887 -2.8688
  233MPD1    H1 3593   1.371   2.227   1.451 -1.4212  0.9251  0.9005
  233MPD1    H2 3594   0.969   2.132   1.484 -0.4301 -0.9314  0.4628
  233MPD1    H3 3595   1.140   2.280   1.422 -1.1459 -0.6085 -0.4321
  233MPD1     N 3596   1.464   1.989   1.538 -0.1427 -0.4160  0.1942
  233MPD1    H5 3597   1.532   2.055   1.503  0.0818 -2.6636 -3.5942
  233MPD1    N1 3598   0.984   1.896   1.597  0.3253 -0.1946 -0.2307
  233MPD1    H6 3599   0.905   1.891   1.533 -0.6011 -1.4672  1.0180
  233MPD1    H7 3600   1.008   1.797   1.593 -1.7264 -0.6407 -1.4227
  234MPD1     C 3601   2.129   4.604   9.561  0.1938 -0.1484 -0.6495
  234MPD1    C1 3602   2.020   4.659   9.501 -0.2766 -0.3298 -0.5875
  234MPD1    C2 3603   2.006   0.056   9.505 -0.4058 -0.5408  0.3629
  234MPD1    C3 3604   2.094   0.134   9.578 -0.1643  0.1624  0.6976
  234MPD1    C4 3605   2.202   0.077   9.644 -0.5609 -0.1873  0.1127
  234MPD1    C5 3606   2.216   4.677   9.635  0.0393 -0.2045 -0.4508
  234MPD1     H 3607   1.929   0.104   9.446 -1.3065 -0.5026  1.5756
  234MPD1    H1 3608   2.286   0.131   9.687 -2.1834  2.2071  0.2856
  234MPD1    H2 3609   2.140   4.497   9.552 -0.9994 -0.2042 -1.4206
  234MPD1    H3 3610   2.298   4.628   9.686 -1.0473 -2.6696 -1.0824
  234MPD1     N 3611   2.069   0.277   9.590 -0.2249 -0.0006 -0.1581
  234MPD1    H5 3612   1.993   0.314   9.534 -1.2822 -2.6923 -0.4735
  234MPD1    N1 3613   1.933   4.587   9.425 -0.1309  0.3447 -0.0200
  234MPD1    H6 3614   1.846   4.636   9.404  0.3198  1.1773  0.0595
  234MPD1    H7 3615   1.916   4.506   9.483 -0.3971  0.2419 -0.2427
  235MPD1     C 3616   4.531   2.275  11.538  0.2408  0.2432  0.0248
  235MPD1    C1 3617   4.552   2.410  11.538 -0.3394 -0.0295 -0.2556
  235MPD1    C2 3618   4.509   2.490  11.433  0.1286  0.1486 -0.8142
  235MPD1    C3 3619   4.443   2.420  11.327  0.4035  0.1394 -0.4087
  235MPD1    C4 3620   4.419   2.288  11.328 -0.4081  0.2561  0.4928
  235MPD1    C5 3621   4.469   2.215  11.432  0.6019 -0.0191  0.2164
  235MPD1     H 3622   4.517   2.598  11.436 -1.3122  0.2663 -1.0852
  235MPD1    H1 3623   4.350   2.245  11.256 -0.0076  1.3172 -0.5336
  235MPD1    H2 3624   4.564   2.214  11.622  1.5566 -0.8033 -1.2582
  235MPD1    H3 3625   4.446   2.109  11.429 -0.7572  0.2640  0.8431
  235MPD1     N 3626   4.396   2.509  11.224  0.9174 -0.2658  0.3794
  235MPD1    H5 3627   4.417   2.608  11.235  0.5967 -0.1093 -0.4096
  235MPD1    N1 3628   4.611   2.471  11.650  0.2034  0.2502  0.2295
  235MPD1    H6 3629   4.578   2.566  11.665  2.3032  0.7791  1.4583
  235MPD1    H7 3630   4.587   2.410  11.728  2.6825 -1.2635 -0.2118
  236MPD1     C 3631   2.941   4.727   9.334 -0.2368 -0.3877  0.6095
  236MPD1    C1 3632   2.826   4.653   9.340 -0.3770 -0.0719  0.0667
  236MPD1    C2 3633   2.817   4.535   9.412 -0.1464 -0.8654  0.2464
  236MPD1    C3 3634   2.921   4.493   9.492 -0.0564 -0.3479 -1.7193
  236MPD1    C4 3635   3.029   4.580   9.509  0.5688 -0.3186  0.1128
  236MPD1    C5 3636   3.038   4.695   9.426 -1.0496 -0.0790  0.5179
  236MPD1     H 3637   2.726   4.477   9.402 -0.3947  0.0384 -2.4833
  236MPD1    H1 3638   3.110   4.558   9.577  0.4264  2.1630  1.0724
  236MPD1    H2 3639   2.952   0.074   9.266 -1.9722 -1.7784 -1.4243
  236MPD1    H3 3640   3.117   0.026   9.457  2.9151 -3.7235 -1.7625
  236MPD1     N 3641   2.925   4.372   9.555  0.2355 -0.2421 -0.2097
  236MPD1    H5 3642   3.007   4.340   9.606  0.5022  0.0587 -0.4514
  236MPD1    N1 3643   2.736   4.677   9.235  0.0321  0.0214  0.6927
  236MPD1    H6 3644   2.743   0.038   9.208 -1.6513 -0.3543 -1.1212
  236MPD1    H7 3645   2.646   4.660   9.280  0.6697 -2.1760  1.1261
  237MPD1     C 3646   3.455   2.398  15.297  0.4476 -0.3815 -0.1982
  237MPD1    C1 3647   3.335   2.452  15.324 -0.2866  0.0051 -0.3929
  237MPD1    C2 3648   3.216   2.384  15.308  0.2275  0.0965 -0.6511
  237MPD1    C3 3649   3.212   2.254  15.263 -0.2979 -0.1349  0.7870
  237MPD1    C4 3650   3.341   2.199  15.246  0.0388  0.3731 -0.9018
  237MPD1    C5 3651   3.457   2.270  15.255 -0.4932  0.0412 -0.0056
  237MPD1     H 3652   3.123   2.435  15.327  1.3644  1.4211  1.4882
  237MPD1    H1 3653   3.356   2.093  15.227  2.1130  0.7950 -1.6064
  237MPD1    H2 3654   3.544   2.455  15.322 -0.5333  0.6853  0.8707
  237MPD1    H3 3655   3.555   2.225  15.243 -0.2922  0.3397  0.4870
  237MPD1     N 3656   3.104   2.165  15.252  0.4333  0.4787 -0.2906
  237MPD1    H5 3657   3.120   2.076  15.207  0.1512 -0.0574  0.6776
  237MPD1    N1 3658   3.323   2.590  15.354 -0.2712  0.6065 -0.6748
  237MPD1    H6 3659   3.233   2.630  15.380  0.6088  1.2409  1.3983
  237MPD1    H7 3660   3.385   2.614  15.431 -0.3896 -0.5397 -0.2154
  238MPD1     C 3661   0.491   1.062  15.726 -0.3489  0.4799  0.4537
  238MPD1    C1 3662   0.544   1.092  15.599  0.1379  0.3511 -0.0123
  238MPD1    C2 3663   0.459   1.064  15.495 -0.5185  0.3789 -0.1434
  238MPD1    C3 3664   0.356   0.977  15.505 -0.1399  1.1616 -0.5918
  238MPD1    C4 3665   0.322   0.926  15.627 -0.0783  0.2332 -0.2816
  238MPD1    C5 3666   0.389   0.972  15.736  0.2355  0.3123 -0.0912
  238MPD1     H 3667   0.500   1.091  15.399 -1.3712  0.5582 -0.4539
  238MPD1    H1 3668   0.234   0.863  15.634  0.6268 -0.5642  1.3449
  238MPD1    H2 3669   0.516   1.113  15.818  2.8081 -0.5280  0.1440
  238MPD1    H3 3670   0.357   0.953  15.837  2.4123 -1.1192  0.3263
  238MPD1     N 3671   0.271   0.943  15.396  0.1011  0.6017 -0.8232
  238MPD1    H5 3672   0.202   0.873  15.422 -1.0821  1.9895 -0.3133
  238MPD1    N1 3673   0.642   1.194  15.578 -0.4594 -0.7113  0.1628
  238MPD1    H6 3674   0.691   1.185  15.489  0.5700 -0.6075  0.7152
  238MPD1    H7 3675   0.714   1.193  15.650 -1.9575 -1.5116  1.6331
  239MPD1     C 3676   0.461   1.869  14.689  0.1096  0.0869  0.1541
  239MPD1    C1 3677   0.324   1.851  14.699  0.1849  0.7819 -0.2477
  239MPD1    C2 3678   0.246   1.956  14.653 -0.1557  0.5237  0.3402
  239MPD1    C3 3679   0.296   2.076  14.606 -0.2570  0.5429 -0.2298
  239MPD1    C4 3680   0.433   2.090  14.605  0.4564  0.7401 -0.4019
  239MPD1    C5 3681   0.511   1.982  14.634 -0.1240  0.6734  0.0833
  239MPD1     H 3682   0.139   1.955  14.670 -0.5891  1.3081 -2.4109
  239MPD1    H1 3683   0.480   2.180  14.569  0.4984  0.4248 -1.1243
  239MPD1    H2 3684   0.528   1.790  14.722  1.2893  0.7263 -0.7160
  239MPD1    H3 3685   0.619   1.990  14.645  0.1673 -1.9301 -0.9195
  239MPD1     N 3686   0.211   2.171  14.546 -0.3467  0.4495  0.5140
  239MPD1    H5 3687   0.269   2.230  14.486 -0.7778  3.3515  2.9792
  239MPD1    N1 3688   0.262   1.744  14.773 -0.4985 -0.3526 -0.7555
  239MPD1    H6 3689   0.161   1.740  14.784 -0.2912  0.4761  1.4029
  239MPD1    H7 3690   0.316   1.659  14.790  1.6314  1.4405  1.5059
  240MPD1     C 3691   4.200   1.817  14.194 -0.1192  0.3853  0.5355
  240MPD1    C1 3692   4.175   1.822  14.329 -0.7025  0.3911  1.1127
  240MPD1    C2 3693   4.189   1.707  14.403  0.1733 -0.5570 -0.6299
  240MPD1    C3 3694   4.213   1.590  14.339 -0.7785 -0.6197  0.0214
  240MPD1    C4 3695   4.220   1.581  14.200  0.0676 -0.0919  0.7577
  240MPD1    C5 3696   4.222   1.695  14.133  0.3679  0.0444  0.0171
  240MPD1     H 3697   4.166   1.700  14.508  1.2391  1.4286 -0.2643
  240MPD1    H1 3698   4.229   1.492  14.138  1.3812 -0.4367  1.4368
  240MPD1    H2 3699   4.204   1.900  14.125 -5.8187  0.1420 -0.0485
  240MPD1    H3 3700   4.223   1.696  14.025 -0.9715 -1.0177 -0.0121
  240MPD1     N 3701   4.215   1.478  14.428  0.2290 -0.6646 -0.6439
  240MPD1    H5 3702   4.212   1.500  14.527  0.3968 -3.7274  0.0568
  240MPD1    N1 3703   4.173   1.944  14.402  0.2473  0.1069  0.1957
  240MPD1    H6 3704   4.138   2.013  14.335  0.3415  0.9453  0.9995
  240MPD1    H7 3705   4.107   1.940  14.480 -1.5706 -0.1202 -1.3339
  241MPD1     C 3706   4.503   1.585  15.196  0.1670  0.0615 -0.1170
  241MPD1    C1 3707   4.434   1.465  15.217 -0.2641  0.5896  0.6859
  241MPD1    C2 3708   4.386   1.398  15.102  0.1178 -0.0571 -0.1408
  241MPD1    C3 3709   4.391   1.454  14.976 -0.2183  0.2350 -0.4769
  241MPD1    C4 3710   4.447   1.580  14.963  0.0221  0.8283  0.5570
  241MPD1    C5 3711   4.492   1.648  15.076 -0.1495 -0.3474 -0.1039
  241MPD1     H 3712   4.357   1.295  15.119  2.1130 -0.3429  1.4826
  241MPD1    H1 3713   4.452   1.631  14.868 -0.7302 -3.2784 -1.6683
  241MPD1    H2 3714   4.543   1.641  15.281 -1.1880  0.2118  0.4288
  241MPD1    H3 3715   4.544   1.743  15.069 -3.4958  1.3045 -2.4736
  241MPD1     N 3716   4.342   1.398  14.863  0.4097  0.0575 -0.0873
  241MPD1    H5 3717   4.352   1.454  14.779 -0.3993  0.6116  0.1790
  241MPD1    N1 3718   4.448   1.391  15.334  0.5135 -0.3436  0.1304
  241MPD1    H6 3719   4.483   1.443  15.414  1.0342  1.2055 -1.0888
  241MPD1    H7 3720   4.376   1.321  15.346 -0.8205  1.3191  1.8264
  242MPD1     C 3721   4.225   3.874  15.989  0.1043  0.1053 -0.0445
  242MPD1    C1 3722   4.150   3.854  15.878 -0.7477 -0.2176  0.1367
  242MPD1    C2 3723   4.177   3.947  15.773  0.3211 -0.8270  0.8637
  242MPD1    C3 3724   4.268   4.052  15.790  0.2276 -0.1700 -0.1447
  242MPD1    C4 3725   4.336   4.056  15.910 -0.3854  0.0233 -0.2033
  242MPD1    C5 3726   4.318   3.971  16.009  0.0057 -0.6771  0.4583
  242MPD1     H 3727   4.108   3.943  15.689  2.0015 -1.7468 -0.4681
  242MPD1    H1 3728   4.413   4.129  15.935 -0.3189  0.1973 -0.9034
  242MPD1    H2 3729   4.212   3.803  16.070 -1.1762  0.7910  0.3473
  242MPD1    H3 3730   4.373   3.975  16.103 -0.3376  1.2401  0.5825
  242MPD1     N 3731   4.296   4.154  15.690 -0.0339 -0.9501  0.0849
  242MPD1    H5 3732   4.354   4.231  15.720  3.6377 -3.2099 -1.2530
  242MPD1    N1 3733   4.045   3.763  15.879 -0.6008 -0.0300 -0.5189
  242MPD1    H6 3734   4.064   3.698  15.955  0.0044 -0.6974 -1.2421
  242MPD1    H7 3735   4.043   3.714  15.790  2.0894  1.1859 -1.2613
  243MPD1     C 3736   0.531   3.779   0.242  0.4826 -0.3373  0.1087
  243MPD1    C1 3737   0.652   3.805   0.193 -0.1434 -0.6490  0.0628
  243MPD1    C2 3738   0.726   3.699   0.140  0.8315 -0.3464  0.5803
  243MPD1    C3 3739   0.671   3.571   0.128  0.0068  0.7153 -0.3062
  243MPD1    C4 3740   0.546   3.548   0.176 -0.0075 -0.0053  0.4156
  243MPD1    C5 3741   0.474   3.654   0.224  0.0582 -0.0938  0.1404
  243MPD1     H 3742   0.825   3.709   0.096  0.4576  1.8954  0.2439
  243MPD1    H1 3743   0.501   3.451   0.162 -1.1899  0.7593 -1.0559
  243MPD1    H2 3744   0.461   3.854   0.279  1.0257  0.1805  0.0836
  243MPD1    H3 3745   0.374   3.642   0.265 -0.2916 -0.4356 -0.8065
  243MPD1     N 3746   0.748   3.479   0.054  0.9604 -0.7985  0.7231
  243MPD1    H5 3747   0.841   3.511   0.028  0.7743 -0.5435  0.3824
  243MPD1    N1 3748   0.701   3.933   0.205 -0.2110  0.3743 -0.2869
  243MPD1    H6 3749   0.781   3.953   0.145  0.3432 -1.4467 -0.1537
  243MPD1    H7 3750   0.638   4.013   0.200 -0.4878  0.1514 -0.3687
  244MPD1     C 3751   0.992   2.498   0.032 -0.8341  0.4727 -0.2838
  244MPD1    C1 3752   0.909   2.563   0.116  0.6806  0.7684  0.5864
  244MPD1    C2 3753   0.873   2.693   0.084  0.3566 -0.2053  0.3848
  244MPD1    C3 3754   0.923   2.756  17.717  0.4472 -0.8231 -0.1603
  244MPD1    C4 3755   0.988   2.679  17.628  1.2183 -0.2979 -0.7325
  244MPD1    C5 3756   1.027   2.555  17.657 -0.2682 -0.5732  0.2030
  244MPD1     H 3757   0.811   2.754   0.149 -2.2562 -2.1986 -0.2174
  244MPD1    H1 3758   1.027   2.709  17.531  0.3115 -1.6501 -1.5173
  244MPD1    H2 3759   1.028   2.397   0.050 -1.6934  0.5721  2.0581
  244MPD1    H3 3760   1.088   2.492  17.592 -0.6220 -0.7565  0.0500
  244MPD1     N 3761   0.898   2.892  17.701 -0.1549  0.1226  0.1782
  244MPD1    H5 3762   0.839   2.927   0.030  1.8269 -0.9215  2.2265
  244MPD1    N1 3763   0.876   2.513   0.243  0.6995  0.1065 -0.0218
  244MPD1    H6 3764   0.792   2.551   0.286  0.7631  0.3209 -0.0852
  244MPD1    H7 3765   0.875   2.412   0.243 -0.9184  0.1075  1.4197
  245MPD1     C 3766   3.279   3.695  12.912 -0.2808  0.1169 -0.5316
  245MPD1    C1 3767   3.210   3.659  13.026 -0.7824  0.1691  0.6114
  245MPD1    C2 3768   3.231   3.734  13.140  0.2592  0.7482  0.0828
  245MPD1    C3 3769   3.315   3.848  13.148 -0.6881 -0.0757 -0.0251
  245MPD1    C4 3770   3.375   3.883  13.029  0.7343 -0.4767 -0.4822
  245MPD1    C5 3771   3.360   3.804  12.913 -0.0473  0.2177  0.3787
  245MPD1     H 3772   3.172   3.712  13.228  2.5311 -1.0026  1.1971
  245MPD1    H1 3773   3.448   3.963  13.026 -1.3608  1.5535  1.8181
  245MPD1    H2 3774   3.276   3.633  12.824 -2.3720 -0.1662 -0.2648
  245MPD1    H3 3775   3.422   3.821  12.826 -2.1780  0.1486 -1.1324
  245MPD1     N 3776   3.328   3.912  13.266 -0.5460 -0.5635 -0.4053
  245MPD1    H5 3777   3.292   3.860  13.345  1.3961 -0.9288  0.2433
  245MPD1    N1 3778   3.142   3.539  13.020  0.7255 -0.3596 -0.0157
  245MPD1    H6 3779   3.099   3.512  12.932 -1.0690 -0.4326  0.9014
  245MPD1    H7 3780   3.083   3.524  13.101 -1.5908 -0.6187 -1.7508
  246MPD1     C 3781   3.866   2.441  11.200 -0.1110 -0.0325  0.3461
  246MPD1    C1 3782   3.861   2.362  11.091  0.6723 -1.1526 -0.7416
  246MPD1    C2 3783   3.882   2.413  10.963 -0.5409  0.4372  0.1275
  246MPD1    C3 3784   3.913   2.547  10.940 -0.5556 -0.1194  0.0146
  246MPD1    C4 3785   3.928   2.620  11.054  0.1893 -0.0628 -0.2979
  246MPD1    C5 3786   3.903   2.570  11.179 -0.5546  0.7361  0.4299
  246MPD1     H 3787   3.868   2.351  10.876  2.4675  0.9781 -0.7532
  246MPD1    H1 3788   3.959   2.723  11.069  0.8208 -0.2821 -0.1100
  246MPD1    H2 3789   3.833   2.400  11.295  1.2014 -1.2873  0.2485
  246MPD1    H3 3790   3.917   2.640  11.261  2.4194  1.2693 -0.5102
  246MPD1     N 3791   3.923   2.601  10.804  0.2765  0.0033 -0.2454
  246MPD1    H5 3792   3.897   2.537  10.730 -0.5591 -0.6856  0.6451
  246MPD1    N1 3793   3.815   2.233  11.110 -0.4965 -0.0588  0.6372
  246MPD1    H6 3794   3.840   2.164  11.040 -0.7233  0.3069  0.1915
  246MPD1    H7 3795   3.804   2.197  11.204 -0.7375 -0.4343  0.4643
  247MPD1     C 3796   2.401   4.357  16.786 -0.3668 -0.6794  0.3556
  247MPD1    C1 3797   2.491   4.370  16.686 -0.9750  0.0268 -0.5478
  247MPD1    C2 3798   2.543   4.244  16.643  0.3092 -0.6090  0.2703
  247MPD1    C3 3799   2.484   4.122  16.670  0.6314 -0.1904 -0.4575
  247MPD1    C4 3800   2.391   4.125  16.771  0.0059 -0.3867 -0.2305
  247MPD1    C5 3801   2.344   4.239  16.828  0.4202 -0.1057  0.7261
  247MPD1     H 3802   2.620   4.243  16.566 -0.0713  1.1877 -0.1401
  247MPD1    H1 3803   2.345   4.030  16.796  3.0700 -2.4005 -2.3361
  247MPD1    H2 3804   2.374   4.448  16.839 -0.7686 -0.3778 -0.3614
  247MPD1    H3 3805   2.268   4.244  16.904 -1.9309  0.1668 -1.6420
  247MPD1     N 3806   2.507   4.004  16.595 -0.5607 -0.2831  0.6732
  247MPD1    H5 3807   2.460   3.919  16.625 -1.0640  0.0099  0.7096
  247MPD1    N1 3808   2.552   4.491  16.652  0.4960  0.6276  0.1845
  247MPD1    H6 3809   2.646   4.507  16.686  0.8592  0.9903 -0.9781
  247MPD1    H7 3810   2.502   4.572  16.686 -0.5284 -0.8451  2.2017
  248MPD1     C 3811   3.306   2.896   0.222 -0.1094  0.1571  0.1745
  248MPD1    C1 3812   3.180   2.872   0.261 -0.2706 -0.2082 -0.6807
  248MPD1    C2 3813   3.108   2.970   0.322 -0.0218  0.1570 -0.0291
  248MPD1    C3 3814   3.168   3.084   0.368  0.0067  0.3476 -0.0518
  248MPD1    C4 3815   3.302   3.103   0.341 -0.6231 -0.3682 -0.5901
  248MPD1    C5 3816   3.367   3.013   0.259 -0.1194 -0.7284 -0.3896
  248MPD1     H 3817   3.006   2.945   0.349  0.6658 -0.1241  2.2789
  248MPD1    H1 3818   3.349   3.200   0.355  1.2341 -1.3211 -0.2067
  248MPD1    H2 3819   3.373   2.819   0.185 -0.6728  0.0589 -0.6428
  248MPD1    H3 3820   3.471   3.024   0.230 -0.4978 -0.3956 -1.6136
  248MPD1     N 3821   3.090   3.163   0.457  0.5038 -0.0886  0.0465
  248MPD1    H5 3822   2.994   3.132   0.456  0.2321  0.6691  3.1687
  248MPD1    N1 3823   3.120   2.749   0.233 -0.3545 -0.2537 -0.3446
  248MPD1    H6 3824   3.191   2.677   0.247 -1.1761 -1.1840 -0.9180
  248MPD1    H7 3825   3.051   2.718   0.301  1.9898 -1.8531  1.3165
  249MPD1     C 3826   4.625   2.042  11.075  0.5317  0.6768  0.6105
  249MPD1    C1 3827   4.706   2.156  11.064  0.7122  0.2318 -0.5870
  249MPD1    C2 3828   0.053   2.168  10.957 -0.0845 -0.4795 -0.2154
  249MPD1    C3 3829   0.033   2.092  10.840 -0.0742  0.3192 -0.6032
  249MPD1    C4 3830   4.688   1.980  10.848 -0.5992  0.3277 -0.5164
  249MPD1    C5 3831   4.611   1.956  10.966 -0.1033  0.1668 -0.2331
  249MPD1     H 3832   0.119   2.255  10.962  0.7186 -1.0845 -0.3069
  249MPD1    H1 3833   4.665   1.916  10.764 -1.9192  3.1105 -2.2655
  249MPD1    H2 3834   4.559   2.027  11.160 -1.4474  0.8324 -0.9002
  249MPD1    H3 3835   4.547   1.869  10.959 -0.9532  0.4674  3.6604
  249MPD1     N 3836   0.087   2.137  10.722 -0.5840  0.5648 -0.3740
  249MPD1    H5 3837   0.144   2.221  10.729  0.9720 -0.4515 -0.6805
  249MPD1    N1 3838   4.720   2.242  11.172 -0.4930  0.2321  0.4051
  249MPD1    H6 3839   0.021   2.334  11.149 -0.5497  0.3507  0.7934
  249MPD1    H7 3840   4.639   2.253  11.233 -1.3685  1.9284 -1.0465
  250MPD2     C 3841   1.685   2.114  12.504  0.5096  0.0322  0.6438
  250MPD2    C1 3842   1.655   2.191  12.613  0.1008  0.4028  0.0251
  250MPD2    C2 3843   1.554   2.141  12.698  0.9009 -0.1702  0.1634
  250MPD2    C3 3844   1.496   2.014  12.683  0.0087 -0.3913 -0.3105
  250MPD2    C4 3845   1.542   1.943  12.581  0.6377  0.5061 -0.4929
  250MPD2    C5 3846   1.625   1.991  12.485  0.4194 -0.0278  0.3011
  250MPD2     H 3847   1.550   2.202  12.788 -1.6100 -1.4143  0.8989
  250MPD2    H1 3848   1.512   1.842  12.559  0.0421  0.7997 -1.0402
  250MPD2    H2 3849   1.758   2.143  12.430  0.8917 -1.6844  0.3465
  250MPD2    H3 3850   1.653   1.932  12.398  0.8832  1.0635 -0.2861
  250MPD2     N 3851   1.414   1.945  12.775  0.4794 -0.2988  0.2353
  250MPD2    H5 3852   1.405   1.844  12.763  1.0044 -0.3902  0.5674
  250MPD2    N1 3853   1.733   2.306  12.634 -0.3642  0.6928 -0.3051
  250MPD2    H7 3854   1.814   2.324  12.575  0.9164 -0.1067  1.2116
  251TMC3    C1 3855   1.802   2.514  12.726  0.4095  0.0933 -0.1093
  251TMC3    C2 3856   1.752   2.641  12.742  0.3213 -0.2825  0.6983
  251TMC3    C3 3857   1.837   2.741  12.778  0.0508 -0.0637 -0.6893
  251TMC3    C4 3858   1.932   2.483  12.753  0.5116 -0.6787 -0.8999
  251TMC3    C5 3859   2.011   2.589  12.798 -0.4777  0.6553  0.3878
  251TMC3    C6 3860   1.970   2.720  12.804 -0.3788 -0.5109 -0.0454
  251TMC3     C 3861   1.706   2.411  12.722 -0.6849 -0.6923  0.1909
  251TMC3     O 3862   1.596   2.421  12.777 -0.0943  0.0511 -0.0967
  251TMC3     H 3863   1.648   2.659  12.719  0.7389  0.6668 -0.4025
  251TMC3    H1 3864   1.966   2.380  12.760  0.6136 -0.4611  1.8304
  251TMC3    H2 3865   2.028   2.802  12.845  2.0798 -3.0596  1.5811
  251TMC3    C7 3866   2.140   2.561  12.867  0.3280  0.7554 -0.0852
  251TMC3    C8 3867   1.782   2.873  12.801  1.0071  0.0127  0.1942
  251TMC3    O1 3868   2.158   2.632  12.967  0.2161  0.9283 -0.2489
  251TMC3    O2 3869   1.860   2.967  12.811 -0.1217 -0.0330  0.0191
  252TMC3    C1 3870   0.571   3.856   9.788 -0.1905 -0.1693  0.3583
  252TMC3    C2 3871   0.679   3.815   9.715 -0.1841 -0.4301  0.4074
  252TMC3    C3 3872   0.736   3.706   9.764 -0.3095  0.8882  0.2966
  252TMC3    C4 3873   0.511   3.782   9.884  0.4996  0.1776 -0.2704
  252TMC3    C5 3874   0.573   3.674   9.931 -0.3228 -0.3228 -0.1674
  252TMC3    C6 3875   0.686   3.628   9.869  0.2241  0.1446 -0.5592
  252TMC3     C 3876   0.515   3.985   9.770 -0.1867 -0.2361 -0.3467
  252TMC3     O 3877   0.401   3.987   9.817 -0.2327 -0.1000  0.1692
  252TMC3     H 3878   0.719   3.863   9.626  1.1529 -1.3398  0.5169
  252TMC3    H1 3879   0.420   3.816   9.931  0.6786  0.2177  0.0458
  252TMC3    H2 3880   0.734   3.534   9.896 -0.2898 -0.5526 -2.0732
  252TMC3    C7 3881   0.523   3.615  10.057  0.1117  0.4332 -0.0323
  252TMC3    C8 3882   0.858   3.665   9.698  0.2904  0.0382 -0.7644
  252TMC3    O1 3883   0.422   3.665  10.102  0.4965  0.2896  0.1832
  252TMC3    O2 3884   0.890   3.710   9.588  0.3794 -0.2636 -0.0437
  253MPD2     C 3885   2.187   2.104  15.437 -0.2334 -0.6240  0.1662
  253MPD2    C1 3886   2.066   2.179  15.448  1.2734 -0.1547  0.2430
  253MPD2    C2 3887   2.042   2.250  15.559  0.6389 -0.5096  1.2659
  253MPD2    C3 3888   2.136   2.256  15.663  0.3437 -0.7259 -0.8619
  253MPD2    C4 3889   2.252   2.180  15.653  0.3742  0.1732 -0.2187
  253MPD2    C5 3890   2.276   2.104  15.540 -0.1804 -0.4132 -0.9422
  253MPD2     H 3891   1.941   2.285  15.574 -0.0926 -2.1142  0.0901
  253MPD2    H1 3892   2.322   2.178  15.736  0.5137 -1.7225 -0.3844
  253MPD2    H2 3893   2.218   2.033  15.362  0.2714  2.2990 -2.3786
  253MPD2    H3 3894   2.369   2.048  15.541  0.0003 -0.1313 -3.4270
  253MPD2     N 3895   2.111   2.315  15.783  0.3505  0.1119 -0.3383
  253MPD2    H5 3896   2.178   2.299  15.857  1.2452 -0.3934 -1.2550
  253MPD2    N1 3897   1.961   2.167  15.360 -0.8753 -0.0322  0.1314
  253MPD2    H7 3898   1.883   2.228  15.381  0.1376  2.0224 -2.0095
  254TMC3    C1 3899   1.999   2.417  15.968  0.8411 -0.2927  0.6263
  254TMC3    C2 3900   1.937   2.529  16.006  0.2613  0.0610  0.0925
  254TMC3    C3 3901   1.960   2.565  16.136  0.2040 -0.0590 -0.4850
  254TMC3    C4 3902   2.094   2.352  16.045  0.0537 -0.0441  0.0881
  254TMC3    C5 3903   2.121   2.400  16.169 -0.0909  0.6315 -0.2475
  254TMC3    C6 3904   2.050   2.505  16.217  0.0704  0.0623  0.4056
  254TMC3     C 3905   2.003   2.388  15.826 -0.6582  0.0100  0.6184
  254TMC3     O 3906   1.920   2.449  15.761  0.5037  0.3916 -0.0475
  254TMC3     H 3907   1.874   2.580  15.934 -0.1325 -0.8416 -0.1954
  254TMC3    H1 3908   2.153   2.265  16.017 -1.5502 -0.9006 -0.6586
  254TMC3    H2 3909   2.068   2.547  16.316 -0.8323  1.9771 -0.2367
  254TMC3    C7 3910   2.212   2.328  16.253  0.9088 -0.2690  0.8764
  254TMC3    C8 3911   1.855   2.644  16.202 -0.2535  0.3260  0.2076
  254TMC3    O1 3912   2.265   2.226  16.210  0.0954 -0.7688 -0.1088
  254TMC3    O2 3913   1.854   2.639  16.325 -0.6095 -0.2979  0.6031
  255MPD2     C 3914   0.721   4.517  10.092 -0.0691  1.2952 -0.1073
  255MPD2    C1 3915   0.807   4.624  10.104  0.1038  0.0579  0.2100
  255MPD2    C2 3916   0.941   4.602  10.073  0.0422  0.1491 -0.1063
  255MPD2    C3 3917   0.994   4.486  10.030 -0.3106  0.6023 -0.5617
  255MPD2    C4 3918   0.906   4.380  10.037 -0.0103  0.3228 -0.1689
  255MPD2    C5 3919   0.773   4.393  10.070 -0.0635  0.2572 -0.8966
  255MPD2     H 3920   1.006   4.688  10.062 -0.2325  0.2687 -0.7423
  255MPD2    H1 3921   0.947   4.279  10.031 -0.5636  0.1512 -1.1301
  255MPD2    H2 3922   0.615   4.525  10.114 -0.1716 -0.4274  0.0077
  255MPD2    H3 3923   0.707   4.308  10.084  1.3613 -0.7198 -0.1554
  255MPD2     N 3924   1.136   4.471  10.001 -0.0961  0.0906 -0.3198
  255MPD2    H5 3925   1.193   4.554  10.018 -0.2569 -0.2669  1.9747
  255MPD2    N1 3926   0.750   0.012  10.136  0.0057 -0.1554  0.1464
  255MPD2    H7 3927   0.649   0.007  10.145  0.0654 -1.7946  0.0553
  256TMC3    C1 3928   0.739   0.240  10.175 -0.5249  0.2428 -0.3018
  256TMC3    C2 3929   0.806   0.352  10.121  0.3963 -0.2362  0.1415
  256TMC3    C3 3930   0.740   0.415  10.022 -0.2826  0.5343  0.6175
  256TMC3    C4 3931   0.603   0.223  10.154  0.7588  0.6447  0.3524
  256TMC3    C5 3932   0.534   0.305  10.069 -0.2490 -0.4331  0.2522
  256TMC3    C6 3933   0.607   0.404   9.997  0.0500 -0.1950  0.5655
  256TMC3     C 3934   0.819   0.119  10.173  0.2916 -0.4507  0.1113
  256TMC3     O 3935   0.937   0.139  10.174 -0.4609  0.5371 -0.9159
  256TMC3     H 3936   0.915   0.353  10.124  0.3438  1.6040  0.9582
  256TMC3    H1 3937   0.554   0.154  10.222 -0.8096  1.6738  0.2529
  256TMC3    H2 3938   0.552   0.468   9.930 -0.3831 -1.1220  0.0415
  256TMC3    C7 3939   0.419   0.235  10.021  0.2384 -0.4642  0.1032
  256TMC3    C8 3940   0.810   0.535   9.959  1.1806 -0.4938 -0.0276
  256TMC3    O1 3941   0.414   0.121  10.060  0.0241 -0.3405  0.0944
  256TMC3    O2 3942   0.891   0.597  10.030  0.3382  0.0907  0.6547
  257MPD2     C 3943   4.435   2.542  13.174  0.0698  0.1507  0.3469
  257MPD2    C1 3944   4.510   2.447  13.101 -0.3029 -0.7501  1.1810
  257MPD2    C2 3945   4.569   2.344  13.177 -0.1715 -0.4325 -0.8935
  257MPD2    C3 3946   4.550   2.321  13.318 -0.3121 -0.0505 -0.8870
  257MPD2    C4 3947   4.460   2.410  13.376  0.0544  0.5397  0.2470
  257MPD2    C5 3948   4.407   2.516  13.309 -0.3552  0.0773 -0.2235
  257MPD2     H 3949   4.632   2.271  13.128  0.8905 -1.0331  1.3260
  257MPD2    H1 3950   4.434   2.397  13.480  0.3080 -0.7092  0.1554
  257MPD2    H2 3951   4.404   2.636  13.130  0.5048  1.1202  2.1062
  257MPD2    H3 3952   4.340   2.575  13.372  0.2856  2.1358 -1.4689
  257MPD2     N 3953   4.618   2.210  13.374 -0.6128  0.2482  0.6605
  257MPD2    H5 3954   4.661   2.138  13.316  0.4517  1.1715  0.2795
  257MPD2    N1 3955   4.524   2.457  12.957 -0.1056 -0.1341  0.1476
  257MPD2    H7 3956   4.490   2.543  12.916 -1.0476  0.7602  2.7982
  258TMC3    C1 3957   4.697   2.071  13.555 -0.1941  0.2199  0.2266
  258TMC3    C2 3958   0.044   2.002  13.473  0.6481 -0.2940  0.4969
  258TMC3    C3 3959   0.116   1.895  13.523  0.0690  0.1506 -0.2467
  258TMC3    C4 3960   4.696   2.044  13.687  0.5425 -0.0126  0.0438
  258TMC3    C5 3961   0.038   1.940  13.736  0.1517 -0.5428  0.4075
  258TMC3    C6 3962   0.113   1.863  13.654  0.0323  0.1435  0.1021
  258TMC3     C 3963   4.624   2.192  13.510 -0.0886 -0.5983  0.0584
  258TMC3     O 3964   4.578   2.272  13.591  0.1905 -0.3419 -0.3005
  258TMC3     H 3965   0.041   2.009  13.365  0.0891 -1.5127  0.4315
  258TMC3    H1 3966   4.642   2.110  13.753  0.7048 -0.6340  0.8003
  258TMC3    H2 3967   0.154   1.771  13.694  0.5039  0.6056  0.6795
  258TMC3    C7 3968   0.050   1.937  13.880  0.4491  0.5721 -0.2416
  258TMC3    C8 3969   0.188   1.814  13.431  0.3303  0.6710 -0.2222
  258TMC3    O1 3970   4.696   1.987  13.945  0.0024  0.2168 -0.7187
  258TMC3    O2 3971   0.221   1.859  13.323  0.0589  0.3655  0.6669
  259MPD2     C 3972   3.677   4.054   0.605  0.2988 -0.2464 -0.2542
  259MPD2    C1 3973   3.747   3.934   0.583 -0.3105  0.2574 -0.0361
  259MPD2    C2 3974   3.797   3.908   0.458  0.2335  0.0887 -0.1023
  259MPD2    C3 3975   3.799   4.006   0.362  1.0024 -0.4769  0.4448
  259MPD2    C4 3976   3.748   4.127   0.391  0.4165 -0.1425  0.3147
  259MPD2    C5 3977   3.688   4.155   0.512 -0.1225  0.2197 -0.3522
  259MPD2     H 3978   3.841   3.811   0.439 -2.5024 -0.9021 -1.4037
  259MPD2    H1 3979   3.749   4.215   0.327 -1.0914 -1.2053 -1.1566
  259MPD2    H2 3980   3.613   4.071   0.691 -0.9959 -0.1597 -1.2365
  259MPD2    H3 3981   3.631   4.244   0.536 -0.5566  0.6517 -3.0315
  259MPD2     N 3982   3.856   3.972   0.231 -0.1006  0.0702  0.2334
  259MPD2    H5 3983   3.870   4.057   0.177 -2.6597 -0.9719 -2.0480
  259MPD2    N1 3984   3.759   3.848   0.693  0.3042  0.7662  0.0024
  259MPD2    H7 3985   3.700   3.873   0.772 -0.1242  0.1637 -0.1220
  260TMC3    C1 3986   3.917   3.849   0.036 -0.1787  0.1560  0.9373
  260TMC3    C2 3987   4.002   3.956   0.003 -0.1226 -0.0778 -0.4074
  260TMC3    C3 3988   4.114   3.915  17.680  0.1594  0.0204  0.2706
  260TMC3    C4 3989   3.940   3.725  17.738  0.1884 -0.6444  0.3093
  260TMC3    C5 3990   4.052   3.695  17.675 -0.4583 -0.4722 -0.1036
  260TMC3    C6 3991   4.140   3.792  17.635 -0.1802 -0.1820 -0.1868
  260TMC3     C 3992   3.874   3.847   0.176 -0.8507 -0.4541  1.4034
  260TMC3     O 3993   3.863   3.735   0.230  0.3244 -0.1497 -0.0049
  260TMC3     H 3994   3.978   4.055   0.039  0.1031 -0.1077 -0.1739
  260TMC3    H1 3995   3.866   3.649   0.018  1.2104 -1.8261 -0.2721
  260TMC3    H2 3996   4.232   3.781  17.579 -0.7893 -2.0241 -0.8474
  260TMC3    C7 3997   4.078   3.562  17.621 -0.2333  0.4222 -0.7661
  260TMC3    C8 3998   4.230   3.964   0.000  0.0965  0.5158  0.4744
  260TMC3    O1 3999   4.148   3.548  17.519 -0.0527 -0.0208  0.3728
  260TMC3    O2 4000   4.240   4.083   0.026 -0.4389 -0.5682  0.3658
  261MPD2     C 4001   0.732   2.062  13.093 -1.0736 -0.5858  0.3613
  261MPD2    C1 4002   0.821   2.022  12.994 -0.2261  0.6836  0.0137
  261MPD2    C2 4003   0.788   2.038  12.862 -0.1078  0.6544 -0.6323
  261MPD2    C3 4004   0.680   2.111  12.820 -0.0731 -0.5294 -0.5327
  261MPD2    C4 4005   0.594   2.150  12.925  0.7167 -0.3234 -0.7064
  261MPD2    C5 4006   0.614   2.123  13.051  0.2912 -0.3081 -0.3113
  261MPD2     H 4007   0.853   2.003  12.782  1.5897 -0.1793  1.0936
  261MPD2    H1 4008   0.511   2.217  12.907  2.2611  2.1181  1.2157
  261MPD2    H2 4009   0.759   2.049  13.198 -0.5744 -1.0871  0.1731
  261MPD2    H3 4010   0.552   2.173  13.124  0.0660 -1.1190  0.0453
  261MPD2     N 4011   0.681   2.151  12.687 -0.5335  0.2332  0.3720
  261MPD2    H5 4012   0.737   2.093  12.625  0.9434  0.6780  1.3027
  261MPD2    N1 4013   0.940   1.953  13.028  0.4096  0.1291 -0.2590
  261MPD2    H7 4014   0.998   1.920  12.951 -0.7272 -3.2103  0.3256
  262TMC3    C1 4015   0.636   2.264  12.491 -0.8390  0.3655 -0.4036
  262TMC3    C2 4016   0.628   2.389  12.444  0.0523  0.4524  0.3869
  262TMC3    C3 4017   0.697   2.406  12.329  0.2219 -0.3549 -0.4335
  262TMC3    C4 4018   0.685   2.154  12.420  0.3721  0.1513  0.3923
  262TMC3    C5 4019   0.735   2.179  12.294 -0.1814 -0.5370 -0.1927
  262TMC3    C6 4020   0.752   2.307  12.248 -0.2590 -0.1396  0.1545
  262TMC3     C 4021   0.605   2.248  12.631  0.2526  0.0203 -0.0155
  262TMC3     O 4022   0.555   2.342  12.686 -0.0181  0.1740  0.0850
  262TMC3     H 4023   0.578   2.464  12.503 -2.2743 -0.0988 -0.9073
  262TMC3    H1 4024   0.687   2.052  12.459 -1.2120  0.3858  1.0855
  262TMC3    H2 4025   0.803   2.338  12.157 -0.3578  1.5190  0.6522
  262TMC3    C7 4026   0.736   2.069  12.205  0.2395 -0.0791  0.2847
  262TMC3    C8 4027   0.682   2.527  12.262 -0.4660 -0.1551 -0.4389
  262TMC3    O1 4028   0.668   1.972  12.239  0.0053 -0.0604  0.2795
  262TMC3    O2 4029   0.782   2.580  12.218 -0.4600 -0.0836 -0.2259
  263MPD2     C 4030   2.021   1.701  11.926  0.1814  0.2160 -0.4039
  263MPD2    C1 4031   2.063   1.707  11.794  0.0767 -0.8030  0.2302
  263MPD2    C2 4032   1.970   1.698  11.692  0.3932  0.7676 -0.7044
  263MPD2    C3 4033   1.834   1.687  11.718 -0.5868  0.6437 -0.1365
  263MPD2    C4 4034   1.791   1.680  11.851 -0.1379 -0.6368  0.0798
  263MPD2    C5 4035   1.891   1.686  11.949 -0.0002 -0.2970 -0.2377
  263MPD2     H 4036   2.011   1.702  11.592  0.6261  2.4191 -0.5525
  263MPD2    H1 4037   1.687   1.656  11.873  0.1094 -0.6783  1.1894
  263MPD2    H2 4038   2.086   1.675  12.009 -1.0528  1.8983  1.0863
  263MPD2    H3 4039   1.861   1.658  12.050  1.2835 -0.8196 -0.0058
  263MPD2     N 4040   1.751   1.671  11.600  0.4554 -0.2062  0.4861
  263MPD2    H5 4041   1.802   1.644  11.517 -0.4319  1.4373 -0.5851
  263MPD2    N1 4042   2.200   1.718  11.766 -0.2299  0.0956 -0.0972
  263MPD2    H7 4043   2.263   1.671  11.830 -0.4532  1.0833  0.8476
  264TMC3    C1 4044   1.557   1.625  11.470  0.7731  0.4866 -0.2097
  264TMC3    C2 4045   1.424   1.617  11.468  0.5177 -0.2428 -0.6153
  264TMC3    C3 4046   1.357   1.610  11.349 -0.0503 -0.1825 -0.2142
  264TMC3    C4 4047   1.630   1.593  11.360 -0.5670 -0.6647 -0.3302
  264TMC3    C5 4048   1.562   1.567  11.245  0.3840  0.3029  0.2208
  264TMC3    C6 4049   1.424   1.561  11.241 -0.2240 -0.3279  0.3632
  264TMC3     C 4050   1.612   1.675  11.596 -0.1283  0.7546 -0.1063
  264TMC3     O 4051   1.531   1.709  11.680  0.8100  0.2843 -0.2584
  264TMC3     H 4052   1.371   1.614  11.562 -0.3260 -1.1886 -1.1231
  264TMC3    H1 4053   1.737   1.606  11.354 -0.5411 -1.9237 -2.5110
  264TMC3    H2 4054   1.377   1.563  11.143 -0.5100 -0.4811  0.4982
  264TMC3    C7 4055   1.633   1.506  11.136 -0.4917 -0.6795  0.6382
  264TMC3    C8 4056   1.317   1.742  11.313  0.2796 -0.1504  0.9316
  264TMC3    O1 4057   1.747   1.546  11.108  0.0023 -0.1732 -0.1634
  264TMC3    O2 4058   1.306   1.779  11.196  0.6207  0.1046 -0.4471
  265MPD2     C 4059   3.379   1.818  15.477 -0.4408  0.5526 -0.2914
  265MPD2    C1 4060   3.458   1.922  15.446 -0.7906  0.0401  0.4657
  265MPD2    C2 4061   3.537   1.929  15.336  0.2122 -0.9929 -0.5947
  265MPD2    C3 4062   3.550   1.811  15.264  0.8222  0.6517  0.1395
  265MPD2    C4 4063   3.490   1.696  15.303  0.3439 -0.1036  0.1932
  265MPD2    C5 4064   3.409   1.701  15.410  0.4940 -0.3005  0.4257
  265MPD2     H 4065   3.586   2.018  15.300 -0.3282  0.5518  2.4630
  265MPD2    H1 4066   3.503   1.603  15.249  1.2725  0.9542 -1.4128
  265MPD2    H2 4067   3.314   1.805  15.563 -1.3466 -0.2477 -1.1074
  265MPD2    H3 4068   3.356   1.611  15.438  0.7350  0.0645  2.0180
  265MPD2     N 4069   3.618   1.816  15.143  0.3426  0.2339  0.6557
  265MPD2    H5 4070   3.611   1.734  15.083  1.4847  1.9844 -1.8510
  265MPD2    N1 4071   3.435   2.046  15.511 -0.2231  0.0836  0.6591
  265MPD2    H7 4072   3.502   2.122  15.503  0.5306 -0.6391  0.2205
  266TMC3    C1 4073   3.340   2.208  15.647 -0.2019  1.1079 -0.5287
  266TMC3    C2 4074   3.459   2.246  15.701  0.0549 -0.2629  0.2948
  266TMC3    C3 4075   3.465   2.375  15.746  0.3039 -0.2303  0.3945
  266TMC3    C4 4076   3.236   2.292  15.640 -0.2129  0.1455 -0.1935
  266TMC3    C5 4077   3.254   2.423  15.677 -0.7933 -0.0234  0.1216
  266TMC3    C6 4078   3.369   2.468  15.729 -0.6204 -0.8007  0.0393
  266TMC3     C 4079   3.326   2.076  15.592 -0.2357 -0.4365 -0.1890
  266TMC3     O 4080   3.217   2.021  15.593 -0.3869  0.0553 -0.1282
  266TMC3     H 4081   3.543   2.177  15.697 -1.0874 -1.6645  0.3584
  266TMC3    H1 4082   3.148   2.267  15.581 -1.2871  1.6818  0.7741
  266TMC3    H2 4083   3.367   2.568  15.770  2.5985  0.0397 -1.9247
  266TMC3    C7 4084   3.150   2.519  15.632  0.3307 -0.8433  0.1717
  266TMC3    C8 4085   3.588   2.401  15.804  0.3111  0.1218  0.2292
  266TMC3    O1 4086   3.032   2.481  15.628  0.1170 -0.8904 -0.1836
  266TMC3    O2 4087   3.665   2.309  15.809 -0.3290  0.3052  0.3638
  267MPD2     C 4088   1.116   4.070   0.537 -0.4489 -0.0346 -0.8674
  267MPD2    C1 4089   1.146   4.051   0.407  0.5120  0.1806 -0.1064
  267MPD2    C2 4090   1.062   4.106   0.316 -0.1555 -0.1889 -0.4942
  267MPD2    C3 4091   0.958   4.187   0.346  0.8516  0.0131 -0.3158
  267MPD2    C4 4092   0.936   4.210   0.481 -0.0509  0.4061 -0.0250
  267MPD2    C5 4093   1.015   4.151   0.572 -0.1358  0.1609  0.1225
  267MPD2     H 4094   1.083   4.089   0.212  0.2399 -2.0708 -0.1115
  267MPD2    H1 4095   0.854   4.262   0.529  0.4903 -0.2707  1.6397
  267MPD2    H2 4096   1.181   4.028   0.614  0.9910  1.3819 -1.3291
  267MPD2    H3 4097   0.999   4.161   0.678  1.6872 -0.4009  0.4417
  267MPD2     N 4098   0.884   4.241   0.241  0.1138 -0.3600 -0.4385
  267MPD2    H5 4099   0.908   4.209   0.147  1.5422  1.9524 -0.8720
  267MPD2    N1 4100   1.259   3.981   0.376 -0.1346 -0.7381 -0.0967
  267MPD2    H7 4101   1.317   3.973   0.458  1.7666 -1.8315 -1.5550
  268TMC3    C1 4102   1.424   3.871   0.241 -0.0778  0.1462  1.0858
  268TMC3    C2 4103   1.515   3.893   0.143  0.1055 -0.2857 -0.2290
  268TMC3    C3 4104   1.635   3.831   0.145 -0.1233  0.0328 -0.1680
  268TMC3    C4 4105   1.448   3.777   0.342 -1.1902  0.0475 -0.1185
  268TMC3    C5 4106   1.570   3.713   0.339  0.0760  0.8090  0.2663
  268TMC3    C6 4107   1.667   3.737   0.244 -0.1556  0.4760 -0.2307
  268TMC3     C 4108   1.308   3.960   0.245  0.3810  0.0784  0.3524
  268TMC3     O 4109   1.260   3.986   0.133 -0.0280  0.9443 -0.2368
  268TMC3     H 4110   1.490   3.965   0.067 -1.0769  1.4638  1.8209
  268TMC3    H1 4111   1.374   3.744   0.414 -1.7668 -2.7203 -1.9829
  268TMC3    H2 4112   1.756   3.678   0.258 -0.8201 -0.4974 -0.1175
  268TMC3    C7 4113   1.606   3.624   0.448 -0.7699 -0.1005 -0.4832
  268TMC3    C8 4114   1.740   3.846   0.050  0.1294  0.0162 -0.1700
  268TMC3    O1 4115   1.693   3.539   0.428 -0.3736  0.9102 -0.0053
  268TMC3    O2 4116   1.842   3.783   0.075 -0.2570  0.1675  0.2045
  269MPD2     C 4117   1.744   2.617  15.483  0.6249  0.0546  0.3649
  269MPD2    C1 4118   1.655   2.672  15.571 -0.5264  0.7571 -0.6455
  269MPD2    C2 4119   1.565   2.769  15.526  0.1194  0.1763 -0.2468
  269MPD2    C3 4120   1.587   2.821  15.402 -0.2359 -0.1644 -0.4271
  269MPD2    C4 4121   1.678   2.765  15.314  0.3273 -0.1288  0.0109
  269MPD2    C5 4122   1.750   2.658  15.352  0.2516  0.1244 -0.3964
  269MPD2     H 4123   1.488   2.813  15.590 -0.9965 -0.9350 -0.8320
  269MPD2    H1 4124   1.692   2.798  15.212  0.5387  1.5838  0.6007
  269MPD2    H2 4125   1.807   2.536  15.517 -0.7824 -1.1238  0.1870
  269MPD2    H3 4126   1.820   2.610  15.285  1.2792  0.9983  0.0406
  269MPD2     N 4127   1.489   2.918  15.373 -0.5055  0.1298  0.6862
  269MPD2    H5 4128   1.426   2.946  15.447 -0.1958 -2.1154  1.7794
  269MPD2    N1 4129   1.646   2.618  15.702 -0.1216  0.1326 -0.2509
  269MPD2    H7 4130   1.716   2.549  15.727 -1.5208 -0.6903  1.4298
  270TMC3    C1 4131   1.535   2.547  15.906 -0.2628 -0.0554 -0.3550
  270TMC3    C2 4132   1.435   2.564  15.999 -0.3824 -0.4619  0.4614
  270TMC3    C3 4133   1.420   2.466  16.095  0.2142 -0.1692  0.3503
  270TMC3    C4 4134   1.611   2.440  15.900  0.2792  0.1071  0.3342
  270TMC3    C5 4135   1.582   2.337  15.992  0.1505  0.2599 -0.0972
  270TMC3    C6 4136   1.494   2.350  16.090 -0.1270  0.0548  0.1793
  270TMC3     C 4137   1.548   2.646  15.801  0.1444 -0.1991  0.0951
  270TMC3     O 4138   1.467   2.737  15.810  0.1611  0.1573  1.2336
  270TMC3     H 4139   1.361   2.642  16.012  0.5472  0.6133 -0.7290
  270TMC3    H1 4140   1.697   2.432  15.835 -0.4406 -0.0850 -0.5960
  270TMC3    H2 4141   1.468   2.271  16.160  0.4807 -1.1511 -0.9719
  270TMC3    C7 4142   1.623   2.200  15.960  0.0737 -0.0766 -0.2266
  270TMC3    C8 4143   1.307   2.475  16.184 -0.5478 -0.3567 -0.6065
  270TMC3    O1 4144   1.605   2.115  16.041  0.0845  0.0211  0.5637
  270TMC3    O2 4145   1.331   2.459  16.303 -0.0792 -0.7234  0.1851
  271MPD2     C 4146   0.892   2.110  13.966 -0.4736  0.5368 -0.5080
  271MPD2    C1 4147   0.855   2.167  14.088 -0.1097 -0.0269 -0.2587
  271MPD2    C2 4148   0.762   2.271  14.083  0.1023  0.4293  0.0808
  271MPD2    C3 4149   0.711   2.311  13.963 -0.4815 -0.2488 -0.2102
  271MPD2    C4 4150   0.768   2.269  13.847 -0.0946  0.1031  0.2267
  271MPD2    C5 4151   0.853   2.166  13.846 -0.3388 -0.2175  0.1830
  271MPD2     H 4152   0.730   2.304  14.182  1.6006  0.0397  0.6965
  271MPD2    H1 4153   0.732   2.305  13.751 -0.4838  0.5648  0.5437
  271MPD2    H2 4154   0.947   2.017  13.967 -0.0728  0.7849  0.9016
  271MPD2    H3 4155   0.889   2.130  13.751 -0.1355 -0.0914  0.2109
  271MPD2     N 4156   0.593   2.395  13.949  0.1978  1.0970  0.6981
  271MPD2    H5 4157   0.567   2.417  13.853 -0.5719 -3.7982 -0.1862
  271MPD2    N1 4158   0.905   2.120  14.211  0.3809 -0.3330 -0.1130
  271MPD2    H7 4159   0.852   2.132  14.297  2.2632  1.2557  0.8208
  272TMC3    C1 4160   1.028   1.989  14.363  0.2290  0.3780 -0.3679
  272TMC3    C2 4161   1.112   1.884  14.380  0.4843  0.5276  0.5103
  272TMC3    C3 4162   1.149   1.842  14.503 -0.2885  0.1813 -0.0579
  272TMC3    C4 4163   0.964   2.044  14.468  0.0913  0.3532 -0.5507
  272TMC3    C5 4164   0.997   1.992  14.593 -0.0700  0.6586 -0.0214
  272TMC3    C6 4165   1.082   1.887  14.612  0.0930  0.2568 -0.0072
  272TMC3     C 4166   1.008   2.035  14.228 -0.1823  0.1953 -0.3504
  272TMC3     O 4167   1.087   1.986  14.148 -0.2113  0.1119  0.1160
  272TMC3     H 4168   1.142   1.826  14.293 -0.2500  0.1397  0.5152
  272TMC3    H1 4169   0.892   2.126  14.466 -0.1161  0.1789 -0.2631
  272TMC3    H2 4170   1.087   1.844  14.712 -0.8035 -0.3165 -0.2055
  272TMC3    C7 4171   0.911   2.025  14.702  0.2051 -0.3716  0.1065
  272TMC3    C8 4172   1.212   1.710  14.504 -0.5842  0.1426  0.2067
  272TMC3    O1 4173   0.896   1.942  14.790  0.1096  0.0613 -0.7335
  272TMC3    O2 4174   1.225   1.660  14.399  0.1573 -0.2884  0.1972
  273MPD2     C 4175   2.401   0.360  12.029 -0.1353 -0.0642  0.6067
  273MPD2    C1 4176   2.444   0.490  12.014 -0.6831  0.2435 -0.6024
  273MPD2    C2 4177   2.386   0.563  11.916  0.1824 -0.0830 -0.1454
  273MPD2    C3 4178   2.301   0.504  11.816  0.0588 -0.1565  0.1465
  273MPD2    C4 4179   2.266   0.367  11.822  0.1659 -0.2140  0.2584
  273MPD2    C5 4180   2.312   0.305  11.936 -1.0542  0.2565 -0.3317
  273MPD2     H 4181   2.411   0.669  11.911  0.0924  0.0347  1.6918
  273MPD2    H1 4182   2.204   0.322  11.745  0.1520  0.5304 -0.1677
  273MPD2    H2 4183   2.452   0.297  12.101  4.3828  2.5375 -0.2851
  273MPD2    H3 4184   2.288   0.201  11.952 -1.6199  0.9470  3.3236
  273MPD2     N 4185   2.254   0.577  11.704 -0.3373  0.2782 -0.0337
  273MPD2    H5 4186   2.216   0.526  11.625 -0.3153 -1.0076  0.7834
  273MPD2    N1 4187   2.529   0.536  12.110  0.0901 -0.4152  0.0778
  273MPD2    H7 4188   2.583   0.469  12.163  0.2633 -0.8952 -0.7153
  274TMC3    C1 4189   2.245   0.748  11.548 -0.3093  0.4980 -0.4622
  274TMC3    C2 4190   2.121   0.739  11.488  0.0574  0.5566  0.2224
  274TMC3    C3 4191   2.103   0.813  11.376 -0.4389 -0.5022  0.4041
  274TMC3    C4 4192   2.348   0.829  11.517 -0.0187 -0.4411  0.3961
  274TMC3    C5 4193   2.327   0.897  11.398  0.0086  0.0291 -0.6543
  274TMC3    C6 4194   2.208   0.890  11.335  0.1685 -0.3580 -0.5575
  274TMC3     C 4195   2.265   0.712  11.687 -0.3432 -0.4775 -0.3743
  274TMC3     O 4196   2.300   0.800  11.770 -0.5132  0.0494  0.1031
  274TMC3     H 4197   2.034   0.687  11.528  1.0362 -1.5786 -0.4699
  274TMC3    H1 4198   2.429   0.843  11.587  1.0511  0.0498 -0.9392
  274TMC3    H2 4199   2.201   0.942  11.240 -1.0582  1.3605  0.4623
  274TMC3    C7 4200   2.395   1.026  11.393  1.1037 -0.1280  1.0467
  274TMC3    C8 4201   1.995   0.783  11.289 -0.6640 -0.4391 -0.1605
  274TMC3    O1 4202   2.328   1.123  11.369 -0.1732 -0.1765  0.2487
  274TMC3    O2 4203   1.965   0.881  11.222  0.1477 -0.1932  0.3779
  275MPD2     C 4204   2.472   2.386  14.753  0.0632 -0.1976 -0.0251
  275MPD2    C1 4205   2.400   2.492  14.801 -0.2166  0.0002  0.4307
  275MPD2    C2 4206   2.271   2.502  14.751 -0.2349  0.5471  0.2390
  275MPD2    C3 4207   2.210   2.411  14.668  0.9391  0.1489  0.4634
  275MPD2    C4 4208   2.279   2.300  14.632  0.6361 -0.0044 -0.2269
  275MPD2    C5 4209   2.416   2.298  14.663 -0.1137 -0.4840 -0.2071
  275MPD2     H 4210   2.212   2.581  14.798 -2.4344 -0.8613 -0.1409
  275MPD2    H1 4211   2.236   2.217  14.576 -0.1802  0.9496 -1.0110
  275MPD2    H2 4212   2.575   2.371  14.783  0.2786 -0.8797 -1.1223
  275MPD2    H3 4213   2.477   2.223  14.614  0.0058 -0.2014 -0.4950
  275MPD2     N 4214   2.078   2.426  14.630 -0.2523  0.1486 -0.6412
  275MPD2    H5 4215   2.031   2.344  14.593 -1.1211  1.3075 -2.1181
  275MPD2    N1 4216   2.442   2.580  14.899  0.9571 -0.3788  0.0877
  275MPD2    H7 4217   2.383   2.663  14.902  1.1131 -0.2373 -0.7626
  276TMC3    C1 4218   2.568   2.696  15.057  0.6527 -0.0446  1.1513
  276TMC3    C2 4219   2.443   2.717  15.108 -0.1366 -0.0158  0.1791
  276TMC3    C3 4220   2.410   2.843  15.156 -0.3884  0.1968 -0.2208
  276TMC3    C4 4221   2.663   2.793  15.041  0.0482  0.2637 -0.2306
  276TMC3    C5 4222   2.623   2.912  15.097  1.3615  1.2035 -0.0905
  276TMC3    C6 4223   2.500   2.941  15.156  0.4816 -0.4321  0.0567
  276TMC3     C 4224   2.566   2.586  14.959  0.6151  0.5496 -0.5679
  276TMC3     O 4225   2.664   2.517  14.946 -0.0553  0.6322  0.2863
  276TMC3     H 4226   2.380   2.629  15.113 -1.9662  1.2697 -0.2376
  276TMC3    H1 4227   2.756   2.770  14.990 -1.0873 -2.9760 -0.8228
  276TMC3    H2 4228   2.480   3.038  15.200  2.1719 -0.5861  1.1545
  276TMC3    C7 4229   2.725   3.011  15.121  0.1425  0.4434 -0.3761
  276TMC3    C8 4230   2.274   2.883  15.157 -0.0291  0.2356  0.2993
  276TMC3    O1 4231   2.717   3.080  15.224 -0.8469  0.1406  0.0252
  276TMC3    O2 4232   2.249   2.995  15.188 -0.3939  0.3208  0.8757
  277MPD2     C 4233   4.190   2.347  13.096  0.3237  0.4744  0.4592
  277MPD2    C1 4234   4.068   2.394  13.135  0.7443  0.5906 -0.6763
  277MPD2    C2 4235   3.990   2.309  13.208 -0.8495 -0.0086  0.0536
  277MPD2    C3 4236   4.045   2.201  13.275  0.7671  0.5211  0.2315
  277MPD2    C4 4237   4.172   2.163  13.247  0.5948 -0.2164  0.1759
  277MPD2    C5 4238   4.245   2.230  13.151  0.1926  0.0354 -0.4513
  277MPD2     H 4239   3.883   2.327  13.213 -0.3704  2.7457  0.3605
  277MPD2    H1 4240   4.221   2.075  13.289 -0.0647  0.2803  1.9740
  277MPD2    H2 4241   4.254   2.401  13.027 -0.7528 -0.3010 -1.1450
  277MPD2    H3 4242   4.339   2.186  13.119  1.0408 -0.2367  2.3756
  277MPD2     N 4243   3.952   2.134  13.355 -1.4900 -0.7806 -0.9705
  277MPD2    H5 4244   3.856   2.164  13.359 -1.1771 -0.2526  3.0029
  277MPD2    N1 4245   4.021   2.514  13.078 -0.5263 -0.4012 -0.6494
  277MPD2    H7 4246   4.074   2.551  13.000  0.6900  3.0726  1.8276
  278TMC3    C1 4247   3.855   1.972  13.491 -0.6737 -0.6883 -0.2443
  278TMC3    C2 4248   3.854   1.844  13.533  0.0305 -0.2224  0.4119
  278TMC3    C3 4249   3.762   1.789  13.618 -0.1806 -0.0590 -0.0585
  278TMC3    C4 4250   3.754   2.052  13.522 -0.0597  0.4060 -0.1474
  278TMC3    C5 4251   3.654   1.991  13.589 -0.3122 -0.2582  0.4569
  278TMC3    C6 4252   3.650   1.869  13.644 -0.8706  0.1674 -0.0462
  278TMC3     C 4253   3.978   2.021  13.427  0.6259 -0.1010 -0.4224
  278TMC3     O 4254   4.080   1.961  13.453  0.5567 -0.2427  0.0813
  278TMC3     H 4255   3.943   1.786  13.515  0.8965  0.7089  1.6881
  278TMC3    H1 4256   3.757   2.159  13.503 -0.2234  0.5800  0.8045
  278TMC3    H2 4257   3.571   1.840  13.712 -3.0499  1.1885 -2.1622
  278TMC3    C7 4258   3.530   2.076  13.580  0.8171 -0.4868  0.4409
  278TMC3    C8 4259   3.767   1.653  13.647 -0.3231  0.0689  0.2912
  278TMC3    O1 4260   3.541   2.199  13.580 -0.3577 -0.2386  0.5011
  278TMC3    O2 4261   3.876   1.599  13.656  0.3886  0.3731 -0.4062
  279MPD2     C 4262   3.331   2.660  17.649  0.0379  0.0507 -0.1218
  279MPD2    C1 4263   3.252   2.552  17.652  0.0338 -0.5136  0.0460
  279MPD2    C2 4264   3.301   2.435  17.601 -0.4761  0.1620 -0.3419
  279MPD2    C3 4265   3.428   2.444  17.549  0.4849 -0.7524  0.3579
  279MPD2    C4 4266   3.507   2.556  17.552 -0.2268  0.3510  0.6613
  279MPD2    C5 4267   3.460   2.666  17.607  0.0814 -0.1498  0.4157
  279MPD2     H 4268   3.231   2.353  17.589  0.3017 -0.4891 -0.3754
  279MPD2    H1 4269   3.603   2.567  17.503 -0.6214 -1.3345 -0.4576
  279MPD2    H2 4270   3.290   2.749  17.696  2.8979  0.9596  0.6692
  279MPD2    H3 4271   3.525   2.752  17.614 -0.1259 -0.0728  1.4150
  279MPD2     N 4272   3.484   2.352  17.461 -0.0618 -0.0134 -0.0819
  279MPD2    H5 4273   3.548   2.388  17.391 -0.8644 -2.4207 -2.0406
  279MPD2    N1 4274   3.122   2.576  17.711  0.2290 -0.0708  0.4090
  279MPD2    H7 4275   3.093   2.671  17.733 -0.7900  0.0214 -1.3232
  280TMC3    C1 4276   2.896   2.521   0.004  0.0885  0.3128 -0.3581
  280TMC3    C2 4277   2.814   2.428   0.069  0.2244  0.0165  0.9061
  280TMC3    C3 4278   2.708   2.469   0.147 -0.1345 -0.3035 -0.4048
  280TMC3    C4 4279   2.866   2.656   0.020 -0.4829 -0.1755 -0.8097
  280TMC3    C5 4280   2.750   2.695   0.080  0.2456 -0.1763 -0.1085
  280TMC3    C6 4281   2.674   2.603   0.151  0.0898 -0.2503  0.0401
  280TMC3     C 4282   3.031   2.477  17.718  0.5763 -0.0127  0.1959
  280TMC3     O 4283   3.040   2.357  17.699 -0.3255  0.9734  0.1250
  280TMC3     H 4284   2.849   2.325   0.065  0.6332  0.2041 -0.3887
  280TMC3    H1 4285   2.911   2.732  17.703  0.2315 -1.0535 -1.3599
  280TMC3    H2 4286   2.576   2.632   0.188  0.7613  2.0053  0.0010
  280TMC3    C7 4287   2.694   2.826   0.058  0.1937 -0.7651  0.8589
  280TMC3    C8 4288   2.611   2.367   0.185 -0.9645 -0.2259  0.3062
  280TMC3    O1 4289   2.672   2.907   0.149 -0.1132  0.3785  0.3727
  280TMC3    O2 4290   2.527   2.400   0.265  0.5963  0.0688  0.5978
  281TMC3    C1 4291   2.381   2.501  13.683  0.2094 -0.2513  0.0988
  281TMC3    C2 4292   2.379   2.513  13.547 -0.3167  0.7221  0.0502
  281TMC3    C3 4293   2.404   2.405  13.472 -0.1980 -0.5169 -0.9145
  281TMC3    C4 4294   2.396   2.381  13.744  0.6285 -0.1151  0.1229
  281TMC3    C5 4295   2.418   2.273  13.663 -0.2295  0.5743  0.7389
  281TMC3    C6 4296   2.437   2.282  13.523  0.5504 -0.0760  0.5491
  281TMC3     C 4297   2.297   2.592  13.764 -0.0869 -0.6619 -0.9394
  281TMC3     O 4298   2.266   2.562  13.877 -0.3588 -0.2143 -0.0234
  281TMC3     H 4299   2.364   2.608  13.498  0.0050  0.1679 -1.1192
  281TMC3    H1 4300   2.374   2.373  13.850  0.7507 -1.9816  0.0034
  281TMC3    H2 4301   2.453   2.190  13.468 -2.4606 -0.6220  0.5848
  281TMC3    C7 4302   2.427   2.142  13.730  0.1838 -0.3462  0.2906
  281TMC3    C8 4303   2.380   2.420  13.328 -0.0965 -0.0795  0.3240
  281TMC3    O1 4304   2.516   2.061  13.693  0.3551 -0.3198 -0.2080
  281TMC3    O2 4305   2.323   2.529  13.303 -0.0504 -0.0110 -0.3324
  282MPD2     C 4306   3.960   3.736  14.941 -0.8308  0.5772  0.3488
  282MPD2    C1 4307   3.832   3.773  14.973  0.1228 -0.1295  0.0336
  282MPD2    C2 4308   3.739   3.753  14.871 -0.1372  0.1482  0.0058
  282MPD2    C3 4309   3.767   3.685  14.756 -0.7230  0.4163  0.0049
  282MPD2    C4 4310   3.898   3.646  14.733  1.0510 -0.2026 -0.4545
  282MPD2    C5 4311   3.993   3.671  14.830  0.2226 -0.2247  0.8320
  282MPD2     H 4312   3.642   3.801  14.873 -0.4292 -0.4369  0.0550
  282MPD2    H1 4313   3.921   3.582  14.649 -0.3727 -2.9207  1.2354
  282MPD2    H2 4314   4.035   3.751  15.017 -0.1391  2.4170 -0.6851
  282MPD2    H3 4315   4.098   3.645  14.817  0.1981  0.6889 -1.2400
  282MPD2     N 4316   3.657   3.646  14.670 -0.1760 -0.0522  0.1865
  282MPD2    H5 4317   3.570   3.693  14.695 -1.0045 -1.0725 -0.7756
  282MPD2    N1 4318   3.804   3.830  15.102  0.3481 -0.4873  0.0078
  282MPD2    H7 4319   3.707   3.850  15.123  0.4800  0.2637 -0.1082
  283TMC3    C1 4320   3.826   3.888  15.332  0.5271 -0.3837  0.6131
  283TMC3    C2 4321   3.881   3.986  15.411 -0.4763  0.4959  0.7888
  283TMC3    C3 4322   3.844   3.988  15.542  0.2616  0.3608  0.7028
  283TMC3    C4 4323   3.728   3.803  15.368  0.0311  0.4581  0.9037
  283TMC3    C5 4324   3.687   3.811  15.501 -0.9206 -0.1453  1.0020
  283TMC3    C6 4325   3.749   3.898  15.588  0.2242  0.1227 -0.3873
  283TMC3     C 4326   3.890   3.869  15.202  0.5206  0.6949 -0.0996
  283TMC3     O 4327   4.010   3.885  15.198  0.0387 -0.0737  0.1249
  283TMC3     H 4328   3.960   4.051  15.374 -1.1132 -0.1065 -1.6229
  283TMC3    H1 4329   3.696   3.728  15.297  1.2182  0.8122 -0.0016
  283TMC3    H2 4330   3.711   3.914  15.687  1.5389  0.2579  0.1028
  283TMC3    C7 4331   3.602   3.707  15.551 -0.0731 -0.2402  0.1850
  283TMC3    C8 4332   3.855   4.105  15.624 -0.2867  0.8625 -0.8674
  283TMC3    O1 4333   3.589   3.714  15.671  0.1894 -0.4164 -0.4970
  283TMC3    O2 4334   3.871   4.085  15.743  0.2920  0.6310 -0.5022
  284MPD2     C 4335   1.688   3.098  12.005 -0.3758  0.0537 -0.0483
  284MPD2    C1 4336   1.781   3.163  11.924 -0.5007  0.5362 -0.1668
  284MPD2    C2 4337   1.912   3.154  11.960  0.2434  0.3947 -0.1124
  284MPD2    C3 4338   1.949   3.077  12.075 -0.5827 -0.9048  0.0554
  284MPD2    C4 4339   1.855   3.020  12.161 -0.0486 -0.0386 -0.1142
  284MPD2    C5 4340   1.728   3.041  12.126 -0.6308  0.0580  0.7378
  284MPD2     H 4341   1.995   3.199  11.906 -0.4044  1.3508 -0.3165
  284MPD2    H1 4342   1.871   2.983  12.262  0.7541  0.0380 -0.2191
  284MPD2    H2 4343   1.582   3.096  11.982 -0.1572 -0.2494 -1.0093
  284MPD2    H3 4344   1.648   3.014  12.195 -1.7161 -0.8698 -0.8887
  284MPD2     N 4345   2.085   3.061  12.111  0.4325 -0.1802 -0.0148
  284MPD2    H5 4346   2.100   3.025  12.205 -0.5365  3.4620  1.5218
  284MPD2    N1 4347   1.750   3.230  11.804 -0.3285 -0.0624 -0.4737
  284MPD2    H7 4348   1.824   3.283  11.758  1.7109 -1.1338  1.5635
  285TMC3    C1 4349   1.656   3.261  11.598 -0.0989 -0.4442 -0.1607
  285TMC3    C2 4350   1.661   3.171  11.499  0.2933  0.0090  0.3410
  285TMC3    C3 4351   1.758   3.195  11.400 -0.0844 -0.0038  0.1180
  285TMC3    C4 4352   1.742   3.368  11.602 -0.1317 -0.2687 -0.5031
  285TMC3    C5 4353   1.822   3.393  11.495  0.2633  0.3587  0.4558
  285TMC3    C6 4354   1.838   3.303  11.399 -0.0250 -0.2472  0.0449
  285TMC3     C 4355   1.637   3.203  11.734 -0.4685  0.6101 -0.1055
  285TMC3     O 4356   1.555   3.110  11.743  0.8443  0.7935  0.3129
  285TMC3     H 4357   1.609   3.076  11.502 -2.0527  1.2773 -0.3971
  285TMC3    H1 4358   1.741   3.438  11.685  1.6708 -0.6721 -0.1482
  285TMC3    H2 4359   1.920   3.312  11.329 -0.2580  2.6110  0.1296
  285TMC3    C7 4360   1.889   3.517  11.494  0.2063  0.3156 -0.6390
  285TMC3    C8 4361   1.791   3.082  11.322 -0.3022 -0.8393  0.3505
  285TMC3    O1 4362   1.836   3.615  11.546 -0.0054 -0.5290 -0.2649
  285TMC3    O2 4363   1.695   3.019  11.280  0.1655  0.1633  0.3004
  286MPD2     C 4364   2.210   1.753   1.530 -0.0583  0.5586  0.0998
  286MPD2    C1 4365   2.204   1.813   1.401  0.1748 -0.2815 -0.0402
  286MPD2    C2 4366   2.277   1.756   1.302  0.2549  0.6002 -0.3284
  286MPD2    C3 4367   2.347   1.641   1.318 -0.3440 -0.5005  0.3805
  286MPD2    C4 4368   2.344   1.570   1.441 -0.6128 -0.5713  0.2180
  286MPD2    C5 4369   2.272   1.627   1.540 -0.4357 -0.1138  0.2151
  286MPD2     H 4370   2.272   1.805   1.205 -0.4933 -2.2518 -1.7402
  286MPD2    H1 4371   2.400   1.478   1.454  0.2817  0.0127  0.4481
  286MPD2    H2 4372   2.164   1.793   1.619 -0.3572  2.3974 -0.8894
  286MPD2    H3 4373   2.264   1.587   1.641  2.4806 -0.6047  0.2712
  286MPD2     N 4374   2.435   1.591   1.215  0.1825  0.5953  0.9875
  286MPD2    H5 4375   2.500   1.522   1.253  0.3735  0.2813  0.0892
  286MPD2    N1 4376   2.152   1.949   1.378 -0.7439 -0.0119  0.0450
  286MPD2    H7 4377   2.177   1.991   1.289 -2.2004 -0.4870 -0.5885
  287TMC3    C1 4378   2.529   1.548   0.999  0.3729 -0.1613  0.0210
  287TMC3    C2 4379   2.476   1.502   0.881  0.4376  0.3194  0.1014
  287TMC3    C3 4380   2.548   1.403   0.817  1.0022  0.1437  0.0609
  287TMC3    C4 4381   2.651   1.504   1.047 -0.2153 -0.0788 -0.3701
  287TMC3    C5 4382   2.714   1.394   0.993  0.5828 -0.8646 -0.8561
  287TMC3    C6 4383   2.664   1.350   0.875 -0.4109 -0.1686  0.8719
  287TMC3     C 4384   2.435   1.627   1.084  0.8269 -0.2650  0.4555
  287TMC3     O 4385   2.355   1.700   1.031 -0.3128  0.8251 -0.5190
  287TMC3     H 4386   2.370   1.518   0.864  0.3097 -0.0623  0.5263
  287TMC3    H1 4387   2.680   1.530   1.148 -0.2060  0.1517 -0.4325
  287TMC3    H2 4388   2.705   1.265   0.822 -0.8364  2.5066 -3.7768
  287TMC3    C7 4389   2.800   1.311   1.075  0.0322 -0.9376  0.0098
  287TMC3    C8 4390   2.480   1.326   0.714 -0.7438 -0.2504  0.2746
  287TMC3    O1 4391   2.827   1.348   1.192  0.1050 -0.1104 -0.2907
  287TMC3    O2 4392   2.531   1.215   0.698 -0.1056 -0.0734  0.6486
  288TMC3    C1 4393   3.828   1.816  14.244 -1.1229  1.0428  0.1449
  288TMC3    C2 4394   3.748   1.853  14.352 -0.0304 -0.5410  0.2584
  288TMC3    C3 4395   3.684   1.962  14.368 -0.4023  0.0398  0.2787
  288TMC3    C4 4396   3.846   1.916  14.146  0.0816 -0.4459  0.2849
  288TMC3    C5 4397   3.781   2.033  14.169 -0.0779 -0.0200 -0.1260
  288TMC3    C6 4398   3.701   2.061  14.280 -0.7900 -0.4874 -0.3087
  288TMC3     C 4399   3.835   1.677  14.193 -0.2868 -0.3065 -0.3245
  288TMC3     O 4400   3.846   1.659  14.076 -0.3643 -0.5043  0.4679
  288TMC3     H 4401   3.753   1.783  14.434  0.4338 -0.9759 -0.1364
  288TMC3    H1 4402   3.889   1.890  14.050  2.0152 -0.4383  1.1531
  288TMC3    H2 4403   3.642   2.152  14.288  1.4382  0.8760  0.6965
  288TMC3    C7 4404   3.761   2.130  14.061  0.0934 -0.3890 -1.0191
  288TMC3    C8 4405   3.629   1.989  14.491 -0.6998 -0.4724 -0.2653
  288TMC3    O1 4406   3.643   2.178  14.047  0.3914  0.0776  0.3882
  288TMC3    O2 4407   3.649   2.098  14.539  0.1941  0.3569  0.4921
  289MPD2     C 4408   3.988   0.690  14.364  0.2851 -0.1465 -0.0549
  289MPD2    C1 4409   3.942   0.794  14.447 -0.0130 -0.6977 -0.8136
  289MPD2    C2 4410   3.808   0.797  14.482 -0.2604 -0.7159 -0.2157
  289MPD2    C3 4411   3.727   0.689  14.439  0.3356  0.1115 -0.5827
  289MPD2    C4 4412   3.784   0.580  14.375 -0.4326 -0.0111 -0.1322
  289MPD2    C5 4413   3.910   0.587  14.332  0.1725 -0.4232  0.3219
  289MPD2     H 4414   3.768   0.876  14.544  0.4236 -0.7834  0.3116
  289MPD2    H1 4415   3.714   0.504  14.344 -1.4736  0.5784  0.7600
  289MPD2    H2 4416   4.088   0.689  14.321  0.3809 -0.5617  0.1816
  289MPD2    H3 4417   3.946   0.516  14.258 -1.8238 -1.8347  0.6789
  289MPD2     N 4418   3.583   0.689  14.459  0.2493  0.4302 -0.1172
  289MPD2    H5 4419   3.536   0.611  14.414  0.9536 -0.8620  1.3840
  289MPD2    N1 4420   4.039   0.888  14.489 -0.7981  0.5187 -0.1754
  289MPD2    H7 4421   4.125   0.866  14.441 -2.0582 -0.9023 -1.7717
  290TMC3    C1 4422   3.368   0.788  14.458 -0.0932 -0.0257  0.3538
  290TMC3    C2 4423   3.301   0.894  14.407 -0.1546  0.0817 -0.0771
  290TMC3    C3 4424   3.191   0.877  14.334 -0.6336  0.2320 -0.6872
  290TMC3    C4 4425   3.313   0.666  14.447  0.2844  0.4284  0.0603
  290TMC3    C5 4426   3.199   0.650  14.372  0.0553 -0.4574 -0.1412
  290TMC3    C6 4427   3.141   0.755  14.310 -0.1804  0.6239 -0.3856
  290TMC3     C 4428   3.513   0.806  14.478  0.6998 -0.3231  0.0010
  290TMC3     O 4429   3.554   0.920  14.466 -0.2058 -0.0354 -0.1873
  290TMC3     H 4430   3.347   0.991  14.421  1.4753 -0.5207 -1.3206
  290TMC3    H1 4431   3.350   0.576  14.495 -0.0288  0.2078 -0.1093
  290TMC3    H2 4432   3.059   0.746  14.240  1.2730  0.0095 -2.0090
  290TMC3    C7 4433   3.117   0.526  14.375 -0.0953 -0.3340 -0.2897
  290TMC3    C8 4434   3.155   0.984  14.248 -0.4553  0.7308 -0.3540
  290TMC3    O1 4435   2.993   0.535  14.378 -0.2798 -0.7906 -0.3747
  290TMC3    O2 4436   3.105   0.961  14.137  0.0223 -0.3597 -0.7692
  291MPD2     C 4437   3.322   0.740   0.486  0.2670 -0.7954 -0.5226
  291MPD2    C1 4438   3.428   0.686   0.421  0.6910  0.0517  1.1616
  291MPD2    C2 4439   3.479   0.754   0.307 -0.0827 -0.2955  0.0212
  291MPD2    C3 4440   3.419   0.869   0.254  0.1271 -0.4209  0.5997
  291MPD2    C4 4441   3.311   0.921   0.325  0.4639  0.6364  0.4763
  291MPD2    C5 4442   3.268   0.853   0.437  0.3203 -0.6737 -0.3332
  291MPD2     H 4443   3.570   0.715   0.263 -1.8189 -2.8396 -1.3354
  291MPD2    H1 4444   3.251   1.005   0.291  1.8266  0.9390 -1.1708
  291MPD2    H2 4445   3.274   0.687   0.567 -4.2044  1.8240 -1.4804
  291MPD2    H3 4446   3.182   0.889   0.493  1.1559  1.8844 -0.6945
  291MPD2     N 4447   3.467   0.928   0.135  0.1475 -0.1130  0.0213
  291MPD2    H5 4448   3.411   1.008   0.109 -1.0928 -0.6926  0.8884
  291MPD2    N1 4449   3.473   0.556   0.461 -0.7799 -0.9162 -0.0639
  291MPD2    H7 4450   3.441   0.519   0.550  0.5502 -0.1105  0.7565
  292TMC3    C1 4451   3.541   0.333   0.449 -0.1834  0.5231 -0.3981
  292TMC3    C2 4452   3.488   0.324   0.572  0.4531 -0.2636 -0.9602
  292TMC3    C3 4453   3.375   0.248   0.592  0.1114 -0.7857 -0.1955
  292TMC3    C4 4454   3.503   0.244   0.350  0.2976 -0.5394  0.0958
  292TMC3    C5 4455   3.409   0.149   0.386 -0.2646 -0.2804  0.0433
  292TMC3    C6 4456   3.349   0.145   0.509 -0.4976  0.0144 -0.1061
  292TMC3     C 4457   3.546   0.466   0.392 -0.6569 -0.1503 -0.0753
  292TMC3     O 4458   3.598   0.476   0.278 -0.3619  0.4427  0.9409
  292TMC3     H 4459   3.526   0.385   0.654 -0.4102 -1.5774  0.4188
  292TMC3    H1 4460   3.557   0.235   0.257  2.4042  2.3029  1.0351
  292TMC3    H2 4461   3.272   0.078   0.546 -0.7565  0.3261 -0.0786
  292TMC3    C7 4462   3.382   0.042   0.299  0.3403  0.6686  0.0166
  292TMC3    C8 4463   3.312   0.259   0.729 -0.0279  0.3393  0.5273
  292TMC3    O1 4464   3.479   0.010   0.228 -0.0609  0.1780  0.0265
  292TMC3    O2 4465   3.389   0.299   0.816 -0.1037  0.8525  0.9356
  293MPD2     C 4466   0.108   2.279  12.479  0.2420  0.3906  0.4528
  293MPD2    C1 4467   0.064   2.196  12.572 -0.4923 -0.0985 -0.0866
  293MPD2    C2 4468   0.100   2.215  12.707 -0.1410 -0.1019  0.1620
  293MPD2    C3 4469   0.174   2.323  12.745 -0.1147  0.0718 -0.7507
  293MPD2    C4 4470   0.207   2.417  12.647  0.0928  0.2986 -0.1384
  293MPD2    C5 4471   0.175   2.390  12.516 -0.0449  0.0466  0.1700
  293MPD2     H 4472   0.062   2.146  12.782 -0.3501 -1.4572 -1.2101
  293MPD2    H1 4473   0.270   2.500  12.676  3.8901 -1.8070 -2.2036
  293MPD2    H2 4474   0.088   2.255  12.375 -1.1467 -0.6341  0.9539
  293MPD2    H3 4475   0.214   2.458  12.441  0.0879 -0.5752 -0.3281
  293MPD2     N 4476   0.202   2.352  12.881  0.4547 -0.4711  0.3113
  293MPD2    H5 4477   0.171   2.281  12.948 -1.1937  0.6781  0.7750
  293MPD2    N1 4478   4.727   2.081  12.525  0.5417 -0.2461  0.2443
  293MPD2    H7 4479   4.708   2.077  12.425  0.6957  1.0316  0.1654
  294TMC3    C1 4480   4.609   1.876  12.550  0.6839  0.2287  0.4576
  294TMC3    C2 4481   4.486   1.836  12.592  0.5421  0.4505 -0.2636
  294TMC3    C3 4482   4.415   1.748  12.515  0.1892  0.1697  0.0595
  294TMC3    C4 4483   4.656   1.826  12.436  0.3366  0.5165  0.0088
  294TMC3    C5 4484   4.582   1.745  12.357  0.3291  0.3728 -0.3955
  294TMC3    C6 4485   4.454   1.718  12.388 -0.0225 -0.0252 -0.7936
  294TMC3     C 4486   4.664   1.990  12.611  0.5791 -0.1895  0.6402
  294TMC3     O 4487   4.650   1.996  12.732  0.0192 -0.2159 -0.1131
  294TMC3     H 4488   4.449   1.863  12.691 -1.7941 -1.9202 -0.5029
  294TMC3    H1 4489   0.017   1.856  12.399  0.2228 -1.3190 -1.7942
  294TMC3    H2 4490   4.393   1.654  12.326 -0.8955  2.5348 -2.5899
  294TMC3    C7 4491   4.630   1.700  12.230  0.2716 -0.7785 -0.1089
  294TMC3    C8 4492   4.287   1.704  12.554  0.0540 -0.1287 -0.0485
  294TMC3    O1 4493   4.577   1.604  12.179  0.2413 -0.2867  0.4879
  294TMC3    O2 4494   4.223   1.785  12.623 -0.3947  0.2733 -0.3631
  295MPD2     C 4495   1.515   1.175   0.811  0.3239 -0.5046 -0.5615
  295MPD2    C1 4496   1.390   1.112   0.837  1.0391  0.4900  0.0937
  295MPD2    C2 4497   1.392   0.990   0.904  0.9385  0.8774 -0.1897
  295MPD2    C3 4498   1.514   0.944   0.952  0.5907  0.1187 -0.3326
  295MPD2    C4 4499   1.634   1.014   0.933 -0.5439  0.1945 -0.2962
  295MPD2    C5 4500   1.636   1.126   0.854  0.5050 -0.0382 -0.7005
  295MPD2     H 4501   1.300   0.945   0.936  0.0804  2.0502 -0.9877
  295MPD2    H1 4502   1.736   0.993   0.965 -1.0305 -0.0185  1.1219
  295MPD2    H2 4503   1.521   1.273   0.765  1.2350 -0.0608  0.5067
  295MPD2    H3 4504   1.728   1.182   0.842  0.8504 -0.7638 -1.5077
  295MPD2     N 4505   1.536   0.825   1.026  0.1944  0.1805  0.5112
  295MPD2    H5 4506   1.630   0.819   1.062  1.0645 -2.7051 -2.2253
  295MPD2    N1 4507   1.267   1.157   0.783  0.3351  0.8242  0.1614
  295MPD2    H7 4508   1.183   1.105   0.805  0.4411  0.4359 -0.3397
  296TMC3    C1 4509   1.524   0.591   1.072  1.1569  0.4720  0.2627
  296TMC3    C2 4510   1.651   0.601   1.123  0.0516 -0.0099 -0.7198
  296TMC3    C3 4511   1.706   0.479   1.160  0.0587  0.6173 -1.0060
  296TMC3    C4 4512   1.460   0.466   1.054  0.6789  0.2821  0.0023
  296TMC3    C5 4513   1.524   0.352   1.089  0.0351 -0.4065 -0.3395
  296TMC3    C6 4514   1.648   0.357   1.145 -0.7027 -0.6325 -0.5396
  296TMC3     C 4515   1.456   0.711   1.024 -0.1155 -0.8870  0.4615
  296TMC3     O 4516   1.347   0.690   0.978  0.2129 -0.1561  0.2242
  296TMC3     H 4517   1.714   0.688   1.109 -1.0852  0.8515 -0.5388
  296TMC3    H1 4518   1.365   0.468   1.001  0.7597  0.1909 -0.1450
  296TMC3    H2 4519   1.686   0.264   1.184  0.7122 -0.2677 -1.0507
  296TMC3    C7 4520   1.454   0.232   1.073  0.0988 -0.6989  0.2347
  296TMC3    C8 4521   1.810   0.480   1.261  0.4881 -0.0730  0.3568
  296TMC3    O1 4522   1.522   0.135   1.039 -0.0140 -0.0558 -0.0783
  296TMC3    O2 4523   1.866   0.374   1.292  0.3634  0.2346  0.1019
  297MPD2     C 4524   2.525   2.513  16.070  0.6628 -0.1289  0.3880
  297MPD2    C1 4525   2.558   2.593  15.960  0.6497 -0.2704 -0.3657
  297MPD2    C2 4526   2.686   2.646  15.957 -1.0496  0.5698  0.2526
  297MPD2    C3 4527   2.774   2.629  16.060 -0.3795  0.4408 -0.0120
  297MPD2    C4 4528   2.746   2.549  16.163 -0.1671 -0.5921 -0.2812
  297MPD2    C5 4529   2.622   2.491  16.165 -0.2103  0.4782 -0.8143
  297MPD2     H 4530   2.714   2.713  15.876 -0.0829  0.1415  0.2276
  297MPD2    H1 4531   2.820   2.530  16.240 -1.2059 -2.0130  0.3750
  297MPD2    H2 4532   2.432   2.458  16.084  0.6915 -0.5963 -1.2409
  297MPD2    H3 4533   2.600   2.430  16.252  2.2210  0.6870 -0.0661
  297MPD2     N 4534   2.889   2.712  16.055 -0.3941 -0.7461  0.4514
  297MPD2    H5 4535   2.901   2.770  15.972 -1.0592 -0.5449  0.4968
  297MPD2    N1 4536   2.464   2.611  15.857 -0.3061 -0.6377 -0.2179
  297MPD2    H7 4537   2.489   2.668  15.776  0.6609  2.5167  2.2546
  298TMC3    C1 4538   2.264   2.648  15.763  0.6463 -0.1915 -0.3650
  298TMC3    C2 4539   2.286   2.582  15.649 -0.1942  0.5818  0.3968
  298TMC3    C3 4540   2.187   2.598  15.550 -0.3215  0.3220  0.7475
  298TMC3    C4 4541   2.150   2.720  15.794  0.2630 -0.0986  0.1981
  298TMC3    C5 4542   2.066   2.741  15.695 -0.0220  0.1459 -0.0981
  298TMC3    C6 4543   2.074   2.674  15.576 -0.2906 -0.3926 -0.1206
  298TMC3     C 4544   2.334   2.603  15.877  1.1370 -0.0718 -0.2336
  298TMC3     O 4545   2.275   2.614  15.983  0.4061  0.0967 -0.1482
  298TMC3     H 4546   2.381   2.530  15.637  2.0466  4.2880  1.9568
  298TMC3    H1 4547   2.159   2.783  15.882  2.9248 -0.2710  0.0579
  298TMC3    H2 4548   1.990   2.687  15.508 -1.7765  2.1889  2.2386
  298TMC3    C7 4549   1.950   2.819  15.731 -0.1790  0.2018 -0.0663
  298TMC3    C8 4550   2.203   2.539  15.418  0.0770  0.1411  0.3136
  298TMC3    O1 4551   1.921   2.826  15.849  0.1348 -0.2981  0.4354
  298TMC3    O2 4552   2.130   2.575  15.328  0.5421 -0.0376 -0.0220
  299MPD2     C 4553   2.956   2.096  11.037 -0.4464  0.0277 -0.4362
  299MPD2    C1 4554   3.013   2.129  10.918  0.5343  0.2865 -0.4285
  299MPD2    C2 4555   2.939   2.136  10.801 -0.1690 -0.1841  0.3289
  299MPD2    C3 4556   2.800   2.118  10.805 -0.0311  0.5980 -0.4335
  299MPD2    C4 4557   2.751   2.082  10.927  0.2496  0.3650  0.2350
  299MPD2    C5 4558   2.823   2.083  11.045  0.1706 -0.2869  0.3313
  299MPD2     H 4559   2.986   2.160  10.706  2.4847 -2.4122  1.1005
  299MPD2    H1 4560   2.644   2.067  10.933  0.1264  0.7075 -1.1377
  299MPD2    H2 4561   3.011   2.107  11.130  0.1097 -0.4710 -0.7073
  299MPD2    H3 4562   2.770   2.076  11.140 -2.5813 -0.8115 -1.2607
  299MPD2     N 4563   2.719   2.121  10.692 -0.4003 -0.2642  0.2672
  299MPD2    H5 4564   2.620   2.106  10.710 -0.8484  0.8658 -1.3143
  299MPD2    N1 4565   3.150   2.158  10.922  0.3542  0.7265 -0.1007
  299MPD2    H7 4566   3.202   2.124  11.002 -0.5978  1.5763  0.8739
  300TMC3    C1 4567   2.636   2.144  10.473 -0.3229  0.9167 -0.3620
  300TMC3    C2 4568   2.639   2.199  10.346  0.1920 -0.1250  0.4435
  300TMC3    C3 4569   2.564   2.137  10.252  0.5024  0.0829  0.0380
  300TMC3    C4 4570   2.544   2.053  10.511  0.5924  0.1181 -0.4753
  300TMC3    C5 4571   2.454   2.013  10.418  0.2510  0.4499 -0.0037
  300TMC3    C6 4572   2.468   2.039  10.282  0.2509  0.0485  0.2824
  300TMC3     C 4573   2.751   2.161  10.564 -0.5986 -0.8981 -0.0838
  300TMC3     O 4574   2.850   2.205  10.512 -0.2014 -0.5814  0.5653
  300TMC3     H 4575   2.692   2.291  10.327  0.0421  0.8406  4.7372
  300TMC3    H1 4576   2.538   1.991  10.600 -0.1073 -2.8555 -2.5851
  300TMC3    H2 4577   2.394   2.002  10.213  2.3037 -2.0691 -0.7762
  300TMC3    C7 4578   2.339   1.927  10.443  0.1426 -0.0978 -0.2162
  300TMC3    C8 4579   2.531   2.217  10.135 -0.4683  0.4218 -0.7129
  300TMC3    O1 4580   2.300   1.855  10.349  0.0417  1.2651 -0.0213
  300TMC3    O2 4581   2.501   2.155  10.035 -0.6672  0.0171 -0.1478
  301MPD2     C 4582   0.874   4.001   1.366 -0.2100 -0.7704 -0.1022
  301MPD2    C1 4583   0.741   3.970   1.344 -0.0172 -0.6180  0.1345
  301MPD2    C2 4584   0.710   3.841   1.305 -0.1106 -0.0510 -0.2240
  301MPD2    C3 4585   0.808   3.747   1.284 -0.2098 -0.7007 -0.2453
  301MPD2    C4 4586   0.942   3.787   1.288  0.5223 -0.1261  0.5158
  301MPD2    C5 4587   0.970   3.907   1.343  0.0796  0.0057  0.1055
  301MPD2     H 4588   0.606   3.812   1.306  0.0097 -0.4607  0.3955
  301MPD2    H1 4589   1.021   3.713   1.286  0.3790 -0.2777  0.4099
  301MPD2    H2 4590   0.898   4.100   1.403  1.6553 -0.9418 -0.8584
  301MPD2    H3 4591   1.072   3.934   1.370  0.7112 -2.2297 -0.0203
  301MPD2     N 4592   0.787   3.617   1.240 -0.3440 -0.4849 -0.5744
  301MPD2    H5 4593   0.864   3.562   1.206 -2.1152 -2.9579 -0.5689
  301MPD2    N1 4594   0.636   4.054   1.370  0.4195  0.3636  0.0538
  301MPD2    H7 4595   0.545   4.015   1.351 -0.4925  2.5905 -0.1555
  302TMC3    C1 4596   0.654   3.437   1.148 -0.4855  0.2632 -0.0446
  302TMC3    C2 4597   0.720   3.332   1.205  0.0009  0.0043  0.4877
  302TMC3    C3 4598   0.649   3.222   1.207 -0.1605 -0.4127 -0.3774
  302TMC3    C4 4599   0.532   3.417   1.075  0.0750 -0.8498  0.5926
  302TMC3    C5 4600   0.481   3.297   1.072  0.1470  0.1092 -0.0605
  302TMC3    C6 4601   0.545   3.193   1.126  0.4234  0.0427 -0.3732
  302TMC3     C 4602   0.655   3.569   1.208 -0.5844 -0.0817  0.0264
  302TMC3     O 4603   0.545   3.628   1.214 -0.0858  0.1162  0.9971
  302TMC3     H 4604   0.791   3.341   1.287  1.4381 -0.3541 -0.7135
  302TMC3    H1 4605   0.485   3.503   1.028  2.8151 -0.8395 -2.0752
  302TMC3    H2 4606   0.508   3.092   1.115  1.6634 -0.3942 -0.4816
  302TMC3    C7 4607   0.380   3.270   0.969  0.5429 -0.1812  0.0893
  302TMC3    C8 4608   0.725   3.109   1.260 -0.0484  0.0939  0.0299
  302TMC3    O1 4609   0.366   3.152   0.938 -0.2449 -0.4537  0.3607
  302TMC3    O2 4610   0.847   3.116   1.279  0.1431  0.5496 -0.3362
  303MPD2     C 4611   0.873   1.285   9.686  0.0501  0.0896 -0.7425
  303MPD2    C1 4612   0.872   1.288   9.825 -0.2159  0.1390  0.0454
  303MPD2    C2 4613   0.873   1.409   9.888 -0.2449  0.0245 -0.0105
  303MPD2    C3 4614   0.885   1.527   9.816  0.2338  0.4513  0.2938
  303MPD2    C4 4615   0.899   1.519   9.676 -0.7982  0.4239 -0.8788
  303MPD2    C5 4616   0.889   1.398   9.610 -0.4542 -0.7264 -0.7932
  303MPD2     H 4617   0.885   1.412   9.995  2.9189  1.0285 -0.3940
  303MPD2    H1 4618   0.904   1.617   9.629 -2.4028  2.0096  2.2728
  303MPD2    H2 4619   0.867   1.192   9.630  0.9372 -1.3365  1.5319
  303MPD2    H3 4620   0.901   1.401   9.502  2.5413  0.2573 -0.4137
  303MPD2     N 4621   0.860   1.653   9.873 -0.5761  0.4665  0.0307
  303MPD2    H5 4622   0.856   1.727   9.803  0.0299 -0.3079 -0.8397
  303MPD2    N1 4623   0.850   1.166   9.894  0.6344  0.5345 -0.2501
  303MPD2    H7 4624   0.846   1.084   9.835  2.5408 -0.2872  0.7683
  304TMC3    C1 4625   0.784   1.008  10.057 -0.2151 -0.1264 -0.5141
  304TMC3    C2 4626   0.815   0.966  10.184  0.0466  0.1166  0.5181
  304TMC3    C3 4627   0.742   0.868  10.244  0.1258  0.3970 -0.1253
  304TMC3    C4 4628   0.696   0.952   9.970  0.2120 -0.0126  0.2025
  304TMC3    C5 4629   0.627   0.849  10.029  0.2817  0.3298  0.1811
  304TMC3    C6 4630   0.650   0.804  10.155 -0.1388  0.0111 -0.3230
  304TMC3     C 4631   0.835   1.140  10.035 -0.1190 -0.9134 -0.4650
  304TMC3     O 4632   0.871   1.214  10.127 -0.1965  0.3054  0.5224
  304TMC3     H 4633   0.869   1.032  10.251 -0.7068  0.2892  0.9597
  304TMC3    H1 4634   0.651   1.005   9.887  0.3187  0.0637  0.1937
  304TMC3    H2 4635   0.598   0.716  10.191  0.7989  0.1394  1.3111
  304TMC3    C7 4636   0.484   0.853   9.999  0.1834 -0.1880  0.5067
  304TMC3    C8 4637   0.676   0.906  10.363 -1.1909  0.2113 -0.0040
  304TMC3    O1 4638   0.457   0.872   9.880  0.1977  0.6052 -0.0947
  304TMC3    O2 4639   0.555   0.905  10.344  0.0544  0.1932  0.0695
  305MPD2     C 4640   3.569   3.807  14.051  0.3584  0.1286 -0.4835
  305MPD2    C1 4641   3.703   3.845  14.040 -0.1061  0.2778 -0.0500
  305MPD2    C2 4642   3.762   3.862  13.916  0.0135 -0.6034  0.0758
  305MPD2    C3 4643   3.696   3.814  13.803 -0.7272 -0.0366  0.1282
  305MPD2    C4 4644   3.563   3.783  13.808 -0.1794  0.3700  0.0020
  305MPD2    C5 4645   3.495   3.788  13.934  0.3022 -0.7624  0.4255
  305MPD2     H 4646   3.862   3.904  13.913 -0.8004  1.2158 -1.3396
  305MPD2    H1 4647   3.512   3.750  13.718  0.0097 -0.8040  0.3267
  305MPD2    H2 4648   3.524   3.800  14.150 -0.8630 -1.3921 -1.1538
  305MPD2    H3 4649   3.389   3.766  13.940 -0.0030  0.7654  0.7572
  305MPD2     N 4650   3.761   3.821  13.679  0.2129 -0.3956  0.3414
  305MPD2    H5 4651   3.702   3.820  13.597  1.2873  0.7775 -0.4432
  305MPD2    N1 4652   3.765   3.877  14.167  0.2450  0.0221 -0.2327
  305MPD2    H7 4653   3.705   3.861  14.248 -0.0220  0.2934 -0.3781
  306TMC3    C1 4654   3.939   3.903  14.319 -0.0036 -0.4880 -0.1596
  306TMC3    C2 4655   4.062   3.859  14.352 -0.1126 -0.5777 -0.0597
  306TMC3    C3 4656   4.104   3.853  14.487 -0.3514 -1.0266  0.8350
  306TMC3    C4 4657   3.848   3.948  14.413  0.1387 -0.0898  0.3502
  306TMC3    C5 4658   3.898   3.960  14.547  0.4677  0.4001  0.5260
  306TMC3    C6 4659   4.014   3.908  14.587 -0.0224  0.5991 -0.3600
  306TMC3     C 4660   3.898   3.906  14.183  0.6708 -0.8682  0.0866
  306TMC3     O 4661   3.987   3.906  14.095 -0.0188  0.2737 -0.4614
  306TMC3     H 4662   4.132   3.821  14.278  1.4436  0.9756  0.6125
  306TMC3    H1 4663   3.752   3.993  14.391  0.9677  0.7186 -1.6122
  306TMC3    H2 4664   4.034   3.900  14.693  1.3762  2.0878 -0.5181
  306TMC3    C7 4665   3.829   4.052  14.639  0.1702 -0.3359  0.3873
  306TMC3    C8 4666   4.221   3.767  14.520  0.2506  0.1273 -0.4075
  306TMC3    O1 4667   3.736   4.114  14.586 -0.1191  0.2754 -0.3851
  306TMC3    O2 4668   4.268   3.685  14.442  0.3267 -0.3739  0.5837
  307MPD2     C 4669   1.706   2.082   0.723  0.0790 -0.2480 -0.0721
  307MPD2    C1 4670   1.678   2.208   0.679 -0.0726 -0.8555  0.3483
  307MPD2    C2 4671   1.607   2.295   0.758  0.0426  1.0385  0.2438
  307MPD2    C3 4672   1.557   2.260   0.885 -0.8096  0.0716  0.6435
  307MPD2    C4 4673   1.580   2.131   0.927 -1.1475 -1.1487  0.0898
  307MPD2    C5 4674   1.652   2.045   0.847  0.3178 -1.1709 -0.4699
  307MPD2     H 4675   1.591   2.394   0.716 -0.9989  1.0758  0.7196
  307MPD2    H1 4676   1.551   2.093   1.024 -1.2216  1.5514  1.1214
  307MPD2    H2 4677   1.762   2.009   0.665  1.4488  0.2613  0.6301
  307MPD2    H3 4678   1.662   1.948   0.893 -3.7209 -0.4787  1.7976
  307MPD2     N 4679   1.480   2.353   0.958 -0.0890  0.8091  0.1052
  307MPD2    H5 4680   1.472   2.446   0.919 -3.2342 -0.1928 -1.6931
  307MPD2    N1 4681   1.718   2.260   0.561  0.0151  0.3743 -0.0147
  307MPD2    H7 4682   1.712   2.361   0.557 -2.2976  0.2397  0.3223
  308TMC3    C1 4683   1.090   2.463   1.157 -0.8717  0.1270  0.2252
  308TMC3    C2 4684   1.124   2.599   1.160  0.2128  0.7308  0.2279
  308TMC3    C3 4685   1.253   2.631   1.124 -0.2713 -0.6968 -0.4031
  308TMC3    C4 4686   1.189   2.366   1.140 -0.6686  0.1831 -0.0494
  308TMC3    C5 4687   1.315   2.409   1.118 -0.4847 -0.2980 -0.3506
  308TMC3    C6 4688   1.349   2.539   1.106  0.1965 -0.2290 -0.1195
  308TMC3     C 4689   0.950   2.420   1.157  0.2518  0.1004  0.8583
  308TMC3     O 4690   0.929   2.300   1.176 -0.1893 -0.5626  0.1630
  308TMC3     H 4691   1.046   2.673   1.174 -1.1379 -0.8957  1.3386
  308TMC3    H1 4692   1.161   2.262   1.153  0.6686 -0.3027 -1.0718
  308TMC3    H2 4693   1.451   2.574   1.112 -0.0736  0.3464  1.2919
  308TMC3    C7 4694   1.396   2.313   1.065 -0.3141  0.3861  0.5526
  308TMC3    C8 4695   1.295   2.757   1.163  0.8573  0.1705 -0.3001
  308TMC3    O1 4696   1.386   2.205   1.120  0.7903  0.2059 -0.1226
  308TMC3    O2 4697   1.244   2.795   1.273 -0.0234  0.1632  0.5031
  309MPD2     C 4698   0.834   2.479  17.173 -0.1436 -0.0791 -0.0616
  309MPD2    C1 4699   0.770   2.595  17.122 -0.2956  0.1460 -0.1474
  309MPD2    C2 4700   0.685   2.674  17.199  0.7279  0.1112 -0.0833
  309MPD2    C3 4701   0.675   2.641  17.333  0.2333 -1.0765 -0.3953
  309MPD2    C4 4702   0.744   2.542  17.384  1.0303  0.7556 -0.2779
  309MPD2    C5 4703   0.819   2.458  17.304  0.4727 -0.2481 -0.2249
  309MPD2     H 4704   0.634   2.760  17.159  1.7472 -0.0026 -1.6524
  309MPD2    H1 4705   0.759   2.516  17.489 -0.4324  1.8969  0.2146
  309MPD2    H2 4706   0.894   2.414  17.111  1.4455 -0.3998  1.8038
  309MPD2    H3 4707   0.877   2.380  17.352  0.8849  1.3659  1.9013
  309MPD2     N 4708   0.609   2.729  17.421  0.0901 -0.1199 -0.3772
  309MPD2    H5 4709   0.613   2.703  17.519 -3.0448  0.8969 -0.0072
  309MPD2    N1 4710   0.785   2.625  16.984 -0.0762  0.2907 -0.3082
  309MPD2    H7 4711   0.716   2.687  16.942 -0.1234  1.3574  1.3487
  310TMC3    C1 4712   0.894   2.617  16.769 -0.7401 -0.5628  0.2150
  310TMC3    C2 4713   0.846   2.743  16.733 -0.0015  0.4586  0.0889
  310TMC3    C3 4714   0.880   2.799  16.615  0.0845  0.2315  0.0809
  310TMC3    C4 4715   0.967   2.545  16.676  0.1976 -0.2104  0.2487
  310TMC3    C5 4716   0.976   2.601  16.550 -0.3562  0.4240 -0.7348
  310TMC3    C6 4717   0.955   2.736  16.522  0.0792 -0.3891  0.2712
  310TMC3     C 4718   0.891   2.577  16.907  0.1172 -0.2365  0.8774
  310TMC3     O 4719   0.973   2.486  16.920 -0.5255 -0.2226 -0.1742
  310TMC3     H 4720   0.784   2.795  16.805 -1.3760 -0.5300 -0.3839
  310TMC3    H1 4721   0.992   2.442  16.701 -0.2486 -0.3661  0.0601
  310TMC3    H2 4722   0.964   2.766  16.418 -0.7205 -0.3340  0.2137
  310TMC3    C7 4723   0.979   2.511  16.432 -0.3147 -0.0874  0.4158
  310TMC3    C8 4724   0.798   2.905  16.573 -0.2805  1.1941  0.2060
  310TMC3    O1 4725   0.976   2.565  16.322  0.0598 -0.0377 -0.0280
  310TMC3    O2 4726   0.692   2.932  16.633  0.0839 -0.1843 -0.4062
  311MPD2     C 4727   3.036   3.666  12.516 -0.0841 -0.0266 -0.0242
  311MPD2    C1 4728   3.003   3.776  12.587  0.5504 -0.3821  0.2811
  311MPD2    C2 4729   2.881   3.788  12.651 -1.5012 -0.0205  0.1008
  311MPD2    C3 4730   2.792   3.679  12.645  0.3319 -0.3645 -0.5672
  311MPD2    C4 4731   2.823   3.570  12.564  0.6837 -0.0547  1.1981
  311MPD2    C5 4732   2.948   3.565  12.500 -0.0661 -0.3773 -0.0940
  311MPD2     H 4733   2.852   3.878  12.702  1.0398  1.4591 -1.0580
  311MPD2    H1 4734   2.757   3.485  12.549  2.1591 -1.0749  0.4434
  311MPD2    H2 4735   3.131   3.647  12.467 -0.5940  1.0356 -1.4427
  311MPD2    H3 4736   2.976   3.480  12.439 -1.9813 -1.2912  0.3205
  311MPD2     N 4737   2.676   3.701  12.715 -0.3868 -0.0957  0.5280
  311MPD2    H5 4738   2.662   3.788  12.765 -1.0237 -0.1938  0.5179
  311MPD2    N1 4739   3.095   3.876  12.598 -1.0137 -0.0405 -0.2563
  311MPD2    H7 4740   3.075   3.936  12.677 -2.8149 -2.2787  0.9874
  312TMC3    C1 4741   2.450   3.690  12.765 -1.2566 -0.5403 -0.3775
  312TMC3    C2 4742   2.330   3.662  12.716 -0.2703 -0.1970  0.8973
  312TMC3    C3 4743   2.231   3.755  12.717  0.7022  0.3709 -0.3130
  312TMC3    C4 4744   2.465   3.822  12.810  0.2308  0.3167 -0.4558
  312TMC3    C5 4745   2.363   3.906  12.813  0.0169 -0.3320 -0.3300
  312TMC3    C6 4746   2.242   3.882  12.756  0.0524  0.2077 -0.4361
  312TMC3     C 4747   2.567   3.621  12.704 -0.2144 -0.1730  0.4130
  312TMC3     O 4748   2.546   3.525  12.630 -0.1474 -0.1669  0.4010
  312TMC3     H 4749   2.311   3.558  12.691 -3.2654  0.7436 -0.6855
  312TMC3    H1 4750   2.555   3.857  12.861 -0.1563  1.6306 -0.6710
  312TMC3    H2 4751   2.157   3.947  12.775 -0.0302 -0.8104  2.6969
  312TMC3    C7 4752   2.367   4.020  12.904 -0.3930 -0.3166  0.1304
  312TMC3    C8 4753   2.104   3.705  12.670  0.3035  0.1270 -0.7588
  312TMC3    O1 4754   2.301   4.115  12.874 -0.1747 -0.0909  0.3782
  312TMC3    O2 4755   2.093   3.585  12.687  0.4521 -0.8203  0.3189
  313MPD2     C 4756   1.695   3.392  11.056 -0.2261  0.6107 -0.1135
  313MPD2    C1 4757   1.820   3.459  11.039 -0.4967  0.1917 -0.5762
  313MPD2    C2 4758   1.922   3.379  10.987 -0.6558 -0.3582  0.5355
  313MPD2    C3 4759   1.903   3.238  10.982 -0.1027  0.4762 -0.6657
  313MPD2    C4 4760   1.783   3.178  10.992 -1.0574 -0.1534  0.0620
  313MPD2    C5 4761   1.678   3.254  11.032 -0.1616 -0.1489  0.0428
  313MPD2     H 4762   2.021   3.419  10.974 -1.2096  0.8637  0.0903
  313MPD2    H1 4763   1.766   3.071  10.980 -2.5875  0.2698 -1.5264
  313MPD2    H2 4764   1.613   3.445  11.103 -0.0503  0.6184  0.1852
  313MPD2    H3 4765   1.585   3.200  11.050 -0.4005  0.1577 -0.2585
  313MPD2     N 4766   2.024   3.164  10.961 -0.0946  0.8030  0.4578
  313MPD2    H5 4767   2.111   3.216  10.963  0.1241  0.2827  3.8990
  313MPD2    N1 4768   1.839   3.596  11.066 -0.1506 -0.0545 -0.7782
  313MPD2    H7 4769   1.936   3.625  11.061  0.8840 -2.6485  3.8561
  314TMC3    C1 4770   1.791   3.811  11.163 -0.2488  0.2662  0.7413
  314TMC3    C2 4771   1.922   3.834  11.143 -0.0646 -0.0510 -0.2101
  314TMC3    C3 4772   1.952   3.959  11.085  0.0477 -0.3301  0.6277
  314TMC3    C4 4773   1.694   3.905  11.139 -0.1006 -0.3586  1.1087
  314TMC3    C5 4774   1.729   4.024  11.076 -0.4359  0.6791  0.0203
  314TMC3    C6 4775   1.858   4.050  11.043 -0.0920 -0.5203 -0.1914
  314TMC3     C 4776   1.746   3.682  11.116  0.1004  0.0643  0.2902
  314TMC3     O 4777   1.625   3.664  11.137  0.1912 -0.1360 -0.1042
  314TMC3     H 4778   1.999   3.770  11.183  1.3494  1.1963 -0.9098
  314TMC3    H1 4779   1.591   3.881  11.166 -0.2182 -1.7345 -0.5871
  314TMC3    H2 4780   1.897   4.145  11.011 -1.1298  0.2805  0.9331
  314TMC3    C7 4781   1.625   4.060  10.979  0.5114 -0.1359 -0.4763
  314TMC3    C8 4782   2.089   3.995  11.068 -0.5265  0.2161 -0.5711
  314TMC3    O1 4783   1.509   4.045  11.018 -0.0354 -0.7021 -0.0192
  314TMC3    O2 4784   2.107   4.109  11.043  0.4999 -0.1649 -0.3407
  315MPD2     C 4785   1.935   3.142   0.033  0.1695  0.0763 -0.1760
  315MPD2    C1 4786   2.009   3.035   0.001 -0.1584 -0.1282  0.8560
  315MPD2    C2 4787   2.011   2.993  17.617  0.3074 -0.6161 -0.6203
  315MPD2    C3 4788   1.944   3.058  17.519  1.0816 -0.0296  0.0956
  315MPD2    C4 4789   1.876   3.174  17.547  0.3138 -0.6385 -0.1247
  315MPD2    C5 4790   1.866   3.213  17.679  0.5776 -0.1033 -0.2174
  315MPD2     H 4791   2.052   2.897  17.586 -0.4536 -0.7992 -1.0787
  315MPD2    H1 4792   1.833   3.235  17.468  2.5113  0.3556 -0.5507
  315MPD2    H2 4793   1.928   3.171   0.137 -1.0168 -1.2008  0.1007
  315MPD2    H3 4794   1.807   3.301  17.700  1.3523  0.2632  0.4330
  315MPD2     N 4795   1.948   3.003  17.388  0.7256  0.6519  0.4914
  315MPD2    H5 4796   1.992   2.911  17.391 -2.6991 -0.9627  0.7174
  315MPD2    N1 4797   2.068   2.953   0.093  0.5250  0.1003  0.3475
  315MPD2    H7 4798   2.125   2.877   0.057 -0.9005 -1.0367  0.5074
  316TMC3    C1 4799   1.996   3.016  17.160  0.0638 -0.3721 -0.9129
  316TMC3    C2 4800   2.122   2.978  17.200 -0.1304  0.1728 -0.2093
  316TMC3    C3 4801   2.219   3.055  17.150 -0.3945  0.3484 -0.5406
  316TMC3    C4 4802   1.976   3.084  17.042 -0.4341 -0.2239 -0.0003
  316TMC3    C5 4803   2.088   3.134  16.978 -0.5586  0.5195  0.2018
  316TMC3    C6 4804   2.202   3.136  17.042 -0.1633  0.8741  0.2239
  316TMC3     C 4805   1.918   3.068  17.269  0.6408 -0.3130  0.2162
  316TMC3     O 4806   1.877   3.180  17.260  0.6565 -0.1370  0.2260
  316TMC3     H 4807   2.139   2.926  17.294 -0.9436 -0.3681 -0.3604
  316TMC3    H1 4808   1.884   3.094  16.985  0.3638  1.7071 -0.9517
  316TMC3    H2 4809   2.291   3.186  17.005 -0.1894 -0.2596 -1.3381
  316TMC3    C7 4810   2.108   3.089  16.842 -0.0265 -0.2520  0.4411
  316TMC3    C8 4811   2.313   3.110  17.250 -0.5855 -1.0781  0.7161
  316TMC3    O1 4812   2.224   3.060  16.817 -0.0573  0.5129 -0.3985
  316TMC3    O2 4813   2.322   3.232  17.252  0.0276 -0.1588  0.2179
  317MPD2     C 4814   3.940   0.677  12.581 -0.5887  0.5249  0.1494
  317MPD2    C1 4815   4.046   0.595  12.548 -0.3738  0.0947 -0.4997
  317MPD2    C2 4816   4.148   0.579  12.639 -0.3584  0.2405  0.0916
  317MPD2    C3 4817   4.142   0.632  12.769  0.2381 -0.1289  0.5563
  317MPD2    C4 4818   4.037   0.716  12.798 -0.0437 -0.3932  0.8891
  317MPD2    C5 4819   3.942   0.750  12.697 -1.1060  0.3812 -0.2750
  317MPD2     H 4820   4.233   0.517  12.615  0.1068  0.5583  0.9286
  317MPD2    H1 4821   4.021   0.746  12.901  0.5952 -1.9395  1.4497
  317MPD2    H2 4822   3.871   0.697  12.499 -1.8370 -1.8716  0.6056
  317MPD2    H3 4823   3.869   0.828  12.717 -0.1699  1.1321  0.1960
  317MPD2     N 4824   4.246   0.602  12.857 -0.2963 -0.6808  0.1727
  317MPD2    H5 4825   4.317   0.541  12.818 -0.5853 -0.5778 -0.5077
  317MPD2    N1 4826   4.062   0.524  12.426 -0.4837  0.2444 -0.9913
  317MPD2    H7 4827   4.153   0.484  12.401  0.6990  1.8333  0.8052
  318TMC3    C1 4828   4.373   0.592  13.054  0.1681  0.3238 -0.6300
  318TMC3    C2 4829   4.379   0.453  13.048  0.5692 -1.3911 -0.3061
  318TMC3    C3 4830   4.452   0.389  13.137 -0.2738  0.1050 -0.2842
  318TMC3    C4 4831   4.451   0.657  13.149  0.0844 -1.1217  0.4728
  318TMC3    C5 4832   4.541   0.586  13.223 -0.1511 -0.6090 -0.3391
  318TMC3    C6 4833   4.552   0.452  13.206  1.2504  0.8379 -0.1572
  318TMC3     C 4834   4.276   0.660  12.981 -0.2395  0.7370 -0.2401
  318TMC3     O 4835   4.220   0.752  13.041 -0.4250  0.1090  0.1017
  318TMC3     H 4836   4.303   0.399  12.994  0.4586 -1.0135 -0.5278
  318TMC3    H1 4837   4.444   0.761  13.181 -1.2750 -1.0786  0.0184
  318TMC3    H2 4838   4.621   0.392  13.265 -2.6887 -3.7238 -0.1414
  318TMC3    C7 4839   4.610   0.656  13.332  0.3965 -0.0285  0.4315
  318TMC3    C8 4840   4.427   0.251  13.171 -0.6925 -0.3951  0.2119
  318TMC3    O1 4841   4.561   0.765  13.373 -0.6335  0.6368  0.6245
  318TMC3    O2 4842   4.521   0.195  13.218 -0.4025  0.2021  0.5424
  319MPD2     C 4843   0.143   2.307  16.427  0.5523  0.1960  0.2465
  319MPD2    C1 4844   0.071   2.240  16.522  0.0563  0.3623  0.2017
  319MPD2    C2 4845   4.697   2.174  16.484 -0.4021 -0.3061  0.0551
  319MPD2    C3 4846   4.652   2.174  16.349  0.0249 -0.7869  0.6563
  319MPD2    C4 4847   4.718   2.250  16.252 -0.3052 -0.3429  0.1450
  319MPD2    C5 4848   0.100   2.307  16.297  0.2629 -0.2747  0.4152
  319MPD2     H 4849   4.642   2.126  16.564  0.8622  0.8278  1.5926
  319MPD2    H1 4850   4.675   2.260  16.153  0.3519 -0.3873 -0.1422
  319MPD2    H2 4851   0.234   2.359  16.455  0.5592  0.9082 -1.0909
  319MPD2    H3 4852   0.160   2.353  16.219 -0.7821  0.9088  0.3097
  319MPD2     N 4853   4.537   2.110  16.303 -0.2673  0.0481  0.3378
  319MPD2    H5 4854   4.505   2.126  16.208  1.2154 -0.1495 -0.1856
  319MPD2    N1 4855   0.104   2.236  16.662 -0.7051 -0.1665 -0.3384
  319MPD2    H7 4856   0.046   2.180  16.724  0.6114 -1.8295 -0.6118
  320TMC3    C1 4857   4.380   1.932  16.281  0.3009  0.5517 -0.0980
  320TMC3    C2 4858   4.344   1.970  16.155  0.5177  0.7132  0.5514
  320TMC3    C3 4859   4.265   1.883  16.081  0.4909 -0.0518  0.1137
  320TMC3    C4 4860   4.343   1.816  16.334  0.6107 -0.1880 -0.0501
  320TMC3    C5 4861   4.273   1.722  16.253  0.1179 -1.4240 -0.1345
  320TMC3    C6 4862   4.244   1.757  16.128 -0.0239 -0.6806 -0.0552
  320TMC3     C 4863   4.467   2.012  16.370  0.3057  0.4828 -0.3630
  320TMC3     O 4864   4.501   1.955  16.472  0.4233 -0.1745  0.7076
  320TMC3     H 4865   4.361   2.070  16.116  1.8247  0.6674  0.9998
  320TMC3    H1 4866   4.360   1.788  16.437  0.1348  3.1380  0.9035
  320TMC3    H2 4867   4.217   1.678  16.059  0.4105  0.0825 -1.1000
  320TMC3    C7 4868   4.292   1.577  16.277  0.8488 -0.1948 -0.4043
  320TMC3    C8 4869   4.188   1.938  15.971 -0.1409 -0.1494 -0.2209
  320TMC3    O1 4870   4.267   1.499  16.183  0.0111  0.5574 -0.4513
  320TMC3    O2 4871   4.224   2.044  15.920  0.6814  0.0543  0.9786
  321TMC3    C1 4872   0.177   2.302  16.871 -0.4408  0.0368  0.2386
  321TMC3    C2 4873   0.127   2.190  16.933 -0.3644 -0.2961 -0.5688
  321TMC3    C3 4874   0.068   2.196  17.053  0.5898 -0.6194 -0.1500
  321TMC3    C4 4875   0.186   2.417  16.947 -0.1524 -0.2031 -0.3718
  321TMC3    C5 4876   0.114   2.422  17.064 -0.2690  1.3336 -0.0253
  321TMC3    C6 4877   0.049   2.315  17.116 -0.0699 -0.4646  0.0413
  321TMC3     C 4878   0.209   2.304  16.724  0.2139  0.3465  0.1597
  321TMC3     O 4879   0.288   2.393  16.687 -0.2026 -0.2469 -0.4225
  321TMC3     H 4880   0.100   2.099  16.880  1.2267 -1.7117  1.0855
  321TMC3    H1 4881   0.202   2.514  16.901  0.8086 -0.1840  0.0088
  321TMC3    H2 4882   0.005   2.325  17.214  0.2577 -1.3237  0.2791
  321TMC3    C7 4883   0.194   2.481  17.165 -0.4273  0.6194  0.2731
  321TMC3    C8 4884   0.113   2.097  17.147 -0.1134  0.4310  0.5263
  321TMC3    O1 4885   0.303   2.514  17.129  0.0425  0.5265 -0.2010
  321TMC3    O2 4886   0.077   2.110  17.260 -0.2970  0.2429  0.1604
  322MPD2     C 4887   3.766   3.505  13.531 -1.1764  0.3688  0.3873
  322MPD2    C1 4888   3.777   3.422  13.639 -0.8148  0.6895  0.1988
  322MPD2    C2 4889   3.810   3.294  13.617 -0.3763 -0.1104 -0.3809
  322MPD2    C3 4890   3.837   3.244  13.483  0.3762  0.2147 -0.7545
  322MPD2    C4 4891   3.808   3.326  13.381  0.5441 -0.6756  0.1739
  322MPD2    C5 4892   3.775   3.458  13.408  0.1596 -0.5999 -0.1376
  322MPD2     H 4893   3.833   3.235  13.705  0.1665  0.2696 -0.2670
  322MPD2    H1 4894   3.814   3.292  13.279  1.7260 -1.4292  0.4866
  322MPD2    H2 4895   3.731   3.606  13.547 -2.4982 -0.1595  0.8050
  322MPD2    H3 4896   3.769   3.532  13.329  2.6291 -0.2662 -0.0226
  322MPD2     N 4897   3.901   3.122  13.464  0.9285 -0.3231 -0.1114
  322MPD2    H5 4898   3.919   3.072  13.551  2.9148 -0.7574 -0.7732
  322MPD2    N1 4899   3.790   3.471  13.766 -0.5365 -0.1709  0.3077
  322MPD2    H7 4900   3.807   3.571  13.779  2.0138 -0.3078 -2.0107
  323TMC3    C1 4901   3.832   3.474  13.993 -1.2308 -0.9004 -0.3066
  323TMC3    C2 4902   3.931   3.568  13.965  0.2888  0.1206  0.1691
  323TMC3    C3 4903   4.026   3.594  14.061 -0.1273  0.1867  0.1637
  323TMC3    C4 4904   3.817   3.429  14.123 -0.2151 -0.1344  0.0249
  323TMC3    C5 4905   3.906   3.472  14.220  0.2856 -0.7840  0.1022
  323TMC3    C6 4906   4.012   3.545  14.190  0.2204  0.2732 -0.3529
  323TMC3     C 4907   3.780   3.394  13.880 -0.2281  1.1420  0.4873
  323TMC3     O 4908   3.717   3.292  13.899  0.0964  0.3139  0.9452
  323TMC3     H 4909   3.950   3.604  13.865  1.0918  1.1485  0.6859
  323TMC3    H1 4910   3.738   3.361  14.152 -2.7503  1.7974 -2.3163
  323TMC3    H2 4911   4.086   3.579  14.261  0.1771 -2.4295  0.9809
  323TMC3    C7 4912   3.933   3.368  14.318  0.5887  0.1319  0.2401
  323TMC3    C8 4913   4.163   3.585  14.015 -0.2777 -0.2662 -0.0200
  323TMC3    O1 4914   3.841   3.290  14.345  0.2770 -0.2436 -0.8521
  323TMC3    O2 4915   4.235   3.522  14.089 -0.6841  0.0891 -0.2309
  324MPD2     C 4916   0.708   0.243  14.866  0.1216 -0.4262  0.2766
  324MPD2    C1 4917   0.729   0.147  14.772  1.7449 -0.0564 -0.3584
  324MPD2    C2 4918   0.622   0.064  14.736 -0.0674 -0.3615  0.1593
  324MPD2    C3 4919   0.496   0.091  14.786 -0.7296 -0.3344  0.5017
  324MPD2    C4 4920   0.480   0.189  14.886  1.3022  0.5367 -0.0628
  324MPD2    C5 4921   0.589   0.255  14.932 -0.0333  0.0908 -0.4025
  324MPD2     H 4922   0.627   4.729  14.655 -1.0661 -1.1212  0.7767
  324MPD2    H1 4923   0.383   0.225  14.917  1.7203 -0.1175  1.9505
  324MPD2    H2 4924   0.791   0.295  14.911 -0.9996  1.1019  0.5652
  324MPD2    H3 4925   0.579   0.346  14.990  0.2148 -1.7557  2.5161
  324MPD2     N 4926   0.370   0.046  14.741 -0.2221  0.2582 -0.6692
  324MPD2    H5 4927   0.287   0.087  14.782  0.7977  3.1737 -1.4833
  324MPD2    N1 4928   0.851   0.134  14.705  0.1182  0.1682  0.1809
  324MPD2    H7 4929   0.844   0.074  14.623  1.8095 -1.0455  0.9464
  325TMC3    C1 4930   0.208   4.663  14.632  0.2621  0.1244 -0.5263
  325TMC3    C2 4931   0.176   4.578  14.527 -0.4274 -0.3657 -0.2326
  325TMC3    C3 4932   0.046   4.560  14.503 -0.0982 -0.5288  0.3894
  325TMC3    C4 4933   0.115   4.717  14.719  0.7283  0.0233 -0.3227
  325TMC3    C5 4934   4.723   4.703  14.674  0.4268 -0.2797  0.1815
  325TMC3    C6 4935   4.681   4.620  14.575  0.4805 -0.4441 -1.0741
  325TMC3     C 4936   0.347   4.668  14.657  0.2382 -0.0651  0.3348
  325TMC3     O 4937   0.420   4.587  14.605 -0.0215  0.3243  0.0969
  325TMC3     H 4938   0.254   4.536  14.465  0.6628  0.1910  0.7774
  325TMC3    H1 4939   0.140   0.029  14.813 -0.4115  0.0712 -0.0355
  325TMC3    H2 4940   4.577   4.595  14.560  0.3482 -0.7960  0.5250
  325TMC3    C7 4941   4.630   0.014  14.774  0.2930 -0.9575 -0.1934
  325TMC3    C8 4942   0.018   4.463  14.405  0.4357 -0.6020 -0.7592
  325TMC3    O1 4943   4.665   0.037  14.889  0.1138  0.0644 -0.4759
  325TMC3    O2 4944   0.111   4.388  14.377  0.1381 -0.1181 -0.3453
  326MPD2     C 4945   1.488   1.239  11.435 -0.0014 -0.3331 -0.5670
  326MPD2    C1 4946   1.543   1.184  11.321 -0.0117  0.1722  0.7322
  326MPD2    C2 4947   1.680   1.185  11.305  0.9381  0.8698 -0.3722
  326MPD2    C3 4948   1.767   1.248  11.392 -0.4112 -0.1033 -0.0098
  326MPD2    C4 4949   1.713   1.311  11.499 -0.5225  0.1982 -0.4812
  326MPD2    C5 4950   1.576   1.305  11.520 -0.1776 -1.0563  0.1771
  326MPD2     H 4951   1.710   1.143  11.210  0.7629 -0.9430  0.3674
  326MPD2    H1 4952   1.773   1.353  11.579 -1.1945  0.4055 -0.0799
  326MPD2    H2 4953   1.384   1.229  11.465 -0.2409  0.8342 -0.9820
  326MPD2    H3 4954   1.536   1.339  11.615 -1.9803 -1.4371 -0.4365
  326MPD2     N 4955   1.901   1.278  11.348 -0.1589 -0.0162  0.8075
  326MPD2    H5 4956   1.947   1.343  11.411 -1.0055  2.8365 -1.4936
  326MPD2    N1 4957   1.465   1.110  11.223  0.1250 -0.1935 -0.6437
  326MPD2    H7 4958   1.516   1.060  11.151  0.8804 -0.0479 -0.2086
  327TMC3    C1 4959   1.298   1.024  11.106 -0.1856  0.4296  0.4470
  327TMC3    C2 4960   1.233   1.063  10.995  0.0148  0.1132 -0.1502
  327TMC3    C3 4961   1.236   0.974  10.886 -0.4095  0.3437  0.3763
  327TMC3    C4 4962   1.355   0.901  11.122 -0.4117  0.8029  0.1168
  327TMC3    C5 4963   1.330   0.808  11.022  0.2083  0.3363 -0.3318
  327TMC3    C6 4964   1.268   0.845  10.900 -0.9805  0.0862 -0.5988
  327TMC3     C 4965   1.329   1.118  11.206  0.2589  0.5755 -0.0822
  327TMC3     O 4966   1.247   1.198  11.250 -0.2849  0.0464 -0.3945
  327TMC3     H 4967   1.177   1.156  10.989 -1.1407 -0.5921 -0.2752
  327TMC3    H1 4968   1.394   0.875  11.220  1.2608  2.0331 -0.2190
  327TMC3    H2 4969   1.272   0.764  10.829 -1.2009  1.6972 -2.4365
  327TMC3    C7 4970   1.406   0.679  11.020  0.3674  0.6022 -0.6519
  327TMC3    C8 4971   1.204   1.037  10.759  0.3197 -0.6629  0.2441
  327TMC3    O1 4972   1.355   0.580  10.971  0.6047  0.7798  0.2732
  327TMC3    O2 4973   1.171   1.154  10.760 -0.0613  0.5271  0.1741
  328MPD2     C 4974   4.590   0.832  17.277  0.2481 -0.1060 -0.5372
  328MPD2    C1 4975   4.508   0.784  17.182 -0.3685 -0.1378  0.3958
  328MPD2    C2 4976   4.448   0.870  17.093  0.7462 -0.2314  0.2492
  328MPD2    C3 4977   4.461   1.008  17.101 -0.0642  0.5585 -0.2036
  328MPD2    C4 4978   4.541   1.056  17.204  0.0052  0.0387  0.3536
  328MPD2    C5 4979   4.613   0.969  17.285  0.3581 -0.8031 -0.1109
  328MPD2     H 4980   4.404   0.819  17.009  0.6943 -0.1538  0.2287
  328MPD2    H1 4981   4.574   1.159  17.216  0.2846  0.0777 -0.7469
  328MPD2    H2 4982   4.631   0.764  17.351 -0.3674 -0.0166 -0.1159
  328MPD2    H3 4983   4.668   1.011  17.369 -1.3406 -0.2479  0.7233
  328MPD2     N 4984   4.400   1.109  17.018  0.0772  0.5099  0.7768
  328MPD2    H5 4985   4.417   1.206  17.043  0.7664  0.7241 -0.5099
  328MPD2    N1 4986   4.480   0.643  17.179 -0.2399  0.3625  0.4534
  328MPD2    H7 4987   4.488   0.587  17.264  0.1505 -0.8600 -0.3798
  329TMC3    C1 4988   4.400   0.451  17.091 -0.3120 -0.9069 -0.0335
  329TMC3    C2 4989   4.274   0.453  17.135  0.0608  0.2349 -0.6950
  329TMC3    C3 4990   4.191   0.354  17.086 -0.7056  0.2798 -0.0596
  329TMC3    C4 4991   4.451   0.351  17.014  0.5391  0.2072 -0.3365
  329TMC3    C5 4992   4.369   0.247  16.972 -0.1054  0.1322  0.2692
  329TMC3    C6 4993   4.239   0.247  17.012 -0.1874 -0.0513 -0.2822
  329TMC3     C 4994   4.458   0.575  17.067 -0.2910  0.4815 -0.0020
  329TMC3     O 4995   4.491   0.598  16.951 -0.1240 -0.1888 -0.1942
  329TMC3     H 4996   4.243   0.551  17.169 -1.8493 -1.1736  1.6843
  329TMC3    H1 4997   4.557   0.351  16.990  0.8131  0.2343  0.9022
  329TMC3    H2 4998   4.170   0.186  16.955  0.1633 -0.1507 -0.6035
  329TMC3    C7 4999   4.420   0.178  16.856 -0.5086 -0.4906  0.1318
  329TMC3    C8 5000   4.048   0.382  17.069 -0.1305  0.1928 -0.0474
  329TMC3    O1 5001   4.512   0.234  16.800 -0.6916  0.2580  0.0341
  329TMC3    O2 5002   3.982   0.307  16.998  0.1921 -0.2740 -0.2814
  330TMC3    C1 5003   1.319   3.677   8.520 -0.2563  0.6382 -0.7654
  330TMC3    C2 5004   1.209   3.648   8.598 -0.0496  0.5112  0.1594
  330TMC3    C3 5005   1.225   3.610   8.731  0.3794  0.0787 -0.1382
  330TMC3    C4 5006   1.442   3.668   8.567  0.6162  0.8090 -0.6613
  330TMC3    C5 5007   1.458   3.624   8.695 -0.3922  0.5500 -0.5084
  330TMC3    C6 5008   1.351   3.604   8.783 -0.6552  0.6836  0.2376
  330TMC3     C 5009   1.306   3.794   8.436 -0.3681 -0.1165 -0.5088
  330TMC3     O 5010   1.380   3.892   8.464 -0.4324 -0.2345  0.4884
  330TMC3     H 5011   1.113   3.653   8.548  0.6727 -1.4745 -1.4371
  330TMC3    H1 5012   1.533   3.692   8.514  0.7920  1.3140 -0.1251
  330TMC3    H2 5013   1.374   3.584   8.887 -0.5311 -0.5961 -0.0381
  330TMC3    C7 5014   1.586   3.656   8.755 -0.4914  0.1909 -0.2021
  330TMC3    C8 5015   1.119   3.648   8.820  0.0441  1.0371  0.4642
  330TMC3    O1 5016   1.655   3.738   8.694  0.8304  0.2377 -0.7944
  330TMC3    O2 5017   1.006   3.660   8.772  0.3501  0.3338  0.2421
  331MPD2     C 5018   0.540   3.865  13.153 -0.0601 -0.1398 -0.5997
  331MPD2    C1 5019   0.630   3.805  13.070 -0.3333  0.3766  0.2921
  331MPD2    C2 5020   0.597   3.674  13.038  0.0486 -0.0838 -0.6438
  331MPD2    C3 5021   0.492   3.602  13.090 -0.0363  0.5472  0.0874
  331MPD2    C4 5022   0.402   3.671  13.173 -0.1076  0.9545  0.1053
  331MPD2    C5 5023   0.437   3.797  13.206 -0.4875  0.2224 -0.6481
  331MPD2     H 5024   0.661   3.612  12.976  0.3962 -0.3870  0.0148
  331MPD2    H1 5025   0.317   3.625  13.222  0.1659 -0.8416 -1.0778
  331MPD2    H2 5026   0.551   3.969  13.181 -0.4442  0.5803 -3.1482
  331MPD2    H3 5027   0.368   3.857  13.265  1.3396 -0.8826  2.6141
  331MPD2     N 5028   0.477   3.466  13.057 -0.1578  0.3198 -0.5725
  331MPD2    H5 5029   0.548   3.419  13.002  1.0780 -1.2099  2.3200
  331MPD2    N1 5030   0.727   3.880  13.002 -0.2715 -0.1507 -0.1860
  331MPD2    H7 5031   0.732   3.980  13.016 -1.8757  0.0655 -1.1454
  332TMC3    C1 5032   0.367   3.263  12.999 -0.1769  0.6749  0.0264
  332TMC3    C2 5033   0.317   3.273  12.873  0.0774 -0.6685  0.4670
  332TMC3    C3 5034   0.381   3.216  12.764  0.4824 -0.5908 -0.3915
  332TMC3    C4 5035   0.474   3.179  13.024 -0.7388  0.3748  0.0981
  332TMC3    C5 5036   0.533   3.120  12.912  0.6359  0.9988  0.0895
  332TMC3    C6 5037   0.490   3.138  12.784 -0.7723 -0.0065  0.0218
  332TMC3     C 5038   0.366   3.384  13.075 -0.9122 -0.1687 -0.4436
  332TMC3     O 5039   0.252   3.419  13.115 -0.4709  0.3907  0.0042
  332TMC3     H 5040   0.231   3.338  12.867 -1.3345 -2.2698  3.6879
  332TMC3    H1 5041   0.519   3.178  13.122  0.7992  1.7308 -0.6018
  332TMC3    H2 5042   0.545   3.098  12.700 -1.0235  1.2199 -0.7304
  332TMC3    C7 5043   0.641   3.029  12.942  0.4290  0.2648 -0.0049
  332TMC3    C8 5044   0.353   3.270  12.636  0.6165 -0.0515  0.5408
  332TMC3    O1 5045   0.640   2.978  13.053  0.2357 -0.3491  0.3146
  332TMC3    O2 5046   0.452   3.277  12.564  0.3624 -0.3070 -0.0537
  333MPD2     C 5047   0.585   3.964  10.603 -0.0279  0.5818  0.1584
  333MPD2    C1 5048   0.720   3.947  10.612  0.7281 -0.0120 -0.1205
  333MPD2    C2 5049   0.780   3.867  10.714 -0.7226  0.4192 -0.7303
  333MPD2    C3 5050   0.692   3.797  10.801 -0.3318 -0.3349  0.0692
  333MPD2    C4 5051   0.556   3.826  10.794  0.3111  0.1182  0.2736
  333MPD2    C5 5052   0.507   3.910  10.699 -0.4090  0.0230 -0.7414
  333MPD2     H 5053   0.888   3.852  10.710 -0.6431  0.9757 -0.6332
  333MPD2    H1 5054   0.482   3.780  10.858 -1.0713 -0.5057 -1.7734
  333MPD2    H2 5055   0.547   4.025  10.522 -0.4193  0.5868  0.3471
  333MPD2    H3 5056   0.400   3.927  10.700 -0.0898  2.0211  0.1404
  333MPD2     N 5057   0.746   3.700  10.882 -0.0158  0.0766  0.2825
  333MPD2    H5 5058   0.840   3.667  10.864 -0.0714  0.0036  0.1274
  333MPD2    N1 5059   0.797   4.020  10.518 -0.1637 -0.7670  0.1190
  333MPD2    H7 5060   0.760   4.102  10.472  1.4900 -1.8169 -3.0460
  334TMC3    C1 5061   0.969   4.086  10.377  0.2632 -0.5151 -0.3961
  334TMC3    C2 5062   1.088   4.064  10.318 -0.1388  0.1526  0.1042
  334TMC3    C3 5063   1.175   4.169  10.292 -0.2460 -0.7197  0.5536
  334TMC3    C4 5064   0.930   4.219  10.404 -0.2941 -0.3162  0.1680
  334TMC3    C5 5065   1.021   4.319  10.372  0.0552 -0.2406  0.7301
  334TMC3    C6 5066   1.145   4.304  10.318 -0.3860  0.2514 -0.0773
  334TMC3     C 5067   0.925   3.991  10.480  0.0807  0.1586  0.2189
  334TMC3     O 5068   0.986   3.889  10.507 -0.4033 -0.0798 -0.0042
  334TMC3     H 5069   1.115   3.966  10.283 -0.5582  0.4677 -1.0908
  334TMC3    H1 5070   0.837   4.236  10.457  0.6577  0.3654  1.6080
  334TMC3    H2 5071   1.204   4.389  10.284  0.3229 -0.2295 -0.0570
  334TMC3    C7 5072   0.986   4.450  10.412 -1.3239  0.9633  0.5318
  334TMC3    C8 5073   1.303   4.131  10.240  0.1275 -0.2498 -0.5549
  334TMC3    O1 5074   1.076   4.530  10.406 -0.1096 -0.1061  0.3955
  334TMC3    O2 5075   1.309   4.033  10.164 -0.1445 -0.3994 -0.0785
  335TMC3    C1 5076   0.397   1.407  17.571  0.1102 -0.6481  0.9826
  335TMC3    C2 5077   0.315   1.326  17.500 -0.5275  0.0111 -0.1472
  335TMC3    C3 5078   0.361   1.194  17.488  0.3138  0.1173  0.1397
  335TMC3    C4 5079   0.510   1.365  17.637 -0.0365  0.3799 -0.1375
  335TMC3    C5 5080   0.557   1.245  17.595 -0.3187 -0.1955  0.4581
  335TMC3    C6 5081   0.483   1.155  17.527 -0.8803  0.1579 -0.6195
  335TMC3     C 5082   0.339   1.529  17.622  0.0491 -0.2326 -0.3873
  335TMC3     O 5083   0.381   1.575  17.730  0.2761 -0.3585 -0.2645
  335TMC3     H 5084   0.225   1.368  17.457 -1.9503 -3.0633 -0.1545
  335TMC3    H1 5085   0.574   1.427  17.697  0.6033 -1.0552  0.6664
  335TMC3    H2 5086   0.529   1.062  17.496  0.4309  1.1533 -1.6869
  335TMC3    C7 5087   0.693   1.210  17.605  0.0914  0.4528 -0.1375
  335TMC3    C8 5088   0.289   1.128  17.382 -0.1535 -0.1541 -0.0449
  335TMC3    O1 5089   0.714   1.091  17.621  0.3510 -0.1724 -0.1168
  335TMC3    O2 5090   0.199   1.181  17.327  0.0738 -0.2643 -0.3406
  336MPD2     C 5091   4.652   3.226  16.325 -0.1415 -0.0593  0.1382
  336MPD2    C1 5092   4.624   3.193  16.190 -0.3603  0.3355 -0.3620
  336MPD2    C2 5093   4.640   3.062  16.158 -0.2957  0.3183 -0.7146
  336MPD2    C3 5094   4.692   2.965  16.238 -0.3100  0.0075  0.2669
  336MPD2    C4 5095   4.694   2.991  16.374  0.9844 -0.0761  0.0233
  336MPD2    C5 5096   4.680   3.124  16.413 -1.0008  0.4428  0.0467
  336MPD2     H 5097   4.619   3.052  16.052  1.0472 -0.0453 -0.9332
  336MPD2    H1 5098   4.714   2.915  16.449  0.8972 -1.6203 -1.5217
  336MPD2    H2 5099   4.647   3.328  16.363  0.9128  0.4786 -1.1650
  336MPD2    H3 5100   4.699   3.143  16.518  1.5084 -0.0103 -0.3311
  336MPD2     N 5101   4.726   2.836  16.186 -0.7382  0.7187  0.0028
  336MPD2    H5 5102   0.000   2.760  16.252  0.4506  1.4131  0.5934
  336MPD2    N1 5103   4.585   3.286  16.095  0.0679  1.0652  0.5856
  336MPD2    H7 5104   4.552   3.244  16.009 -0.7675  2.0848  0.4100
  337TMC3    C1 5105   4.574   3.488  15.978  0.0250  0.2583 -0.2608
  337TMC3    C2 5106   4.456   3.456  15.918  0.2151 -0.5904  0.3152
  337TMC3    C3 5107   4.411   3.526  15.809 -0.8979  0.7233 -0.4305
  337TMC3    C4 5108   4.647   3.598  15.937 -0.1272 -0.4786  0.1431
  337TMC3    C5 5109   4.586   3.671  15.837 -0.6230  0.1602 -0.2888
  337TMC3    C6 5110   4.474   3.632  15.760 -0.3471 -0.3013  0.0296
  337TMC3     C 5111   4.610   3.422  16.103 -0.5913 -0.8000  0.8830
  337TMC3     O 5112   4.666   3.484  16.193  0.5602 -0.3305  0.2876
  337TMC3     H 5113   4.396   3.379  15.963 -1.1604  0.9358  1.0714
  337TMC3    H1 5114   4.734   3.641  15.984 -0.4102 -0.3104  0.5184
  337TMC3    H2 5115   4.419   3.693  15.689 -1.4699 -2.4684 -0.9471
  337TMC3    C7 5116   4.630   3.805  15.808  0.2912 -0.0058  0.1916
  337TMC3    C8 5117   4.264   3.504  15.775 -0.3639  0.0155  0.4217
  337TMC3    O1 5118   4.612   3.833  15.688  0.0569 -0.0726  0.3174
  337TMC3    O2 5119   4.196   3.455  15.865  0.4258  0.5937 -0.2136
  338MPD2     C 5120   4.298   2.716   0.992 -0.2327 -0.4476  0.1979
  338MPD2    C1 5121   4.368   2.761   0.884  0.0803 -0.0681  0.1000
  338MPD2    C2 5122   4.305   2.751   0.761  0.6278 -0.5194 -1.3859
  338MPD2    C3 5123   4.180   2.695   0.745  0.3608  0.4962  0.1863
  338MPD2    C4 5124   4.101   2.664   0.855  0.2190 -0.1711 -0.4837
  338MPD2    C5 5125   4.166   2.672   0.973 -0.3075  0.4865  0.4825
  338MPD2     H 5126   4.349   2.787   0.669 -0.1249  1.4665 -0.9617
  338MPD2    H1 5127   4.003   2.621   0.840  0.4291 -0.1005 -2.0646
  338MPD2    H2 5128   4.336   2.721   1.093 -2.3145 -2.4738  1.0914
  338MPD2    H3 5129   4.119   2.635   1.063 -2.5874  1.3212 -0.3617
  338MPD2     N 5130   4.130   2.682   0.609  0.3232 -0.4810 -0.7543
  338MPD2    H5 5131   4.193   2.713   0.535  0.7571 -0.0947 -0.2183
  338MPD2    N1 5132   4.501   2.814   0.889  0.7952  0.2841  0.0963
  338MPD2    H7 5133   4.542   2.837   0.799  1.1820 -0.1462  0.1584
  339TMC3    C1 5134   3.999   2.630   0.422  0.3837  0.3837  0.4123
  339TMC3    C2 5135   3.986   2.516   0.352  0.0629 -0.7451 -0.0851
  339TMC3    C3 5136   3.966   2.523   0.218 -0.5791  0.7379 -0.2331
  339TMC3    C4 5137   4.018   2.753   0.363  0.1761  0.0390 -0.2457
  339TMC3    C5 5138   4.027   2.747   0.227  0.4973  0.5846 -0.0272
  339TMC3    C6 5139   4.011   2.632   0.153  0.0551  0.3454 -0.7837
  339TMC3     C 5140   4.016   2.612   0.566  0.0067  0.5620 -0.8255
  339TMC3     O 5141   3.954   2.524   0.630  0.0223 -0.6247  0.2114
  339TMC3     H 5142   3.983   2.419   0.399  4.2497 -0.6339  0.3548
  339TMC3    H1 5143   4.024   2.846   0.419 -2.1197 -0.9579  1.6736
  339TMC3    H2 5144   4.001   2.626   0.045  2.0408 -0.9209 -0.8966
  339TMC3    C7 5145   4.128   2.843   0.177 -0.3066 -0.0754  0.9741
  339TMC3    C8 5146   4.008   2.401   0.153  0.0884 -0.2980 -0.0110
  339TMC3    O1 5147   4.137   2.947   0.242 -0.1518 -0.1388  0.0621
  339TMC3    O2 5148   4.101   2.404   0.072  0.1045 -0.2846  0.3793
  340MPD2     C 5149   0.072   0.117   9.664 -0.5937 -0.4742 -1.0639
  340MPD2    C1 5150   0.142   0.033   9.748 -0.3509  0.2514 -0.2735
  340MPD2    C2 5151   0.236   0.088   9.836 -0.3878  0.2874 -0.2115
  340MPD2    C3 5152   0.258   0.226   9.833 -0.0549  0.9795 -0.4776
  340MPD2    C4 5153   0.180   0.310   9.751 -0.4069 -0.0360 -0.1154
  340MPD2    C5 5154   0.086   0.250   9.661 -0.1012 -0.6410  0.8712
  340MPD2     H 5155   0.300   0.017   9.887 -0.0758  0.0590 -0.9302
  340MPD2    H1 5156   0.192   0.417   9.751 -1.3904  0.0672  0.6015
  340MPD2    H2 5157   4.723   0.082   9.609  2.1835 -1.9119 -4.4023
  340MPD2    H3 5158   0.034   0.316   9.591  2.6210  0.2180 -0.3192
  340MPD2     N 5159   0.352   0.289   9.913 -0.4291  0.0561 -0.3969
  340MPD2    H5 5160   0.369   0.387   9.891  0.3567  0.1953  0.8442
  340MPD2    N1 5161   0.114   4.627   9.729  0.6071  0.3415 -0.4474
  340MPD2    H7 5162   0.051   4.595   9.656 -2.4535 -1.7782  3.1497
  341TMC3    C1 5163   0.151   4.395   9.761 -0.0926  0.0379 -0.1270
  341TMC3    C2 5164   0.117   4.293   9.837 -0.2520 -0.5458  0.4631
  341TMC3    C3 5165   0.131   4.170   9.786 -0.3434  0.0881  0.0149
  341TMC3    C4 5166   0.202   4.382   9.630  0.8652 -0.4464  0.5305
  341TMC3    C5 5167   0.212   4.252   9.580  0.0408 -0.4080 -0.1748
  341TMC3    C6 5168   0.170   4.145   9.656 -0.6641  0.2961  0.3510
  341TMC3     C 5169   0.153   4.525   9.822 -0.2246 -0.4796 -0.8661
  341TMC3     O 5170   0.204   4.548   9.929  0.1245  0.0223 -0.6869
  341TMC3     H 5171   0.099   4.317   9.941 -5.2014 -0.3045 -0.4557
  341TMC3    H1 5172   0.239   4.470   9.579 -1.2677 -0.9195 -1.8364
  341TMC3    H2 5173   0.178   4.041   9.624  0.1083  0.3588  0.3225
  341TMC3    C7 5174   0.309   4.225   9.477 -0.7500 -0.2321  0.3207
  341TMC3    C8 5175   0.076   4.055   9.854 -0.5419  0.4077 -0.1666
  341TMC3    O1 5176   0.374   4.315   9.428  0.2729  0.4696  0.5074
  341TMC3    O2 5177   0.091   3.945   9.804 -0.1956  0.2757  0.3428
  342MPD2     C 5178   2.850   3.479  17.628 -0.2939  0.1899 -0.2499
  342MPD2    C1 5179   2.965   3.474  17.547  0.6304 -0.3844 -0.7793
  342MPD2    C2 5180   3.053   3.582  17.553 -0.6070  0.4221  0.3558
  342MPD2    C3 5181   3.029   3.695  17.626  0.0786  0.4638 -0.0093
  342MPD2    C4 5182   2.914   3.698  17.693 -0.3726  0.1616  0.4611
  342MPD2    C5 5183   2.826   3.592  17.699 -0.6341 -0.1175 -0.0973
  342MPD2     H 5184   3.146   3.575  17.498 -1.0856  1.5474 -0.5896
  342MPD2    H1 5185   2.884   3.786   0.003  2.2884 -0.7161  3.2914
  342MPD2    H2 5186   2.774   3.402  17.629 -0.0171 -0.0654  2.0420
  342MPD2    H3 5187   2.731   3.600   0.005  1.1905 -2.3754  3.6080
  342MPD2     N 5188   3.120   3.798  17.642  0.0463 -0.3709 -1.1057
  342MPD2    H5 5189   3.091   3.877  17.698  1.8870  0.0584 -0.7493
  342MPD2    N1 5190   3.007   3.362  17.478  0.4880  0.1076  0.7917
  342MPD2    H7 5191   3.097   3.374  17.433 -0.7697 -0.4307 -1.8952
  343TMC3    C1 5192   3.005   3.149  17.374 -0.5998 -0.4314 -0.0321
  343TMC3    C2 5193   3.110   3.186  17.300 -0.8051 -0.2510  0.5858
  343TMC3    C3 5194   3.134   3.131  17.173  0.0417  0.1138 -0.4821
  343TMC3    C4 5195   2.917   3.059  17.323 -0.2142 -0.1090  0.7726
  343TMC3    C5 5196   2.942   3.003  17.199 -0.6961  0.4990 -1.0807
  343TMC3    C6 5197   3.051   3.036  17.124  0.3218  0.0773  0.0663
  343TMC3     C 5198   2.944   3.240  17.474  0.5997  0.4759 -0.3618
  343TMC3     O 5199   2.860   3.200  17.549  0.3198  0.8127 -0.7072
  343TMC3     H 5200   3.186   3.260  17.325 -0.3325 -1.0537  1.5295
  343TMC3    H1 5201   2.821   3.038  17.369 -0.9112 -0.4522 -0.8651
  343TMC3    H2 5202   3.064   3.004  17.021 -1.7836  0.5170 -0.3203
  343TMC3    C7 5203   2.856   2.902  17.152 -1.1085  0.5039 -0.5042
  343TMC3    C8 5204   3.251   3.179  17.103  0.3512 -0.2023  0.0562
  343TMC3    O1 5205   2.757   2.891  17.219 -0.0244 -0.1499  0.7162
  343TMC3    O2 5206   3.304   3.281  17.150  0.2379 -0.8129  0.3859
  344MPD2     C 5207   3.561   2.859  10.635  0.0381  0.4563  0.1899
  344MPD2    C1 5208   3.588   2.821  10.767 -0.0407 -0.0436  0.6731
  344MPD2    C2 5209   3.664   2.906  10.848 -0.0248 -0.0040  0.1300
  344MPD2    C3 5210   3.718   3.026  10.795 -0.0561  0.0245  0.3823
  344MPD2    C4 5211   3.687   3.057  10.666 -0.2496  0.1600 -0.6123
  344MPD2    C5 5212   3.619   2.969  10.587 -0.4893 -0.0019  0.2353
  344MPD2     H 5213   3.691   2.869  10.946 -0.2364  0.4353  0.3551
  344MPD2    H1 5214   3.722   3.148  10.620  0.5773 -1.1532 -2.5597
  344MPD2    H2 5215   3.512   2.791  10.565 -0.0652  0.8932 -0.1585
  344MPD2    H3 5216   3.610   2.974  10.479 -0.2144  1.2923  0.2732
  344MPD2     N 5217   3.784   3.128  10.873  0.8013  0.0675  0.0904
  344MPD2    H5 5218   3.826   3.205  10.822  0.4420  1.5613  2.0075
  344MPD2    N1 5219   3.555   2.693  10.819 -0.3411  0.3931  0.3136
  344MPD2    H7 5220   3.587   2.677  10.914  0.6701 -0.7262 -0.2189
  345TMC3    C1 5221   3.815   3.262  11.063 -0.5161 -0.1106 -0.0252
  345TMC3    C2 5222   3.738   3.309  11.162  0.3221  0.1295  0.5061
  345TMC3    C3 5223   3.756   3.435  11.205  0.7636 -0.6820 -0.1881
  345TMC3    C4 5224   3.919   3.340  11.013 -0.7987  0.7470 -0.3730
  345TMC3    C5 5225   3.943   3.466  11.062  0.3241  0.7020 -0.2559
  345TMC3    C6 5226   3.852   3.518  11.156 -0.4366  0.8653  0.7823
  345TMC3     C 5227   3.784   3.132  11.013  0.8623 -0.4952  0.8790
  345TMC3     O 5228   3.720   3.061  11.091 -0.5461 -0.3028 -0.7429
  345TMC3     H 5229   3.657   3.256  11.211  0.8874 -2.2645 -1.1514
  345TMC3    H1 5230   3.985   3.293  10.940 -2.0841 -0.0641 -1.0010
  345TMC3    H2 5231   3.866   3.622  11.184 -1.5957  1.6584 -1.6154
  345TMC3    C7 5232   4.023   3.558  10.988 -0.1107  0.0123  0.0076
  345TMC3    C8 5233   3.632   3.503  11.227 -0.4602 -0.1144 -0.7303
  345TMC3    O1 5234   4.022   3.675  11.029 -0.3039  0.1919 -0.3649
  345TMC3    O2 5235   3.547   3.441  11.287  0.0082 -0.1176 -0.0554
  346MPD2     C 5236   4.100   4.510  13.877 -0.3068 -0.3125 -1.0020
  346MPD2    C1 5237   4.134   4.639  13.893 -0.1229 -0.4947  0.3386
  346MPD2    C2 5238   4.062   4.721  13.983 -0.0154  0.1207 -0.9397
  346MPD2    C3 5239   3.963   4.673  14.062  0.0574 -0.8339 -0.7558
  346MPD2    C4 5240   3.933   4.537  14.060 -0.3574 -0.0124 -1.0900
  346MPD2    C5 5241   4.004   4.465  13.964  1.1322  0.2291  0.5331
  346MPD2     H 5242   4.088   0.089  13.976  0.0746 -0.1291 -4.3279
  346MPD2    H1 5243   3.857   4.495  14.124  1.9448 -1.7198  0.5520
  346MPD2    H2 5244   4.148   4.449  13.801  0.1984 -0.3927 -0.6241
  346MPD2    H3 5245   3.977   4.360  13.959 -3.0497  1.1965  3.0356
  346MPD2     N 5246   3.899   0.023  14.140 -0.0932 -0.2907  0.0362
  346MPD2    H5 5247   3.945   0.113  14.157  0.7246 -0.5756 -0.6922
  346MPD2    N1 5248   4.224   4.710  13.807  0.3833  0.4459 -0.0725
  346MPD2    H7 5249   4.243   0.072  13.824 -0.8408  0.6277  0.2424
  347TMC3    C1 5250   3.789   0.121  14.315  0.4227  0.8899 -0.6936
  347TMC3    C2 5251   3.901   0.194  14.342  0.3992  0.1063 -0.2055
  347TMC3    C3 5252   3.922   0.255  14.466 -0.3202  0.0252  0.7028
  347TMC3    C4 5253   3.687   0.123  14.406  0.4756 -0.0675 -0.4840
  347TMC3    C5 5254   3.700   0.189  14.521 -0.4589  0.6425  0.6756
  347TMC3    C6 5255   3.817   0.248  14.560  0.1815  0.0182  0.5606
  347TMC3     C 5256   3.787   0.014  14.215  0.3071 -0.8046  0.1092
  347TMC3     O 5257   3.710   4.656  14.223  0.0322 -0.2226 -0.5883
  347TMC3     H 5258   3.970   0.218  14.262  0.2887  2.0421  0.2831
  347TMC3    H1 5259   3.590   0.077  14.391 -0.7294  0.8838  4.2670
  347TMC3    H2 5260   3.827   0.279  14.664  1.4047 -1.0059  0.7455
  347TMC3    C7 5261   3.580   0.201  14.608 -0.6843  0.5049 -0.5087
  347TMC3    C8 5262   4.056   0.227  14.518 -0.5478 -0.2378 -0.1941
  347TMC3    O1 5263   3.498   0.112  14.597 -0.0035  0.2323  0.1509
  347TMC3    O2 5264   4.126   0.161  14.441 -0.1342  0.2605 -0.0974
  348MPD2     C 5265   3.039   0.100  12.222  0.0394  0.5826 -0.0130
  348MPD2    C1 5266   2.973   0.081  12.104  0.3546 -0.4601  0.1055
  348MPD2    C2 5267   2.925   0.180  12.026  0.3206 -0.2553  0.2132
  348MPD2    C3 5268   2.938   0.313  12.068 -0.1794 -0.6285 -0.4962
  348MPD2    C4 5269   3.003   0.335  12.186 -0.4705  0.0743 -0.7650
  348MPD2    C5 5270   3.045   0.226  12.263 -0.2776 -0.4186  0.3541
  348MPD2     H 5271   2.886   0.144  11.932  1.6425 -1.6373  0.1922
  348MPD2    H1 5272   3.020   0.438  12.215 -2.5754  0.4320 -0.7860
  348MPD2    H2 5273   3.077   0.021  12.286 -2.0855  0.8219  1.5135
  348MPD2    H3 5274   3.101   0.244  12.354 -0.2929 -0.2169  0.3234
  348MPD2     N 5275   2.890   0.412  11.984 -0.0608 -0.2784  0.4368
  348MPD2    H5 5276   2.843   0.366  11.906 -0.5785  1.6353 -0.3878
  348MPD2    N1 5277   2.949   4.693  12.041 -0.0617  0.1583  0.1994
  348MPD2    H7 5278   2.903   4.698  11.951 -0.4579 -2.7107  0.2236
  349TMC3    C1 5279   2.963   4.458  12.019  0.2069  0.4425 -0.0103
  349TMC3    C2 5280   3.003   4.334  12.062 -0.0362  0.0972  0.4011
  349TMC3    C3 5281   2.982   4.225  11.990  0.4675 -0.0839  0.1810
  349TMC3    C4 5282   2.888   4.469  11.903  0.2923 -0.0829  0.4974
  349TMC3    C5 5283   2.872   4.355  11.828 -0.8550 -0.8690 -0.9614
  349TMC3    C6 5284   2.918   4.231  11.868 -0.2096  0.2931 -0.0636
  349TMC3     C 5285   2.975   4.570  12.105 -0.1668 -0.0583 -0.2984
  349TMC3     O 5286   2.996   4.546  12.221 -0.1436 -0.3618 -0.0164
  349TMC3     H 5287   3.040   4.332  12.164  0.5955  0.0708  0.1728
  349TMC3    H1 5288   2.833   4.559  11.876 -1.3024 -0.9923  0.7593
  349TMC3    H2 5289   2.917   4.143  11.804 -1.6108 -0.6048  1.1941
  349TMC3    C7 5290   2.795   4.349  11.706  0.0531 -0.4529  0.0140
  349TMC3    C8 5291   3.043   4.096  12.045  0.0401  0.8291  0.1542
  349TMC3    O1 5292   2.758   4.242  11.669  0.4019 -0.1955 -0.3052
  349TMC3    O2 5293   3.103   4.107  12.152 -0.3959 -0.5297  0.1084
  350MPD2     C 5294   1.991   2.969  10.219  0.0627  0.3512 -0.1742
  350MPD2    C1 5295   2.009   2.847  10.288 -0.4099 -0.0153 -1.2312
  350MPD2    C2 5296   2.106   2.845  10.384  0.6596  0.1968 -0.3061
  350MPD2    C3 5297   2.161   2.957  10.442  0.6635  0.4665 -0.7424
  350MPD2    C4 5298   2.138   3.077  10.378 -0.3455  0.3080 -1.0025
  350MPD2    C5 5299   2.050   3.080  10.272 -0.1147  0.0593  0.3920
  350MPD2     H 5300   2.131   2.749  10.427 -1.3406  0.0797  0.6246
  350MPD2    H1 5301   2.192   3.167  10.406 -1.2860  0.7977 -0.7656
  350MPD2    H2 5302   1.919   2.976  10.138 -2.6465 -0.6075  2.1265
  350MPD2    H3 5303   2.031   3.177  10.228 -5.0191 -1.5497 -1.0469
  350MPD2     N 5304   2.250   2.941  10.549 -0.5624 -0.2920 -0.3817
  350MPD2    H5 5305   2.262   2.849  10.591  1.7794 -0.2929 -1.0465
  350MPD2    N1 5306   1.921   2.734  10.274  0.3268  0.2437  0.1344
  350MPD2    H7 5307   1.953   2.645  10.311 -0.2053  0.2309  0.5551
  351TMC3    C1 5308   1.723   2.626  10.268 -0.8366 -0.2636 -0.4298
  351TMC3    C2 5309   1.784   2.508  10.280  0.2469 -0.3741  0.1094
  351TMC3    C3 5310   1.707   2.412  10.351 -0.3341 -0.0284 -0.4191
  351TMC3    C4 5311   1.600   2.653  10.309  0.1102  0.7248  0.7641
  351TMC3    C5 5312   1.532   2.550  10.370  1.2551 -0.1412  0.1121
  351TMC3    C6 5313   1.584   2.427  10.400  0.8408 -0.4544 -0.5154
  351TMC3     C 5314   1.798   2.735  10.208  0.0813  0.3289  0.7652
  351TMC3     O 5315   1.746   2.829  10.147  0.1362 -0.1919 -1.1058
  351TMC3     H 5316   1.879   2.482  10.234 -0.2436 -1.9866 -0.0114
  351TMC3    H1 5317   1.548   2.746  10.291 -1.2507 -0.2813 -0.5504
  351TMC3    H2 5318   1.529   2.353  10.456  2.2665 -0.9335  0.2312
  351TMC3    C7 5319   1.392   2.569  10.402 -0.1328 -0.1543  0.5385
  351TMC3    C8 5320   1.739   2.266  10.336  1.0440  0.4401  0.2771
  351TMC3    O1 5321   1.358   2.674  10.455  0.6871  0.1595  0.1693
  351TMC3    O2 5322   1.650   2.187  10.356  0.0315  0.0137  0.3808
  352MPD2     C 5323   0.581   0.257   1.067  0.4884 -0.2527 -0.2198
  352MPD2    C1 5324   0.474   0.239   1.141  0.4644 -0.2350  0.2806
  352MPD2    C2 5325   0.441   0.123   1.207 -0.9019  0.3282 -0.1679
  352MPD2    C3 5326   0.528   0.020   1.195  0.7608  0.3572  0.4849
  352MPD2    C4 5327   0.637   0.034   1.121 -0.0690  0.0307  0.3831
  352MPD2    C5 5328   0.667   0.152   1.068 -0.3621  0.5714  0.8190
  352MPD2     H 5329   0.354   0.112   1.270 -0.5055 -0.9366  0.1671
  352MPD2    H1 5330   0.709   4.693   1.096  2.2872  2.3191  0.0831
  352MPD2    H2 5331   0.606   0.348   1.013 -0.1119 -0.5153 -0.9333
  352MPD2    H3 5332   0.751   0.150   0.999 -1.0945  2.2673 -0.1353
  352MPD2     N 5333   0.510   4.628   1.257  0.2565  0.4153 -0.9602
  352MPD2    H5 5334   0.572   4.554   1.226  2.4778  1.0032  2.1308
  352MPD2    N1 5335   0.386   0.355   1.147 -0.3099  0.2835 -0.2570
  352MPD2    H7 5336   0.407   0.429   1.080  2.4062 -1.4200 -1.2877
  353TMC3    C1 5337   0.411   4.451   1.367 -0.6562  0.0554  0.0187
  353TMC3    C2 5338   0.532   4.389   1.365  0.0236 -0.0803  0.0580
  353TMC3    C3 5339   0.528   4.253   1.353  0.0205 -0.4583  0.0348
  353TMC3    C4 5340   0.293   4.388   1.345 -0.1904 -0.1846 -0.4323
  353TMC3    C5 5341   0.288   4.250   1.329 -0.3507 -0.0300  0.2959
  353TMC3    C6 5342   0.407   4.183   1.344 -0.0125  0.0826  0.6588
  353TMC3     C 5343   0.402   4.592   1.335  0.2135 -0.2257 -0.1352
  353TMC3     O 5344   0.314   4.670   1.371 -0.2388 -0.7925 -0.1349
  353TMC3     H 5345   0.629   4.436   1.363  0.1686 -0.3548  1.0957
  353TMC3    H1 5346   0.199   4.441   1.332 -0.8606 -1.2520 -0.0265
  353TMC3    H2 5347   0.403   4.075   1.333 -2.5835  0.1132  1.2167
  353TMC3    C7 5348   0.170   4.183   1.283  0.6583  1.2317 -0.6088
  353TMC3    C8 5349   0.651   4.183   1.376 -0.5000  0.1220  0.0828
  353TMC3    O1 5350   0.183   4.092   1.196  0.4535  0.5721 -0.7719
  353TMC3    O2 5351   0.750   4.250   1.381  0.0459  0.0806  1.0212
  354TMC3    C1 5352   1.852   0.676  13.389  0.9331 -0.1587  0.7250
  354TMC3    C2 5353   1.807   0.807  13.384  0.2022  0.1204 -0.4933
  354TMC3    C3 5354   1.832   0.882  13.265  0.3845 -0.3649 -0.1162
  354TMC3    C4 5355   1.935   0.630  13.290  0.0271  0.4991  0.0175
  354TMC3    C5 5356   1.954   0.700  13.182 -0.7949 -0.5529  0.3404
  354TMC3    C6 5357   1.894   0.821  13.158 -0.3634 -0.2079 -0.2986
  354TMC3     C 5358   1.885   0.631  13.525  0.5916 -0.3761 -0.4962
  354TMC3     O 5359   1.817   0.672  13.618 -0.1629 -0.4336  0.6864
  354TMC3     H 5360   1.750   0.864  13.455 -0.2340  0.2964 -0.9839
  354TMC3    H1 5361   1.986   0.535  13.303 -2.7759 -1.0210 -0.1886
  354TMC3    H2 5362   1.906   0.869  13.061 -1.7022  2.5123  0.8968
  354TMC3    C7 5363   2.031   0.644  13.067  0.1836  0.4192  0.1383
  354TMC3    C8 5364   1.824   1.037  13.272  0.8688  0.1964 -0.0203
  354TMC3    O1 5365   2.038   0.520  13.068  0.1580 -0.3192  0.6430
  354TMC3    O2 5366   1.775   1.094  13.371  0.3939  0.6125 -0.6781
  355MPD2     C 5367   2.123   1.897  12.225  0.0543 -0.1447  0.3266
  355MPD2    C1 5368   2.215   1.920  12.128  0.3426 -0.4060  0.2611
  355MPD2    C2 5369   2.342   1.872  12.150  0.6127 -0.3674 -0.3064
  355MPD2    C3 5370   2.382   1.808  12.262 -0.4453  0.6185  0.0111
  355MPD2    C4 5371   2.288   1.784  12.360 -0.2049  0.3951 -0.0309
  355MPD2    C5 5372   2.156   1.828  12.336  0.0947  0.0985 -1.1234
  355MPD2     H 5373   2.415   1.876  12.070  0.0014  0.8658 -0.7985
  355MPD2    H1 5374   2.306   1.729  12.451  0.5913 -0.4434 -0.7035
  355MPD2    H2 5375   2.020   1.926  12.208  0.6280  0.0007 -2.9483
  355MPD2    H3 5376   2.085   1.822  12.418  1.0428 -1.9551 -0.4525
  355MPD2     N 5377   2.523   1.790  12.275  0.0610  0.2795  0.5913
  355MPD2    H5 5378   2.580   1.831  12.202  0.0522  1.5220  1.2757
  355MPD2    N1 5379   2.175   1.997  12.013  0.6757 -0.0505 -0.1938
  355MPD2    H7 5380   2.079   2.027  12.003  0.6420 -0.0799  0.0435
  356TMC3    C1 5381   2.729   1.752  12.378  0.1434 -0.3350 -0.2169
  356TMC3    C2 5382   2.763   1.756  12.250  0.3137  0.1477  0.1127
  356TMC3    C3 5383   2.878   1.820  12.213  0.0297 -0.2198 -0.0593
  356TMC3    C4 5384   2.805   1.801  12.470  1.7652 -0.2455 -0.3951
  356TMC3    C5 5385   2.918   1.870  12.445 -0.3888  0.5078  0.0189
  356TMC3    C6 5386   2.962   1.877  12.311  0.3009 -0.4712  0.5802
  356TMC3     C 5387   2.580   1.749  12.395  0.0370  0.2834  0.0196
  356TMC3     O 5388   2.537   1.748  12.508 -0.1847 -0.2114 -0.3181
  356TMC3     H 5389   2.711   1.719  12.162 -3.2547 -0.4110  2.4748
  356TMC3    H1 5390   2.761   1.822  12.567  1.3478  1.6214 -0.9880
  356TMC3    H2 5391   3.051   1.933  12.286  0.6678 -1.7043 -0.8986
  356TMC3    C7 5392   2.957   1.973  12.545  0.2005  0.6165  0.4028
  356TMC3    C8 5393   2.899   1.816  12.075  0.4712  0.3797  0.2032
  356TMC3    O1 5394   2.948   1.936  12.664 -0.3984 -0.6171  0.0021
  356TMC3    O2 5395   2.883   1.706  12.015  0.4431  0.0270  0.0994
  357MPD2     C 5396   1.921   1.616   0.755 -0.2425 -0.4519 -0.2535
  357MPD2    C1 5397   1.981   1.542   0.854  0.4790  0.2595  0.0452
  357MPD2    C2 5398   1.980   1.595   0.983 -0.4282  0.3343 -0.0591
  357MPD2    C3 5399   1.908   1.703   1.019  0.1002  0.5559  0.4303
  357MPD2    C4 5400   1.863   1.784   0.925 -0.2869 -0.3384 -0.3041
  357MPD2    C5 5401   1.874   1.738   0.795 -0.4022  0.3257  0.4097
  357MPD2     H 5402   2.045   1.539   1.049 -0.4341  0.2929 -0.0885
  357MPD2    H1 5403   1.805   1.868   0.961  1.5141  0.6177  0.3521
  357MPD2    H2 5404   1.915   1.589   0.650 -3.2220 -2.1039  0.3503
  357MPD2    H3 5405   1.833   1.807   0.721 -0.4480  0.1580  0.2795
  357MPD2     N 5406   1.892   1.717   1.163  0.0702  0.1835 -1.3796
  357MPD2    H5 5407   1.933   1.642   1.217 -3.3456 -0.6855  0.0514
  357MPD2    N1 5408   2.056   1.419   0.818  0.0649 -0.1556 -0.2207
  357MPD2    H7 5409   2.038   1.376   0.727 -0.0967  1.2216 -0.8479
  358TMC3    C1 5410   2.158   1.216   0.862 -0.2350 -0.3251  0.0589
  358TMC3    C2 5411   2.070   1.143   0.788  0.3323  1.0530 -0.1595
  358TMC3    C3 5412   2.086   1.004   0.797 -0.3714  0.5716 -0.7817
  358TMC3    C4 5413   2.274   1.167   0.914  0.0330 -0.5278 -0.2152
  358TMC3    C5 5414   2.290   1.034   0.896 -0.2639 -0.5881 -0.5489
  358TMC3    C6 5415   2.193   0.946   0.866  0.1146 -0.1734 -0.4185
  358TMC3     C 5416   2.127   1.348   0.911 -0.0666  0.8950 -0.3077
  358TMC3     O 5417   2.171   1.377   1.020  0.6122 -0.1407  0.3909
  358TMC3     H 5418   1.985   1.182   0.733 -2.2565 -1.5786  1.9385
  358TMC3    H1 5419   2.348   1.233   0.957 -0.0798 -0.3082 -0.3619
  358TMC3    H2 5420   2.217   0.843   0.842  0.4784  0.0010 -0.7927
  358TMC3    C7 5421   2.406   0.976   0.965 -0.2687 -0.1633  0.3359
  358TMC3    C8 5422   1.979   0.920   0.742  0.1024  0.4041  0.0332
  358TMC3    O1 5423   2.438   0.867   0.921 -0.0890  0.1850 -0.0959
  358TMC3    O2 5424   1.897   0.966   0.666  0.4770 -0.5677  0.0768
  359MPD2     C 5425   2.718   0.409  12.826  0.0180  0.4768 -0.6725
  359MPD2    C1 5426   2.626   0.425  12.721 -0.4033  0.2837  0.2168
  359MPD2    C2 5427   2.503   0.372  12.720  0.0365  0.0337 -0.6872
  359MPD2    C3 5428   2.460   0.294  12.829  0.1412  0.3573 -0.3675
  359MPD2    C4 5429   2.541   0.292  12.938  0.3249  0.3879 -0.0776
  359MPD2    C5 5430   2.666   0.341  12.937 -0.6787  0.5183 -1.1903
  359MPD2     H 5431   2.444   0.390  12.631 -1.4244  1.3192  0.5399
  359MPD2    H1 5432   2.515   0.244  13.031  1.2236  0.5145  0.2415
  359MPD2    H2 5433   2.818   0.451  12.828 -0.6067  1.8997  0.4000
  359MPD2    H3 5434   2.731   0.321  13.021 -1.3020  0.3485 -0.7484
  359MPD2     N 5435   2.328   0.237  12.836 -0.3834 -0.6903 -0.1767
  359MPD2    H5 5436   2.294   0.196  12.923 -2.5313  1.5288  0.0503
  359MPD2    N1 5437   2.650   0.490  12.599 -0.2288 -0.1648 -0.2406
  359MPD2    H7 5438   2.578   0.469  12.531  0.0639  1.0766 -0.9398
  360TMC3    C1 5439   2.765   0.624  12.435 -0.1689 -0.4912  0.1727
  360TMC3    C2 5440   2.865   0.717  12.415 -0.9054 -0.1239 -0.3124
  360TMC3    C3 5441   2.844   0.802  12.312  0.2610  0.8013 -0.5872
  360TMC3    C4 5442   2.660   0.605  12.347 -0.0021  0.0228 -0.2465
  360TMC3    C5 5443   2.655   0.697  12.243 -0.4534 -0.0650  0.1173
  360TMC3    C6 5444   2.751   0.784  12.223 -1.2607 -0.2056 -0.1217
  360TMC3     C 5445   2.765   0.558  12.568  0.1049 -0.6464  0.1135
  360TMC3     O 5446   2.843   0.595  12.650  0.1080  0.0814  0.2629
  360TMC3     H 5447   2.932   0.750  12.494  0.2682  2.1397 -2.2469
  360TMC3    H1 5448   2.573   0.543  12.362 -0.8796  0.4918 -3.4001
  360TMC3    H2 5449   2.760   0.834  12.128 -0.1020 -2.1051 -1.0099
  360TMC3    C7 5450   2.565   0.672  12.128  0.3122  0.0635 -0.2503
  360TMC3    C8 5451   2.946   0.892  12.272 -0.1382  0.1278 -0.1049
  360TMC3    O1 5452   2.564   0.750  12.033 -0.0404  0.3605  0.5203
  360TMC3    O2 5453   2.922   1.011  12.281  0.3724  0.7049 -0.4228
  361MPD2     C 5454   4.377   4.609  17.252 -0.1341 -0.1685  0.4665
  361MPD2    C1 5455   4.319   4.488  17.233 -0.0991 -0.7908 -0.0803
  361MPD2    C2 5456   4.357   4.378  17.301  0.0219 -0.0196 -0.5382
  361MPD2    C3 5457   4.451   4.387  17.395 -0.2883  0.3037  0.0232
  361MPD2    C4 5458   4.517   4.505  17.410  0.5573  0.1371 -0.7259
  361MPD2    C5 5459   4.479   4.614  17.339 -0.4620 -0.1636 -0.6772
  361MPD2     H 5460   4.307   4.283  17.289 -0.9184  0.0699  2.5789
  361MPD2    H1 5461   4.598   4.522  17.479 -0.0379 -0.5866  0.1586
  361MPD2    H2 5462   4.348   4.698  17.196  1.8763 -0.5965 -1.2642
  361MPD2    H3 5463   4.529   4.711  17.338 -1.2333  0.2284 -1.2183
  361MPD2     N 5464   4.515   4.274  17.458  0.3640 -0.5529  0.0263
  361MPD2    H5 5465   4.594   4.299  17.517  2.2346  1.2156 -3.2302
  361MPD2    N1 5466   4.214   4.477  17.140 -0.4346  1.3408 -0.2400
  361MPD2    H7 5467   4.168   4.387  17.136  1.6667  0.3618 -2.6603
  362TMC3    C1 5468   4.040   4.527  16.985 -0.1149 -1.2189  0.3808
  362TMC3    C2 5469   3.956   4.434  17.047  0.6559 -0.4625  0.9293
  362TMC3    C3 5470   3.827   4.434  17.006  0.5720  0.1526  1.4412
  362TMC3    C4 5471   3.999   4.608  16.884 -0.7593  0.1315 -0.4066
  362TMC3    C5 5472   3.872   4.587  16.834  0.6176 -0.1525  0.5971
  362TMC3    C6 5473   3.779   4.503  16.900 -0.1560  0.2659 -0.1318
  362TMC3     C 5474   4.164   4.570  17.050 -0.0487  0.2725 -0.3930
  362TMC3     O 5475   4.218   4.674  17.014 -0.1203 -0.3135  0.5300
  362TMC3     H 5476   3.978   4.395  17.146  0.7880 -0.7962  0.7684
  362TMC3    H1 5477   4.064   4.673  16.827  1.1864 -0.2081  1.3907
  362TMC3    H2 5478   3.679   4.503  16.858 -0.4193  3.9492  0.4965
  362TMC3    C7 5479   3.852   4.638  16.699  0.0783  0.0978  0.2864
  362TMC3    C8 5480   3.745   4.349  17.082  0.2256 -0.4362  0.0426
  362TMC3    O1 5481   3.910   0.008  16.678 -0.4979 -0.1905  0.0120
  362TMC3    O2 5482   3.800   4.290  17.173 -0.5648 -0.0421 -0.1050
  363TMC3    C1 5483   2.074   1.341   8.830  0.4777 -0.4288 -0.4344
  363TMC3    C2 5484   2.079   1.208   8.845  0.4688  0.3137  0.1482
  363TMC3    C3 5485   2.104   1.156   8.966 -0.9978  0.5274 -0.2160
  363TMC3    C4 5486   2.077   1.433   8.934  0.0550 -0.2534  0.2997
  363TMC3    C5 5487   2.085   1.373   9.060 -0.4449 -0.3584 -0.0207
  363TMC3    C6 5488   2.115   1.239   9.080 -0.0588  0.0737  0.3036
  363TMC3     C 5489   2.065   1.398   8.699 -0.4473  0.1863 -1.0552
  363TMC3     O 5490   2.010   1.326   8.614 -0.2497 -0.3509  0.7661
  363TMC3     H 5491   2.091   1.143   8.759  3.3852 -0.4233  1.0993
  363TMC3    H1 5492   2.040   1.535   8.930  0.0290 -0.3810 -2.5822
  363TMC3    H2 5493   2.137   1.202   9.180  0.0477 -1.9622 -0.4666
  363TMC3    C7 5494   2.058   1.460   9.178 -0.1640 -0.2337  0.0401
  363TMC3    C8 5495   2.112   1.012   8.972  0.6185 -0.2197 -0.7168
  363TMC3    O1 5496   2.077   1.580   9.166 -0.2432 -0.7949 -0.7831
  363TMC3    O2 5497   2.070   0.936   8.881 -0.0968 -0.1170  0.2943
  364MPD2     C 5498   1.141   1.019  10.250 -0.1761  0.0253  0.9394
  364MPD2    C1 5499   1.131   1.123  10.340 -0.4700  0.2556 -0.1010
  364MPD2    C2 5500   1.163   1.100  10.474  0.1998 -0.3996  0.0028
  364MPD2    C3 5501   1.197   0.977  10.510 -0.4912  0.2769  0.2766
  364MPD2    C4 5502   1.204   0.872  10.422  0.2756 -0.1509 -0.3613
  364MPD2    C5 5503   1.184   0.898  10.291 -0.1885  0.3934  0.3366
  364MPD2     H 5504   1.178   1.183  10.542  0.1837 -0.7664  0.4536
  364MPD2    H1 5505   1.242   0.776  10.456 -2.1990  0.1378  3.2162
  364MPD2    H2 5506   1.127   1.030  10.143 -1.3260 -0.0059  1.0869
  364MPD2    H3 5507   1.207   0.827  10.213 -2.4179 -1.2982  1.2110
  364MPD2     N 5508   1.223   0.949  10.654 -0.0309  0.1784  0.1918
  364MPD2    H5 5509   1.244   0.853  10.682  1.4019  0.8102  1.2918
  364MPD2    N1 5510   1.099   1.250  10.294 -0.7833  0.0643  0.4173
  364MPD2    H7 5511   1.062   1.250  10.199 -1.8356 -2.9990  0.8375
  365TMC3    C1 5512   1.098   1.481  10.268 -0.8568  0.1769 -0.5559
  365TMC3    C2 5513   1.138   1.467  10.139  0.3649  0.3997 -0.3368
  365TMC3    C3 5514   1.166   1.577  10.067  0.4430  0.7807 -0.0634
  365TMC3    C4 5515   1.071   1.608  10.318  0.3694  0.2431  0.2213
  365TMC3    C5 5516   1.086   1.724  10.236  0.2014  0.7433  0.0299
  365TMC3    C6 5517   1.140   1.703  10.115 -0.7291 -0.2713 -0.2358
  365TMC3     C 5518   1.099   1.368  10.365 -0.1277 -1.0367  0.3089
  365TMC3     O 5519   1.108   1.390  10.487 -0.4427 -0.2322  0.2553
  365TMC3     H 5520   1.163   1.370  10.098 -0.5916 -0.3486  0.8713
  365TMC3    H1 5521   1.039   1.610  10.421  3.1555 -1.4410  1.1157
  365TMC3    H2 5522   1.157   1.791  10.054  1.7669 -0.6402 -0.0574
  365TMC3    C7 5523   1.078   1.852  10.305 -0.4988  0.2883  0.1945
  365TMC3    C8 5524   1.201   1.555   9.929  0.5189  0.3881 -0.4268
  365TMC3    O1 5525   1.153   1.942  10.269 -0.0167  0.6693  0.6069
  365TMC3    O2 5526   1.189   1.655   9.858  0.3759 -0.5153  0.4368
  366MPD2     C 5527   4.467   2.137  15.388  0.0311 -0.0414  0.0402
  366MPD2    C1 5528   4.562   2.238  15.376 -0.1138  0.4071  0.4267
  366MPD2    C2 5529   4.694   2.207  15.344 -0.1082  0.2667 -0.7893
  366MPD2    C3 5530   4.725   2.083  15.291 -0.4121 -0.0204  0.4191
  366MPD2    C4 5531   4.631   1.982  15.301 -0.5280  0.2857 -0.7451
  366MPD2    C5 5532   4.500   2.006  15.349  0.2336  0.0705 -0.4128
  366MPD2     H 5533   0.028   2.288  15.334 -0.3918  0.6496  0.2860
  366MPD2    H1 5534   4.659   1.882  15.268 -2.3742 -0.3277 -0.4416
  366MPD2    H2 5535   4.375   2.178  15.429  0.4876  2.0947 -1.0371
  366MPD2    H3 5536   4.420   1.934  15.357  1.7271 -1.6643 -1.1201
  366MPD2     N 5537   0.112   2.082  15.235  0.0286 -0.1035  0.0710
  366MPD2    H5 5538   0.183   2.144  15.271 -0.8085 -0.1559  1.8022
  366MPD2    N1 5539   4.531   2.374  15.387  0.1740 -0.1696 -0.0089
  366MPD2    H7 5540   4.601   2.448  15.394  0.2010 -0.0768 -1.2729
  367TMC3    C1 5541   4.422   2.570  15.352  0.3731 -1.0219  0.4594
  367TMC3    C2 5542   4.504   2.635  15.446  0.0094  0.1821 -0.1897
  367TMC3    C3 5543   4.493   2.776  15.429 -0.1846 -0.3967 -0.8795
  367TMC3    C4 5544   4.352   2.626  15.247  0.3439  0.1884 -0.0819
  367TMC3    C5 5545   4.352   2.764  15.249 -0.1899 -0.6806  0.5727
  367TMC3    C6 5546   4.415   2.846  15.341  0.4760 -0.0011 -0.3090
  367TMC3     C 5547   4.408   2.425  15.365 -0.3492 -0.5299 -0.2167
  367TMC3     O 5548   4.303   2.380  15.322  0.8187 -0.6722  0.2684
  367TMC3     H 5549   4.577   2.589  15.511 -0.7356 -0.5439  0.1389
  367TMC3    H1 5550   4.304   2.569  15.169  0.9078  1.7429 -1.5663
  367TMC3    H2 5551   4.404   2.954  15.334  2.2443  0.1782 -0.4181
  367TMC3    C7 5552   4.267   2.844  15.157  0.7426 -0.7417  0.0229
  367TMC3    C8 5553   4.563   2.851  15.531  0.2221  0.2709  0.1777
  367TMC3    O1 5554   4.287   2.969  15.147 -0.4364  0.3340  0.4466
  367TMC3    O2 5555   4.603   2.794  15.626  0.4501 -0.1723 -0.0057
  368MPD2     C 5556   1.214   3.946  13.460  0.0728  0.2163  0.0803
  368MPD2    C1 5557   1.295   4.057  13.453  0.2702  0.6781  0.4273
  368MPD2    C2 5558   1.427   4.037  13.410  0.2595  0.1713 -0.3105
  368MPD2    C3 5559   1.474   3.915  13.369 -0.2610  0.1386 -0.1776
  368MPD2    C4 5560   1.391   3.801  13.371 -0.4472  0.1409 -0.0076
  368MPD2    C5 5561   1.263   3.824  13.412  0.9693  0.3502 -0.0253
  368MPD2     H 5562   1.486   4.127  13.392  0.5798  0.2550  1.1703
  368MPD2    H1 5563   1.423   3.700  13.346 -0.7984  0.1023 -0.3045
  368MPD2    H2 5564   1.114   3.938  13.501  0.6583 -1.1079  1.2758
  368MPD2    H3 5565   1.201   3.735  13.417  0.8704  0.3289 -1.6311
  368MPD2     N 5566   1.613   3.904  13.319 -0.0144 -0.4135  0.1514
  368MPD2    H5 5567   1.632   3.822  13.261  1.2004  0.4338 -0.6427
  368MPD2    N1 5568   1.232   4.175  13.476 -0.0718 -0.1201  0.4154
  368MPD2    H7 5569   1.135   4.169  13.504 -0.3920  0.7361 -0.4924
  369TMC3    C1 5570   1.169   4.388  13.418 -0.4554  0.2067 -0.0845
  369TMC3    C2 5571   1.185   4.477  13.315 -0.7154 -0.5262 -0.4379
  369TMC3    C3 5572   1.082   4.508  13.233  0.2286  0.6942 -0.0916
  369TMC3    C4 5573   1.048   4.336  13.451  0.0024  0.0616 -0.0937
  369TMC3    C5 5574   0.940   4.377  13.364  0.2764 -0.7005  0.1557
  369TMC3    C6 5575   0.952   4.447  13.252  0.2882 -0.8351 -0.1590
  369TMC3     C 5576   1.281   4.306  13.449 -0.3825 -0.3773  0.3605
  369TMC3     O 5577   1.393   4.345  13.425  0.3441 -0.1951 -0.1148
  369TMC3     H 5578   1.284   4.519  13.301  0.2839 -2.6109  0.3425
  369TMC3    H1 5579   1.038   4.284  13.545  1.5992  2.1938  1.2649
  369TMC3    H2 5580   0.863   4.486  13.204  1.2514  2.8847  1.1182
  369TMC3    C7 5581   0.812   4.316  13.403 -0.0142  0.0318  0.5485
  369TMC3    C8 5582   1.105   4.602  13.120  0.5775  0.4604 -0.2442
  369TMC3    O1 5583   0.799   4.268  13.515 -0.4545 -0.2784 -0.1464
  369TMC3    O2 5584   1.011   4.626  13.048  0.4361  0.1711  0.5342
  370TMC3    C1 5585   0.700   0.244  16.311 -0.0061  0.5940  0.7055
  370TMC3    C2 5586   0.587   0.218  16.383 -0.0482 -0.2374  0.4774
  370TMC3    C3 5587   0.522   0.102  16.367 -0.2890  0.3019  0.0212
  370TMC3    C4 5588   0.748   0.165  16.217  0.4474  0.7552 -0.0575
  370TMC3    C5 5589   0.688   0.047  16.212  0.2633  0.4326 -0.7276
  370TMC3    C6 5590   0.574   0.011  16.283  0.4985 -0.8145  0.4577
  370TMC3     C 5591   0.791   0.342  16.376  0.5831 -0.3167 -0.0919
  370TMC3     O 5592   0.775   0.358  16.497 -0.2466 -0.2821 -0.4245
  370TMC3     H 5593   0.560   0.299  16.450 -1.9053 -0.1132 -0.4136
  370TMC3    H1 5594   0.842   0.191  16.169  0.9377 -1.6789 -0.4260
  370TMC3    H2 5595   0.532   4.649  16.266 -1.6020 -0.2939  2.7421
  370TMC3    C7 5596   0.759   4.682  16.131  0.0259  0.1599 -0.0843
  370TMC3    C8 5597   0.455   0.048  16.486  0.3321  0.2321  0.1436
  370TMC3    O1 5598   0.852   4.725  16.064 -0.3444 -0.0866  0.4949
  370TMC3    O2 5599   0.427   4.664  16.488 -0.0930  0.0136 -0.4125
  371TMC3    C1 5600   1.401   3.107  15.283  0.1458 -0.0879  0.5569
  371TMC3    C2 5601   1.329   3.098  15.398  0.6095  0.2459 -0.2028
  371TMC3    C3 5602   1.297   3.209  15.466 -0.3055 -0.0905  0.1510
  371TMC3    C4 5603   1.448   3.224  15.230 -0.0547  0.0600  0.8504
  371TMC3    C5 5604   1.414   3.332  15.311 -0.1021 -0.5301  0.4129
  371TMC3    C6 5605   1.338   3.331  15.423 -0.2466 -0.1198 -0.6662
  371TMC3     C 5606   1.489   2.992  15.264  0.4782 -0.1122 -0.2651
  371TMC3     O 5607   1.558   2.986  15.165 -0.2165 -0.5295 -1.2309
  371TMC3     H 5608   1.274   3.006  15.414 -0.8341  1.0844 -0.3362
  371TMC3    H1 5609   1.500   3.242  15.137  0.1964  2.6155  1.4967
  371TMC3    H2 5610   1.321   3.417  15.486 -0.0575 -0.2265 -0.4658
  371TMC3    C7 5611   1.477   3.461  15.275 -0.3071  0.1998 -0.4645
  371TMC3    C8 5612   1.275   3.179  15.609 -0.1176 -0.2187 -0.6098
  371TMC3    O1 5613   1.428   3.556  15.334  0.2526  0.4091 -0.4929
  371TMC3    O2 5614   1.261   3.062  15.634 -0.6167 -0.5075 -0.7947
  372MPD2     C 5615   1.093   4.206  13.845  0.2852  0.0751  0.3241
  372MPD2    C1 5616   1.197   4.117  13.823 -0.0913 -0.0797  0.0920
  372MPD2    C2 5617   1.166   3.981  13.815  0.8425  0.4428  0.3637
  372MPD2    C3 5618   1.037   3.940  13.811  0.2189 -0.3115  0.0230
  372MPD2    C4 5619   0.938   4.029  13.817  0.3055  0.2089 -0.5659
  372MPD2    C5 5620   0.964   4.163  13.834 -0.3340 -0.4329 -0.7754
  372MPD2     H 5621   1.246   3.913  13.789  1.0070 -0.6935  4.0041
  372MPD2    H1 5622   0.832   4.009  13.820  0.1906  0.9871  0.3931
  372MPD2    H2 5623   1.109   4.311  13.865  1.1238 -0.5736  3.0971
  372MPD2    H3 5624   0.887   4.238  13.840 -0.7659 -0.9440  0.0811
  372MPD2     N 5625   1.018   3.798  13.797  0.6490 -0.4119 -0.0468
  372MPD2    H5 5626   1.107   3.749  13.795  1.3980  0.8786  2.5645
  372MPD2    N1 5627   1.328   4.151  13.792 -0.0929  0.4807  0.2338
  372MPD2    H7 5628   1.400   4.080  13.788 -3.9318 -3.4077 -0.2878
  373TMC3    C1 5629   0.923   3.590  13.808 -0.6641 -0.0917 -0.2183
  373TMC3    C2 5630   0.835   3.520  13.886  0.1066 -0.5544 -0.0653
  373TMC3    C3 5631   0.829   3.390  13.866  0.7115 -0.3094 -0.5226
  373TMC3    C4 5632   0.998   3.533  13.703  0.6731 -0.4187 -0.3673
  373TMC3    C5 5633   0.980   3.399  13.682  0.2443 -0.6455  0.6769
  373TMC3    C6 5634   0.899   3.329  13.761 -0.8028  0.0957 -0.0304
  373TMC3     C 5635   0.899   3.736  13.808 -0.7682  0.3110  0.4894
  373TMC3     O 5636   0.785   3.773  13.833 -0.4033  0.0542 -0.0408
  373TMC3     H 5637   0.772   3.574  13.954  0.3579  0.8824 -0.9628
  373TMC3    H1 5638   1.065   3.597  13.647  1.8737 -0.6187  0.8433
  373TMC3    H2 5639   0.871   3.228  13.731  0.8690  1.1859 -5.3215
  373TMC3    C7 5640   1.091   3.323  13.617 -0.8702 -0.4750 -0.2319
  373TMC3    C8 5641   0.727   3.308  13.928  0.0507  0.1871 -0.2410
  373TMC3    O1 5642   1.171   3.395  13.563  0.1252 -0.7391 -0.1477
  373TMC3    O2 5643   0.661   3.243  13.851  0.9801 -0.2017 -0.1741
  374TMC3    C1 5644   1.993   0.141   9.961  0.5630 -0.2324 -0.5089
  374TMC3    C2 5645   2.024   0.257  10.027 -0.2306  0.0404  0.2019
  374TMC3    C3 5646   1.943   0.364   9.996 -0.7672  0.5118  0.2372
  374TMC3    C4 5647   1.893   0.125   9.868  0.3386  0.7800 -0.2953
  374TMC3    C5 5648   1.821   0.244   9.839  0.6771  0.3549 -0.6443
  374TMC3    C6 5649   1.850   0.356   9.891  0.0896 -0.3673 -0.1322
  374TMC3     C 5650   2.086   0.026   9.963 -0.1613 -0.0958 -0.3194
  374TMC3     O 5651   2.030   4.654   9.963  0.1506  0.4041 -0.0228
  374TMC3     H 5652   2.076   0.252  10.122  0.0591  0.3453  0.0590
  374TMC3    H1 5653   1.870   0.029   9.824  0.8716 -0.6187  2.4882
  374TMC3    H2 5654   1.786   0.441   9.867 -2.0957 -0.7692  4.1597
  374TMC3    C7 5655   1.743   0.241   9.716  1.0660 -0.2424  0.0381
  374TMC3    C8 5656   1.953   0.492  10.062  0.2279 -0.2079  0.3794
  374TMC3    O1 5657   1.751   0.342   9.649  0.5358  0.7959  0.2180
  374TMC3    O2 5658   1.899   0.589  10.008 -0.1625  0.3361  0.3473
  375MPD2     C 5659   1.914   0.598  17.497  0.5587 -0.4841 -0.0466
  375MPD2    C1 5660   1.828   0.582  17.392  0.3061 -0.8566 -0.3192
  375MPD2    C2 5661   1.858   0.490  17.295 -0.5903 -0.6076 -0.1861
  375MPD2    C3 5662   1.983   0.430  17.288  0.3410  0.6043  0.0602
  375MPD2    C4 5663   2.071   0.451  17.387 -0.6337  0.5286  0.3125
  375MPD2    C5 5664   2.032   0.538  17.491  0.2672 -0.6888  0.7474
  375MPD2     H 5665   1.782   0.481  17.218 -2.5456  1.6115  1.5039
  375MPD2    H1 5666   2.165   0.397  17.391 -0.9662 -0.0703  0.0702
  375MPD2    H2 5667   1.896   0.658  17.585  0.3360 -0.9484  0.2199
  375MPD2    H3 5668   2.106   0.559  17.568  1.5094  1.2755 -0.9592
  375MPD2     N 5669   2.018   0.339  17.182 -0.4320  0.4328 -0.1164
  375MPD2    H5 5670   2.115   0.310  17.190  0.1169  2.1941 -0.3784
  375MPD2    N1 5671   1.703   0.646  17.381 -0.0166 -0.4406  0.4342
  375MPD2    H7 5672   1.653   0.632  17.294 -0.3450 -1.3882  0.7657
  376TMC3    C1 5673   2.008   0.219  16.978  0.0542 -0.0548 -0.1592
  376TMC3    C2 5674   2.104   0.139  17.021  0.5631 -0.1398 -0.1980
  376TMC3    C3 5675   2.181   0.077  16.925  0.2670 -1.0590  0.2536
  376TMC3    C4 5676   1.970   0.225  16.849 -0.5996  0.2992  0.8155
  376TMC3    C5 5677   2.036   0.150  16.755 -0.3893  0.0268  0.3647
  376TMC3    C6 5678   2.154   0.086  16.786  0.2675 -0.4782 -0.6755
  376TMC3     C 5679   1.941   0.312  17.069  0.1941  0.3794 -0.7132
  376TMC3     O 5680   1.829   0.348  17.036 -0.3038  0.2885  0.1084
  376TMC3     H 5681   2.122   0.134  17.128  2.3869  0.1760 -0.4782
  376TMC3    H1 5682   1.877   0.270  16.816 -1.0599  0.5070  2.4260
  376TMC3    H2 5683   2.211   0.043  16.704 -1.4388 -0.8389 -1.6970
  376TMC3    C7 5684   2.013   0.189  16.623  0.5608 -0.1438  0.0239
  376TMC3    C8 5685   2.317   0.038  16.964  0.0899 -0.1235 -0.6916
  376TMC3    O1 5686   1.989   0.306  16.601  0.2492  0.2962 -0.4475
  376TMC3    O2 5687   2.350   0.009  17.077 -0.6712  0.0232  0.1698
  377MPD2     C 5688   0.702   4.661  13.208  0.4430 -0.3436  0.0709
  377MPD2    C1 5689   0.650   4.677  13.085 -0.6914 -0.0672 -0.5948
  377MPD2    C2 5690   0.512   4.662  13.069 -1.0750 -0.1938 -0.1509
  377MPD2    C3 5691   0.425   4.636  13.176 -0.1453  0.7376 -0.1099
  377MPD2    C4 5692   0.483   4.627  13.299  0.2137  0.2516  0.4036
  377MPD2    C5 5693   0.620   4.636  13.318  0.3949 -0.4088 -0.0571
  377MPD2     H 5694   0.471   4.665  12.969 -0.9349  1.4481 -0.1508
  377MPD2    H1 5695   0.414   4.606  13.380 -0.9342  0.7885 -0.4398
  377MPD2    H2 5696   0.808   4.667  13.228  0.4886 -1.0743  0.0388
  377MPD2    H3 5697   0.664   4.617  13.415 -1.8826 -4.0840  0.2369
  377MPD2     N 5698   0.287   4.615  13.166  0.4868 -0.5923 -0.3424
  377MPD2    H5 5699   0.241   4.584  13.250  2.4264  0.0759  0.9656
  377MPD2    N1 5700   0.735   4.688  12.966  0.7224 -0.4563 -0.0376
  377MPD2    H7 5701   0.834   4.679  12.986  0.3986 -2.1775  0.8769
  378TMC3    C1 5702   0.821   4.709  12.505  0.5377 -0.3736 -1.0398
  378TMC3    C2 5703   0.764   0.024  12.618 -0.8037 -0.5614  0.3825
  378TMC3    C3 5704   0.795   4.695  12.736  0.2025 -0.1354 -0.4185
  378TMC3    C4 5705   0.908   4.604  12.512 -0.0860 -0.3127  0.5650
  378TMC3    C5 5706   0.932   4.543  12.633  0.8196 -0.6031  0.1382
  378TMC3    C6 5707   0.872   4.584  12.747  0.2031  0.2123 -0.6500
  378TMC3     C 5708   0.772   0.018  12.379  0.1740 -0.3821 -0.6467
  378TMC3     O 5709   0.835   0.008  12.277 -0.7793 -0.4245 -0.0724
  378TMC3     H 5710   0.721   0.124  12.621 -0.1145 -0.1569 -3.3294
  378TMC3    H1 5711   0.968   4.576  12.427  0.3795 -0.6813  1.0160
  378TMC3    H2 5712   0.877   4.532  12.842 -1.0716  0.3631 -0.4967
  378TMC3    C7 5713   1.011   4.422  12.645 -0.0041 -0.4938  0.7461
  378TMC3    C8 5714   0.684   4.708  12.839 -0.5535  0.4595  0.3596
  378TMC3    O1 5715   1.055   4.383  12.755 -0.0769  0.3116 -0.2328
  378TMC3    O2 5716   0.578   0.018  12.806  0.7523  0.5723  0.3908
  379MPD2     C 5717   0.706   3.277  16.243  0.0027  0.2412 -0.2209
  379MPD2    C1 5718   0.616   3.209  16.320 -0.7193 -0.5140 -0.1099
  379MPD2    C2 5719   0.669   3.105  16.392 -0.4825  1.0027 -0.7694
  379MPD2    C3 5720   0.802   3.086  16.399  0.6001 -0.4288  0.2706
  379MPD2    C4 5721   0.893   3.162  16.327  0.2144 -0.1064  0.3059
  379MPD2    C5 5722   0.842   3.253  16.246  0.8127  0.6615  1.0759
  379MPD2     H 5723   0.598   3.036  16.438  1.2001  0.0919  0.4598
  379MPD2    H1 5724   0.996   3.134  16.315 -0.4648 -2.4654  0.0659
  379MPD2    H2 5725   0.675   3.354  16.174  0.6194 -0.0786 -0.8592
  379MPD2    H3 5726   0.909   3.313  16.184 -1.0882  1.3928 -0.2731
  379MPD2     N 5727   0.858   2.979  16.470 -0.1138  0.4975 -0.1917
  379MPD2    H5 5728   0.952   2.959  16.438 -0.4421 -0.4682 -0.5652
  379MPD2    N1 5729   0.479   3.240  16.301 -0.0965  0.2037  0.2133
  379MPD2    H7 5730   0.465   3.295  16.217  0.1868  0.6093  0.4324
  380TMC3    C1 5731   0.285   3.116  16.244  0.1743  0.0663 -0.8593
  380TMC3    C2 5732   0.332   2.999  16.207 -0.1525  0.3807 -0.4243
  380TMC3    C3 5733   0.338   2.973  16.074  0.0589 -0.0198 -0.1034
  380TMC3    C4 5734   0.244   3.206  16.153  0.6802  0.7259 -0.2777
  380TMC3    C5 5735   0.237   3.168  16.024 -0.1567  1.0354 -0.1017
  380TMC3    C6 5736   0.282   3.052  15.978  0.4668  1.0164 -0.0536
  380TMC3     C 5737   0.370   3.171  16.349  0.6277 -0.0775 -0.4311
  380TMC3     O 5738   0.362   3.113  16.458 -0.2768  0.7054  0.0648
  380TMC3     H 5739   0.376   2.932  16.280  0.0443  0.7671 -0.1846
  380TMC3    H1 5740   0.196   3.299  16.181  0.8963  1.0837 -1.1018
  380TMC3    H2 5741   0.296   3.028  15.873 -0.5447 -0.4325  0.1404
  380TMC3    C7 5742   0.150   3.245  15.941  0.6504 -0.2990  0.2691
  380TMC3    C8 5743   0.444   2.894  16.018  0.3180  0.3710 -0.2560
  380TMC3    O1 5744   0.154   3.364  15.948  0.0227  0.2736 -0.5972
  380TMC3    O2 5745   0.438   2.855  15.900  0.2836  0.4546  0.3510
  381TMC3    C1 5746   0.390   4.120  16.499 -0.1139 -0.1352 -0.1927
  381TMC3    C2 5747   0.465   4.222  16.448  0.1527  0.5842  0.2979
  381TMC3    C3 5748   0.509   4.320  16.531  1.4402  0.3730  0.4474
  381TMC3    C4 5749   0.347   4.126  16.627  0.5254  0.1923 -0.2079
  381TMC3    C5 5750   0.372   4.238  16.697 -0.3646 -0.0394  0.3283
  381TMC3    C6 5751   0.448   4.341  16.654  0.3461 -0.2565  0.4176
  381TMC3     C 5752   0.368   3.995  16.435  0.5164  0.2184  0.7361
  381TMC3     O 5753   0.366   3.901  16.512  0.5283 -0.7236 -0.3360
  381TMC3     H 5754   0.509   4.217  16.350  0.2846  0.5701  0.3585
  381TMC3    H1 5755   0.301   4.043  16.680  0.6202 -0.5963 -1.3504
  381TMC3    H2 5756   0.464   4.433  16.709  0.3712 -0.4451  0.7282
  381TMC3    C7 5757   0.312   4.243  16.831  0.2916 -0.1697 -0.2175
  381TMC3    C8 5758   0.610   4.412  16.482  0.4523 -0.0803  0.5751
  381TMC3    O1 5759   0.312   4.138  16.889  0.2235 -0.4429  0.0830
  381TMC3    O2 5760   0.642   4.392  16.367  0.3355 -0.1881  0.3610
  382MPD2     C 5761   4.516   1.618  17.308 -0.4497 -0.5692  0.3326
  382MPD2    C1 5762   4.401   1.615  17.234  0.4882 -0.5389 -0.0870
  382MPD2    C2 5763   4.307   1.516  17.256  0.2302 -0.8297  0.1531
  382MPD2    C3 5764   4.340   1.406  17.328 -0.3415  0.7076 -0.1009
  382MPD2    C4 5765   4.460   1.393  17.394 -0.3229 -0.3481 -0.2700
  382MPD2    C5 5766   4.547   1.500  17.378  0.0669  0.5721 -0.3864
  382MPD2     H 5767   4.209   1.524  17.208  0.9425  0.4363 -1.0962
  382MPD2    H1 5768   4.489   1.300  17.441  0.9462  0.6020  0.8115
  382MPD2    H2 5769   4.598   1.689  17.300  1.4768 -2.8930 -0.6385
  382MPD2    H3 5770   4.648   1.494  17.416  0.4365 -0.2238 -1.4975
  382MPD2     N 5771   4.256   1.288  17.335  0.2131 -0.1356 -0.2408
  382MPD2    H5 5772   4.306   1.216  17.387 -0.8631 -1.7147 -1.4039
  382MPD2    N1 5773   4.373   1.724  17.143  0.3928 -0.5560  0.2095
  382MPD2    H7 5774   4.288   1.730  17.087 -0.0121  0.1934  0.9118
  383TMC3    C1 5775   4.083   1.135  17.279 -0.9222 -0.2923  0.1354
  383TMC3    C2 5776   4.010   1.103  17.167 -0.2387 -0.2657 -0.2388
  383TMC3    C3 5777   4.008   0.971  17.129  0.2934  0.9493  0.6415
  383TMC3    C4 5778   4.167   1.048  17.338  0.2441 -0.2801 -0.5663
  383TMC3    C5 5779   4.167   0.915  17.298  0.3429 -0.5625  0.4544
  383TMC3    C6 5780   4.080   0.876  17.196  0.3767 -0.0349  0.5403
  383TMC3     C 5781   4.130   1.271  17.290  0.4011 -0.3523  0.4073
  383TMC3     O 5782   4.048   1.346  17.233 -0.0940 -0.1373 -0.3264
  383TMC3     H 5783   3.953   1.176  17.111  0.2502 -0.2972 -0.7743
  383TMC3    H1 5784   4.230   1.076  17.421  0.0305  0.1547 -0.5550
  383TMC3    H2 5785   4.067   0.774  17.161  0.0936  0.5981 -1.2088
  383TMC3    C7 5786   4.209   0.802  17.387 -0.6842  0.4327 -0.3092
  383TMC3    C8 5787   3.929   0.937  17.011 -0.2994 -0.5426 -0.1191
  383TMC3    O1 5788   4.171   0.695  17.344  0.2821 -0.5792 -0.3451
  383TMC3    O2 5789   3.850   1.024  16.969  0.0396 -0.0979 -0.4017
  384MPD2     C 5790   1.120   2.769  11.965 -0.5200 -0.1401  0.1562
  384MPD2    C1 5791   1.124   2.717  12.093 -0.0642 -0.3824  0.7570
  384MPD2    C2 5792   1.191   2.598  12.109  0.3152  0.5753 -0.2333
  384MPD2    C3 5793   1.246   2.537  11.994  0.4767 -0.3309 -0.0480
  384MPD2    C4 5794   1.255   2.601  11.877  0.0382  0.8843 -0.2661
  384MPD2    C5 5795   1.184   2.715  11.859  0.2053 -0.2147 -0.5914
  384MPD2     H 5796   1.195   2.549  12.205 -0.4905  1.6813  0.3623
  384MPD2    H1 5797   1.295   2.553  11.789 -1.1462  0.4024 -0.5482
  384MPD2    H2 5798   1.064   2.861  11.955  1.3935  0.7739 -2.1962
  384MPD2    H3 5799   1.184   2.769  11.765  1.0612 -1.1072 -1.0996
  384MPD2     N 5800   1.299   2.410  12.013 -0.6766 -0.1717  0.2240
  384MPD2    H5 5801   1.298   2.370  12.106 -0.0203  0.9020  0.6872
  384MPD2    N1 5802   1.052   2.763  12.206  0.9124 -0.1012 -0.7075
  384MPD2    H7 5803   1.052   2.704  12.288 -0.7998  0.1606 -0.5194
  385TMC3    C1 5804   1.371   2.193  11.967 -0.6333  0.3592 -0.2865
  385TMC3    C2 5805   1.291   2.098  11.917 -0.5138  0.2426  0.6151
  385TMC3    C3 5806   1.220   2.018  12.002  0.2265  0.5976  0.8838
  385TMC3    C4 5807   1.390   2.206  12.112 -0.0890 -0.1723  0.0395
  385TMC3    C5 5808   1.312   2.124  12.194 -0.7358 -0.3710 -0.4382
  385TMC3    C6 5809   1.226   2.034  12.140  0.0534  0.7982  0.3765
  385TMC3     C 5810   1.349   2.325  11.917  0.0426  0.1588  0.4126
  385TMC3     O 5811   1.365   2.335  11.796  0.4258 -0.1563 -0.2939
  385TMC3     H 5812   1.279   2.086  11.810  2.0981 -1.9902  0.5463
  385TMC3    H1 5813   1.467   2.272  12.151  0.7991 -1.4821  0.4939
  385TMC3    H2 5814   1.175   1.967  12.209  0.0657 -0.0808 -0.4767
  385TMC3    C7 5815   1.262   2.200  12.305 -0.0635 -0.5541  0.2349
  385TMC3    C8 5816   1.213   1.877  11.968 -0.3148 -0.9380  0.5391
  385TMC3    O1 5817   1.295   2.318  12.298  0.3703 -0.0821 -0.1368
  385TMC3    O2 5818   1.238   1.794  12.060  0.0567 -0.4900 -0.0172
  386TMC3    C1 5819   1.724   4.623  11.586 -0.3048 -0.2905 -0.0123
  386TMC3    C2 5820   1.680   4.678  11.469 -0.2294  0.1867  0.2495
  386TMC3    C3 5821   1.550   4.710  11.457  0.1409  0.5939  0.1508
  386TMC3    C4 5822   1.636   4.594  11.688 -0.1834 -0.1556  0.1777
  386TMC3    C5 5823   1.503   4.606  11.666  0.3126 -0.1399 -0.1299
  386TMC3    C6 5824   1.458   4.671  11.552 -0.6753  0.0743  0.8775
  386TMC3     C 5825   1.867   4.590  11.600 -0.1605  0.3293 -0.1620
  386TMC3     O 5826   1.942   4.678  11.563  0.0444  0.5938  0.5274
  386TMC3     H 5827   1.758   4.718  11.405  2.1210  0.2492  3.1546
  386TMC3    H1 5828   1.662   4.557  11.787 -1.6437 -1.7782 -0.0347
  386TMC3    H2 5829   1.351   4.679  11.535 -0.5604 -1.4020 -0.5203
  386TMC3    C7 5830   1.402   4.582  11.772  0.9516 -0.4437 -0.3940
  386TMC3    C8 5831   1.493   0.001  11.327  0.8396 -0.1796 -0.3166
  386TMC3    O1 5832   1.448   4.597  11.885  0.1574  0.0543 -0.3795
  386TMC3    O2 5833   1.373   0.000  11.323  0.4408  0.6705 -0.1765
  387MPD2     C 5834   3.824   0.010  10.112 -0.0905  0.6681  0.0347
  387MPD2    C1 5835   3.895   0.058  10.222 -0.9578  0.4935 -0.0056
  387MPD2    C2 5836   3.921   4.716  10.332 -0.0011 -0.2679 -1.1112
  387MPD2    C3 5837   3.868   4.587  10.345  0.6999 -0.6615 -0.4627
  387MPD2    C4 5838   3.793   4.536  10.235  0.1216  0.2172 -0.1011
  387MPD2    C5 5839   3.774   4.620  10.125  0.6277 -0.7704  0.0756
  387MPD2     H 5840   3.980   0.024  10.411 -1.5041  0.1681 -0.2405
  387MPD2    H1 5841   3.749   4.437  10.235 -1.0471  0.7359 -0.5793
  387MPD2    H2 5842   3.806   0.072  10.025 -1.3873 -0.0401 -0.1963
  387MPD2    H3 5843   3.714   4.584  10.042  3.6115 -0.5166 -2.1935
  387MPD2     N 5844   3.915   4.510  10.451  0.7732  0.7984 -0.4537
  387MPD2    H5 5845   3.968   4.564  10.519  0.5086 -1.2262  1.3379
  387MPD2    N1 5846   3.983   0.167  10.213  0.0118  0.6457 -0.6392
  387MPD2    H7 5847   4.047   0.174  10.292  0.4510 -0.6282 -0.8657
  388TMC3    C1 5848   4.097   0.347  10.144 -0.5011  0.1729  0.3830
  388TMC3    C2 5849   4.086   0.483  10.123 -0.0745  0.1567  0.3268
  388TMC3    C3 5850   4.198   0.553  10.168  0.3625  0.3686  0.4565
  388TMC3    C4 5851   4.207   0.274  10.178 -0.6880  0.0050  0.0910
  388TMC3    C5 5852   4.318   0.348  10.211  0.3921 -0.0890 -0.6250
  388TMC3    C6 5853   4.311   0.490  10.216  0.4110  0.0689  0.1628
  388TMC3     C 5854   3.979   0.270  10.120 -0.4385  0.7021 -0.2510
  388TMC3     O 5855   3.886   0.301  10.045 -0.3636 -0.5301  0.3972
  388TMC3     H 5856   4.002   0.533  10.077  1.4421  1.2465 -1.2465
  388TMC3    H1 5857   4.213   0.166  10.169 -1.8914  0.0009 -0.6612
  388TMC3    H2 5858   4.401   0.547  10.237  0.7271 -0.6344  0.7118
  388TMC3    C7 5859   4.421   0.288  10.294 -0.3409  0.2164 -0.4394
  388TMC3    C8 5860   4.192   0.699  10.178  0.6049  0.1305 -0.6451
  388TMC3    O1 5861   4.476   0.359  10.374  0.4897 -0.3515 -0.5301
  388TMC3    O2 5862   4.270   0.755  10.257  0.1971  0.1888  0.2315
  389MPD2     C 5863   2.748   3.363  10.689  0.2262  1.0629 -0.4282
  389MPD2    C1 5864   2.711   3.232  10.663  0.7416 -0.3702  0.2582
  389MPD2    C2 5865   2.740   3.124  10.750 -0.7772 -0.5774  0.4208
  389MPD2    C3 5866   2.802   3.160  10.869 -0.5286 -0.6634 -0.3167
  389MPD2    C4 5867   2.837   3.295  10.895  0.1954 -0.1399  0.0554
  389MPD2    C5 5868   2.820   3.391  10.801  0.5118  0.2715  0.4362
  389MPD2     H 5869   2.721   3.018  10.732  0.6438 -1.0182  1.5297
  389MPD2    H1 5870   2.890   3.329  10.982 -1.9185  1.2498  0.7905
  389MPD2    H2 5871   2.727   3.448  10.626 -1.1029  0.3662 -0.9150
  389MPD2    H3 5872   2.856   3.488  10.831 -0.8318  0.7176  0.5806
  389MPD2     N 5873   2.855   3.056  10.955 -0.3313  0.1887 -0.6920
  389MPD2    H5 5874   2.913   3.080  11.035 -0.2824  0.8183 -0.9165
  389MPD2    N1 5875   2.640   3.225  10.541 -0.3343 -0.4948 -0.4255
  389MPD2    H7 5876   2.611   3.310  10.494  0.0498  0.3047  0.7685
  390TMC3    C1 5877   2.862   2.862  11.085 -0.3481  0.4767  0.0609
  390TMC3    C2 5878   2.785   2.755  11.124  0.2088  0.1605 -0.3112
  390TMC3    C3 5879   2.800   2.720  11.251  0.3795  0.1270 -0.0319
  390TMC3    C4 5880   2.945   2.927  11.168  0.1178 -0.6080 -0.3372
  390TMC3    C5 5881   2.953   2.886  11.297 -0.5415 -0.3111 -0.2495
  390TMC3    C6 5882   2.881   2.776  11.345  0.2583  0.3254 -0.1564
  390TMC3     C 5883   2.827   2.922  10.953  0.5366  0.0722  0.0177
  390TMC3     O 5884   2.757   2.853  10.883  0.2214 -0.8227  0.2596
  390TMC3     H 5885   2.710   2.718  11.055  0.7082  0.3272 -0.9479
  390TMC3    H1 5886   3.011   3.007  11.137 -2.5709  2.5330  2.0391
  390TMC3    H2 5887   2.907   2.723  11.436  0.2766 -1.3051 -1.1250
  390TMC3    C7 5888   3.013   2.970  11.398  0.1066 -0.1917  0.2973
  390TMC3    C8 5889   2.679   2.661  11.313 -0.5454  0.2953 -0.4332
  390TMC3    O1 5890   3.074   3.068  11.352 -0.9664  0.1670  0.2183
  390TMC3    O2 5891   2.611   2.576  11.259  0.5080 -0.1758  0.1698
  391MPD2     C 5892   2.445   0.270  11.575 -0.7147  0.4736 -0.6928
  391MPD2    C1 5893   2.502   0.384  11.525 -0.5872 -0.0348 -0.4902
  391MPD2    C2 5894   2.488   0.419  11.396 -0.1568  0.2051  0.2669
  391MPD2    C3 5895   2.426   0.333  11.308 -0.1213  0.5528  0.3015
  391MPD2    C4 5896   2.355   0.230  11.356  0.3325  0.1307  1.1135
  391MPD2    C5 5897   2.352   0.207  11.497 -0.2164 -0.3143 -0.1968
  391MPD2     H 5898   2.534   0.508  11.355 -1.1217  0.4762 -0.2006
  391MPD2    H1 5899   2.286   0.171  11.296  1.1954 -0.6466  0.8863
  391MPD2    H2 5900   2.460   0.248  11.680  1.3381 -0.4359 -1.1755
  391MPD2    H3 5901   2.286   0.132  11.539  2.3291 -0.9331  2.6693
  391MPD2     N 5902   2.432   0.373  11.173  0.3513 -0.8923 -0.3250
  391MPD2    H5 5903   2.476   0.461  11.147  0.6055  0.1067  3.5217
  391MPD2    N1 5904   2.560   0.466  11.624 -0.2792  0.1807 -0.1782
  391MPD2    H7 5905   2.558   0.416  11.713 -0.6882 -0.2368 -0.4243
  392TMC3    C1 5906   2.445   0.355  10.938  1.0929  0.3245 -0.0875
  392TMC3    C2 5907   2.353   0.368  10.835 -1.0556 -0.3084 -0.0830
  392TMC3    C3 5908   2.371   0.456  10.726  0.6830  0.7035 -0.4454
  392TMC3    C4 5909   2.558   0.438  10.945 -0.4699  1.0030  0.8973
  392TMC3    C5 5910   2.569   0.520  10.837  0.9685  0.5549 -0.0834
  392TMC3    C6 5911   2.481   0.531  10.729  0.0491  0.6679 -0.3112
  392TMC3     C 5912   2.403   0.297  11.061  0.1538 -0.3968  0.1403
  392TMC3     O 5913   2.352   0.186  11.054  0.4949 -0.6885  0.2294
  392TMC3     H 5914   2.263   0.309  10.823  1.1282 -3.4295 -0.9521
  392TMC3    H1 5915   2.637   0.409  11.013  1.7899  0.8365 -1.7991
  392TMC3    H2 5916   2.500   0.612  10.659  0.3512  0.5594 -0.3556
  392TMC3    C7 5917   2.703   0.576  10.826 -0.0437 -0.6902  0.3932
  392TMC3    C8 5918   2.269   0.469  10.622 -0.4302 -0.0544  0.0773
  392TMC3    O1 5919   2.767   0.585  10.931  0.0978  0.1509 -0.4026
  392TMC3    O2 5920   2.195   0.371  10.607  0.1998 -0.4048  0.5666
  393TMC3    C1 5921   1.253   2.739  10.815 -0.2660  0.0743  0.0173
  393TMC3    C2 5922   1.152   2.667  10.855 -0.0265  0.1997  0.0203
  393TMC3    C3 5923   1.159   2.532  10.849 -0.0677 -0.0876  0.6859
  393TMC3    C4 5924   1.372   2.684  10.774 -0.3497 -0.1889 -0.0410
  393TMC3    C5 5925   1.374   2.543  10.770 -0.0005 -0.3893  0.0053
  393TMC3    C6 5926   1.268   2.467  10.798  0.0744  0.4761  0.2704
  393TMC3     C 5927   1.221   2.875  10.783  0.3313 -0.2039 -0.9719
  393TMC3     O 5928   1.105   2.887  10.745 -0.5238  0.3217 -0.2984
  393TMC3     H 5929   1.059   2.712  10.889  1.3434  1.7814  1.6911
  393TMC3    H1 5930   1.452   2.749  10.739 -1.6672  2.1050  1.2325
  393TMC3    H2 5931   1.280   2.359  10.789 -0.1389  0.4456  0.3335
  393TMC3    C7 5932   1.499   2.478  10.736 -0.4548 -0.5306  0.6435
  393TMC3    C8 5933   1.045   2.461  10.901 -0.4594  0.1995  0.9645
  393TMC3    O1 5934   1.496   2.357  10.717 -0.0631 -0.3503  0.0693
  393TMC3    O2 5935   0.963   2.519  10.971 -0.4651  0.6454  0.2125
  394TMC3    C1 5936   2.535   3.134  10.347  0.2112  0.5089 -0.5411
  394TMC3    C2 5937   2.505   3.029  10.272 -0.5466  1.0349  0.1413
  394TMC3    C3 5938   2.439   3.050  10.154  0.8514  0.6652  0.2590
  394TMC3    C4 5939   2.511   3.260  10.304 -0.5154  0.6373 -0.3153
  394TMC3    C5 5940   2.453   3.281  10.180 -0.0506  0.3757 -0.4174
  394TMC3    C6 5941   2.416   3.175  10.103  1.0576  0.1546 -0.0170
  394TMC3     C 5942   2.600   3.108  10.478 -0.0707 -0.3478 -0.7528
  394TMC3     O 5943   2.615   2.993  10.506  0.6589  0.1165  0.0336
  394TMC3     H 5944   2.543   2.931  10.299 -1.9715  0.5903  0.5283
  394TMC3    H1 5945   2.528   3.352  10.359 -2.2184 -0.9221  2.7877
  394TMC3    H2 5946   2.369   3.186  10.006  1.1459  0.0968 -0.0662
  394TMC3    C7 5947   2.483   3.405  10.108  0.1733 -0.1498 -0.2071
  394TMC3    C8 5948   2.401   2.934  10.076  0.2358  0.1407 -0.4398
  394TMC3    O1 5949   2.568   3.482  10.143 -0.5461 -0.2951  0.4742
  394TMC3    O2 5950   2.346   2.953   9.970  0.0895 -0.6287 -0.3478
  395TMC3    C1 5951   2.630   0.491  15.323 -0.3304 -0.4226  0.0029
  395TMC3    C2 5952   2.506   0.473  15.265 -0.2424 -0.5072 -1.0314
  395TMC3    C3 5953   2.492   0.501  15.133 -0.9062  0.1876  0.4978
  395TMC3    C4 5954   2.735   0.547  15.248  0.3988 -0.0216  0.3426
  395TMC3    C5 5955   2.706   0.582  15.117 -0.2243 -0.3586 -0.7433
  395TMC3    C6 5956   2.585   0.550  15.048 -0.6689 -0.5541 -0.5337
  395TMC3     C 5957   2.657   0.412  15.441  0.6146  0.4323 -0.3814
  395TMC3     O 5958   2.555   0.355  15.486 -0.2724 -0.3256  0.8626
  395TMC3     H 5959   2.423   0.422  15.311  0.3849 -0.0518  0.6025
  395TMC3    H1 5960   2.836   0.557  15.285  0.9776 -0.1193 -1.2228
  395TMC3    H2 5961   2.566   0.558  14.942  1.8846  0.1288 -0.9399
  395TMC3    C7 5962   2.806   0.665  15.055 -0.1720 -0.4888  0.3216
  395TMC3    C8 5963   2.359   0.494  15.078 -0.2127  0.2912  0.3635
  395TMC3    O1 5964   2.907   0.697  15.112 -0.4767  0.2240 -0.4644
  395TMC3    O2 5965   2.273   0.527  15.156 -0.1983 -0.1074 -0.0710
  396MPD2     C 5966   2.184   1.183  16.808  0.4327 -1.0595 -0.1976
  396MPD2    C1 5967   2.307   1.162  16.867 -0.2788 -0.3194  0.5783
  396MPD2    C2 5968   2.388   1.269  16.885 -0.2965 -0.5360 -0.4406
  396MPD2    C3 5969   2.353   1.392  16.832  0.2265 -0.2313 -0.4410
  396MPD2    C4 5970   2.232   1.408  16.771  0.5156  0.7367 -0.6236
  396MPD2    C5 5971   2.149   1.303  16.760  0.0318 -0.3303 -0.5525
  396MPD2     H 5972   2.486   1.263  16.932 -0.6633  1.0331  0.5166
  396MPD2    H1 5973   2.194   1.501  16.731 -1.0982  1.3397  2.2559
  396MPD2    H2 5974   2.113   1.102  16.794 -3.5594  2.2439  1.0285
  396MPD2    H3 5975   2.050   1.297  16.715 -0.8991 -0.2114  1.4843
  396MPD2     N 5976   2.447   1.493  16.851  0.1131  0.2106  0.3554
  396MPD2    H5 5977   2.534   1.463  16.892  1.0265  1.6949 -0.5126
  396MPD2    N1 5978   2.339   1.037  16.905  0.3259  0.1169  0.1676
  396MPD2    H7 5979   2.291   0.960  16.859 -0.1625  1.2277 -1.2127
  397TMC3    C1 5980   2.437   0.863  17.010 -0.2778  1.1038  0.4555
  397TMC3    C2 5981   2.511   0.832  16.903  0.4740 -0.2120  0.6449
  397TMC3    C3 5982   2.619   0.764  16.932 -0.3373 -0.3512  0.5973
  397TMC3    C4 5983   2.449   0.811  17.141  0.1750  0.0814 -0.4893
  397TMC3    C5 5984   2.553   0.724  17.159 -0.7748 -0.1497  0.3027
  397TMC3    C6 5985   2.633   0.693  17.051  0.6079 -0.2497 -0.2570
  397TMC3     C 5986   2.420   1.003  17.009  0.2107 -0.1380 -0.9340
  397TMC3     O 5987   2.445   1.073  17.104  0.2115  0.0809  0.4885
  397TMC3     H 5988   2.508   0.899  16.818  1.8646 -0.3751  0.4645
  397TMC3    H1 5989   2.393   0.838  17.230 -0.3375 -1.7403 -0.2570
  397TMC3    H2 5990   2.704   0.611  17.062 -3.2641 -3.4242  1.1705
  397TMC3    C7 5991   2.518   0.610  17.245  0.0522 -0.1089  0.9648
  397TMC3    C8 5992   2.726   0.798  16.847  0.0987 -0.5460 -0.2248
  397TMC3    O1 5993   2.496   0.509  17.182  0.7470  0.3700 -0.3223
  397TMC3    O2 5994   2.705   0.818  16.730  0.0277  0.2431 -0.0781
  398MPD2     C 5995   0.765   3.152   0.823  0.2435  0.2976  0.1996
  398MPD2    C1 5996   0.829   3.070   0.742 -0.1397  0.6811 -0.0825
  398MPD2    C2 5997   0.942   3.115   0.678  0.3693 -0.6933  0.5699
  398MPD2    C3 5998   0.989   3.241   0.694  0.2189  0.1434 -0.4337
  398MPD2    C4 5999   0.914   3.331   0.764  0.3818  0.2477 -0.7576
  398MPD2    C5 6000   0.806   3.285   0.839 -0.0355  0.1664  0.1102
  398MPD2     H 6001   0.985   3.039   0.614  1.9148 -0.6489  1.5594
  398MPD2    H1 6002   0.936   3.436   0.778  1.3522 -0.2410  1.3402
  398MPD2    H2 6003   0.683   3.119   0.887 -0.9948 -0.9831 -2.0552
  398MPD2    H3 6004   0.764   3.342   0.921  0.5257 -0.0928  0.5789
  398MPD2     N 6005   1.113   3.271   0.640  0.4613 -0.1883 -0.7492
  398MPD2    H5 6006   1.158   3.191   0.595 -2.5545 -0.2458 -3.7329
  398MPD2    N1 6007   0.786   2.935   0.724 -0.2817 -0.2170 -0.2673
  398MPD2    H7 6008   0.836   2.887   0.650  0.9550 -0.6178  0.8272
  399TMC3    C1 6009   0.670   2.729   0.723 -0.1923 -0.3042  1.0724
  399TMC3    C2 6010   0.777   2.648   0.727 -0.3134 -0.3820 -0.4066
  399TMC3    C3 6011   0.755   2.513   0.726  0.6017  0.6069 -0.2762
  399TMC3    C4 6012   0.542   2.682   0.718 -0.3125  0.1182  0.1909
  399TMC3    C5 6013   0.521   2.545   0.707  0.6124 -0.4370  0.7234
  399TMC3    C6 6014   0.629   2.462   0.717  0.2284  0.2504 -0.0280
  399TMC3     C 6015   0.683   2.860   0.776  0.7672  1.1698  0.2431
  399TMC3     O 6016   0.591   2.900   0.845 -0.3516  0.0393 -0.2735
  399TMC3     H 6017   0.876   2.683   0.753  0.4716 -0.8357 -2.7174
  399TMC3    H1 6018   0.458   2.748   0.734  0.1184  0.7952 -0.3757
  399TMC3    H2 6019   0.610   2.358   0.693  0.6299  0.6349 -1.9684
  399TMC3    C7 6020   0.393   2.484   0.753  0.4671  0.5889 -0.2052
  399TMC3    C8 6021   0.858   2.420   0.755  0.5935  0.7509 -0.5280
  399TMC3    O1 6022   0.407   2.378   0.814 -0.3376 -0.0674  0.1254
  399TMC3    O2 6023   0.969   2.470   0.756  0.4198 -0.1552 -0.1594
  400TMC3    C1 6024   4.278   1.188  16.824 -0.2175 -0.6064  0.0462
  400TMC3    C2 6025   4.211   1.165  16.713  0.4097  0.4716 -0.7915
  400TMC3    C3 6026   4.126   1.256  16.651 -0.3053 -0.5139  0.0508
  400TMC3    C4 6027   4.264   1.315  16.887  0.2798 -0.2331  0.5835
  400TMC3    C5 6028   4.187   1.404  16.815  0.3365 -0.3131 -0.0234
  400TMC3    C6 6029   4.114   1.375  16.705  0.3020 -0.8482 -0.4882
  400TMC3     C 6030   4.316   1.074  16.910  0.3394  0.2002 -0.8365
  400TMC3     O 6031   4.288   0.962  16.875  0.4271  0.4298 -0.1618
  400TMC3     H 6032   4.213   1.067  16.667 -3.2398  0.1798 -0.3084
  400TMC3    H1 6033   4.273   1.344  16.991  0.5484 -0.5301  0.6435
  400TMC3    H2 6034   4.057   1.451  16.653 -0.0641 -1.9030 -1.6329
  400TMC3    C7 6035   4.147   1.530  16.868 -0.7583  0.0238  0.2127
  400TMC3    C8 6036   3.991   1.212  16.605  0.4437 -0.2052  0.3434
  400TMC3    O1 6037   4.229   1.622  16.856 -0.3854 -0.7770 -0.1230
  400TMC3    O2 6038   3.895   1.288  16.620 -0.2443 -0.0516  0.2823
  401MPD2     C 6039   2.157   4.437   0.441 -0.1631 -0.1577 -0.2034
  401MPD2    C1 6040   2.217   4.382   0.551  0.5243  0.0862 -0.3471
  401MPD2    C2 6041   2.189   4.252   0.585  0.4333 -0.2359  0.3325
  401MPD2    C3 6042   2.117   4.170   0.504  0.5489  0.3760  0.0565
  401MPD2    C4 6043   2.053   4.229   0.395  0.0502 -0.0419  0.3861
  401MPD2    C5 6044   2.067   4.364   0.372  0.0235 -0.4328 -0.5408
  401MPD2     H 6045   2.247   4.207   0.664  0.3578 -1.2146 -0.1636
  401MPD2    H1 6046   1.995   4.173   0.323  0.1837  0.5239 -0.1560
  401MPD2    H2 6047   2.177   4.541   0.419 -2.5869 -0.0729 -1.9394
  401MPD2    H3 6048   2.013   4.421   0.297  0.5669  1.2706  0.3637
  401MPD2     N 6049   2.099   4.030   0.540  0.1136 -0.1485  0.7566
  401MPD2    H5 6050   2.156   3.999   0.619  1.5241 -0.0721 -0.2258
  401MPD2    N1 6051   2.305   4.454   0.635 -0.0037 -0.1309 -0.0210
  401MPD2    H7 6052   2.358   4.402   0.704  1.1141  2.2654  0.9101
  402TMC3    C1 6053   2.001   3.817   0.555 -0.6607 -0.3290 -0.1093
  402TMC3    C2 6054   2.050   3.804   0.681 -0.4001  0.1100 -0.6758
  402TMC3    C3 6055   2.063   3.679   0.731 -0.0633 -0.3437  0.2408
  402TMC3    C4 6056   1.970   3.704   0.471  0.8061  0.1578 -0.1000
  402TMC3    C5 6057   1.994   3.582   0.522  0.6866  0.0079 -0.4238
  402TMC3    C6 6058   2.037   3.571   0.651  0.0517 -0.7387  0.6290
  402TMC3     C 6059   2.013   3.943   0.484 -0.7811 -0.4937 -0.3738
  402TMC3     O 6060   1.938   3.955   0.385 -0.0227 -0.0475 -0.1741
  402TMC3     H 6061   2.080   3.889   0.742  1.6278  1.0184 -2.9292
  402TMC3    H1 6062   1.939   3.721   0.369  1.1888  3.5136  0.3410
  402TMC3    H2 6063   2.040   3.470   0.689  1.6719 -1.2209 -0.7793
  402TMC3    C7 6064   2.060   3.493   0.432  0.3408  0.3770 -1.4635
  402TMC3    C8 6065   2.139   3.660   0.850 -0.2114  0.2069 -0.1392
  402TMC3    O1 6066   2.043   3.511   0.314  0.3329  0.1682 -0.1680
  402TMC3    O2 6067   2.207   3.559   0.847 -0.1001  0.1715 -0.1819
  403MPD2     C 6068   0.857   2.440  13.114 -0.1901 -0.5162  0.1428
  403MPD2    C1 6069   0.781   2.472  13.224  0.0938  0.7445 -0.7303
  403MPD2    C2 6070   0.832   2.443  13.352  0.3280 -0.7534  0.4894
  403MPD2    C3 6071   0.956   2.376  13.366  0.0315  0.2413 -0.1196
  403MPD2    C4 6072   1.020   2.339  13.253 -0.0501  0.1644  0.1916
  403MPD2    C5 6073   0.975   2.376  13.126 -0.0599 -0.6128 -0.3929
  403MPD2     H 6074   0.767   2.459  13.437 -1.6535  3.6083 -1.7985
  403MPD2    H1 6075   1.119   2.294  13.253 -0.0373  0.1820 -0.9271
  403MPD2    H2 6076   0.828   2.474  13.015 -1.3946  1.0078  1.0064
  403MPD2    H3 6077   1.035   2.361  13.037  1.1716  2.1672 -0.0441
  403MPD2     N 6078   1.005   2.357  13.498  0.8579  0.8724 -0.1754
  403MPD2    H5 6079   0.956   2.408  13.572  0.1534 -0.2634  0.1435
  403MPD2    N1 6080   0.660   2.541  13.193  0.0636 -0.6936  0.3226
  403MPD2    H7 6081   0.627   2.536  13.097 -2.2188 -0.6971  1.1029
  404TMC3    C1 6082   0.436   2.562  13.241 -0.2860  0.6382 -0.1421
  404TMC3    C2 6083   0.351   2.508  13.325 -0.5119 -0.4962  0.7802
  404TMC3    C3 6084   0.259   2.417  13.284 -0.0269 -0.0075  0.3424
  404TMC3    C4 6085   0.422   2.535  13.107 -0.4861  0.9385  0.8055
  404TMC3    C5 6086   0.319   2.449  13.066 -0.2531  0.1313 -0.2356
  404TMC3    C6 6087   0.234   2.387  13.151 -0.1911  0.1970  0.4448
  404TMC3     C 6088   0.568   2.581  13.284 -0.6369 -0.6921  0.0892
  404TMC3     O 6089   0.591   2.596  13.403  0.1201  0.3452 -0.1996
  404TMC3     H 6090   0.373   2.512  13.431  0.1333  0.2380  0.6209
  404TMC3    H1 6091   0.459   2.605  13.034  0.6807 -0.8763 -0.3546
  404TMC3    H2 6092   0.147   2.330  13.120  2.2068 -3.9583  1.3441
  404TMC3    C7 6093   0.294   2.451  12.925  0.2341  0.2577  0.2256
  404TMC3    C8 6094   0.214   2.325  13.381  0.3156 -0.2559 -0.7444
  404TMC3    O1 6095   0.340   2.552  12.874 -0.4574 -0.1387  0.3037
  404TMC3    O2 6096   0.213   2.213  13.341  0.3009  0.0347 -0.5802
  405MPD2     C 6097   1.267   3.011  14.341 -0.4072 -0.2826  0.7953
  405MPD2    C1 6098   1.125   3.002  14.355 -0.3659 -0.2191  0.6037
  405MPD2    C2 6099   1.069   3.103  14.418 -0.3802 -0.6654  0.2479
  405MPD2    C3 6100   1.146   3.209  14.468  0.4974 -0.2322  0.4602
  405MPD2    C4 6101   1.285   3.222  14.453  1.0890  0.4487 -0.9866
  405MPD2    C5 6102   1.339   3.118  14.378  0.3927  0.4205 -0.1188
  405MPD2     H 6103   0.961   3.104  14.430 -0.0773 -1.4334  2.8933
  405MPD2    H1 6104   1.351   3.288  14.507 -0.6812  1.4163 -0.0080
  405MPD2    H2 6105   1.323   2.936  14.287 -0.1793 -0.3682  1.1552
  405MPD2    H3 6106   1.445   3.113  14.354  0.2858 -0.2165 -0.4530
  405MPD2     N 6107   1.077   3.300  14.557  0.1610 -0.0066  0.0833
  405MPD2    H5 6108   0.976   3.292  14.558  0.2543 -1.5147 -2.8442
  405MPD2    N1 6109   1.049   2.896  14.303  0.0458  0.3234  0.1821
  405MPD2    H7 6110   1.094   2.823  14.248  0.9934 -0.6044  2.1838
  406TMC3    C1 6111   0.914   3.584  14.859  0.0905 -0.0564 -0.6716
  406TMC3    C2 6112   0.837   3.478  14.917 -0.2153  0.5337 -0.3608
  406TMC3    C3 6113   0.870   3.353  14.881  0.2664 -0.3517 -0.4503
  406TMC3    C4 6114   1.018   3.564  14.773 -0.3964 -0.2932 -0.1716
  406TMC3    C5 6115   1.035   3.436  14.730  0.6213 -0.1820 -0.1007
  406TMC3    C6 6116   0.967   3.328  14.785 -0.4685 -0.1740  0.0036
  406TMC3     C 6117   0.809   3.663  14.795 -0.0527  0.3890  0.4584
  406TMC3     O 6118   0.852   3.760  14.734 -0.6765  0.3371 -0.3574
  406TMC3     H 6119   0.761   3.491  14.992 -0.2684  1.9191 -0.6521
  406TMC3    H1 6120   1.058   3.648  14.717  2.4094 -0.5641  1.4422
  406TMC3    H2 6121   0.989   3.226  14.754  2.5461  0.7355 -0.8200
  406TMC3    C7 6122   1.125   3.416  14.620 -0.6872  0.0076  0.1861
  406TMC3    C8 6123   0.776   3.246  14.918 -0.3505 -1.2816 -0.7625
  406TMC3    O1 6124   1.216   3.493  14.597  0.1695 -0.0536  0.1950
  406TMC3    O2 6125   0.749   3.223  15.036 -0.0678 -0.0598 -0.0257
  407MPD2     C 6126   3.417   4.065  10.187 -0.0316 -0.0706 -0.8119
  407MPD2    C1 6127   3.511   4.134  10.261  0.7568  1.3139 -0.1275
  407MPD2    C2 6128   3.491   4.271  10.257  0.2736  0.8277 -0.9242
  407MPD2    C3 6129   3.382   4.335  10.197 -1.3220  0.3108 -0.4099
  407MPD2    C4 6130   3.307   4.261  10.105  0.1023 -0.0834 -0.3090
  407MPD2    C5 6131   3.318   4.124  10.112  0.3712  0.3961  0.3775
  407MPD2     H 6132   3.563   4.323  10.320 -2.9053  3.3901  0.6192
  407MPD2    H1 6133   3.232   4.308  10.043  0.1824  0.6398  0.1440
  407MPD2    H2 6134   3.424   3.957  10.178 -0.7501 -0.1525 -0.3769
  407MPD2    H3 6135   3.263   4.058  10.046  0.1966 -0.2705  1.1863
  407MPD2     N 6136   3.357   4.470  10.207  0.4162  0.4844  0.2059
  407MPD2    H5 6137   3.286   4.502  10.142  1.0548 -0.0568 -0.7638
  407MPD2    N1 6138   3.620   4.075  10.334  0.2014 -0.2621 -0.1952
  407MPD2    H7 6139   3.694   4.139  10.358 -0.5094  0.2432  0.6532
  408TMC3    C1 6140   3.766   3.898  10.396  0.1561  0.3554 -0.0923
  408TMC3    C2 6141   3.874   3.975  10.351 -0.1547  0.4675 -0.2934
  408TMC3    C3 6142   3.997   3.920  10.337 -0.0225  0.6205 -0.1471
  408TMC3    C4 6143   3.788   3.764  10.418 -0.4030 -0.8129 -0.5568
  408TMC3    C5 6144   3.910   3.717  10.409  0.3526  0.4693 -0.0541
  408TMC3    C6 6145   4.018   3.786  10.364  0.2456 -0.5775  0.3714
  408TMC3     C 6146   3.630   3.936  10.356 -0.0699 -0.4375 -0.0209
  408TMC3     O 6147   3.546   3.851  10.338 -0.2815  0.4995  0.6992
  408TMC3     H 6148   3.863   4.080  10.324  0.0941  0.6957  0.5055
  408TMC3    H1 6149   3.702   3.701  10.434 -0.0091 -1.3214 -0.4455
  408TMC3    H2 6150   4.116   3.745  10.341  1.9852  3.2826  0.8745
  408TMC3    C7 6151   3.932   3.570  10.395  0.4831  1.0664 -0.4276
  408TMC3    C8 6152   4.112   4.008  10.305  0.2748  0.3491  0.2518
  408TMC3    O1 6153   3.867   3.485  10.455  0.0004  0.1066  0.1178
  408TMC3    O2 6154   4.220   3.963  10.345 -0.5815  0.7116 -0.0579
  409MPD2     C 6155   2.694   0.322  16.967 -0.0659  0.2082 -0.3200
  409MPD2    C1 6156   2.827   0.306  16.997  0.1054 -0.1243 -0.4094
  409MPD2    C2 6157   2.917   0.375  16.916 -0.0846 -0.2977 -0.0498
  409MPD2    C3 6158   2.886   0.455  16.809  0.5342 -0.0902  0.2880
  409MPD2    C4 6159   2.749   0.474  16.788 -0.4049  0.3135 -0.3527
  409MPD2    C5 6160   2.658   0.410  16.870  0.3870 -0.1225  0.4889
  409MPD2     H 6161   3.022   0.356  16.933 -1.2395 -3.2018  3.9330
  409MPD2    H1 6162   2.715   0.534  16.704  0.1704  0.7606 -0.2680
  409MPD2    H2 6163   2.614   0.266  17.013  1.0067 -0.9181  0.1722
  409MPD2    H3 6164   2.553   0.433  16.854 -0.3232 -2.0511  2.4659
  409MPD2     N 6165   2.977   0.524  16.725  0.3635 -0.1041 -0.0212
  409MPD2    H5 6166   2.937   0.584  16.654 -0.3754  0.2425  0.6938
  409MPD2    N1 6167   2.873   0.206  17.083  0.2174  0.2334  0.2604
  409MPD2    H7 6168   2.973   0.194  17.078 -0.0937 -2.7477  1.3677
  410TMC3    C1 6169   3.176   0.626  16.658 -0.4243  0.2839 -0.0061
  410TMC3    C2 6170   3.287   0.671  16.717  0.1164 -0.8747 -0.2680
  410TMC3    C3 6171   3.391   0.716  16.644  0.0066 -0.0385 -0.3576
  410TMC3    C4 6172   3.162   0.606  16.524 -0.3642  0.3377 -0.0503
  410TMC3    C5 6173   3.271   0.649  16.450  0.5202  0.7598 -0.5833
  410TMC3    C6 6174   3.387   0.696  16.507  0.3475  0.0364 -0.7491
  410TMC3     C 6175   3.105   0.537  16.755  0.5649  0.1177 -0.6199
  410TMC3     O 6176   3.175   0.499  16.850  0.0008  0.7890 -0.0634
  410TMC3     H 6177   3.289   0.677  16.825 -3.5726 -3.3279 -0.0578
  410TMC3    H1 6178   3.071   0.575  16.472  1.1876 -0.3001 -2.3836
  410TMC3    H2 6179   3.465   0.724  16.437  0.4481 -1.1775 -1.1366
  410TMC3    C7 6180   3.252   0.656  16.307 -0.8697  0.3063 -0.3286
  410TMC3    C8 6181   3.514   0.743  16.713  0.8110 -0.2783  0.8377
  410TMC3    O1 6182   3.198   0.555  16.260 -0.1812  0.0582 -0.7602
  410TMC3    O2 6183   3.505   0.778  16.827 -0.0761 -0.3383  0.4840
  411MPD2     C 6184   2.824   1.217  14.303 -0.0474  0.9646  0.4982
  411MPD2    C1 6185   2.795   1.212  14.439  0.3978  0.2232 -0.1348
  411MPD2    C2 6186   2.700   1.126  14.476 -0.4717  0.2149  0.0605
  411MPD2    C3 6187   2.646   1.024  14.400 -0.4528  1.0825  0.3264
  411MPD2    C4 6188   2.688   1.030  14.269  0.1386  0.0180  0.6980
  411MPD2    C5 6189   2.771   1.125  14.218 -0.4582 -0.7170 -0.0926
  411MPD2     H 6190   2.681   1.114  14.582 -0.3180  2.0975  0.3182
  411MPD2    H1 6191   2.639   0.970  14.193  0.9477 -0.4074  0.5062
  411MPD2    H2 6192   2.881   1.294  14.252 -1.1093  0.7392 -1.0190
  411MPD2    H3 6193   2.786   1.130  14.111  1.6416  2.6854  0.3746
  411MPD2     N 6194   2.561   0.919  14.448  0.4971  0.6219 -0.3488
  411MPD2    H5 6195   2.535   0.843  14.386  0.9110 -1.0809  1.5643
  411MPD2    N1 6196   2.858   1.299  14.524  0.4421  0.4341 -0.0393
  411MPD2    H7 6197   2.923   1.360  14.475  0.8014  1.7103  2.0180
  412TMC3    C1 6198   2.453   0.773  14.594 -0.1134 -0.0425 -0.2858
  412TMC3    C2 6199   2.319   0.769  14.616  0.1030 -0.2846  0.0855
  412TMC3    C3 6200   2.238   0.679  14.552 -0.6204 -0.2025  0.4731
  412TMC3    C4 6201   2.507   0.674  14.511 -1.0154 -1.1424 -0.5189
  412TMC3    C5 6202   2.429   0.585  14.444  0.4278  0.1037  0.0692
  412TMC3    C6 6203   2.297   0.590  14.465  1.1743  0.7614  0.2460
  412TMC3     C 6204   2.501   0.913  14.572 -0.4319  0.0377 -0.4835
  412TMC3     O 6205   2.488   0.993  14.660  0.1351  0.4672 -0.7978
  412TMC3     H 6206   2.270   0.855  14.660  1.1862  0.2221  0.2819
  412TMC3    H1 6207   2.614   0.681  14.497 -1.5405  2.6884 -2.6953
  412TMC3    H2 6208   2.236   0.524  14.404 -0.4023  1.9188  0.5511
  412TMC3    C7 6209   2.452   0.603  14.300 -1.2903  0.0237 -0.8213
  412TMC3    C8 6210   2.112   0.737  14.505 -0.2364 -0.4712  1.6342
  412TMC3    O1 6211   2.356   0.631  14.233  0.1324  0.0752 -0.6130
  412TMC3    O2 6212   2.059   0.825  14.574  0.0389  0.0501 -0.1741
  413MPD2     C 6213   0.009   4.661  15.658  1.1459 -0.6782  0.3713
  413MPD2    C1 6214   4.712   4.585  15.550  0.5549  0.2329  0.2859
  413MPD2    C2 6215   0.073   4.532  15.467 -0.2217 -0.0035  0.4091
  413MPD2    C3 6216   0.210   4.543  15.496  0.0604  0.0020 -0.5825
  413MPD2    C4 6217   0.248   4.615  15.604  0.1895  0.1261 -0.5788
  413MPD2    C5 6218   0.145   4.671  15.687 -0.4069 -0.4288 -0.1406
  413MPD2     H 6219   0.041   4.476  15.380 -2.1469  2.5680 -0.5280
  413MPD2    H1 6220   0.350   4.623  15.639  0.1632 -0.7608 -0.2977
  413MPD2    H2 6221   4.674   4.707  15.726  2.3331  1.6055  0.1003
  413MPD2    H3 6222   0.166   4.717  15.783  0.2495 -1.1566  0.0685
  413MPD2     N 6223   0.299   4.475  15.405 -0.5018  0.1949  0.4570
  413MPD2    H5 6224   0.253   4.414  15.338 -2.0054  0.1877  1.4970
  413MPD2    N1 6225   4.577   4.553  15.527  0.6723  0.1935 -1.2131
  413MPD2    H7 6226   4.506   4.565  15.599  0.7101 -1.6426 -0.8825
  414TMC3    C1 6227   0.476   4.351  15.344 -0.0181 -0.5411  0.0603
  414TMC3    C2 6228   0.541   4.242  15.408  0.4142 -0.0675 -0.1455
  414TMC3    C3 6229   0.529   4.117  15.350 -0.2558 -0.3331 -0.0232
  414TMC3    C4 6230   0.380   4.321  15.252 -0.7515  0.0788  0.4098
  414TMC3    C5 6231   0.380   4.199  15.191  0.2800  0.6202 -0.4093
  414TMC3    C6 6232   0.443   4.089  15.245  0.2352  0.3049 -0.4033
  414TMC3     C 6233   0.432   4.457  15.432 -0.5417  0.9175  0.1295
  414TMC3     O 6234   0.506   4.508  15.514 -0.1363 -0.2028  0.2875
  414TMC3     H 6235   0.600   4.263  15.497 -0.4485  0.7900  0.2235
  414TMC3    H1 6236   0.336   4.398  15.190  0.0118  0.2542  0.0811
  414TMC3    H2 6237   0.440   3.995  15.191  1.4053  0.2973 -0.4577
  414TMC3    C7 6238   0.259   4.177  15.114  0.0819  0.7315  0.2795
  414TMC3    C8 6239   0.621   4.001  15.377 -0.4250 -0.2173  0.8109
  414TMC3    O1 6240   0.162   4.217  15.179 -0.2885  0.6447  0.3721
  414TMC3    O2 6241   0.597   3.904  15.306  0.4840 -0.0539  0.2663
  415TMC3    C1 6242   0.778   1.826  10.015  0.0626 -0.7289 -0.5971
  415TMC3    C2 6243   0.848   1.919   9.950 -0.1395 -0.6145  0.1584
  415TMC3    C3 6244   0.835   2.046  10.003 -0.4249 -0.1564  0.1987
  415TMC3    C4 6245   0.680   1.857  10.113 -0.2052 -0.0987 -0.4466
  415TMC3    C5 6246   0.662   1.990  10.143 -0.3976  0.9571  0.0785
  415TMC3    C6 6247   0.747   2.086  10.098  0.0645 -0.3468  0.4935
  415TMC3     C 6248   0.796   1.680   9.995 -0.3204 -0.3959 -0.0802
  415TMC3     O 6249   0.756   1.598  10.075  0.3218  0.2448 -0.3891
  415TMC3     H 6250   0.930   1.892   9.884 -2.1213 -1.9741 -1.7225
  415TMC3    H1 6251   0.630   1.775  10.163  0.6595 -0.4557 -0.1642
  415TMC3    H2 6252   0.735   2.187  10.134 -1.2913 -0.1262 -0.5707
  415TMC3    C7 6253   0.598   2.026  10.269 -0.0821  0.1506  0.2145
  415TMC3    C8 6254   0.937   2.140   9.961 -0.5808  0.5950 -0.4286
  415TMC3    O1 6255   0.637   2.124  10.331 -0.3343  0.4567  0.4323
  415TMC3    O2 6256   1.001   2.102   9.863 -0.5787 -0.0867 -0.5066
  416MPD2     C 6257   2.847   1.281  11.410 -0.0722 -0.3047 -0.5697
  416MPD2    C1 6258   2.714   1.324  11.424 -0.0718 -0.0671  0.8362
  416MPD2    C2 6259   2.605   1.240  11.405  0.2209 -0.0315  0.8655
  416MPD2    C3 6260   2.630   1.105  11.395 -0.1894  0.0644 -0.2322
  416MPD2    C4 6261   2.758   1.065  11.355 -0.2918 -0.6791 -0.3380
  416MPD2    C5 6262   2.864   1.153  11.370 -0.1975 -0.1234 -0.5720
  416MPD2     H 6263   2.503   1.264  11.433  0.4843  0.3934  1.4776
  416MPD2    H1 6264   2.776   0.958  11.354 -0.0359 -0.6387 -0.1619
  416MPD2    H2 6265   2.925   1.354  11.430 -1.9248  1.3981  0.6014
  416MPD2    H3 6266   2.962   1.108  11.362 -0.0117  0.3859 -1.1397
  416MPD2     N 6267   2.530   1.007  11.402 -0.7199 -0.1699 -0.2358
  416MPD2    H5 6268   2.568   0.914  11.384  0.0537  0.0667  0.1790
  416MPD2    N1 6269   2.689   1.448  11.482  0.1577 -0.2780  0.4044
  416MPD2    H7 6270   2.776   1.495  11.507 -1.2541  2.0964  0.8561
  417TMC3    C1 6271   2.571   1.637  11.575 -0.3492 -0.1765  0.5293
  417TMC3    C2 6272   2.626   1.624  11.693  0.4988 -0.5303  0.2728
  417TMC3    C3 6273   2.567   1.688  11.798 -0.0753 -0.2194  0.5803
  417TMC3    C4 6274   2.456   1.711  11.555 -0.6583 -0.4654  0.0692
  417TMC3    C5 6275   2.406   1.781  11.658  0.2719 -0.3314  0.0389
  417TMC3    C6 6276   2.466   1.780  11.775  0.4372  0.4429 -0.0293
  417TMC3     C 6277   2.569   1.515  11.493  0.4883 -0.5795  0.0991
  417TMC3     O 6278   2.462   1.485  11.446  0.4258 -0.3593 -0.3928
  417TMC3     H 6279   2.700   1.551  11.725  0.8410 -0.7033 -0.9315
  417TMC3    H1 6280   2.405   1.710  11.459  0.8361 -0.4737 -0.7188
  417TMC3    H2 6281   2.414   1.830  11.856 -0.4079  1.7509 -1.3804
  417TMC3    C7 6282   2.258   1.776  11.653  0.7883  0.0696 -0.5587
  417TMC3    C8 6283   2.533   1.607  11.906 -0.3910 -0.1636 -0.3043
  417TMC3    O1 6284   2.209   1.858  11.578  0.1132 -0.0128 -0.3425
  417TMC3    O2 6285   2.418   1.612  11.939 -0.3108  0.2180  0.1897
  418TMC3    C1 6286   1.435   3.285   0.409 -0.1698 -0.1182  0.0074
  418TMC3    C2 6287   1.323   3.354   0.434  0.1682 -0.2554 -0.1365
  418TMC3    C3 6288   1.299   3.385   0.572  0.3907 -0.0827  0.3592
  418TMC3    C4 6289   1.527   3.251   0.506  0.7222 -0.4135 -0.5302
  418TMC3    C5 6290   1.501   3.276   0.637  0.5940 -0.3524 -0.3907
  418TMC3    C6 6291   1.376   3.334   0.670  0.1736 -0.2421 -0.1254
  418TMC3     C 6292   1.467   3.244   0.270  0.3288  0.6954  0.4198
  418TMC3     O 6293   1.416   3.303   0.175 -0.0890 -0.3575  0.0630
  418TMC3     H 6294   1.261   3.398   0.357  1.3983  1.3809 -0.1946
  418TMC3    H1 6295   1.618   3.195   0.484  1.5148  0.3217  0.8272
  418TMC3    H2 6296   1.345   3.360   0.771  0.4234  1.8518 -0.5910
  418TMC3    C7 6297   1.551   3.183   0.735  0.1170 -0.4858  0.7431
  418TMC3    C8 6298   1.163   3.396   0.605 -0.4446 -0.0673  0.0343
  418TMC3    O1 6299   1.576   3.076   0.691 -0.2565  0.3063  0.5895
  418TMC3    O2 6300   1.121   3.507   0.624  0.0077  0.1144  0.3712
  419MPD2     C 6301   4.645   1.272  12.653  0.2873  0.6907 -0.0464
  419MPD2    C1 6302   4.582   1.201  12.749 -0.6142 -0.2641 -0.2606
  419MPD2    C2 6303   4.514   1.269  12.849 -0.5983 -0.1878  0.0151
  419MPD2    C3 6304   4.505   1.409  12.841  0.4427 -0.0408 -0.2789
  419MPD2    C4 6305   4.558   1.478  12.733  0.0177  0.4146  0.2536
  419MPD2    C5 6306   4.627   1.409  12.640  0.5211  0.0382 -0.0745
  419MPD2     H 6307   4.459   1.221  12.928 -1.1606 -1.9840 -1.4789
  419MPD2    H1 6308   4.540   1.583  12.715 -1.5520  0.1342  0.1544
  419MPD2    H2 6309   4.701   1.215  12.579  1.2785  0.2498  1.0418
  419MPD2    H3 6310   4.682   1.464  12.564  1.0670 -1.6921 -0.9384
  419MPD2     N 6311   4.434   1.465  12.945 -0.2326 -0.4443  0.0183
  419MPD2    H5 6312   4.370   1.401  12.992  0.0311 -0.7444 -0.0340
  419MPD2    N1 6313   4.571   1.063  12.756 -0.3581 -0.1926 -0.5831
  419MPD2    H7 6314   4.525   1.026  12.839 -0.7295  2.9387  0.5872
  420TMC3    C1 6315   4.310   1.606  13.061  0.2403  0.2695 -0.6560
  420TMC3    C2 6316   4.230   1.720  13.057  0.3937  0.6047 -0.4147
  420TMC3    C3 6317   4.151   1.748  13.163  0.3639  0.0181  0.5563
  420TMC3    C4 6318   4.327   1.532  13.173 -0.4302 -0.0544  0.3183
  420TMC3    C5 6319   4.254   1.577  13.287  0.1583  0.3687  0.1639
  420TMC3    C6 6320   4.164   1.685  13.283  0.2825  0.3907 -0.8682
  420TMC3     C 6321   4.405   1.596  12.960  0.0420  0.2680 -0.2710
  420TMC3     O 6322   4.440   1.693  12.896  0.3889 -0.4064  0.2882
  420TMC3     H 6323   4.228   1.779  12.967  0.6007  2.2043  0.6347
  420TMC3    H1 6324   4.393   1.447  13.179  0.8822  0.9828  0.6160
  420TMC3    H2 6325   4.099   1.703  13.368 -0.6400  1.2143 -1.7484
  420TMC3    C7 6326   4.296   1.526  13.417  0.5680 -0.3065 -0.6259
  420TMC3    C8 6327   4.009   1.787  13.139 -0.2741 -0.3136  0.2372
  420TMC3    O1 6328   4.358   1.420  13.417  0.5828 -0.0753 -0.0996
  420TMC3    O2 6329   3.992   1.895  13.083  0.3136 -0.4030  0.2153
  421TMC3    C1 6330   1.157   2.294  13.663  0.5046  0.2248  0.5743
  421TMC3    C2 6331   1.107   2.393  13.739 -0.0904 -0.6707 -0.1115
  421TMC3    C3 6332   1.131   2.394  13.874  0.9176 -1.0925 -0.1061
  421TMC3    C4 6333   1.235   2.200  13.718  0.5795 -0.4070 -0.0915
  421TMC3    C5 6334   1.260   2.201  13.851 -0.2580  0.5762 -0.3818
  421TMC3    C6 6335   1.207   2.295  13.931  0.5461  0.0002  0.0646
  421TMC3     C 6336   1.122   2.287  13.524 -0.5450  0.0871  0.2922
  421TMC3     O 6337   1.171   2.196  13.460  0.3887 -0.4914 -0.5085
  421TMC3     H 6338   1.087   2.492  13.702 -0.9846 -0.3787  1.1435
  421TMC3    H1 6339   1.295   2.132  13.659  1.1734  0.7794 -0.8540
  421TMC3    H2 6340   1.224   2.295  14.038  1.0482 -3.2437 -0.0205
  421TMC3    C7 6341   1.375   2.130  13.898  0.4031 -0.5806  0.0741
  421TMC3    C8 6342   1.124   2.518  13.944  0.5461 -0.2059  0.0328
  421TMC3    O1 6343   1.474   2.133  13.826  0.2230 -0.0550  0.3930
  421TMC3    O2 6344   1.189   2.522  14.045  0.4936  0.8170  0.2201
  422TMC3    C1 6345   3.328   4.242  12.484 -0.5905 -0.3736  0.6763
  422TMC3    C2 6346   3.313   4.292  12.610  1.2471  0.3864  0.0515
  422TMC3    C3 6347   3.297   4.200  12.714 -0.6497  1.0352  0.2896
  422TMC3    C4 6348   3.312   4.107  12.455 -0.0259 -0.0782  0.7503
  422TMC3    C5 6349   3.270   4.028  12.558 -0.1777  0.5587 -0.1777
  422TMC3    C6 6350   3.263   4.072  12.688  0.3589 -0.2753 -0.2043
  422TMC3     C 6351   3.427   4.314  12.407  0.1887  0.4664 -0.5580
  422TMC3     O 6352   3.542   4.267  12.411 -0.4274  0.2892 -0.1180
  422TMC3     H 6353   3.321   4.397  12.635 -1.7641  0.3988  0.9281
  422TMC3    H1 6354   3.317   4.075  12.352  2.5564  1.5885  0.3602
  422TMC3    H2 6355   3.232   3.997  12.759  1.9841 -2.0889 -1.4033
  422TMC3    C7 6356   3.204   3.903  12.519 -0.2047 -0.6422  0.1553
  422TMC3    C8 6357   3.294   4.254  12.840 -0.4290 -0.0645 -0.4964
  422TMC3    O1 6358   3.250   3.847  12.424  0.1445  0.3315 -0.4163
  422TMC3    O2 6359   3.362   4.357  12.856  0.3694 -0.3148  0.0063
  423MPD2     C 6360   0.214   0.758   0.625 -0.1605  0.5493  0.0642
  423MPD2    C1 6361   0.205   0.629   0.668 -0.0424  0.3360  0.3233
  423MPD2    C2 6362   0.246   0.527   0.586 -0.6077 -0.0207  0.0215
  423MPD2    C3 6363   0.307   0.552   0.468  0.3349  0.0274 -0.0251
  423MPD2    C4 6364   0.309   0.677   0.419 -0.1797 -0.4730  0.4588
  423MPD2    C5 6365   0.261   0.783   0.494 -0.5352  0.1725  0.7519
  423MPD2     H 6366   0.250   0.430   0.633  0.0621 -0.5743 -1.1609
  423MPD2    H1 6367   0.347   0.702   0.320 -1.2879  2.5437  0.7727
  423MPD2    H2 6368   0.201   0.847   0.685 -1.9797  0.2763  0.0690
  423MPD2    H3 6369   0.259   0.877   0.440 -0.0202 -0.6220 -0.6410
  423MPD2     N 6370   0.351   0.448   0.382  0.5534  0.2982 -0.9333
  423MPD2    H5 6371   0.398   0.470   0.295  1.4805  1.4108 -0.1510
  423MPD2    N1 6372   0.153   0.594   0.796 -0.9603  0.8486 -0.6054
  423MPD2    H7 6373   0.158   0.495   0.814 -0.7886  0.9991  0.1559
  424TMC3    C1 6374   0.099   0.633   1.027 -0.2826 -0.2265 -0.3259
  424TMC3    C2 6375   0.183   0.528   1.068  0.0955  0.3442 -0.0351
  424TMC3    C3 6376   0.192   0.492   1.197  0.4868 -0.1631 -0.4199
  424TMC3    C4 6377   0.012   0.688   1.123 -0.2654  0.0212  0.0005
  424TMC3    C5 6378   0.010   0.629   1.248 -0.2547 -0.4392 -0.1348
  424TMC3    C6 6379   0.100   0.536   1.289 -0.6161 -0.2643 -0.4775
  424TMC3     C 6380   0.116   0.687   0.894 -0.9835  0.1955  0.0847
  424TMC3     O 6381   0.113   0.812   0.890  0.1389  0.1054  0.5060
  424TMC3     H 6382   0.254   0.489   0.996  1.5039  3.0992 -0.1479
  424TMC3    H1 6383   4.691   0.779   1.112  0.5180  0.4285 -0.7339
  424TMC3    H2 6384   0.100   0.499   1.391 -1.8137 -0.9869 -0.7340
  424TMC3    C7 6385   4.639   0.673   1.336  0.0090  0.3895  0.8315
  424TMC3    C8 6386   0.273   0.374   1.232 -1.0876 -0.3162  0.9494
  424TMC3    O1 6387   4.668   0.668   1.452  0.4855  0.0350 -0.1459
  424TMC3    O2 6388   0.248   0.318   1.338 -0.1256 -0.2340  0.4463
  425MPD2     C 6389   4.041   3.882  17.291 -0.3374 -0.3855 -0.1072
  425MPD2    C1 6390   3.944   3.787  17.305  0.3210  0.6549  0.9379
  425MPD2    C2 6391   3.836   3.815  17.382  0.0516  0.4118  0.3556
  425MPD2    C3 6392   3.813   3.937  17.435  0.2618  0.2212  1.1843
  425MPD2    C4 6393   3.916   4.028  17.428  0.6110 -0.9265  0.9883
  425MPD2    C5 6394   4.024   4.004  17.348  0.3256 -0.3943  0.5690
  425MPD2     H 6395   3.752   3.749  17.400 -0.7044  0.7506 -1.9299
  425MPD2    H1 6396   3.908   4.128  17.469  1.4044 -1.2493  1.9382
  425MPD2    H2 6397   4.125   3.863  17.225 -1.4348 -1.1184 -1.2905
  425MPD2    H3 6398   4.101   4.078  17.331 -1.0553  0.8295 -0.2574
  425MPD2     N 6399   3.697   3.960  17.506 -0.2210 -0.4016  0.1682
  425MPD2    H5 6400   3.644   3.875  17.525  0.7754 -0.9605  0.4734
  425MPD2    N1 6401   3.974   3.657  17.262  0.1446 -0.1783 -0.0469
  425MPD2    H7 6402   4.056   3.646  17.203  0.8248  1.5334  0.5779
  426TMC3    C1 6403   3.945   3.429  17.220 -0.2078 -0.6352 -0.0409
  426TMC3    C2 6404   3.972   3.447  17.082 -0.4632  0.5818 -0.1016
  426TMC3    C3 6405   3.964   3.338  17.006 -0.4678 -0.0706 -0.7341
  426TMC3    C4 6406   3.898   3.314  17.269  0.5415  0.2170 -0.5447
  426TMC3    C5 6407   3.873   3.217  17.183 -1.0260  0.8460  0.1790
  426TMC3    C6 6408   3.906   3.224  17.052 -0.8463  0.5728  0.1778
  426TMC3     C 6409   3.908   3.542  17.303 -0.0377  0.7541  0.7178
  426TMC3     O 6410   3.819   3.523  17.387 -0.5825  0.3269  0.2748
  426TMC3     H 6411   4.038   3.528  17.054  2.2506 -1.1787  1.1212
  426TMC3    H1 6412   3.864   3.310  17.372 -1.2271  0.9424 -1.1065
  426TMC3    H2 6413   3.909   3.134  16.991  1.1760  2.3141 -2.2700
  426TMC3    C7 6414   3.770   3.119  17.210  1.5755 -0.4196  0.1420
  426TMC3    C8 6415   4.015   3.342  16.868  0.0582 -0.9090 -0.5133
  426TMC3    O1 6416   3.765   3.029  17.130 -0.3029  0.1577  0.3579
  426TMC3    O2 6417   4.007   3.239  16.804 -0.0366 -0.3897  0.3430
  427MPD2     C 6418   2.152   0.915  14.974 -0.3322 -0.2012 -0.3050
  427MPD2    C1 6419   2.172   0.979  15.092 -0.0862  0.3832  0.3549
  427MPD2    C2 6420   2.077   1.071  15.138 -0.3723  0.3795  1.2311
  427MPD2    C3 6421   1.956   1.094  15.067 -0.1169 -0.3520 -0.3842
  427MPD2    C4 6422   1.943   1.025  14.954  0.0392  0.1211  0.2792
  427MPD2    C5 6423   2.031   0.939  14.905 -0.0057 -0.1709 -0.4095
  427MPD2     H 6424   2.095   1.118  15.233 -1.2078  1.3202  0.9226
  427MPD2    H1 6425   1.851   1.036  14.897  1.0723  2.6562 -0.9057
  427MPD2    H2 6426   2.215   0.842  14.925 -1.2264  0.1035 -1.9276
  427MPD2    H3 6427   2.031   0.893  14.807  0.2552 -2.9109  0.8854
  427MPD2     N 6428   1.849   1.178  15.116 -0.0990  0.4684  0.1541
  427MPD2    H5 6429   1.764   1.175  15.060 -0.4077  0.6042  0.6096
  427MPD2    N1 6430   2.283   0.947  15.170 -0.1963  0.0459 -1.2311
  427MPD2    H7 6431   2.277   0.993  15.261  0.5238 -0.2508 -1.0326
  428TMC3    C1 6432   2.470   0.829  15.257  0.5668 -0.5707 -0.3885
  428TMC3    C2 6433   2.400   0.791  15.363 -0.3398 -0.5522 -0.0350
  428TMC3    C3 6434   2.448   0.822  15.485  0.6575  0.2650  0.7414
  428TMC3    C4 6435   2.591   0.894  15.270 -0.4204 -0.3510  0.3807
  428TMC3    C5 6436   2.634   0.917  15.397  0.6673  0.3566 -0.2684
  428TMC3    C6 6437   2.563   0.893  15.509 -0.0137 -0.0501  0.7134
  428TMC3     C 6438   2.398   0.872  15.140  0.2506  0.0465 -0.5982
  428TMC3     O 6439   2.442   0.851  15.032 -0.4812  0.3264 -0.6891
  428TMC3     H 6440   2.303   0.742  15.367 -0.4529 -0.1950  1.5160
  428TMC3    H1 6441   2.652   0.897  15.180  0.6437  0.5164  1.1396
  428TMC3    H2 6442   2.602   0.906  15.609  2.5181  0.1226 -0.2923
  428TMC3    C7 6443   2.768   0.980  15.422 -0.2802 -0.0702  0.2163
  428TMC3    C8 6444   2.385   0.764  15.602  0.5682 -0.0154 -0.5160
  428TMC3    O1 6445   2.807   0.968  15.537 -0.1853  0.0868  0.5275
  428TMC3    O2 6446   2.338   0.651  15.586  0.0276  0.0765 -0.2206
  429MPD2     C 6447   2.974   1.033  17.534 -0.4599  0.1583 -0.1103
  429MPD2    C1 6448   3.097   0.982  17.494 -0.5921  0.5530 -0.7249
  429MPD2    C2 6449   3.163   1.039  17.382 -0.2670 -0.5991  1.0382
  429MPD2    C3 6450   3.097   1.129  17.295  0.3750  0.2864 -0.2851
  429MPD2    C4 6451   2.975   1.177  17.330  0.3035 -0.8163  0.0841
  429MPD2    C5 6452   2.915   1.126  17.446 -0.3256  0.9340 -0.4041
  429MPD2     H 6453   3.247   0.979  17.348  0.0741  0.3057  0.3062
  429MPD2    H1 6454   2.926   1.249  17.266 -1.5647 -4.2077 -2.3499
  429MPD2    H2 6455   2.923   1.009  17.626  1.8299  1.1914  1.4345
  429MPD2    H3 6456   2.815   1.153  17.477  0.1179  4.0690 -1.7112
  429MPD2     N 6457   3.177   1.177  17.190 -0.3211 -0.2876  0.2183
  429MPD2    H5 6458   3.278   1.173  17.185 -0.2080  2.7414 -0.1463
  429MPD2    N1 6459   3.151   0.856  17.547  0.6351  0.6479  0.0008
  429MPD2    H7 6460   3.226   0.822  17.488 -1.2082 -1.6387 -1.0280
  430TMC3    C1 6461   3.215   1.330  17.014  0.1405  0.3014  0.2589
  430TMC3    C2 6462   3.166   1.381  16.890 -0.1066 -0.7600 -0.6152
  430TMC3    C3 6463   3.214   1.496  16.850  0.3193 -0.2359  0.0838
  430TMC3    C4 6464   3.311   1.397  17.080  1.1103 -0.5963  0.0183
  430TMC3    C5 6465   3.367   1.505  17.024 -0.7903 -0.1447  0.1603
  430TMC3    C6 6466   3.313   1.563  16.910 -0.0706 -0.3921  0.0443
  430TMC3     C 6467   3.118   1.246  17.087  0.1660  0.9717  0.2039
  430TMC3     O 6468   3.004   1.247  17.047  0.1788  0.1725  0.2217
  430TMC3     H 6469   3.087   1.331  16.836  1.6061 -2.5639 -1.4380
  430TMC3    H1 6470   3.359   1.358  17.169 -0.9368 -0.5374  1.1447
  430TMC3    H2 6471   3.373   1.629  16.849  0.2891 -0.5178  0.2670
  430TMC3    C7 6472   3.508   1.519  17.028 -0.7520  0.0550  0.8384
  430TMC3    C8 6473   3.213   1.504  16.706  0.1393 -0.6023 -1.0057
  430TMC3    O1 6474   3.573   1.418  17.054 -0.2749 -1.0048  0.2899
  430TMC3    O2 6475   3.227   1.398  16.640 -0.0279  0.3129  0.2231
  431MPD2     C 6476   4.092   1.521  12.686  0.6516 -0.6480  0.0824
  431MPD2    C1 6477   4.196   1.480  12.604 -0.1692 -0.6063  0.5201
  431MPD2    C2 6478   4.220   1.347  12.598  0.4567  0.2670 -0.2073
  431MPD2    C3 6479   4.147   1.249  12.670 -0.3983  0.1963  0.4587
  431MPD2    C4 6480   4.049   1.294  12.754  0.2392 -0.0471 -0.4217
  431MPD2    C5 6481   4.019   1.426  12.755  0.3725  0.2846 -1.2413
  431MPD2     H 6482   4.306   1.311  12.542 -1.0617 -1.3525 -1.5187
  431MPD2    H1 6483   3.980   1.221  12.793  0.0685  0.2805 -0.1066
  431MPD2    H2 6484   4.064   1.625  12.693 -1.9157 -1.3964  0.9218
  431MPD2    H3 6485   3.929   1.457  12.808  0.3319 -3.9501  1.0843
  431MPD2     N 6486   4.163   1.111  12.661  0.3956 -0.2442  0.0222
  431MPD2    H5 6487   4.134   1.059  12.743  1.8620  2.4499  2.2542
  431MPD2    N1 6488   4.281   1.566  12.534  0.4356  0.0904 -0.5171
  431MPD2    H7 6489   4.353   1.528  12.474  2.5637  0.4130  1.8594
  432TMC3    C1 6490   4.281   0.927  12.579 -0.0800 -0.6457 -0.4619
  432TMC3    C2 6491   4.309   0.865  12.461 -0.9080  0.3834 -0.6707
  432TMC3    C3 6492   4.431   0.791  12.443 -0.6605  0.3990  0.3374
  432TMC3    C4 6493   4.378   0.922  12.672  0.5458  0.0176 -0.0331
  432TMC3    C5 6494   4.510   0.867  12.650 -0.4490  0.0976  0.1171
  432TMC3    C6 6495   4.530   0.798  12.533  0.7352  0.7150 -0.4184
  432TMC3     C 6496   4.227   1.056  12.553  0.1216  0.4883 -0.2538
  432TMC3     O 6497   4.247   1.103  12.441  0.3712  0.0057  0.4943
  432TMC3     H 6498   4.245   0.880  12.374 -2.0980  0.4724  0.2244
  432TMC3    H1 6499   4.361   0.971  12.767 -2.4335 -0.0551 -0.5329
  432TMC3    H2 6500   4.621   0.739  12.528  0.0782 -0.3926  0.5427
  432TMC3    C7 6501   4.607   0.978  12.656 -0.5706  0.7903  0.1778
  432TMC3    C8 6502   4.478   0.788  12.300  0.6972 -0.3141 -0.2720
  432TMC3    O1 6503   4.664   0.995  12.549  0.4464 -0.2158  0.3271
  432TMC3    O2 6504   4.396   0.778  12.210  1.1304  0.4933 -0.1101
  433MPD2     C 6505   3.108   0.339  10.936  0.0242 -0.0744  0.3216
  433MPD2    C1 6506   3.189   0.247  10.996 -0.0158  0.7595  0.4866
  433MPD2    C2 6507   3.237   0.285  11.120 -0.1135 -0.0832  0.0116
  433MPD2    C3 6508   3.220   0.416  11.171 -0.2748  0.2702 -0.1527
  433MPD2    C4 6509   3.145   0.504  11.107 -0.2850 -0.2260 -0.6896
  433MPD2    C5 6510   3.086   0.465  10.991  0.5053 -0.1373 -0.3141
  433MPD2     H 6511   3.305   0.216  11.169  1.2400  1.7910  0.7575
  433MPD2    H1 6512   3.131   0.603  11.149 -4.0923 -0.2493 -1.8577
  433MPD2    H2 6513   3.056   0.313  10.844  0.1095  1.6424 -0.2134
  433MPD2    H3 6514   3.015   0.537  10.952  0.8310  1.2344  1.6072
  433MPD2     N 6515   3.287   0.438  11.294 -0.4526  0.0751  0.1245
  433MPD2    H5 6516   3.339   0.364  11.339 -1.2920  0.1897  1.2695
  433MPD2    N1 6517   3.225   0.129  10.928  0.3239 -0.1134  0.4998
  433MPD2    H7 6518   3.172   0.096  10.848 -0.9667 -1.5592  1.9591
  434TMC3    C1 6519   3.303   4.643  10.913 -0.0807  0.1874  0.1957
  434TMC3    C2 6520   3.392   4.552  10.963  1.1214  0.7373 -0.1197
  434TMC3    C3 6521   3.362   4.419  10.965 -0.9750 -0.2515 -0.1253
  434TMC3    C4 6522   3.183   4.601  10.862  0.2519  0.7493  0.2002
  434TMC3    C5 6523   3.155   4.463  10.878 -0.1111  0.2394  0.0238
  434TMC3    C6 6524   3.245   4.372  10.917  0.0113  0.6106  0.6245
  434TMC3     C 6525   3.318   0.040  10.977  0.1235  0.3775  0.1115
  434TMC3     O 6526   3.402   0.050  11.062  0.3615 -0.1616 -0.7512
  434TMC3     H 6527   3.482   4.589  11.012  0.8417  0.9961  0.1998
  434TMC3    H1 6528   3.122   4.677  10.815  1.4115  0.8195 -1.1815
  434TMC3    H2 6529   3.226   4.265  10.918  1.3985  0.3602 -0.5833
  434TMC3    C7 6530   3.055   4.412  10.792  0.6177 -0.1489 -0.1263
  434TMC3    C8 6531   3.424   4.341  11.073 -0.3216 -0.6395  0.8917
  434TMC3    O1 6532   3.048   4.291  10.791  0.6215  0.1345  0.2488
  434TMC3    O2 6533   3.537   4.374  11.108 -0.1979  0.1447  0.3312
  435MPD2     C 6534   0.730   0.307  15.621 -0.1499 -0.0660 -0.2270
  435MPD2    C1 6535   0.685   0.225  15.726 -0.0445 -0.6025 -0.5197
  435MPD2    C2 6536   0.781   0.146  15.784 -0.0627 -0.2412  0.7720
  435MPD2    C3 6537   0.915   0.150  15.756 -0.2685  0.1439 -1.1632
  435MPD2    C4 6538   0.957   0.229  15.653  0.2122  0.2188  0.7398
  435MPD2    C5 6539   0.864   0.302  15.583 -0.4905  0.5151  0.2970
  435MPD2     H 6540   0.758   0.083  15.869 -1.8732  0.1880  0.6025
  435MPD2    H1 6541   1.061   0.243  15.623 -0.8994  2.5272 -2.0051
  435MPD2    H2 6542   0.667   0.377  15.569 -1.5010 -0.8062  0.4263
  435MPD2    H3 6543   0.900   0.362  15.501  0.2833  0.0023  0.2654
  435MPD2     N 6544   1.005   0.087  15.850  0.2584  0.9929 -0.5644
  435MPD2    H5 6545   0.956   0.040  15.926 -1.5599  1.3221 -1.5471
  435MPD2    N1 6546   0.550   0.227  15.776 -0.0161  0.5261 -0.4618
  435MPD2    H7 6547   0.529   0.169  15.857 -2.3285 -0.6217 -1.9004
  436TMC3    C1 6548   0.194   0.209  15.959  0.8006  0.1981 -0.8199
  436TMC3    C2 6549   0.318   0.211  15.908  0.0662 -0.0244 -0.3765
  436TMC3    C3 6550   0.320   0.279  15.792 -0.1591 -0.1927  0.5050
  436TMC3    C4 6551   0.082   0.255  15.898  0.5157  0.6245  0.1282
  436TMC3    C5 6552   0.088   0.295  15.770  0.0408 -0.3835 -0.3037
  436TMC3    C6 6553   0.210   0.311  15.712 -0.6110  0.5798 -0.3089
  436TMC3     C 6554   0.184   0.151  16.093 -0.0287 -0.0696 -0.4570
  436TMC3     O 6555   0.279   0.089  16.144  0.2454  0.0601  0.2049
  436TMC3     H 6556   0.407   0.210  15.970  0.3258  1.1342 -0.7291
  436TMC3    H1 6557   4.723   0.225  15.941  1.4715 -2.1525  0.3397
  436TMC3    H2 6558   0.223   0.340  15.609  2.8201 -1.0024 -0.3117
  436TMC3    C7 6559   4.721   0.359  15.700 -0.6557 -0.9333 -0.2254
  436TMC3    C8 6560   0.449   0.301  15.726  0.4334  0.6156  0.7497
  436TMC3    O1 6561   0.006   0.412  15.592  0.1195 -0.2136  0.1332
  436TMC3    O2 6562   0.442   0.373  15.630 -0.0988 -0.0317 -0.0710
  437TMC3    C1 6563   3.971   2.335  11.676 -0.5709 -0.0937  0.4464
  437TMC3    C2 6564   3.888   2.279  11.580  1.1970 -0.4233  0.5871
  437TMC3    C3 6565   3.842   2.152  11.608 -0.2620  0.2305 -0.1300
  437TMC3    C4 6566   3.998   2.285  11.803 -0.4267  0.4090 -0.8498
  437TMC3    C5 6567   3.948   2.157  11.818 -0.3156  0.2357  0.4042
  437TMC3    C6 6568   3.864   2.094  11.728  0.4057  0.2471  0.1051
  437TMC3     C 6569   4.059   2.432  11.621 -0.1003  0.4578 -0.8321
  437TMC3     O 6570   4.011   2.487  11.527  0.1708  0.4731  0.1328
  437TMC3     H 6571   3.880   2.323  11.481  1.1810  0.6682  1.0725
  437TMC3    H1 6572   4.046   2.339  11.884  0.9278  1.2785 -2.2189
  437TMC3    H2 6573   3.841   1.989  11.739 -0.4323  0.3424 -0.7174
  437TMC3    C7 6574   3.972   2.098  11.946 -0.0059  0.9420 -0.1993
  437TMC3    C8 6575   3.800   2.080  11.489 -0.2080  0.3692  0.4103
  437TMC3    O1 6576   3.886   2.019  11.983 -0.2518 -0.0991  0.0384
  437TMC3    O2 6577   3.846   2.114  11.380 -0.0922  0.3719  0.2051
  438MPD2     C 6578   1.321   3.124  17.103 -0.3236  0.4585 -0.2190
  438MPD2    C1 6579   1.324   2.987  17.126  0.2597  0.2639  0.4206
  438MPD2    C2 6580   1.343   2.941  17.258  0.3227 -0.5790 -0.1580
  438MPD2    C3 6581   1.349   3.029  17.363 -0.8206  0.3829 -0.3168
  438MPD2    C4 6582   1.350   3.169  17.340  0.6468  0.2145 -0.0233
  438MPD2    C5 6583   1.349   3.207  17.210 -0.9436 -0.1958 -0.0906
  438MPD2     H 6584   1.344   2.834  17.270 -1.3818 -0.6259 -0.4298
  438MPD2    H1 6585   1.353   3.248  17.414  0.2145 -1.2378  1.5519
  438MPD2    H2 6586   1.310   3.171  17.006 -3.2041  3.1996  1.4153
  438MPD2    H3 6587   1.358   3.314  17.202  3.4011 -0.3538  2.6680
  438MPD2     N 6588   1.356   2.981  17.494  0.6890 -0.3319  0.1731
  438MPD2    H5 6589   1.324   3.051  17.559 -0.5141  0.8716 -1.7396
  438MPD2    N1 6590   1.332   2.881  17.027 -0.2455 -0.0692 -0.0064
  438MPD2    H7 6591   1.319   2.787  17.063  0.7772 -0.4661 -0.6667
  439TMC3    C1 6592   1.366   2.774  16.826 -0.0730  0.5115  0.2775
  439TMC3    C2 6593   1.325   2.766  16.693  0.7012  0.5458 -0.6362
  439TMC3    C3 6594   1.346   2.653  16.629 -0.3513  0.4369  0.4099
  439TMC3    C4 6595   1.421   2.667  16.892 -0.5951  0.5277  0.4970
  439TMC3    C5 6596   1.437   2.550  16.830  0.7143  0.0586  0.6994
  439TMC3    C6 6597   1.393   2.546  16.698 -0.2959 -0.1098  0.1159
  439TMC3     C 6598   1.336   2.901  16.891 -0.3697 -0.0199 -0.6306
  439TMC3     O 6599   1.296   2.998  16.824 -0.5036 -0.6829 -0.7069
  439TMC3     H 6600   1.286   2.849  16.634  3.0236  1.0003 -1.5268
  439TMC3    H1 6601   1.476   2.688  16.983 -0.3454 -0.5940  0.6152
  439TMC3    H2 6602   1.407   2.451  16.648  4.2450  0.3494  0.5882
  439TMC3    C7 6603   1.567   2.490  16.847 -0.4384  0.2174  0.5498
  439TMC3    C8 6604   1.419   2.657  16.502 -0.0704  0.1556  0.1035
  439TMC3    O1 6605   1.615   2.476  16.960 -0.1587 -0.0435  0.0192
  439TMC3    O2 6606   1.517   2.588  16.504  0.0884  0.2719  0.2913
  440MPD2     C 6607   0.136   3.341  15.255 -0.4663 -0.7856  1.0413
  440MPD2    C1 6608   0.221   3.448  15.297 -0.0790  0.1651 -0.0598
  440MPD2    C2 6609   0.354   3.427  15.305  0.9191  0.2057 -0.3026
  440MPD2    C3 6610   0.406   3.299  15.274  0.1774 -0.6033  1.1167
  440MPD2    C4 6611   0.324   3.199  15.233 -0.2582  0.2294 -0.3110
  440MPD2    C5 6612   0.188   3.221  15.226 -0.0404  0.6784 -0.4735
  440MPD2     H 6613   0.419   3.511  15.326 -0.5442  0.9710  1.0749
  440MPD2    H1 6614   0.368   3.100  15.227 -0.9261 -0.1574  1.1905
  440MPD2    H2 6615   0.029   3.350  15.241 -0.6393 -4.1527  0.2790
  440MPD2    H3 6616   0.141   3.133  15.183  0.7361  0.4208 -0.8042
  440MPD2     N 6617   0.543   3.252  15.293  0.3463 -0.1585  0.2687
  440MPD2    H5 6618   0.572   3.155  15.282  1.7325 -0.1518  3.8282
  440MPD2    N1 6619   0.176   3.583  15.317  0.1067  0.4701 -0.1692
  440MPD2    H7 6620   0.253   3.649  15.310 -0.7725  1.4712 -0.3476
  441TMC3    C1 6621   0.774   3.260  15.358  0.2029  0.1889 -0.3677
  441TMC3    C2 6622   0.869   3.355  15.379  0.3208  0.4008 -0.5265
  441TMC3    C3 6623   0.941   3.357  15.488  0.1472 -0.6199  0.6597
  441TMC3    C4 6624   0.751   3.173  15.458 -0.3508 -0.6050  0.0702
  441TMC3    C5 6625   0.832   3.169  15.572  0.0043 -0.3002 -0.1316
  441TMC3    C6 6626   0.924   3.273  15.593  0.8437 -0.5307 -0.5558
  441TMC3     C 6627   0.653   3.330  15.304  0.3305  0.0912  0.2473
  441TMC3     O 6628   0.659   3.450  15.289 -0.0168  0.1184 -0.4622
  441TMC3     H 6629   0.893   3.405  15.286  1.5779 -0.0703 -0.4523
  441TMC3    H1 6630   0.665   3.108  15.453 -1.0558  0.3931 -0.8490
  441TMC3    H2 6631   0.977   3.293  15.686  1.9636  0.7276 -1.4590
  441TMC3    C7 6632   0.780   3.095  15.685  0.1952  0.3830 -0.2592
  441TMC3    C8 6633   1.000   3.485  15.516 -0.2288 -0.2071 -0.1118
  441TMC3    O1 6634   0.661   3.079  15.680  0.0439 -0.0985  0.8522
  441TMC3    O2 6635   1.102   3.479  15.586  0.1475 -0.1749 -0.1328
  442MPD2     C 6636   3.562   3.465  16.498  0.1047 -0.2300 -0.6409
  442MPD2    C1 6637   3.450   3.418  16.563 -0.2101  0.2655 -0.4114
  442MPD2    C2 6638   3.380   3.312  16.504  0.1145  0.4612  0.5920
  442MPD2    C3 6639   3.428   3.256  16.391 -0.2174 -0.5179 -0.2759
  442MPD2    C4 6640   3.540   3.309  16.323 -0.0826  0.6073  0.2638
  442MPD2    C5 6641   3.592   3.418  16.374  0.2723 -0.2612  0.1054
  442MPD2     H 6642   3.290   3.279  16.554  0.2638  1.4784  1.5613
  442MPD2    H1 6643   3.580   3.268  16.231 -0.0526 -0.0339  0.5593
  442MPD2    H2 6644   3.617   3.548  16.542 -0.5144 -0.4801  0.5991
  442MPD2    H3 6645   3.684   3.449  16.326 -0.6449  1.7831 -0.3720
  442MPD2     N 6646   3.374   3.143  16.325 -0.5056 -0.1329 -0.9576
  442MPD2    H5 6647   3.408   3.122  16.231  0.8137  0.4960 -0.6307
  442MPD2    N1 6648   3.383   3.483  16.662  0.2955 -0.0475 -0.2948
  442MPD2    H7 6649   3.299   3.438  16.697  2.5245 -3.5493  0.5897
  443TMC3    C1 6650   3.315   3.634  16.821 -0.2098  0.5882  0.0630
  443TMC3    C2 6651   3.279   3.768  16.814 -0.0056 -1.0784 -0.4651
  443TMC3    C3 6652   3.154   3.810  16.865 -0.0186  0.4092  0.3586
  443TMC3    C4 6653   3.233   3.539  16.877  0.0755 -0.4942  0.0054
  443TMC3    C5 6654   3.120   3.584  16.936 -0.4671 -0.5210 -0.3599
  443TMC3    C6 6655   3.079   3.714  16.929  0.4934  0.5609  0.1447
  443TMC3     C 6656   3.421   3.598  16.729  0.3968  0.0932 -0.3260
  443TMC3     O 6657   3.524   3.665  16.717  0.6560 -0.2814  0.4457
  443TMC3     H 6658   3.330   3.832  16.742 -0.1541  0.5985  0.9272
  443TMC3    H1 6659   3.271   3.440  16.893  1.0427 -0.1396 -0.1147
  443TMC3    H2 6660   2.984   3.743  16.972  0.3452 -1.9702  1.4996
  443TMC3    C7 6661   3.034   3.481  16.989  0.1522 -0.4274  0.1243
  443TMC3    C8 6662   3.094   3.901  16.763  0.2080  0.1114 -0.3722
  443TMC3    O1 6663   3.055   3.366  16.949 -0.1879 -0.0592 -0.4397
  443TMC3    O2 6664   3.152   4.009  16.741  0.1120  0.1351 -0.0414
  444MPD2     C 6665   3.504   3.235  16.961  0.5481 -0.5844  0.7383
  444MPD2    C1 6666   3.421   3.128  16.937 -0.1897  0.1982  0.0044
  444MPD2    C2 6667   3.449   3.040  16.828 -0.4579  0.0715 -1.0867
  444MPD2    C3 6668   3.552   3.073  16.748  0.3184  0.1329 -0.3412
  444MPD2    C4 6669   3.636   3.183  16.771  0.3167 -0.7405  0.5031
  444MPD2    C5 6670   3.611   3.260  16.879  1.0492  0.4570  0.1233
  444MPD2     H 6671   3.371   2.969  16.804  0.8441 -1.8603  0.3910
  444MPD2    H1 6672   3.704   3.214  16.693  0.4642  0.9450  1.3110
  444MPD2    H2 6673   3.493   3.309  17.039 -0.2799 -0.3129  0.3659
  444MPD2    H3 6674   3.676   3.341  16.908  0.0651  0.5918  1.9581
  444MPD2     N 6675   3.560   2.997  16.629 -0.1387 -0.0434 -0.0090
  444MPD2    H5 6676   3.497   2.917  16.628  0.5384 -0.5775 -0.0697
  444MPD2    N1 6677   3.308   3.095  17.015 -0.2158 -0.2679 -0.6450
  444MPD2    H7 6678   3.256   3.010  16.994 -0.5006 -0.4756  0.8746
  445TMC3    C1 6679   3.677   2.895  16.450  0.2490  0.5111  0.3909
  445TMC3    C2 6680   3.555   2.841  16.404 -0.1133 -0.4969 -0.0751
  445TMC3    C3 6681   3.562   2.747  16.306 -0.1954  0.4536 -0.6928
  445TMC3    C4 6682   3.798   2.865  16.401 -0.1332 -0.2818 -0.0807
  445TMC3    C5 6683   3.799   2.761  16.316 -1.7667  0.2583  0.3108
  445TMC3    C6 6684   3.689   2.706  16.265  0.7089  0.9105 -0.3615
  445TMC3     C 6685   3.666   3.005  16.533 -0.4653 -0.5976 -0.0494
  445TMC3     O 6686   3.764   3.075  16.526  0.6923 -0.2040  0.4850
  445TMC3     H 6687   3.462   2.890  16.431  0.4261  0.4211  0.1059
  445TMC3    H1 6688   3.886   2.909  16.445 -1.4539  0.0256  2.2558
  445TMC3    H2 6689   3.699   2.626  16.193  1.7249  1.3023 -0.6581
  445TMC3    C7 6690   3.931   2.701  16.293  0.1990  0.2460 -0.1561
  445TMC3    C8 6691   3.439   2.678  16.258  0.9724  0.9264 -0.3720
  445TMC3    O1 6692   4.030   2.758  16.331  0.1857 -0.8955  0.1407
  445TMC3    O2 6693   3.332   2.715  16.306 -0.5567 -0.1247 -0.4956
  446MPD2     C 6694   3.244   4.415  11.442 -0.6521 -0.2272  0.0369
  446MPD2    C1 6695   3.209   4.506  11.347  0.3680  0.2643  0.2104
  446MPD2    C2 6696   3.310   4.602  11.311  0.3284  0.2839  0.5912
  446MPD2    C3 6697   3.437   4.591  11.364 -0.4380  0.0768 -0.9174
  446MPD2    C4 6698   3.466   4.494  11.453 -0.6419 -0.3745 -0.3021
  446MPD2    C5 6699   3.371   4.411  11.495  0.2111 -0.2638 -0.1041
  446MPD2     H 6700   3.277   4.669  11.232  1.1308  0.2646  0.2317
  446MPD2    H1 6701   3.562   4.475  11.500 -2.0009  0.9633  3.0209
  446MPD2    H2 6702   3.179   4.337  11.482 -2.7855  0.6591 -1.7564
  446MPD2    H3 6703   3.403   4.323  11.549 -1.5704 -0.4660  0.6115
  446MPD2     N 6704   3.537   4.675  11.302  0.4325  0.2047 -0.0100
  446MPD2    H5 6705   3.498   0.009  11.241 -0.7248 -0.6771 -0.2945
  446MPD2    N1 6706   3.081   4.523  11.294 -0.1565 -0.4231  0.2051
  446MPD2    H7 6707   3.059   4.616  11.262  0.8150 -0.6962 -1.2438
  447TMC3    C1 6708   3.738   0.049  11.272  0.7204 -0.0043 -0.7192
  447TMC3    C2 6709   3.692   0.129  11.167 -0.7294 -0.2818 -0.5676
  447TMC3    C3 6710   3.777   0.169  11.067  0.3745  0.0582 -0.7249
  447TMC3    C4 6711   3.879   0.032  11.275  0.5010  1.0149 -0.4856
  447TMC3    C5 6712   3.955   0.088  11.176  0.1012  0.4195 -0.0030
  447TMC3    C6 6713   3.909   0.156  11.074 -0.5885  0.3792  0.1682
  447TMC3     C 6714   3.667   4.676  11.340  0.5587 -0.0278 -0.2355
  447TMC3     O 6715   3.730   4.599  11.407 -0.0367  0.0235  0.8489
  447TMC3     H 6716   3.587   0.137  11.140 -1.1164  1.2014  1.4100
  447TMC3    H1 6717   3.920   4.698  11.346 -1.7822  1.5478  1.3727
  447TMC3    H2 6718   3.968   0.210  11.001 -1.7505  2.0020  0.4408
  447TMC3    C7 6719   4.093   0.109  11.213 -0.3486  0.3610 -0.9855
  447TMC3    C8 6720   3.727   0.221  10.942 -0.2491  0.6451 -0.2236
  447TMC3    O1 6721   4.172   0.158  11.134 -0.0722 -0.0697  0.5713
  447TMC3    O2 6722   3.799   0.195  10.846 -0.2944  0.3707 -0.8283
  448TMC3    C1 6723   1.497   4.199  16.944  1.2288 -0.5407  0.6200
  448TMC3    C2 6724   1.485   4.139  16.826  0.4263  0.1194 -0.7482
  448TMC3    C3 6725   1.565   4.035  16.801 -0.6703 -0.0077 -0.6373
  448TMC3    C4 6726   1.610   4.168  17.021  0.0860 -0.2083  0.6218
  448TMC3    C5 6727   1.695   4.065  16.989  0.2506 -0.1485  0.2674
  448TMC3    C6 6728   1.667   3.992  16.882 -0.0022 -0.4216  0.4055
  448TMC3     C 6729   1.422   4.324  16.965 -0.0323 -0.1724 -0.0964
  448TMC3     O 6730   1.357   4.376  16.875 -0.2537  0.1600 -0.1759
  448TMC3     H 6731   1.392   4.152  16.771  0.5718  2.6407 -0.4214
  448TMC3    H1 6732   1.640   4.234  17.102 -3.6077 -1.3324  2.9379
  448TMC3    H2 6733   1.725   3.905  16.854 -0.5569 -1.7391  3.3598
  448TMC3    C7 6734   1.794   4.017  17.084 -0.3173  0.1001 -0.5550
  448TMC3    C8 6735   1.560   3.969  16.672  0.3076 -0.1544 -0.3160
  448TMC3    O1 6736   1.905   3.980  17.041  0.1060 -0.5164  0.3853
  448TMC3    O2 6737   1.627   3.866  16.657  0.3416 -0.1476 -0.6128
  449MPD2     C 6738   3.264   2.726  14.040  0.2713 -0.3241 -0.0701
  449MPD2    C1 6739   3.153   2.800  14.014 -0.2370  0.3778 -0.8988
  449MPD2    C2 6740   3.030   2.744  14.044 -0.6809  0.0555  0.4632
  449MPD2    C3 6741   3.023   2.618  14.095 -0.5260 -0.9040 -0.1105
  449MPD2    C4 6742   3.135   2.549  14.129 -0.7001 -0.4554  0.2935
  449MPD2    C5 6743   3.258   2.603  14.097 -0.0397  0.1826  0.4762
  449MPD2     H 6744   2.945   2.806  14.016 -0.7766  0.0134  0.6591
  449MPD2    H1 6745   3.131   2.455  14.183 -1.7783 -0.9682 -0.6688
  449MPD2    H2 6746   3.360   2.766  14.010 -0.5093 -0.3464 -2.6505
  449MPD2    H3 6747   3.346   2.550  14.131 -0.9344 -1.4890  0.1483
  449MPD2     N 6748   2.890   2.566  14.105  0.7082  0.1175 -0.0215
  449MPD2    H5 6749   2.815   2.625  14.071  2.3237  1.1205 -1.8625
  449MPD2    N1 6750   3.159   2.928  13.955 -0.1105 -0.1618 -0.7934
  449MPD2    H7 6751   3.068   2.969  13.937 -0.3125 -0.2187  0.0745
  450TMC3    C1 6752   3.217   3.120  13.834  0.2732 -0.6502 -0.3456
  450TMC3    C2 6753   3.229   3.133  13.699 -0.0457  0.9643  0.0979
  450TMC3    C3 6754   3.126   3.186  13.628 -0.2632 -0.4981  0.6459
  450TMC3    C4 6755   3.100   3.155  13.902  0.5553  0.2414  0.1608
  450TMC3    C5 6756   2.995   3.193  13.827 -0.4809 -0.0918  0.9841
  450TMC3    C6 6757   3.004   3.214  13.695 -0.1166  0.3284 -0.4529
  450TMC3     C 6758   3.264   2.995  13.895  0.7418 -0.1890 -0.3066
  450TMC3     O 6759   3.373   2.945  13.865  0.0739 -0.6170 -0.0978
  450TMC3     H 6760   3.319   3.101  13.646  0.2870  0.6641  0.8385
  450TMC3    H1 6761   3.092   3.138  14.009  3.0944  3.6854  0.9202
  450TMC3    H2 6762   2.918   3.241  13.633  1.3645  2.2125 -1.6980
  450TMC3    C7 6763   2.877   3.123  13.873  0.8850  0.0040 -0.4018
  450TMC3    C8 6764   3.124   3.199  13.481 -0.4108 -0.0338 -0.5216
  450TMC3    O1 6765   2.910   3.034  13.949 -0.2451 -0.5278 -0.6975
  450TMC3    O2 6766   3.016   3.250  13.437 -0.6282 -0.0775  0.0772
  451MPD2     C 6767   3.864   0.817   1.119 -0.0133 -0.2833 -0.0753
  451MPD2    C1 6768   3.906   0.837   0.989 -0.3900 -0.1865  0.3075
  451MPD2    C2 6769   4.032   0.853   0.967  0.6690  0.2554 -0.7036
  451MPD2    C3 6770   4.124   0.849   1.072  0.6190  0.2314  0.2309
  451MPD2    C4 6771   4.087   0.828   1.201 -0.0640  0.2291  0.8151
  451MPD2    C5 6772   3.952   0.807   1.222  0.0508 -0.6520  0.0619
  451MPD2     H 6773   4.066   0.868   0.866 -1.1533 -0.3199 -1.4055
  451MPD2    H1 6774   4.152   0.815   1.286 -0.3270  1.6048  1.2348
  451MPD2    H2 6775   3.759   0.796   1.138 -0.2745  0.2419 -0.9304
  451MPD2    H3 6776   3.911   0.780   1.318  0.1095 -0.7363  0.0632
  451MPD2     N 6777   4.259   0.868   1.037  0.2672 -0.0345 -0.4117
  451MPD2    H5 6778   4.275   0.853   0.938  0.2280  1.6332 -0.6810
  451MPD2    N1 6779   3.807   0.859   0.898 -0.5223  0.5399 -0.2359
  451MPD2    H7 6780   3.715   0.826   0.926 -0.5946  2.1153  1.3484
  452TMC3    C1 6781   4.468   0.973   1.035  0.2924  0.0921  0.0990
  452TMC3    C2 6782   4.498   0.894   0.926  0.3503  0.1097  0.4694
  452TMC3    C3 6783   4.596   0.946   0.837 -0.3713 -0.0109  0.5236
  452TMC3    C4 6784   4.535   1.083   1.070 -0.1229  0.3937 -0.1801
  452TMC3    C5 6785   4.638   1.123   0.987  0.6948 -0.2053 -0.1375
  452TMC3    C6 6786   4.665   1.059   0.867  0.8796 -0.1313 -0.1956
  452TMC3     C 6787   4.360   0.917   1.122 -0.2290 -0.5409 -0.2198
  452TMC3     O 6788   4.355   0.949   1.237  0.3675 -0.2509  0.3512
  452TMC3     H 6789   4.447   0.801   0.906  2.6480 -0.9225 -0.5608
  452TMC3    H1 6790   4.510   1.137   1.160  0.0353 -0.5484  0.4190
  452TMC3    H2 6791   0.005   1.094   0.799 -0.5283  0.5937 -1.4274
  452TMC3    C7 6792   4.711   1.248   1.028  0.4569 -0.0633 -0.3928
  452TMC3    C8 6793   4.594   0.882   0.708 -0.0997  0.2172 -0.3082
  452TMC3    O1 6794   4.660   1.304   1.127 -0.3488 -0.1216  0.4857
  452TMC3    O2 6795   4.535   0.774   0.693 -0.4186  0.6231  0.1220
  453TMC3    C1 6796   0.900   3.110  11.760  0.1884  0.2662 -1.0678
  453TMC3    C2 6797   0.792   3.084  11.838  0.1574  0.8186 -0.0385
  453TMC3    C3 6798   0.672   3.093  11.780  0.4337 -0.7298 -0.2379
  453TMC3    C4 6799   0.889   3.138  11.630  0.3999  0.0146 -0.3611
  453TMC3    C5 6800   0.766   3.149  11.572 -0.4108 -0.1937 -0.1824
  453TMC3    C6 6801   0.652   3.130  11.648 -0.0780  0.3478 -0.4135
  453TMC3     C 6802   1.014   3.172  11.816 -0.4714  0.2095  0.4028
  453TMC3     O 6803   1.070   3.253  11.743  0.6759  0.1199 -0.3958
  453TMC3     H 6804   0.810   3.067  11.943 -1.5934 -1.1886 -0.0694
  453TMC3    H1 6805   0.980   3.152  11.574 -0.0162  1.9833 -0.5469
  453TMC3    H2 6806   0.552   3.142  11.607 -0.0409  0.1569 -0.5635
  453TMC3    C7 6807   0.762   3.268  11.486 -0.2031 -0.0167  0.9220
  453TMC3    C8 6808   0.557   3.039  11.849 -1.0430 -0.8364 -0.1163
  453TMC3    O1 6809   0.647   3.303  11.449 -0.3341  0.3794  0.0793
  453TMC3    O2 6810   0.446   3.079  11.819 -0.1571  0.2759  0.4686
  454MPD2     C 6811   4.292   2.733  15.774 -0.0642  0.8631  0.2926
  454MPD2    C1 6812   4.198   2.797  15.696  0.0273  0.6622 -0.8553
  454MPD2    C2 6813   4.151   2.923  15.733  0.5270 -0.4545 -0.1102
  454MPD2    C3 6814   4.198   2.990  15.851 -0.6155 -0.2673 -0.5628
  454MPD2    C4 6815   4.292   2.922  15.923 -0.9879  0.2265 -0.1871
  454MPD2    C5 6816   4.340   2.801  15.879  0.3967  0.3221  0.2237
  454MPD2     H 6817   4.067   2.967  15.681  0.8228 -1.5823 -1.5441
  454MPD2    H1 6818   4.333   2.966  16.013 -2.7770 -1.4276  1.4434
  454MPD2    H2 6819   4.323   2.632  15.752 -0.7698 -0.0967  3.7414
  454MPD2    H3 6820   4.419   2.752  15.934  0.5110 -0.1055 -0.3267
  454MPD2     N 6821   4.137   3.109  15.899 -0.3066 -0.6678  0.2823
  454MPD2    H5 6822   4.162   3.130  15.996  0.3459 -1.0858  0.2027
  454MPD2    N1 6823   4.123   2.731  15.596  1.1962  0.2515  0.8023
  454MPD2    H7 6824   4.067   2.796  15.542  1.4941 -0.1633 -0.0012
  455TMC3    C1 6825   3.956   3.242  15.957 -0.2758  0.2975 -0.4553
  455TMC3    C2 6826   4.019   3.281  16.074  0.6879  0.5510 -0.7285
  455TMC3    C3 6827   3.959   3.233  16.190 -0.4139 -0.0840  0.4038
  455TMC3    C4 6828   3.824   3.199  15.959  0.0137  0.2314  1.2123
  455TMC3    C5 6829   3.772   3.149  16.073  0.5881  0.9890  0.8715
  455TMC3    C6 6830   3.845   3.163  16.192  0.4194 -0.1561 -0.6361
  455TMC3     C 6831   4.026   3.176  15.848  0.3174  1.0287 -1.0907
  455TMC3     O 6832   3.960   3.164  15.749 -0.4346  0.2942 -0.1454
  455TMC3     H 6833   4.113   3.334  16.085  0.7118  0.5836 -1.0922
  455TMC3    H1 6834   3.774   3.166  15.868 -0.0751  0.5164  1.1588
  455TMC3    H2 6835   3.813   3.109  16.280 -0.6070 -0.4194 -1.1657
  455TMC3    C7 6836   3.732   3.009  16.052  0.5681 -0.4690  0.1767
  455TMC3    C8 6837   4.000   3.276  16.324  0.3550  0.0997  0.3625
  455TMC3    O1 6838   3.637   2.974  16.114  0.1147  0.3912 -0.9880
  455TMC3    O2 6839   4.016   3.184  16.402  0.4256  0.0227 -0.7643
  456MPD2     C 6840   1.784   3.074  15.522  0.9186  0.3598  0.1317
  456MPD2    C1 6841   1.814   3.004  15.638 -0.0361  0.2482 -0.5382
  456MPD2    C2 6842   1.749   3.038  15.756  0.1514 -0.0955  0.5240
  456MPD2    C3 6843   1.664   3.147  15.765  0.5352  0.0816  0.8092
  456MPD2    C4 6844   1.652   3.219  15.649  0.8918  0.4401 -0.0935
  456MPD2    C5 6845   1.702   3.187  15.529 -0.4190  0.4569 -0.0250
  456MPD2     H 6846   1.771   2.987  15.849  2.6868 -1.4469 -0.8093
  456MPD2    H1 6847   1.588   3.306  15.651  1.4993  0.8878  0.0482
  456MPD2    H2 6848   1.843   3.057  15.432 -0.3742 -1.8501 -0.2989
  456MPD2    H3 6849   1.682   3.244  15.439  3.9376 -1.9565 -2.5511
  456MPD2     N 6850   1.613   3.182  15.891 -0.5080  0.1085 -0.4177
  456MPD2    H5 6851   1.641   3.117  15.964 -0.9086  1.1835  0.6865
  456MPD2    N1 6852   1.908   2.897  15.623  0.0293  0.3283 -0.2850
  456MPD2    H7 6853   1.953   2.879  15.534 -2.7525  0.0224 -1.6279
  457TMC3    C1 6854   1.543   3.319  16.070 -0.0235 -0.4883  0.9297
  457TMC3    C2 6855   1.501   3.445  16.112 -0.7543 -0.1293 -0.4501
  457TMC3    C3 6856   1.463   3.457  16.244  0.2321 -0.3765  0.4774
  457TMC3    C4 6857   1.569   3.223  16.162  0.4525 -0.2459 -0.6274
  457TMC3    C5 6858   1.539   3.243  16.289 -0.5942 -0.0083  0.4458
  457TMC3    C6 6859   1.467   3.352  16.328 -0.5785 -0.1037  0.0278
  457TMC3     C 6860   1.561   3.303  15.931  0.8076 -0.1662  0.1739
  457TMC3     O 6861   1.511   3.387  15.859  0.1875 -0.4738  0.2597
  457TMC3     H 6862   1.484   3.526  16.042  0.2963 -1.2333 -1.9630
  457TMC3    H1 6863   1.620   3.132  16.132  1.1531 -0.4320  1.1755
  457TMC3    H2 6864   1.438   3.363  16.432  0.6550  1.6412  0.1855
  457TMC3    C7 6865   1.624   3.193  16.397  0.3332  0.3273  0.5209
  457TMC3    C8 6866   1.446   3.584  16.317 -0.4854  0.5898 -0.6069
  457TMC3    O1 6867   1.598   3.229  16.513 -0.1572 -0.1017  0.4086
  457TMC3    O2 6868   1.450   3.570  16.440 -0.0515  0.1482  0.4200
  458MPD2     C 6869   4.177   2.023  12.412  0.1891 -0.0189  0.1699
  458MPD2    C1 6870   4.227   2.139  12.358 -0.0211 -1.0092 -0.4231
  458MPD2    C2 6871   4.206   2.159  12.221 -0.0561 -0.6160 -0.3928
  458MPD2    C3 6872   4.118   2.081  12.155  0.7656 -0.2468  0.0018
  458MPD2    C4 6873   4.055   1.973  12.211 -0.5661  0.3617 -0.9172
  458MPD2    C5 6874   4.092   1.946  12.341  0.2019 -0.3335  0.5599
  458MPD2     H 6875   4.248   2.242  12.165 -2.2312  1.8048  1.5076
  458MPD2    H1 6876   3.978   1.910  12.167 -0.4702  0.2177 -0.8775
  458MPD2    H2 6877   4.192   2.007  12.518  0.6364 -0.3648  0.0530
  458MPD2    H3 6878   4.049   1.859  12.390 -0.1466 -0.3825  0.1749
  458MPD2     N 6879   4.086   2.131  12.023 -0.1922 -0.4138  0.3185
  458MPD2    H5 6880   4.156   2.190  11.978 -1.0486  0.3534 -0.0099
  458MPD2    N1 6881   4.322   2.207  12.441 -0.3295  0.3714 -0.7430
  458MPD2    H7 6882   4.334   2.182  12.539  1.6422  2.2594 -0.5085
  459TMC3    C1 6883   4.480   2.370  12.501  0.2577 -0.5446 -0.1143
  459TMC3    C2 6884   4.546   2.487  12.472  0.5840 -0.0677  0.2524
  459TMC3    C3 6885   4.620   2.550  12.568 -0.3084 -0.2287  0.1282
  459TMC3    C4 6886   4.486   2.316  12.633  0.3589  0.2470  0.0515
  459TMC3    C5 6887   4.565   2.390  12.729 -0.3107  0.5499  0.4265
  459TMC3    C6 6888   4.637   2.500  12.694 -0.1736  0.4796 -0.3391
  459TMC3     C 6889   4.389   2.322  12.400 -0.7845  0.6159 -0.0064
  459TMC3     O 6890   4.375   2.386  12.297 -0.2204 -0.4539  0.1584
  459TMC3     H 6891   4.526   2.540  12.380 -1.1347 -1.7773 -0.3452
  459TMC3    H1 6892   4.425   2.232  12.664  1.9224 -0.8995  0.0170
  459TMC3    H2 6893   4.691   2.558  12.768 -2.3272  1.2361  0.6560
  459TMC3    C7 6894   4.565   2.354  12.870  0.0467  0.6078  0.2609
  459TMC3    C8 6895   4.673   2.677  12.532  0.0863 -0.5486 -0.5063
  459TMC3    O1 6896   4.584   2.239  12.902 -0.3342 -0.1850 -0.3386
  459TMC3    O2 6897   4.601   2.750  12.473 -0.1068  0.2783  0.2192
  460MPD2     C 6898   3.429   0.420  10.854  0.0423 -0.0849 -0.1594
  460MPD2    C1 6899   3.528   0.334  10.839 -0.4467  0.0596  0.2971
  460MPD2    C2 6900   3.561   0.290  10.708 -0.0032 -0.1355 -0.7629
  460MPD2    C3 6901   3.483   0.331  10.606 -0.6528 -0.7563  0.1832
  460MPD2    C4 6902   3.383   0.425  10.620  0.7091  0.0215  0.2939
  460MPD2    C5 6903   3.362   0.470  10.749  0.2818  0.1229  0.1761
  460MPD2     H 6904   3.635   0.214  10.686  1.2316  0.6113  0.7545
  460MPD2    H1 6905   3.320   0.447  10.535  1.2763  2.9318  0.6180
  460MPD2    H2 6906   3.409   0.458  10.953  0.4135 -0.2415 -0.0275
  460MPD2    H3 6907   3.285   0.545  10.766 -1.3104 -1.7779  1.4137
  460MPD2     N 6908   3.491   0.262  10.486 -0.0405  0.4021  0.0778
  460MPD2    H5 6909   3.521   0.164  10.489 -2.1252 -0.2854 -1.4651
  460MPD2    N1 6910   3.607   0.289  10.950  0.2534 -0.3126 -0.2471
  460MPD2    H7 6911   3.579   0.307  11.046  1.1456 -3.4939  0.6248
  461TMC3    C1 6912   3.395   0.189  10.269  0.6479  0.6466  0.2540
  461TMC3    C2 6913   3.442   0.066  10.309 -0.2963 -0.6117  0.4859
  461TMC3    C3 6914   3.360   4.693  10.262  0.3860  0.0991  1.1265
  461TMC3    C4 6915   3.276   0.211  10.205  0.2054 -0.4905 -0.6554
  461TMC3    C5 6916   3.193   0.105  10.181  0.6382  0.8927  0.1888
  461TMC3    C6 6917   3.241   4.712  10.195 -0.6136 -0.4426 -0.3450
  461TMC3     C 6918   3.430   0.302  10.365  0.0102  0.3058 -0.0923
  461TMC3     O 6919   3.406   0.418  10.331  0.0769  0.2061  0.1525
  461TMC3     H 6920   3.540   0.052  10.352  0.2701 -2.4602 -1.4355
  461TMC3    H1 6921   3.242   0.313  10.198  1.4704  0.0411  0.8587
  461TMC3    H2 6922   3.174   4.627  10.189 -3.5256  1.9484 -1.9477
  461TMC3    C7 6923   3.072   0.141  10.105 -0.3131 -0.5311  0.2654
  461TMC3    C8 6924   3.415   4.561  10.284 -0.0449 -0.1565  0.0458
  461TMC3    O1 6925   3.039   0.259  10.113 -0.1665 -0.0235  0.3147
  461TMC3    O2 6926   3.511   4.543  10.361 -0.2687 -0.6196  0.1648
  462TMC3    C1 6927   3.471   1.144  17.556 -0.1760 -0.3386  0.3110
  462TMC3    C2 6928   3.501   1.070  17.443  0.4583 -0.5877  0.4060
  462TMC3    C3 6929   3.574   0.960  17.455 -0.4290  0.3078 -0.8338
  462TMC3    C4 6930   3.502   1.101  17.684  0.5970  0.3049  0.1329
  462TMC3    C5 6931   3.577   0.984  17.686 -0.3034  0.2382 -0.0097
  462TMC3    C6 6932   3.619   0.912  17.578  0.3202  0.3799  0.1909
  462TMC3     C 6933   3.437   1.287  17.538  0.8183 -0.3769  0.2052
  462TMC3     O 6934   3.468   1.331  17.431  0.1255  0.4151  0.0037
  462TMC3     H 6935   3.475   1.101  17.342 -1.2211 -2.9414  0.1073
  462TMC3    H1 6936   3.469   1.158   0.025 -1.3738  0.1767 -0.5399
  462TMC3    H2 6937   3.648   0.809  17.595 -0.7975 -0.1529 -1.1056
  462TMC3    C7 6938   3.570   0.894   0.054  0.1113 -0.0160  0.5158
  462TMC3    C8 6939   3.594   0.874  17.344 -0.2394  0.6093  0.1455
  462TMC3    O1 6940   3.656   0.809   0.074  0.5907 -0.3330  0.3022
  462TMC3    O2 6941   3.523   0.909  17.251  0.1136  0.1991 -0.4089
  463MPD2     C 6942   0.470   4.090   1.731  0.5267 -0.2918 -0.4534
  463MPD2    C1 6943   0.370   4.180   1.694 -0.3969  0.0881  0.4351
  463MPD2    C2 6944   0.403   4.313   1.686 -1.2263  0.6018  0.5581
  463MPD2    C3 6945   0.539   4.349   1.702  0.2375  1.3376 -0.3688
  463MPD2    C4 6946   0.635   4.260   1.730  0.1906 -0.3682  0.6986
  463MPD2    C5 6947   0.604   4.124   1.742  0.6281 -0.0596  0.0179
  463MPD2     H 6948   0.331   4.393   1.675  1.6477  2.9914 -0.8450
  463MPD2    H1 6949   0.738   4.279   1.756  0.4809  0.5649 -1.1056
  463MPD2    H2 6950   0.449   3.986   1.754  1.7044 -1.2704 -3.8603
  463MPD2    H3 6951   0.680   4.052   1.771 -1.2012 -0.6902  3.2587
  463MPD2     N 6952   0.583   4.484   1.706 -0.2236  0.0315  0.5724
  463MPD2    H5 6953   0.681   4.506   1.715  0.0505 -2.1547  3.1398
  463MPD2    N1 6954   0.237   4.140   1.668 -0.0007  0.3313  0.5530
  463MPD2    H7 6955   0.177   4.215   1.634 -1.1851  0.7699  3.6773
  464TMC3    C1 6956   0.054   4.002   1.631 -0.3297 -0.5267 -0.0515
  464TMC3    C2 6957   4.690   4.083   1.679 -0.3506 -0.5298 -0.2458
  464TMC3    C3 6958   4.566   4.057   1.627  0.5445  0.4860  0.3257
  464TMC3    C4 6959   0.026   3.897   1.549  0.0739 -0.4514  0.2259
  464TMC3    C5 6960   4.646   3.887   1.486  0.1256  0.3460  0.5445
  464TMC3    C6 6961   4.543   3.965   1.527 -0.1280  0.4818  0.4809
  464TMC3     C 6962   0.186   4.014   1.673  0.2150 -0.5284  0.1752
  464TMC3     O 6963   0.245   3.909   1.689 -0.5400  0.2642 -0.6235
  464TMC3     H 6964   4.694   4.157   1.758 -0.5386 -0.1251 -0.6164
  464TMC3    H1 6965   0.108   3.836   1.514  0.2335  0.5723 -1.1660
  464TMC3    H2 6966   4.446   3.962   1.479  0.4432 -2.9835 -0.4683
  464TMC3    C7 6967   4.634   3.784   1.392 -0.8067 -0.4612 -0.1874
  464TMC3    C8 6968   4.461   4.162   1.639 -0.3341 -0.0564 -0.1809
  464TMC3    O1 6969   4.730   3.706   1.389 -0.2625  0.2260  0.2602
  464TMC3    O2 6970   4.501   4.277   1.640 -0.0387  0.6433  0.1837
  465MPD2     C 6971   1.149   3.517  17.187 -0.0669 -0.0382 -0.3870
  465MPD2    C1 6972   1.057   3.413  17.197 -0.7367  0.7756 -0.1828
  465MPD2    C2 6973   1.009   3.352  17.082  0.8262  0.4987 -0.1069
  465MPD2    C3 6974   1.046   3.401  16.952 -0.5833  0.3722  0.4634
  465MPD2    C4 6975   1.143   3.501  16.948  0.2348  0.1004  0.8063
  465MPD2    C5 6976   1.192   3.561  17.064 -0.5574 -0.1429 -0.4762
  465MPD2     H 6977   0.928   3.281  17.096  1.3434  0.1515  1.1661
  465MPD2    H1 6978   1.187   3.545  16.859 -0.3883  1.9766  1.4416
  465MPD2    H2 6979   1.192   3.573  17.269  0.1059 -0.1064 -0.4309
  465MPD2    H3 6980   1.262   3.644  17.054  2.8793 -2.8786  0.6930
  465MPD2     N 6981   0.988   3.346  16.838  1.0272 -0.1001  0.0104
  465MPD2    H5 6982   0.934   3.261  16.851  1.9945 -1.3050 -3.6433
  465MPD2    N1 6983   1.017   3.361  17.320  0.1403  0.3502 -0.1822
  465MPD2    H7 6984   0.956   3.280  17.327  2.1199 -0.9742  1.7403
  466TMC3    C1 6985   0.673   3.339  16.653  0.5683 -0.4461 -0.0567
  466TMC3    C2 6986   0.642   3.451  16.578 -0.2973 -0.2914 -0.8435
  466TMC3    C3 6987   0.753   3.503  16.512  0.2369  1.0022  0.6411
  466TMC3    C4 6988   0.801   3.289  16.677  0.7965 -0.3589  0.1493
  466TMC3    C5 6989   0.906   3.354  16.619 -0.0363  0.2240 -0.2107
  466TMC3    C6 6990   0.884   3.458  16.535  0.0913 -0.1208  0.2803
  466TMC3     C 6991   0.576   3.297  16.747  0.3821 -0.2711 -0.9437
  466TMC3     O 6992   0.616   3.222  16.838 -0.0053  0.2404 -0.2712
  466TMC3     H 6993   0.554   3.514  16.588  0.3767  0.4823  0.2074
  466TMC3    H1 6994   0.817   3.198  16.734  0.3465 -1.8449 -2.0752
  466TMC3    H2 6995   0.956   3.528  16.495 -0.0495 -0.0925  0.0792
  466TMC3    C7 6996   1.013   3.391  16.709 -0.0358 -0.0291  0.4696
  466TMC3    C8 6997   0.742   3.642  16.465 -0.1420  0.1395  0.3537
  466TMC3    O1 6998   1.087   3.478  16.662  0.4096  0.1402 -0.2567
  466TMC3    O2 6999   0.785   3.656  16.357 -0.0386 -0.2509 -0.0987
  467TMC3    C1 7000   1.778   1.681  13.588 -0.1657  0.1150  0.6261
  467TMC3    C2 7001   1.821   1.705  13.718 -0.1308 -0.4901  0.5926
  467TMC3    C3 7002   1.760   1.801  13.801 -0.3372  0.4523  0.0144
  467TMC3    C4 7003   1.668   1.748  13.540  0.3912  0.1230 -0.2074
  467TMC3    C5 7004   1.611   1.840  13.628 -0.8799  0.2274 -0.2029
  467TMC3    C6 7005   1.650   1.866  13.756  0.5625 -0.5101  0.2511
  467TMC3     C 7006   1.888   1.677  13.496  0.1470 -0.2614  0.5366
  467TMC3     O 7007   1.970   1.591  13.515 -0.0662 -0.1923  0.1839
  467TMC3     H 7008   1.915   1.667  13.755 -0.2493 -1.2528  0.1089
  467TMC3    H1 7009   1.643   1.736  13.435 -0.1439 -0.2966 -0.0319
  467TMC3    H2 7010   1.607   1.940  13.824  0.6445 -1.1166  0.9621
  467TMC3    C7 7011   1.468   1.843  13.600  0.8488  0.3278 -0.1627
  467TMC3    C8 7012   1.863   1.887  13.847  0.0374  0.0421 -0.0207
  467TMC3    O1 7013   1.439   1.839  13.483 -0.0429 -0.5755  0.7158
  467TMC3    O2 7014   1.843   2.005  13.823  0.0542 -0.3417 -0.1868
  468MPD2     C 7015   0.655   0.096  10.510  0.4913  0.9165 -0.1362
  468MPD2    C1 7016   0.790   0.076  10.536 -1.0809  0.2285 -0.2259
  468MPD2    C2 7017   0.848   4.692  10.503 -0.3302  0.4790 -0.2496
  468MPD2    C3 7018   0.776   4.587  10.452  0.4814 -0.4292 -0.3610
  468MPD2    C4 7019   0.645   4.606  10.432  0.0358  0.1309 -0.4082
  468MPD2    C5 7020   0.584   4.724  10.465 -0.3645 -0.1763  0.5308
  468MPD2     H 7021   0.954   4.674  10.520 -0.1520  0.0985 -1.7485
  468MPD2    H1 7022   0.584   4.526  10.391 -0.3804 -0.7783  1.9927
  468MPD2    H2 7023   0.596   0.185  10.532  0.8394  1.1709 -0.2233
  468MPD2    H3 7024   0.477   4.735  10.450 -0.3143  2.2687  2.0055
  468MPD2     N 7025   0.844   4.475  10.408 -0.3634  1.4301 -0.0014
  468MPD2    H5 7026   0.790   4.397  10.373 -0.5941  1.3351  0.5643
  468MPD2    N1 7027   0.873   0.177  10.597 -0.1402 -0.2112 -0.0562
  468MPD2    H7 7028   0.962   0.147  10.636 -1.1431  0.0300  2.3931
  469TMC3    C1 7029   0.932   0.379  10.694  0.2181  0.0407 -0.1146
  469TMC3    C2 7030   1.068   0.342  10.692 -0.6940 -0.2203 -0.0035
  469TMC3    C3 7031   1.136   0.366  10.810  0.2733  0.3493 -0.2104
  469TMC3    C4 7032   0.873   0.431  10.805 -0.0046  0.2819  0.1099
  469TMC3    C5 7033   0.950   0.436  10.922 -0.0420 -0.2069  0.4410
  469TMC3    C6 7034   1.087   0.411  10.929 -0.3850  0.2050 -0.9600
  469TMC3     C 7035   0.835   0.310  10.615  0.0342  0.6099 -0.4614
  469TMC3     O 7036   0.733   0.369  10.584 -0.0120  0.5094  0.0407
  469TMC3     H 7037   1.109   0.295  10.603 -1.4999 -1.1166  0.0953
  469TMC3    H1 7038   0.766   0.429  10.817 -0.0681 -0.5464 -0.6245
  469TMC3    H2 7039   1.153   0.434  11.011  0.0247 -2.1550 -0.6247
  469TMC3    C7 7040   0.874   0.467  11.040 -0.3174  0.1366 -0.1919
  469TMC3    C8 7041   1.271   0.320  10.804  0.0944  0.1332  0.2506
  469TMC3    O1 7042   0.777   0.539  11.018  0.3378  0.3737  0.4177
  469TMC3    O2 7043   1.312   0.294  10.692 -0.3646 -0.2217 -0.1679
  470TMC3    C1 7044   2.621   0.807   0.107 -0.0562  0.1352 -0.1145
  470TMC3    C2 7045   2.585   0.932   0.147 -0.0106  0.5752  0.0235
  470TMC3    C3 7046   2.570   0.953   0.281 -0.0747 -0.0579  0.3191
  470TMC3    C4 7047   2.632   0.701   0.199  0.4727 -0.1014 -0.1157
  470TMC3    C5 7048   2.629   0.731   0.333 -0.4384  0.7731  0.0094
  470TMC3    C6 7049   2.614   0.861   0.369 -0.9382  0.2195 -0.5268
  470TMC3     C 7050   2.663   0.789  17.712 -0.0290  0.2951 -0.3913
  470TMC3     O 7051   2.653   0.885  17.639 -0.3337  0.7345 -0.1384
  470TMC3     H 7052   2.584   1.007   0.069  1.5221  1.3025  0.6923
  470TMC3    H1 7053   2.642   0.597   0.171  2.2321  0.6300 -2.1725
  470TMC3    H2 7054   2.612   0.871   0.477  2.4794  0.3542 -0.4858
  470TMC3    C7 7055   2.617   0.620   0.437  0.2250  0.2088 -0.4535
  470TMC3    C8 7056   2.570   1.092   0.333 -0.0107  0.4396  0.3450
  470TMC3    O1 7057   2.547   0.522   0.413  0.4533  0.9486  0.5750
  470TMC3    O2 7058   2.634   1.120   0.432 -0.1779  0.1346  0.4915
  471MPD2     C 7059   3.338   1.784  16.305  1.0778 -0.5117 -0.5072
  471MPD2    C1 7060   3.387   1.662  16.348  0.4169 -0.2496 -0.1605
  471MPD2    C2 7061   3.321   1.608  16.461 -0.8028 -0.0337  0.1436
  471MPD2    C3 7062   3.228   1.675  16.539 -0.4386 -0.3648  0.1040
  471MPD2    C4 7063   3.179   1.796  16.494  0.2197  0.2980 -0.6034
  471MPD2    C5 7064   3.235   1.844  16.375  0.3883  0.4041 -0.3765
  471MPD2     H 7065   3.372   1.522  16.502  1.1456  0.4354 -1.3003
  471MPD2    H1 7066   3.087   1.840  16.531  1.5164  0.8757  1.9080
  471MPD2    H2 7067   3.368   1.835  16.215  2.1809  1.1066  0.7806
  471MPD2    H3 7068   3.189   1.936  16.342 -0.6359 -1.4175 -4.0183
  471MPD2     N 7069   3.186   1.627  16.665  0.0116 -0.3008  0.2682
  471MPD2    H5 7070   3.153   1.701  16.727 -0.5188 -0.8902  0.6825
  471MPD2    N1 7071   3.486   1.593  16.277 -0.3360 -0.2394 -0.2961
  471MPD2    H7 7072   3.506   1.501  16.316 -0.4676 -0.1745 -0.0774
  472TMC3    C1 7073   3.592   1.540  16.073 -0.4124  0.0410 -0.0056
  472TMC3    C2 7074   3.599   1.575  15.936 -0.3475 -0.0129 -0.5569
  472TMC3    C3 7075   3.554   1.497  15.833 -0.0393  0.5901  0.1137
  472TMC3    C4 7076   3.564   1.408  16.095  0.2299 -0.6856 -0.2071
  472TMC3    C5 7077   3.511   1.332  15.996  0.2250  0.0868  0.8887
  472TMC3    C6 7078   3.508   1.372  15.863 -0.8496  0.5197 -0.1591
  472TMC3     C 7079   3.546   1.641  16.167  0.7517 -0.0344  0.5803
  472TMC3     O 7080   3.547   1.753  16.111  0.0123  0.3512 -0.6436
  472TMC3     H 7081   3.625   1.676  15.907  1.1846 -0.3792 -0.4665
  472TMC3    H1 7082   3.547   1.373  16.196  0.5442 -2.7309 -0.8764
  472TMC3    H2 7083   3.486   1.304  15.782  2.0198  0.5207 -0.9628
  472TMC3    C7 7084   3.500   1.189  16.028  0.3223 -0.1440  0.2153
  472TMC3    C8 7085   3.464   1.578  15.756  0.4009 -0.0972 -0.2509
  472TMC3    O1 7086   3.545   1.152  16.131  0.6704 -0.4251 -0.1074
  472TMC3    O2 7087   3.518   1.685  15.731  0.1899  0.0629 -0.5453
  473MPD2     C 7088   3.071   3.985  13.983  0.0308 -0.5767 -0.5605
  473MPD2    C1 7089   3.208   4.012  13.983  0.5833 -0.1844  0.4273
  473MPD2    C2 7090   3.267   4.049  14.101 -0.3674  0.8813 -0.2608
  473MPD2    C3 7091   3.200   4.066  14.220 -0.3284 -0.3659  0.4581
  473MPD2    C4 7092   3.065   4.036  14.215  0.0233 -0.3838 -0.2197
  473MPD2    C5 7093   3.007   3.996  14.103 -0.7405 -0.1425  0.0259
  473MPD2     H 7094   3.368   4.087  14.085  0.6433 -1.5278  0.3139
  473MPD2    H1 7095   2.996   4.036  14.298  0.6173  3.7981  0.2715
  473MPD2    H2 7096   3.008   3.954  13.900 -1.7762 -1.6437  1.1838
  473MPD2    H3 7097   2.903   3.967  14.117 -1.0044  1.1976  0.8397
  473MPD2     N 7098   3.264   4.133  14.328  0.0186 -0.4520  0.0664
  473MPD2    H5 7099   3.201   4.169  14.398 -0.2276 -1.4234  0.3442
  473MPD2    N1 7100   3.293   4.025  13.870  0.0297  0.4604  0.3773
  473MPD2    H7 7101   3.385   4.062  13.892  0.0144 -0.0724  1.3114
  474TMC3    C1 7102   3.438   4.276  14.425 -0.0250  0.2346 -0.0188
  474TMC3    C2 7103   3.343   4.352  14.482 -0.4117 -0.3226 -0.6263
  474TMC3    C3 7104   3.380   4.480  14.523  0.8477 -0.0324 -0.0723
  474TMC3    C4 7105   3.570   4.319  14.421 -0.5819  0.1345 -0.0027
  474TMC3    C5 7106   3.604   4.442  14.466 -0.5915 -0.0683  0.2254
  474TMC3    C6 7107   3.509   4.528  14.507  0.5032 -1.0770  1.0394
  474TMC3     C 7108   3.401   4.159  14.337  0.1703  0.1640 -0.1149
  474TMC3     O 7109   3.492   4.105  14.275 -0.1058  0.4504 -0.8506
  474TMC3     H 7110   3.254   4.302  14.516  0.8564 -0.5549  2.2862
  474TMC3    H1 7111   3.645   4.252  14.380 -0.1055 -0.4566  1.8758
  474TMC3    H2 7112   3.546   4.625  14.539 -0.9788 -0.6369  1.3989
  474TMC3    C7 7113   3.741   4.476  14.486  0.5427 -0.7558 -1.0037
  474TMC3    C8 7114   3.263   4.564  14.526  0.3553  0.5853 -0.9629
  474TMC3    O1 7115   3.823   4.410  14.428  0.9103 -0.1575  0.4518
  474TMC3    O2 7116   3.152   4.511  14.529  0.4550 -0.5063  0.0619
  475MPD2     C 7117   2.009   2.482  10.655  0.0343 -0.2881  0.0754
  475MPD2    C1 7118   1.975   2.596  10.730 -0.2224 -0.6476  0.3250
  475MPD2    C2 7119   1.837   2.621  10.764 -0.2253 -0.1880  0.3628
  475MPD2    C3 7120   1.739   2.531  10.737 -0.1476  0.0454 -0.1340
  475MPD2    C4 7121   1.777   2.419  10.662  0.0769  0.0072 -0.4779
  475MPD2    C5 7122   1.902   2.404  10.615  0.1245  0.2685 -0.3258
  475MPD2     H 7123   1.812   2.716  10.811 -0.0295  0.2870 -0.4911
  475MPD2    H1 7124   1.710   2.341  10.631  1.7574 -1.4508 -0.4061
  475MPD2    H2 7125   2.112   2.454  10.638 -0.0754 -0.0668 -0.9886
  475MPD2    H3 7126   1.917   2.318  10.551 -2.2400 -0.1361 -0.3245
  475MPD2     N 7127   1.604   2.557  10.772 -0.2841 -0.5331  0.1048
  475MPD2    H5 7128   1.590   2.645  10.820 -0.2080  0.8437 -2.3898
  475MPD2    N1 7129   2.073   2.678  10.784  0.0191 -0.2662 -0.4842
  475MPD2    H7 7130   2.050   2.740  10.861 -0.3057 -0.9239 -0.0490
  476TMC3    C1 7131   2.267   2.790  10.834 -0.4040 -0.0857  0.4515
  476TMC3    C2 7132   2.349   2.855  10.761 -0.2716 -0.2054  0.7332
  476TMC3    C3 7133   2.339   2.990  10.755  0.2122 -0.0900 -0.0984
  476TMC3    C4 7134   2.190   2.855  10.931  0.5170  0.1664  0.3145
  476TMC3    C5 7135   2.183   2.988  10.933  0.9217 -0.8665  0.2884
  476TMC3    C6 7136   2.260   3.059  10.845 -0.2518 -0.2094  0.4144
  476TMC3     C 7137   2.208   2.677  10.770  0.1619 -0.6113  0.1389
  476TMC3     O 7138   2.270   2.634  10.676 -0.7348 -0.3582 -0.7414
  476TMC3     H 7139   2.406   2.801  10.685 -0.5461  0.2894  0.1809
  476TMC3    H1 7140   2.118   2.792  10.982 -0.8984  0.9407 -0.7375
  476TMC3    H2 7141   2.250   3.166  10.841  0.2318 -0.2282 -1.2461
  476TMC3    C7 7142   2.040   3.028  10.932 -0.5389  0.3049 -0.1221
  476TMC3    C8 7143   2.303   3.039  10.624 -0.4041  0.3159  0.3902
  476TMC3    O1 7144   1.958   2.943  10.925 -0.1087  0.0421  0.3690
  476TMC3    O2 7145   2.259   3.154  10.619 -0.1681 -0.3847 -0.1330
  477MPD2     C 7146   4.537   4.119  11.596 -0.0736 -0.6742  0.9704
  477MPD2    C1 7147   4.432   4.048  11.652  0.1751  0.3801  0.3102
  477MPD2    C2 7148   4.458   3.919  11.686  0.7739  0.3183 -0.2143
  477MPD2    C3 7149   4.580   3.856  11.653  0.1364 -0.1341  0.3960
  477MPD2    C4 7150   4.681   3.929  11.599  0.1812  0.1336 -0.0024
  477MPD2    C5 7151   4.657   4.056  11.577 -0.5069  0.7134  0.1667
  477MPD2     H 7152   4.380   3.852  11.722 -1.2986  1.7733 -1.9792
  477MPD2    H1 7153   0.040   3.885  11.572  0.0102 -0.5470  0.5091
  477MPD2    H2 7154   4.526   4.222  11.563 -0.5416 -1.1415 -0.3421
  477MPD2    H3 7155   0.005   4.109  11.536 -0.0491 -1.6258 -1.9079
  477MPD2     N 7156   4.601   3.717  11.682  0.0218 -0.2205 -0.6508
  477MPD2    H5 7157   4.533   3.675  11.746 -0.2240 -0.3118 -0.9727
  477MPD2    N1 7158   4.306   4.110  11.656  0.5754  0.1453 -0.3230
  477MPD2    H7 7159   4.299   4.204  11.618 -1.8204  0.0140 -0.1873
  478TMC3    C1 7160   4.070   4.123  11.646 -0.0251 -0.6329  0.1647
  478TMC3    C2 7161   4.066   4.262  11.666  0.0267 -0.4846  0.7612
  478TMC3    C3 7162   3.945   4.331  11.656 -0.7316  0.0331  0.1717
  478TMC3    C4 7163   3.952   4.055  11.625 -0.2907 -0.2600  0.2136
  478TMC3    C5 7164   3.836   4.128  11.626  0.2851  0.2197  0.2052
  478TMC3    C6 7165   3.828   4.265  11.640  0.7265 -0.3574 -0.4687
  478TMC3     C 7166   4.186   4.040  11.680  0.0836  0.2419 -0.1363
  478TMC3     O 7167   4.161   3.919  11.700  0.1850  0.1300 -0.3503
  478TMC3     H 7168   4.154   4.316  11.698 -0.0078  0.5020 -0.8606
  478TMC3    H1 7169   3.948   3.946  11.618 -1.3553 -0.3415  2.1108
  478TMC3    H2 7170   3.733   4.317  11.643  0.9810 -0.0009  2.0264
  478TMC3    C7 7171   3.724   4.057  11.584  0.1526 -0.0280  0.8998
  478TMC3    C8 7172   3.929   4.459  11.725 -0.7423  0.7663  0.6711
  478TMC3    O1 7173   3.714   3.938  11.605 -0.6137  0.0239 -0.5513
  478TMC3    O2 7174   3.997   4.470  11.822 -0.5229  0.0132 -0.2345
  479MPD2     C 7175   2.974   1.193  15.213  0.3487  0.2246 -0.0270
  479MPD2    C1 7176   2.942   1.120  15.323 -0.1725  0.3640 -0.4163
  479MPD2    C2 7177   3.022   1.128  15.435 -0.6450  0.4079 -0.0223
  479MPD2    C3 7178   3.125   1.215  15.435  0.0018  0.1568 -0.0571
  479MPD2    C4 7179   3.152   1.296  15.328  0.0325  0.1684 -0.5883
  479MPD2    C5 7180   3.083   1.278  15.216  0.5615 -0.3454  0.0094
  479MPD2     H 7181   2.994   1.073  15.524 -0.6663 -0.4216 -0.5478
  479MPD2    H1 7182   3.232   1.369  15.333  0.5902 -0.6810  3.0512
  479MPD2    H2 7183   2.922   1.175  15.120 -1.1984 -1.0406  1.0720
  479MPD2    H3 7184   3.100   1.344  15.132  0.2366 -1.8077 -1.2139
  479MPD2     N 7185   3.204   1.254  15.548 -0.3709  0.1359 -0.2024
  479MPD2    H5 7186   3.293   1.298  15.525  1.1095 -1.6175  2.1438
  479MPD2    N1 7187   2.835   1.031  15.312  0.3008 -0.0712  0.1161
  479MPD2    H7 7188   2.787   1.032  15.222 -0.0084  0.8295  0.2919
  480TMC3    C1 7189   2.880   1.120  15.854 -0.8539  0.5375  0.0025
  480TMC3    C2 7190   2.779   1.197  15.803 -0.5430 -0.3056  0.2855
  480TMC3    C3 7191   2.814   1.300  15.719 -0.5608  0.2996  0.3945
  480TMC3    C4 7192   3.009   1.135  15.811  0.5926  0.1710 -0.1452
  480TMC3    C5 7193   3.037   1.227  15.714  0.4546 -0.3323  0.0049
  480TMC3    C6 7194   2.946   1.322  15.684  0.3620 -0.5611 -0.6668
  480TMC3     C 7195   2.843   0.992  15.905  0.3414 -0.2927  0.7928
  480TMC3     O 7196   2.912   0.898  15.868  0.2237 -0.0908  0.3200
  480TMC3     H 7197   2.677   1.183  15.839 -0.0778  0.2407  1.8463
  480TMC3    H1 7198   3.083   1.067  15.851  1.5210  1.7597  0.8483
  480TMC3    H2 7199   2.974   1.410  15.627  2.8714 -2.3642 -2.1846
  480TMC3    C7 7200   3.176   1.239  15.680 -0.1035 -0.4869  0.1395
  480TMC3    C8 7201   2.710   1.361  15.635  0.6369  0.1647 -0.6200
  480TMC3    O1 7202   3.246   1.269  15.774 -0.2735  0.0623 -0.8540
  480TMC3    O2 7203   2.593   1.340  15.663 -0.3430 -0.8211  0.0647
  481MPD2     C 7204   0.247   1.207  14.427 -0.7560  0.0934 -0.4167
  481MPD2    C1 7205   0.155   1.104  14.425 -0.1849 -0.4975  0.1439
  481MPD2    C2 7206   0.133   1.033  14.544  0.1770  0.5130  0.8765
  481MPD2    C3 7207   0.219   1.056  14.651 -0.2001 -0.4271  0.5053
  481MPD2    C4 7208   0.305   1.167  14.650 -0.5300 -0.6759  0.2998
  481MPD2    C5 7209   0.314   1.244  14.540  0.7336  0.1731 -0.3132
  481MPD2     H 7210   0.059   0.955  14.556  0.5200  0.2505  1.2950
  481MPD2    H1 7211   0.363   1.202  14.734 -0.6290 -2.4234  1.0893
  481MPD2    H2 7212   0.260   1.279  14.347 -3.0323  1.9078  0.8371
  481MPD2    H3 7213   0.372   1.335  14.553 -0.7147  0.8673  1.2484
  481MPD2     N 7214   0.216   0.986  14.772 -0.6350 -0.2626 -0.5717
  481MPD2    H5 7215   0.287   1.018  14.837  0.9658 -1.5058 -1.6824
  481MPD2    N1 7216   0.074   1.106  14.315 -0.1192 -0.1918 -0.6872
  481MPD2    H7 7217   0.086   1.177  14.245  3.6122  0.4374  0.5621
  482TMC3    C1 7218   4.632   1.051  14.180 -0.2424  0.1686  0.5680
  482TMC3    C2 7219   4.618   0.947  14.095  0.2909 -0.5308  0.7412
  482TMC3    C3 7220   4.566   0.980  13.975 -0.1497 -0.1786  0.9281
  482TMC3    C4 7221   4.585   1.178  14.162 -0.1396 -0.1604  0.1009
  482TMC3    C5 7222   4.553   1.210  14.034  0.0886  0.0484 -0.2838
  482TMC3    C6 7223   4.547   1.107  13.934 -0.7215 -0.2240 -0.4036
  482TMC3     C 7224   4.703   1.021  14.301 -0.5314  0.0614 -0.4118
  482TMC3     O 7225   4.677   0.919  14.363  0.5747  0.4503  0.2556
  482TMC3     H 7226   4.652   0.847  14.120 -2.5066 -1.7284 -0.2908
  482TMC3    H1 7227   4.606   1.255  14.237  0.6476 -2.3763  2.1616
  482TMC3    H2 7228   4.524   1.129  13.830 -1.2654 -3.6958 -1.0132
  482TMC3    C7 7229   4.532   1.350  14.003  0.2713  0.1258 -0.0904
  482TMC3    C8 7230   4.509   0.869  13.904 -0.6957  0.7496  0.4786
  482TMC3    O1 7231   4.571   1.430  14.086  0.9720  0.3765 -0.0993
  482TMC3    O2 7232   4.506   0.756  13.948 -0.2094  0.5618  0.6389
  483TMC3    C1 7233   2.399   4.628   0.753  0.0529  0.4940 -0.1346
  483TMC3    C2 7234   2.469   0.004   0.739 -0.5070 -0.3485  0.5424
  483TMC3    C3 7235   2.563   0.027   0.843  0.2858 -0.3407 -0.6437
  483TMC3    C4 7236   2.411   4.548   0.862 -0.0638  0.5879 -0.2457
  483TMC3    C5 7237   2.500   4.575   0.959  0.5291 -0.3950 -1.2108
  483TMC3    C6 7238   2.570   4.689   0.956 -0.2488 -0.0256  0.8640
  483TMC3     C 7239   2.319   4.589   0.640  0.1139 -0.8171 -0.0081
  483TMC3     O 7240   2.251   4.673   0.581 -0.2658  0.1667 -0.0765
  483TMC3     H 7241   2.453   0.076   0.659  2.1862  0.5840  0.8585
  483TMC3    H1 7242   2.349   4.459   0.863 -0.3933  0.8424  1.1646
  483TMC3    H2 7243   2.630   4.709   1.044 -1.4894  1.5592  1.3424
  483TMC3    C7 7244   2.558   4.466   1.043 -0.3588  0.1379  0.1471
  483TMC3    C8 7245   2.681   0.113   0.812  0.2960  0.3299 -0.6699
  483TMC3    O1 7246   2.671   4.488   1.083 -0.0633  0.4491 -0.4566
  483TMC3    O2 7247   2.705   0.127   0.693  0.1451 -0.6088  0.2355
  484MPD2     C 7248   0.099   2.904  12.468 -0.5023 -0.0691  0.3005
  484MPD2    C1 7249   0.152   2.783  12.508 -0.0367 -0.2968  0.5896
  484MPD2    C2 7250   0.293   2.763  12.499  0.0406 -0.3369  0.0567
  484MPD2    C3 7251   0.373   2.867  12.459 -0.4182  0.1881  0.5736
  484MPD2    C4 7252   0.314   2.992  12.431  0.2266 -0.3960  0.2132
  484MPD2    C5 7253   0.181   3.003  12.430 -0.4909 -0.4428 -0.1126
  484MPD2     H 7254   0.341   2.666  12.509  0.4767 -0.2441 -1.2045
  484MPD2    H1 7255   0.375   3.075  12.396  0.7801  0.1931  2.6100
  484MPD2    H2 7256   4.734   2.940  12.471 -1.3666 -2.4608 -0.7811
  484MPD2    H3 7257   0.137   3.101  12.412 -0.2491 -0.4283 -0.6228
  484MPD2     N 7258   0.511   2.860  12.453 -0.0441 -0.2206  0.3474
  484MPD2    H5 7259   0.556   2.941  12.411  2.4144 -1.4490  0.6083
  484MPD2    N1 7260   0.068   2.679  12.554 -0.6076 -0.1802 -0.6948
  484MPD2    H7 7261   0.109   2.601  12.604  1.8923  1.7126  0.2484
  485TMC3    C1 7262   0.727   2.785  12.483 -0.4893 -0.0052  0.6200
  485TMC3    C2 7263   0.813   2.727  12.571  0.2614  0.6373 -0.1084
  485TMC3    C3 7264   0.952   2.742  12.541  0.3437 -0.4043 -0.6937
  485TMC3    C4 7265   0.770   2.851  12.368 -0.1719 -0.1981 -0.3725
  485TMC3    C5 7266   0.903   2.866  12.343 -0.2792  0.0428  0.3448
  485TMC3    C6 7267   0.990   2.826  12.440 -0.0826 -0.0743 -0.8128
  485TMC3     C 7268   0.588   2.768  12.510 -0.2508  0.6033  0.0868
  485TMC3     O 7269   0.556   2.691  12.605 -0.7631  0.5049  0.2889
  485TMC3     H 7270   0.782   2.670  12.658 -0.9352  0.6784 -0.5095
  485TMC3    H1 7271   0.708   2.871  12.281  0.5807  0.6956 -0.7027
  485TMC3    H2 7272   1.095   2.851  12.435 -0.1439  0.9739  3.0071
  485TMC3    C7 7273   0.955   2.862  12.207 -0.0493 -0.0205 -0.1197
  485TMC3    C8 7274   1.028   2.616  12.535  0.7798  0.0234 -0.0061
  485TMC3    O1 7275   0.914   2.938  12.115 -0.3322  0.0227  0.0232
  485TMC3    O2 7276   1.106   2.611  12.439 -0.0913 -0.0063  0.2642
  486MPD2     C 7277   2.388   1.458  13.001  0.3400 -0.4273 -0.4306
  486MPD2    C1 7278   2.455   1.461  12.888  0.2404 -0.4158 -0.6667
  486MPD2    C2 7279   2.453   1.574  12.802  0.6291 -0.3871  0.0933
  486MPD2    C3 7280   2.382   1.688  12.834  0.4390 -1.0556  0.2110
  486MPD2    C4 7281   2.292   1.672  12.939  0.3575 -0.8376 -0.5142
  486MPD2    C5 7282   2.304   1.566  13.026 -0.2701 -1.0592 -0.6562
  486MPD2     H 7283   2.508   1.573  12.709 -2.6471 -0.6064 -1.8332
  486MPD2    H1 7284   2.227   1.755  12.967  2.4023  0.8467 -0.6846
  486MPD2    H2 7285   2.394   1.370  13.064 -0.8156 -1.2845 -1.5074
  486MPD2    H3 7286   2.243   1.566  13.115  0.0676  1.1549 -0.4123
  486MPD2     N 7287   2.379   1.800  12.746  0.2501 -0.6950  0.5390
  486MPD2    H5 7288   2.454   1.797  12.678  1.5534 -0.2766  1.9516
  486MPD2    N1 7289   2.535   1.348  12.852 -0.5871 -0.7313  0.3471
  486MPD2    H7 7290   2.548   1.267  12.912 -2.4225 -1.6850 -0.5479
  487TMC3    C1 7291   2.646   1.194  12.713  0.4703 -1.1743 -0.0613
  487TMC3    C2 7292   2.606   1.101  12.625 -1.1190 -1.0273  0.2429
  487TMC3    C3 7293   2.655   0.974  12.641 -0.1002 -0.0247  0.3876
  487TMC3    C4 7294   2.719   1.164  12.827  0.1698  0.2766  0.0540
  487TMC3    C5 7295   2.751   1.033  12.845 -0.2551 -0.1311 -0.3748
  487TMC3    C6 7296   2.728   0.938  12.746  0.6185  0.2847  0.1485
  487TMC3     C 7297   2.569   1.315  12.723  0.4510 -0.5090 -0.0185
  487TMC3     O 7298   2.539   1.358  12.610  0.0992 -0.4425  0.2114
  487TMC3     H 7299   2.538   1.121  12.543 -1.7637  0.1045  1.0559
  487TMC3    H1 7300   2.735   1.243  12.900 -2.5158  0.1109  0.8201
  487TMC3    H2 7301   2.749   0.832  12.757  3.3609  0.6249 -1.6243
  487TMC3    C7 7302   2.728   0.989  12.977 -0.1658  0.0035  0.1172
  487TMC3    C8 7303   2.566   0.868  12.606 -0.2269  0.1833 -0.0617
  487TMC3    O1 7304   2.706   1.084  13.051  0.9563  0.4063  0.0065
  487TMC3    O2 7305   2.533   0.831  12.497 -0.1796  0.4248 -0.5550
  488MPD2     C 7306   2.662   2.972  16.071  0.9909 -1.4433  0.7139
  488MPD2    C1 7307   2.747   3.028  16.162 -0.3587  0.2259  0.3981
  488MPD2    C2 7308   2.738   2.984  16.289 -0.8142 -0.1688 -0.4431
  488MPD2    C3 7309   2.634   2.916  16.336  0.6375 -0.6843 -0.5922
  488MPD2    C4 7310   2.544   2.871  16.239  0.0907 -0.6754  0.1327
  488MPD2    C5 7311   2.563   2.896  16.109  0.1146  0.5631  0.4658
  488MPD2     H 7312   2.806   3.027  16.362 -0.9745  0.8530 -0.8988
  488MPD2    H1 7313   2.452   2.825  16.273 -0.0667 -2.1677 -2.3444
  488MPD2    H2 7314   2.667   2.981  15.963 -3.6410 -0.7658  0.5592
  488MPD2    H3 7315   2.504   2.848  16.031 -1.2516  1.1211  1.1447
  488MPD2     N 7316   2.631   2.892  16.475  0.2573 -0.4322 -0.2893
  488MPD2    H5 7317   2.716   2.897  16.531  0.0460 -2.2553  0.1964
  488MPD2    N1 7318   2.843   3.130  16.124 -0.5174 -0.0264 -0.1663
  488MPD2    H7 7319   2.887   3.185  16.197 -1.9237 -0.0156  0.6706
  489TMC3    C1 7320   2.530   2.865  16.694 -0.3554 -0.3086 -0.2315
  489TMC3    C2 7321   2.621   2.949  16.744 -0.3727  0.1027  0.1879
  489TMC3    C3 7322   2.622   2.965  16.881  0.2076 -0.1968 -0.2954
  489TMC3    C4 7323   2.434   2.804  16.776  0.2949  0.3315  0.3906
  489TMC3    C5 7324   2.443   2.813  16.914  0.4059  0.4093 -0.3549
  489TMC3    C6 7325   2.541   2.897  16.967  0.3141 -0.3566 -0.0865
  489TMC3     C 7326   2.514   2.866  16.546 -0.0848  0.1119  0.3185
  489TMC3     O 7327   2.401   2.847  16.507 -0.3928  0.5087  0.1579
  489TMC3     H 7328   2.670   3.021  16.680  0.8418 -1.4581 -0.6410
  489TMC3    H1 7329   2.369   2.730  16.730 -0.1915  0.2514  1.2195
  489TMC3    H2 7330   2.538   2.911  17.075 -0.3185 -0.1345 -0.1336
  489TMC3    C7 7331   2.337   2.769  17.003 -0.5493 -0.3425  0.8476
  489TMC3    C8 7332   2.694   3.086  16.927 -0.1253  0.4834  0.1081
  489TMC3    O1 7333   2.347   2.779  17.124  0.7731 -0.0917  1.3639
  489TMC3    O2 7334   2.773   3.140  16.849  0.3997  0.1621 -0.6982
  490MPD2     C 7335   3.915   2.302  16.891 -1.2154  0.1939  0.0729
  490MPD2    C1 7336   3.861   2.367  17.002  0.4724  0.2801  0.2751
  490MPD2    C2 7337   3.906   2.491  17.033  0.2390 -0.4471 -0.7434
  490MPD2    C3 7338   4.006   2.546  16.958  0.0304 -0.1960 -0.2097
  490MPD2    C4 7339   4.057   2.484  16.850 -0.1434  0.2601  0.3677
  490MPD2    C5 7340   4.012   2.359  16.818 -0.1569 -0.4530 -0.5967
  490MPD2     H 7341   3.861   2.551  17.112 -1.9969 -1.3431 -1.3384
  490MPD2    H1 7342   4.137   2.534  16.798 -1.0187  0.7365 -0.5126
  490MPD2    H2 7343   3.900   2.195  16.882  2.0830 -0.1269 -1.4450
  490MPD2    H3 7344   4.064   2.310  16.737  2.1344  2.3339 -0.8195
  490MPD2     N 7345   4.056   2.673  16.986 -0.2152 -0.4812  0.0265
  490MPD2    H5 7346   4.121   2.714  16.920 -1.0971  1.3591  0.2996
  490MPD2    N1 7347   3.768   2.301  17.086  0.4348  0.2560 -0.2147
  490MPD2    H7 7348   3.742   2.351  17.170 -1.4872 -0.2238 -0.5252
  491TMC3    C1 7349   3.601   2.152  17.141  0.2995 -0.4124 -0.0025
  491TMC3    C2 7350   3.601   2.189  17.273  0.1174 -0.5868 -0.5799
  491TMC3    C3 7351   3.505   2.134  17.359 -0.4962  0.6856  0.7225
  491TMC3    C4 7352   3.505   2.064  17.096 -0.8926 -0.5941 -0.2211
  491TMC3    C5 7353   3.416   2.009  17.182  0.2050 -0.2275  0.3722
  491TMC3    C6 7354   3.415   2.041  17.316 -0.3468 -0.2261  0.1926
  491TMC3     C 7355   3.703   2.192  17.044  0.0581  0.2956  0.2172
  491TMC3     O 7356   3.684   2.152  16.929  0.4964 -0.3627  0.1086
  491TMC3     H 7357   3.672   2.263  17.307  0.3216  0.0786 -2.4092
  491TMC3    H1 7358   3.507   2.038  16.991 -2.4662 -2.4619  0.2205
  491TMC3    H2 7359   3.342   2.014  17.390  0.2916 -2.5422 -0.0224
  491TMC3    C7 7360   3.349   1.881  17.135 -0.3557 -1.2483  0.4665
  491TMC3    C8 7361   3.442   2.219  17.458  0.4239 -0.2072 -0.5906
  491TMC3    O1 7362   3.364   1.866  17.017 -0.3604  0.4914 -0.6573
  491TMC3    O2 7363   3.371   2.168  17.545 -0.7170 -0.4727  0.4433
  492MPD2     C 7364   3.612   2.589  11.432 -0.1493 -0.3945  0.1879
  492MPD2    C1 7365   3.571   2.463  11.390 -0.3724 -0.1357  0.2479
  492MPD2    C2 7366   3.552   2.358  11.485  0.2404  0.1629  0.1890
  492MPD2    C3 7367   3.574   2.391  11.618  0.3675  0.0672  0.7530
  492MPD2    C4 7368   3.611   2.524  11.650 -0.3064 -0.3607  0.0659
  492MPD2    C5 7369   3.638   2.618  11.560  0.3950 -0.0941 -0.3159
  492MPD2     H 7370   3.518   2.259  11.456  0.9329  0.3951 -1.3890
  492MPD2    H1 7371   3.637   2.536  11.755 -0.7288  0.2026  0.1042
  492MPD2    H2 7372   3.624   2.669  11.360  2.1441 -1.8856 -1.0687
  492MPD2    H3 7373   3.678   2.716  11.585  0.1064  0.3191 -1.4491
  492MPD2     N 7374   3.557   2.302  11.722  0.0744  0.4564 -0.0531
  492MPD2    H5 7375   3.575   2.338  11.816  1.7493  2.2310 -1.0719
  492MPD2    N1 7376   3.539   2.456  11.250  0.8621 -0.4206  0.3951
  492MPD2    H7 7377   3.554   2.544  11.203  0.9372 -0.0014  1.2089
  493TMC3    C1 7378   3.463   2.375  11.051  1.0100  0.0125  0.5274
  493TMC3    C2 7379   3.509   2.478  10.974  0.1927 -0.1077 -0.4185
  493TMC3    C3 7380   3.464   2.480  10.845 -0.2409 -0.3255  0.5187
  493TMC3    C4 7381   3.368   2.288  11.003  0.1332 -0.3510 -0.0806
  493TMC3    C5 7382   3.332   2.296  10.868 -0.0482 -0.3277 -0.0146
  493TMC3    C6 7383   3.377   2.395  10.786  0.3698  0.1354 -0.6352
  493TMC3     C 7384   3.490   2.352  11.193 -0.4892 -0.6885 -0.1186
  493TMC3     O 7385   3.459   2.246  11.243 -0.0728 -0.1925  0.0613
  493TMC3     H 7386   3.590   2.534  11.021 -1.0782  0.4009  1.1429
  493TMC3    H1 7387   3.324   2.211  11.066  0.6671 -0.0378  0.6655
  493TMC3    H2 7388   3.343   2.415  10.685 -1.8762  1.3171  0.3714
  493TMC3    C7 7389   3.203   2.251  10.831  0.5043  0.1151 -0.1554
  493TMC3    C8 7390   3.508   2.582  10.754 -0.2363  0.2056 -0.2815
  493TMC3    O1 7391   3.157   2.305  10.735  0.1553 -0.1603  0.3353
  493TMC3    O2 7392   3.509   2.563  10.631 -0.3158 -0.0167  0.2026
  494TMC3    C1 7393   4.275   0.149   0.738  0.0834  0.0986  0.2863
  494TMC3    C2 7394   4.186   0.050   0.703  0.6566  0.4436 -1.3181
  494TMC3    C3 7395   4.212   4.724   0.587 -0.0671 -1.2287  0.0432
  494TMC3    C4 7396   4.375   0.190   0.662 -0.7198 -0.7394  0.0010
  494TMC3    C5 7397   4.389   0.131   0.542  0.2752  0.3312 -0.3380
  494TMC3    C6 7398   4.312   0.023   0.504  0.0366 -0.7820  0.1624
  494TMC3     C 7399   4.281   0.177   0.873 -0.2364 -0.3983 -0.0181
  494TMC3     O 7400   4.181   0.147   0.937  0.4586 -0.5166  0.1645
  494TMC3     H 7401   4.106   0.015   0.767  0.0095  2.9428 -0.7605
  494TMC3    H1 7402   4.455   0.257   0.692  0.2195 -1.7585 -0.2503
  494TMC3    H2 7403   4.328   4.715   0.407 -1.9291 -1.4412  0.1311
  494TMC3    C7 7404   4.493   0.173   0.446  0.1880  0.0447 -0.4000
  494TMC3    C8 7405   4.160   4.588   0.574 -0.2219 -0.1439 -0.4856
  494TMC3    O1 7406   4.515   0.106   0.345 -0.2390 -0.0999  0.8524
  494TMC3    O2 7407   4.112   4.529   0.667  0.2859  0.3709  0.0550
  495TMC3    C1 7408   2.903   1.444  14.689  0.1082  0.5951  0.0457
  495TMC3    C2 7409   2.843   1.543  14.613 -0.6346 -0.1278  0.5750
  495TMC3    C3 7410   2.759   1.646  14.662  0.2129 -0.0404 -0.4293
  495TMC3    C4 7411   2.905   1.461  14.827  0.3559 -0.9841 -0.4855
  495TMC3    C5 7412   2.837   1.572  14.874 -0.9871  0.4143  0.0502
  495TMC3    C6 7413   2.757   1.654  14.798 -0.1620  0.4901  0.0542
  495TMC3     C 7414   2.854   1.313  14.660  0.1548 -0.2463  0.4880
  495TMC3     O 7415   2.799   1.245  14.744  0.1932  0.0369  0.2800
  495TMC3     H 7416   2.853   1.540  14.505 -1.7318 -0.1420  0.4755
  495TMC3    H1 7417   2.952   1.387  14.890  0.3305 -0.7459 -0.1831
  495TMC3    H2 7418   2.683   1.713  14.852 -1.4738 -0.8532 -0.2904
  495TMC3    C7 7419   2.822   1.570  15.017  0.0287 -0.0810  0.3918
  495TMC3    C8 7420   2.633   1.675  14.600  0.0500  0.2876  0.7198
  495TMC3    O1 7421   2.922   1.535  15.080  1.2892  0.9273 -0.0657
  495TMC3    O2 7422   2.559   1.752  14.657 -0.3730 -0.3087  0.1237
  496MPD2     C 7423   0.513   1.797  15.156 -0.3991  0.0995 -0.4597
  496MPD2    C1 7424   0.523   1.715  15.260  0.2679 -0.1327 -0.7923
  496MPD2    C2 7425   0.419   1.643  15.309 -0.0779 -0.5057  0.1416
  496MPD2    C3 7426   0.300   1.642  15.232 -0.3068  0.2080 -0.5414
  496MPD2    C4 7427   0.286   1.734  15.129  0.0091  0.1350 -0.7139
  496MPD2    C5 7428   0.391   1.817  15.088  0.1334  0.9942  0.3187
  496MPD2     H 7429   0.432   1.583  15.399  3.5360  0.6154  0.3598
  496MPD2    H1 7430   0.189   1.731  15.081 -0.2925 -1.2321 -0.0191
  496MPD2    H2 7431   0.603   1.849  15.125 -0.9038  0.8864 -0.6086
  496MPD2    H3 7432   0.389   1.888  15.006  1.5325  0.6759  0.0051
  496MPD2     N 7433   0.198   1.550  15.260 -0.0421  0.6720 -0.1234
  496MPD2    H5 7434   0.122   1.560  15.195 -0.7370  0.2288  0.6216
  496MPD2    N1 7435   0.654   1.714  15.311  0.1094 -0.1895  0.6083
  496MPD2    H7 7436   0.727   1.769  15.267 -1.1068  0.7434 -0.2271
  497TMC3    C1 7437   0.082   1.363  15.331  0.6971  0.0822  0.0544
  497TMC3    C2 7438   0.061   1.312  15.203  0.3584  0.2291 -0.3068
  497TMC3    C3 7439   4.729   1.190  15.201  1.5068 -0.1903 -0.6313
  497TMC3    C4 7440   0.031   1.304  15.444 -0.5937  0.2818 -0.0899
  497TMC3    C5 7441   4.703   1.179  15.432  0.4698  0.2386  0.4798
  497TMC3    C6 7442   4.688   1.118  15.310  0.1492  0.4838 -0.3700
  497TMC3     C 7443   0.205   1.437  15.339  0.0217  0.7040  0.0581
  497TMC3     O 7444   0.302   1.391  15.399  0.0927 -0.4698  0.5126
  497TMC3     H 7445   0.123   1.353  15.124  0.7412  1.7918  0.7981
  497TMC3    H1 7446   0.050   1.347  15.542  3.6530 -0.4610 -0.5655
  497TMC3    H2 7447   4.637   1.023  15.304 -2.4341  1.7692  1.2936
  497TMC3    C7 7448   4.711   1.089  15.546 -0.1848  0.5214  0.1225
  497TMC3    C8 7449   4.699   1.149  15.069  0.2647  0.7903 -0.2336
  497TMC3    O1 7450   0.002   0.971  15.543  0.3757 -0.2965  0.5219
  497TMC3    O2 7451   4.667   1.032  15.071 -0.2657  0.3997 -0.1568
  498MPD2     C 7452   1.196   2.576   9.969 -0.0043  0.0773 -0.3185
  498MPD2    C1 7453   1.127   2.570  10.086  0.2506  0.0758  0.1891
  498MPD2    C2 7454   1.042   2.460  10.100  0.0805 -1.0240  0.4616
  498MPD2    C3 7455   1.026   2.363  10.005  0.2137 -0.6413 -0.2420
  498MPD2    C4 7456   1.102   2.377   9.889  0.3234 -0.1917 -1.1384
  498MPD2    C5 7457   1.194   2.477   9.875  0.6056 -0.1352 -0.3174
  498MPD2     H 7458   0.984   2.448  10.190  1.3388  1.8484  1.6802
  498MPD2    H1 7459   1.093   2.303   9.810 -2.0308  2.1699 -3.0811
  498MPD2    H2 7460   1.260   2.662   9.955 -2.2835  1.8392  0.1150
  498MPD2    H3 7461   1.250   2.482   9.783 -1.0788 -0.0281 -1.3424
  498MPD2     N 7462   0.935   2.260  10.028 -0.2521 -0.1793 -0.2161
  498MPD2    H5 7463   0.879   2.264  10.113 -1.0159  0.0619 -0.7220
  498MPD2    N1 7464   1.125   2.684  10.165 -0.0760 -0.6525  0.3186
  498MPD2    H7 7465   1.204   2.747  10.148  0.0787 -0.1986  2.7545
  499TMC3    C1 7466   1.047   2.853  10.300 -0.1305  0.0284 -0.2560
  499TMC3    C2 7467   1.171   2.886  10.335  0.0876 -0.3068 -0.0832
  499TMC3    C3 7468   1.180   3.005  10.405  0.7853 -0.8053 -0.3831
  499TMC3    C4 7469   0.936   2.932  10.330  0.1473  0.3051  0.2263
  499TMC3    C5 7470   0.954   3.049  10.397  0.2004 -0.0809 -0.6665
  499TMC3    C6 7471   1.078   3.094  10.425 -0.3229 -0.3128 -0.4613
  499TMC3     C 7472   1.011   2.725  10.239 -0.7444 -0.9411  0.2325
  499TMC3     O 7473   0.902   2.673  10.236 -0.1318  0.6327  0.5441
  499TMC3     H 7474   1.261   2.842  10.295  0.0789  0.1271 -0.5895
  499TMC3    H1 7475   0.836   2.910  10.294 -0.2024 -1.3536  2.1988
  499TMC3    H2 7476   1.091   3.183  10.485  1.8455 -1.7397  1.1738
  499TMC3    C7 7477   0.881   3.154  10.339  0.0114  0.3569 -1.1276
  499TMC3    C8 7478   1.306   3.066  10.427  0.2642 -0.0425  0.0489
  499TMC3    O1 7479   0.936   3.246  10.277 -0.6738  0.0422  0.4533
  499TMC3    O2 7480   1.308   3.189  10.428  0.3291  0.1594 -0.3239
  500MPD2     C 7481   2.338   3.893   9.896  0.2276  0.0701 -0.1202
  500MPD2    C1 7482   2.324   3.829  10.015  0.0629  0.3104 -0.0363
  500MPD2    C2 7483   2.208   3.754  10.037  0.1592  0.5748  0.4471
  500MPD2    C3 7484   2.100   3.746   9.942  0.4630  0.2707 -0.3502
  500MPD2    C4 7485   2.121   3.810   9.820 -0.3102  0.5845  0.0267
  500MPD2    C5 7486   2.239   3.880   9.799 -0.3166 -0.0100 -0.7764
  500MPD2     H 7487   2.201   3.695  10.128 -1.3387  0.8110  0.4734
  500MPD2    H1 7488   2.044   3.811   9.743 -0.4195  1.3014  0.1471
  500MPD2    H2 7489   2.429   3.939   9.859  0.6065  0.4383  1.2747
  500MPD2    H3 7490   2.255   3.929   9.703  1.5162 -0.4691 -0.7001
  500MPD2     N 7491   1.970   3.696   9.985  0.0965  0.3248  0.7085
  500MPD2    H5 7492   1.897   3.690   9.915  0.2995 -0.8705  0.5966
  500MPD2    N1 7493   2.421   3.834  10.121 -0.7168 -0.3969  0.6536
  500MPD2    H7 7494   2.407   3.779  10.205  1.0567 -1.4548  0.2470
  501TMC3    C1 7495   2.606   3.904  10.231  0.4865  0.0946 -0.1269
  501TMC3    C2 7496   2.635   4.013  10.299  0.4167  0.7367  0.2166
  501TMC3    C3 7497   2.691   3.989  10.417 -0.1213  0.0754  0.1709
  501TMC3    C4 7498   2.641   3.779  10.271  0.3926  0.1198  0.2249
  501TMC3    C5 7499   2.713   3.762  10.392  0.7953  0.0339  0.4982
  501TMC3    C6 7500   2.735   3.869  10.462  0.2431 -0.4596 -0.1570
  501TMC3     C 7501   2.522   3.924  10.117  0.4825  0.1859  0.6376
  501TMC3     O 7502   2.527   4.033  10.069  0.1355  0.7742  0.0744
  501TMC3     H 7503   2.600   4.112  10.271  0.1591  0.0635 -1.8313
  501TMC3    H1 7504   2.633   3.693  10.205 -0.6834  0.1420  0.3194
  501TMC3    H2 7505   2.787   3.864  10.557  0.5132  0.2165 -0.2730
  501TMC3    C7 7506   2.806   3.652  10.414 -0.8135  0.5687  0.4477
  501TMC3    C8 7507   2.758   4.098  10.481 -0.0230 -0.0103 -0.4516
  501TMC3    O1 7508   2.883   3.658  10.509  0.2816  0.2861 -0.2892
  501TMC3    O2 7509   2.871   4.077  10.521  0.0543 -0.4461  0.3796
  502TMC3    C1 7510   1.835   2.116  15.188  0.2811  0.0457  0.2623
  502TMC3    C2 7511   1.852   2.177  15.068  0.0914  1.0379  0.1080
  502TMC3    C3 7512   1.792   2.300  15.051 -0.3514 -0.0968 -0.4076
  502TMC3    C4 7513   1.741   2.155  15.279 -0.3403  0.0753 -0.5560
  502TMC3    C5 7514   1.667   2.266  15.241 -0.1958  0.2693  0.5998
  502TMC3    C6 7515   1.689   2.344  15.134  1.1720 -0.9311  0.5494
  502TMC3     C 7516   1.966   2.093  15.247  0.5249 -0.6273 -0.0702
  502TMC3     O 7517   2.052   2.028  15.189  0.6979 -0.2871 -0.0894
  502TMC3     H 7518   1.941   2.156  15.010  0.0550 -0.5877  0.6422
  502TMC3    H1 7519   1.719   2.101  15.371 -1.4105 -1.0960 -1.4971
  502TMC3    H2 7520   1.642   2.439  15.110  0.4217 -1.6724 -0.9505
  502TMC3    C7 7521   1.583   2.322  15.341  0.4005 -0.4780 -0.2132
  502TMC3    C8 7522   1.889   2.404  15.010 -0.4237  0.2858  0.7282
  502TMC3    O1 7523   1.598   2.287  15.458  0.1471  0.2330 -0.2140
  502TMC3    O2 7524   2.004   2.370  14.996  0.2269  0.5574 -0.3623
  503MPD2     C 7525   4.503   3.402  17.589  0.2753  0.0474 -0.1843
  503MPD2    C1 7526   4.612   3.457  17.639 -0.0638 -0.6114 -0.5640
  503MPD2    C2 7527   4.722   3.381  17.665  0.0082  0.0925 -0.3195
  503MPD2    C3 7528   4.731   3.247  17.615 -0.2887  0.1476  0.2024
  503MPD2    C4 7529   4.620   3.189  17.565 -0.4741 -0.0930 -0.4978
  503MPD2    C5 7530   4.509   3.269  17.551 -0.1969 -0.6424 -0.0758
  503MPD2     H 7531   0.066   3.429  17.718 -2.5275 -0.0058  3.6535
  503MPD2    H1 7532   4.621   3.089  17.521 -0.0803 -0.1719 -0.3158
  503MPD2    H2 7533   4.419   3.466  17.567  0.4109 -0.6610 -2.7661
  503MPD2    H3 7534   4.424   3.225  17.501 -1.6571  0.8137  1.1158
  503MPD2     N 7535   0.120   3.176  17.629  0.5688 -0.0083  0.2206
  503MPD2    H5 7536   0.191   3.209  17.694  0.2609  4.3638 -1.6761
  503MPD2    N1 7537   4.627   3.598  17.652 -0.6709  0.3823  0.6477
  503MPD2    H7 7538   4.701   3.627  17.714  0.2436 -0.7170  0.0643
  504TMC3    C1 7539   0.280   3.018  17.588 -0.4439 -0.0491 -0.0077
  504TMC3    C2 7540   0.332   3.010  17.718 -0.8079  0.3252  0.0879
  504TMC3    C3 7541   0.454   2.955  17.733 -0.1052  0.5425 -0.4316
  504TMC3    C4 7542   0.346   2.959  17.481 -0.5150 -1.3578  0.1220
  504TMC3    C5 7543   0.464   2.895  17.509  0.4942  0.0930  0.4819
  504TMC3    C6 7544   0.525   2.895  17.628  0.6356  0.3736 -0.5200
  504TMC3     C 7545   0.146   3.058  17.568  1.3316  0.0358  0.0887
  504TMC3     O 7546   0.077   2.987  17.494  0.1459 -0.4897 -0.1498
  504TMC3     H 7547   0.275   3.047   0.057  0.1548  1.7022  0.1326
  504TMC3    H1 7548   0.302   2.946  17.383  0.3025 -0.2000 -0.3934
  504TMC3    H2 7549   0.623   2.851  17.645  0.2071 -0.3834  0.0129
  504TMC3    C7 7550   0.524   2.829  17.394 -0.0862  0.3934 -0.2344
  504TMC3    C8 7551   0.521   2.979   0.111  0.5336  0.6758  0.5593
  504TMC3    O1 7552   0.486   2.872  17.286 -0.6426  1.0020 -0.0298
  504TMC3    O2 7553   0.640   2.956   0.120  0.2967 -0.0981  0.3030
  505MPD2     C 7554   0.649   1.134  10.809  1.0465  0.4114  0.5366
  505MPD2    C1 7555   0.545   1.094  10.726 -0.8355 -0.5428  0.8516
  505MPD2    C2 7556   0.580   1.031  10.604 -0.3489  0.5290  0.5308
  505MPD2    C3 7557   0.713   0.996  10.579 -0.2774 -0.0623  0.4678
  505MPD2    C4 7558   0.814   1.028  10.666 -1.3334  0.1200  0.5199
  505MPD2    C5 7559   0.779   1.099  10.778 -0.2634 -0.4991 -0.1326
  505MPD2     H 7560   0.494   0.995  10.549 -0.2647 -0.7828  1.2821
  505MPD2    H1 7561   0.916   1.000  10.644 -0.9318  1.2116  1.0236
  505MPD2    H2 7562   0.638   1.180  10.906 -0.7303  1.4868 -0.1750
  505MPD2    H3 7563   0.854   1.137  10.847 -1.7001  1.9016  0.1141
  505MPD2     N 7564   0.757   0.931  10.466  0.1996 -0.4239  0.3728
  505MPD2    H5 7565   0.856   0.911  10.454  0.0093 -1.3951  0.3807
  505MPD2    N1 7566   0.413   1.121  10.767 -0.6292  0.4702  0.0945
  505MPD2    H7 7567   0.400   1.163  10.858  1.6432  0.4082  0.4560
  506TMC3    C1 7568   0.195   1.194  10.721 -0.6539  0.0543  0.1667
  506TMC3    C2 7569   0.239   1.326  10.754 -0.7668  0.3302 -0.1662
  506TMC3    C3 7570   0.193   1.424  10.672  0.0660  0.0189  0.4487
  506TMC3    C4 7571   0.092   1.180  10.629 -0.3530  0.0377  0.4972
  506TMC3    C5 7572   0.054   1.288  10.544  0.1379 -0.3136  0.2032
  506TMC3    C6 7573   0.107   1.413  10.570  0.6800  0.6348 -0.1904
  506TMC3     C 7574   0.306   1.107  10.685 -0.4171 -0.0382 -0.4555
  506TMC3     O 7575   0.275   1.033  10.590  0.0311  0.0041 -0.1379
  506TMC3     H 7576   0.319   1.351  10.822 -1.4486  0.9035  0.4261
  506TMC3    H1 7577   0.053   1.080  10.613 -0.8823  0.7100 -2.3914
  506TMC3    H2 7578   0.070   1.501  10.519 -2.8696 -1.1074 -0.5819
  506TMC3    C7 7579   0.053   1.244  10.405 -0.3099 -0.2880  0.0067
  506TMC3    C8 7580   0.245   1.556  10.698  0.0934 -0.2295  0.5431
  506TMC3    O1 7581   4.732   1.314  10.324 -0.0641 -0.3623 -0.6786
  506TMC3    O2 7582   0.264   1.595  10.813 -0.0558  0.1854  0.8823
  507TMC3    C1 7583   0.912   2.523  14.337  0.5220 -0.2563 -0.0697
  507TMC3    C2 7584   0.792   2.522  14.409  0.1003 -0.0540 -1.3064
  507TMC3    C3 7585   0.706   2.628  14.393 -0.0467  0.1254  0.0573
  507TMC3    C4 7586   0.953   2.641  14.286 -0.4592 -0.0644  0.4447
  507TMC3    C5 7587   0.873   2.750  14.273 -0.5318 -0.2754  0.1455
  507TMC3    C6 7588   0.746   2.735  14.318 -0.6267  0.2473  0.8016
  507TMC3     C 7589   1.000   2.413  14.380  0.7560 -0.3899 -0.6107
  507TMC3     O 7590   0.959   2.331  14.463 -0.1418 -0.1537 -0.0660
  507TMC3     H 7591   0.772   2.437  14.474  1.3176 -0.5109 -1.5231
  507TMC3    H1 7592   1.056   2.642  14.250 -0.9035 -0.8599 -0.8678
  507TMC3    H2 7593   0.668   2.804  14.286 -0.0715 -0.6876 -2.6276
  507TMC3    C7 7594   0.914   2.879  14.309  0.9221 -0.3218 -0.8081
  507TMC3    C8 7595   0.633   2.667  14.510  0.9205 -0.3765  0.4060
  507TMC3    O1 7596   0.828   2.943  14.368  0.1635  0.1308  0.3524
  507TMC3    O2 7597   0.568   2.581  14.568  0.2778  0.5134  0.6103
  508MPD2     C 7598   2.074   4.710  16.320 -0.1407  0.5605  0.0962
  508MPD2    C1 7599   2.047   0.095  16.391 -0.4774 -0.7580  0.4004
  508MPD2    C2 7600   2.011   0.210  16.319  0.3819  0.0085 -0.0909
  508MPD2    C3 7601   1.994   0.208  16.183 -0.1594  0.1772 -0.5300
  508MPD2    C4 7602   2.021   0.098  16.110 -0.1239 -0.0027  0.4052
  508MPD2    C5 7603   2.063   4.717  16.179  0.5732  0.8584  0.5119
  508MPD2     H 7604   1.989   0.297  16.380 -1.1702  1.4300 -2.6498
  508MPD2    H1 7605   2.020   0.095  16.001  1.8143 -1.8896  0.4286
  508MPD2    H2 7606   2.101   4.623  16.378 -0.0910  0.0439 -0.6961
  508MPD2    H3 7607   2.092   4.637  16.113  0.6387  0.7632  0.6542
  508MPD2     N 7608   1.955   0.333  16.120  0.3412 -0.0103  0.8487
  508MPD2    H5 7609   1.923   0.408  16.180  0.5935  0.3408  0.5462
  508MPD2    N1 7610   2.056   0.092  16.534 -0.0019 -0.3231 -0.3794
  508MPD2    H7 7611   2.087   0.004  16.573  0.4423  0.7919  1.7520
  509TMC3    C1 7612   1.744   0.638  15.843  0.0683 -0.5988  0.3068
  509TMC3    C2 7613   1.761   0.733  15.939 -0.6926  0.8540  0.4311
  509TMC3    C3 7614   1.836   0.698  16.043 -0.4582 -0.4430  0.8029
  509TMC3    C4 7615   1.799   0.514  15.861 -0.7395 -0.3521 -1.0424
  509TMC3    C5 7616   1.882   0.492  15.973  0.6267 -0.8997  0.1821
  509TMC3    C6 7617   1.897   0.584  16.074  0.3967 -0.5104  0.3359
  509TMC3     C 7618   1.652   0.657  15.732 -1.1749  0.1193 -0.1219
  509TMC3     O 7619   1.611   0.552  15.681  0.1917  0.2279  0.6728
  509TMC3     H 7620   1.713   0.831  15.937 -0.3052  1.0375  0.0884
  509TMC3    H1 7621   1.781   0.430  15.795 -1.1170 -0.9162 -0.2261
  509TMC3    H2 7622   1.964   0.582  16.159 -0.7441  1.0363  1.2828
  509TMC3    C7 7623   1.925   0.356  15.987 -0.1295  0.0950 -0.4025
  509TMC3    C8 7624   1.830   0.788  16.158 -0.1352  0.6451 -0.5156
  509TMC3    O1 7625   1.948   0.288  15.886 -0.1737 -0.0572  0.1161
  509TMC3    O2 7626   1.822   0.723  16.263 -0.4760  0.1425  0.3976
  510MPD2     C 7627   3.923   2.276  14.463 -0.2732 -0.0102  0.0376
  510MPD2    C1 7628   3.999   2.202  14.550 -0.0199  0.6215 -0.2127
  510MPD2    C2 7629   4.138   2.223  14.544  0.0922 -0.1434  0.2529
  510MPD2    C3 7630   4.200   2.302  14.448  0.7324  0.6779 -0.1024
  510MPD2    C4 7631   4.115   2.381  14.372 -0.1569  0.4509 -0.0701
  510MPD2    C5 7632   3.980   2.375  14.388  0.3579 -0.2522 -0.0472
  510MPD2     H 7633   4.202   2.172  14.615  2.2831  1.2791 -0.6676
  510MPD2    H1 7634   4.150   2.456  14.302  1.3063 -1.4490 -1.3685
  510MPD2    H2 7635   3.815   2.268  14.464 -0.3862  1.5429  0.2491
  510MPD2    H3 7636   3.915   2.443  14.333  0.9771  0.9937  0.7546
  510MPD2     N 7637   4.347   2.304  14.438  0.3525  0.2622  0.4628
  510MPD2    H5 7638   4.396   2.242  14.502  1.6844 -0.7585 -1.5323
  510MPD2    N1 7639   3.928   2.126  14.639 -0.1809  0.0768 -0.3933
  510MPD2    H7 7640   3.827   2.131  14.632 -0.3169 -0.8380  0.7555
  511TMC3    C1 7641   3.884   1.942  14.766  0.5564  0.1151  0.1864
  511TMC3    C2 7642   3.827   1.984  14.888 -0.0688  0.8096 -0.3715
  511TMC3    C3 7643   3.760   1.880  14.955 -0.4293 -0.6820 -0.1290
  511TMC3    C4 7644   3.879   1.808  14.726 -0.2775 -0.2965  0.6152
  511TMC3    C5 7645   3.807   1.721  14.795  0.3892  0.8306 -0.5469
  511TMC3    C6 7646   3.738   1.751  14.911  0.1680 -0.0890 -0.8410
  511TMC3     C 7647   3.985   2.017  14.700 -0.0602  0.4455 -0.2967
  511TMC3     O 7648   4.088   1.959  14.665  0.2078  0.6109  0.0198
  511TMC3     H 7649   3.822   2.089  14.914  0.8025  0.4638  1.2396
  511TMC3    H1 7650   3.937   1.780  14.639  0.4774  0.5435  0.8503
  511TMC3    H2 7651   3.677   1.679  14.963  0.0718  2.2292  2.2212
  511TMC3    C7 7652   3.765   1.610  14.719 -0.1589 -0.7800 -0.0964
  511TMC3    C8 7653   3.688   1.924  15.082  0.3063  0.4375 -0.0482
  511TMC3    O1 7654   3.733   1.631  14.602 -0.5675  0.2042  0.4134
  511TMC3    O2 7655   3.709   2.041  15.111 -0.0697 -0.8856  0.3727
  512TMC3    C1 7656   3.092   1.176  13.190 -0.3202 -0.5868 -0.5424
  512TMC3    C2 7657   3.162   1.191  13.303 -0.5480  0.6447 -0.3979
  512TMC3    C3 7658   3.225   1.085  13.358 -0.2614 -0.1962 -0.4130
  512TMC3    C4 7659   3.067   1.049  13.139  0.3390 -0.2338  0.3681
  512TMC3    C5 7660   3.121   0.943  13.197  0.2100  0.2168 -0.0642
  512TMC3    C6 7661   3.202   0.959  13.308  0.2679 -0.3194 -0.0444
  512TMC3     C 7662   3.023   1.292  13.139  0.0130 -0.0141 -0.4172
  512TMC3     O 7663   3.003   1.382  13.220 -0.4707 -0.0006 -0.1191
  512TMC3     H 7664   3.156   1.288  13.351 -1.4204  0.2861  0.2276
  512TMC3    H1 7665   3.019   1.033  13.042  2.1686 -1.9473 -0.2384
  512TMC3    H2 7666   3.230   0.880  13.376 -1.4527 -1.6163 -0.8399
  512TMC3    C7 7667   3.085   0.809  13.161 -0.3233  0.8586 -0.0787
  512TMC3    C8 7668   3.331   1.097  13.460  0.3683 -0.3045 -0.0215
  512TMC3    O1 7669   3.002   0.797  13.069 -0.0213 -0.2086  0.1775
  512TMC3    O2 7670   3.386   0.991  13.493 -0.3133 -0.3064 -0.0754
  513MPD2     C 7671   4.731   1.538  13.674  0.0246 -0.1074 -0.0722
  513MPD2    C1 7672   0.002   1.435  13.583  0.0123 -0.0499 -0.2181
  513MPD2    C2 7673   0.070   1.324  13.606  0.1693 -0.0204  0.0934
  513MPD2    C3 7674   0.129   1.305  13.728 -0.0086 -0.5325 -0.0951
  513MPD2    C4 7675   0.131   1.408  13.822  0.3383  0.6162  0.1748
  513MPD2    C5 7676   0.052   1.518  13.797 -0.1436 -0.2107 -0.2606
  513MPD2     H 7677   0.076   1.247  13.530 -1.3095  0.4913 -0.5427
  513MPD2    H1 7678   0.180   1.395  13.918  0.9182 -2.0673 -0.4825
  513MPD2    H2 7679   4.683   1.633  13.653 -0.7068 -0.1646  1.3260
  513MPD2    H3 7680   0.044   1.598  13.869  1.2563 -1.0000  0.7797
  513MPD2     N 7681   0.191   1.179  13.749  1.0536  0.3434 -0.3295
  513MPD2    H5 7682   0.171   1.115  13.673 -2.3458 -0.6312  1.3342
  513MPD2    N1 7683   4.687   1.450  13.456  0.4002  0.3537  0.0628
  513MPD2    H7 7684   4.702   1.365  13.402  0.6967 -0.0406  0.7770
  514TMC3    C1 7685   4.642   1.537  13.250  0.2290 -0.5221  0.1785
  514TMC3    C2 7686   4.703   1.632  13.178  0.7159  0.7676 -0.2763
  514TMC3    C3 7687   0.028   1.596  13.060 -0.2024 -0.5453  0.0013
  514TMC3    C4 7688   4.635   1.408  13.211  0.2801 -0.0862  0.2410
  514TMC3    C5 7689   4.718   1.372  13.111 -0.6307  0.0208  0.3481
  514TMC3    C6 7690   0.055   1.464  13.033  0.1071 -0.2475  0.2060
  514TMC3     C 7691   4.638   1.561  13.389  0.4427  0.6930 -0.2530
  514TMC3     O 7692   4.615   1.672  13.433 -0.7989  0.1122 -0.2102
  514TMC3     H 7693   4.716   1.731  13.220 -1.2486  0.9936 -0.2070
  514TMC3    H1 7694   4.579   1.339  13.273  0.4877 -0.0237  0.5040
  514TMC3    H2 7695   0.135   1.427  12.970  0.0568  1.1870 -0.6987
  514TMC3    C7 7696   0.011   1.230  13.104  0.6750 -0.2376  0.1445
  514TMC3    C8 7697   0.086   1.704  12.978  0.2352  0.6882  0.4683
  514TMC3    O1 7698   4.684   1.157  13.180  0.0806  0.0441  0.3011
  514TMC3    O2 7699   0.089   1.820  13.023 -0.1114 -0.6706  0.5741
  515MPD2     C 7700   3.382   2.844  15.064 -0.0539 -0.4571  0.1732
  515MPD2    C1 7701   3.375   2.894  14.937  0.0488 -0.5257 -0.0214
  515MPD2    C2 7702   3.448   3.009  14.905 -0.0366 -0.1369 -0.1970
  515MPD2    C3 7703   3.509   3.081  15.005  0.3963 -0.4024 -0.9992
  515MPD2    C4 7704   3.509   3.034  15.133  0.6333  0.0482  0.8366
  515MPD2    C5 7705   3.441   2.919  15.164 -0.3245 -0.0152  1.1278
  515MPD2     H 7706   3.446   3.050  14.805  2.5387 -1.1050 -0.6329
  515MPD2    H1 7707   3.571   3.083  15.207  0.7534 -2.7725  2.6083
  515MPD2    H2 7708   3.331   2.754  15.097  0.0758  0.5020  2.9792
  515MPD2    H3 7709   3.454   2.869  15.259 -2.9228  0.4498  1.7476
  515MPD2     N 7710   3.574   3.207  14.984 -0.2271 -0.4399  0.1996
  515MPD2    H5 7711   3.613   3.245  15.070 -0.5637  1.4739 -0.4770
  515MPD2    N1 7712   3.326   2.816  14.831  0.7608  0.0092 -0.3195
  515MPD2    H7 7713   3.275   2.734  14.862 -1.0311  0.9892 -0.6174
  516TMC3    C1 7714   3.250   2.751  14.606 -0.4453 -0.2492  0.0230
  516TMC3    C2 7715   3.192   2.818  14.501 -0.3917 -0.3725  0.1437
  516TMC3    C3 7716   3.097   2.749  14.430 -0.6119  0.4544 -0.1504
  516TMC3    C4 7717   3.205   2.627  14.649  0.0131 -0.1219 -0.2237
  516TMC3    C5 7718   3.112   2.567  14.568 -0.4167  0.3303  0.0126
  516TMC3    C6 7719   3.060   2.623  14.458 -0.4832  0.1084  0.2468
  516TMC3     C 7720   3.331   2.839  14.694  0.0221 -0.1792  0.6786
  516TMC3     O 7721   3.380   2.928  14.632 -0.4743  0.0561 -0.1979
  516TMC3     H 7722   3.200   2.924  14.484 -1.1485 -0.7242 -2.4438
  516TMC3    H1 7723   3.246   2.584  14.740 -0.0753  0.5517  0.1342
  516TMC3    H2 7724   2.975   2.587  14.402  1.1673 -2.6316 -0.4688
  516TMC3    C7 7725   3.029   2.459  14.631  0.1021 -1.0515  0.3126
  516TMC3    C8 7726   2.984   2.833  14.381 -0.0247 -0.4203  0.1753
  516TMC3    O1 7727   3.059   2.447  14.752  0.0161 -0.0730  0.0669
  516TMC3    O2 7728   2.867   2.792  14.393  0.3289 -0.1585  0.4304
  517MPD2     C 7729   3.061   4.484   0.057 -0.2667 -0.1803  0.3645
  517MPD2    C1 7730   3.193   4.462   0.078  0.3885  0.2003  0.0986
  517MPD2    C2 7731   3.258   4.549   0.162 -0.3584  0.8255  0.6296
  517MPD2    C3 7732   3.188   4.649   0.229  0.1443  0.0513  0.4520
  517MPD2    C4 7733   3.053   4.661   0.209  0.3978  0.2558 -0.8132
  517MPD2    C5 7734   2.989   4.581   0.121  0.1314 -0.3769 -0.3705
  517MPD2     H 7735   3.365   4.535   0.173 -0.4296  0.7093  1.1620
  517MPD2    H1 7736   2.993   4.735   0.262  0.2659 -0.8267  0.5540
  517MPD2    H2 7737   3.003   4.427  17.731 -0.0849 -0.4174  0.4063
  517MPD2    H3 7738   2.884   4.596   0.101 -0.0367 -2.4610 -1.0504
  517MPD2     N 7739   3.252   0.005   0.314 -0.4003  0.6572 -0.3967
  517MPD2    H5 7740   3.195   0.071   0.366  0.9941  0.8965  0.8240
  517MPD2    N1 7741   3.265   4.354   0.015 -0.1773 -0.4055  0.0367
  517MPD2    H7 7742   3.364   4.345   0.033  0.0640 -0.4438 -1.3320
  518TMC3    C1 7743   3.295   4.150  17.651 -0.2942  0.5324  0.4087
  518TMC3    C2 7744   3.235   4.038  17.623 -0.5390 -0.8555 -0.3552
  518TMC3    C3 7745   3.313   3.930  17.607  0.1125 -0.7691  0.2285
  518TMC3    C4 7746   3.431   4.161  17.645 -0.4577  0.5423  0.0191
  518TMC3    C5 7747   3.504   4.053  17.602 -0.2217  0.5422 -1.0809
  518TMC3    C6 7748   3.451   3.931  17.601 -0.1259  0.4820 -0.5817
  518TMC3     C 7749   3.208   4.266  17.674 -0.2327 -1.4337 -0.3810
  518TMC3     O 7750   3.100   4.259  17.621  0.0981 -0.0546  0.1782
  518TMC3     H 7751   3.127   4.031  17.622 -0.6185  0.2771  0.0582
  518TMC3    H1 7752   3.468   4.257  17.612  0.8194  0.4113  1.0739
  518TMC3    H2 7753   3.497   3.843  17.556 -1.9563 -0.9228  0.3203
  518TMC3    C7 7754   3.646   4.068  17.567 -0.7938 -0.2729  0.1493
  518TMC3    C8 7755   3.249   3.800  17.590  0.4693  0.1399  0.1442
  518TMC3    O1 7756   3.697   4.179  17.563 -0.0449  0.0503  0.4000
  518TMC3    O2 7757   3.317   3.709  17.548 -0.5984  0.3754  0.2800
  519MPD2     C 7758   4.597   2.674  14.579 -0.1263 -0.7590  0.4405
  519MPD2    C1 7759   4.562   2.729  14.457  1.3074 -0.8557  0.3287
  519MPD2    C2 7760   4.660   2.716  14.362  0.0998 -0.6110  0.3990
  519MPD2    C3 7761   0.047   2.658  14.381  0.0781  0.9035  0.1808
  519MPD2    C4 7762   0.083   2.614  14.506 -0.0028 -0.4434  0.5521
  519MPD2    C5 7763   4.725   2.617  14.602  0.4286  0.2593 -0.1052
  519MPD2     H 7764   4.640   2.742  14.258  0.9585 -0.2985  0.3132
  519MPD2    H1 7765   0.183   2.577  14.522 -0.0953 -1.7321 -1.8947
  519MPD2    H2 7766   4.530   2.683  14.663 -0.3919  0.7589  0.0726
  519MPD2    H3 7767   0.007   2.593  14.706  0.8774 -1.3852 -0.5630
  519MPD2     N 7768   0.146   2.653  14.282  0.3613 -0.2726 -0.1547
  519MPD2    H5 7769   0.230   2.596  14.292 -0.5181 -1.4926  0.2436
  519MPD2    N1 7770   4.437   2.791  14.427 -0.0832  0.1481  0.2076
  519MPD2    H7 7771   4.360   2.784  14.492  1.5774 -0.2085  2.1117
  520TMC3    C1 7772   0.233   2.681  14.069  0.5056 -0.6232  0.3822
  520TMC3    C2 7773   0.214   2.730  13.942 -0.8426  0.3908 -0.4794
  520TMC3    C3 7774   0.303   2.681  13.852 -0.3243 -0.4995 -0.7311
  520TMC3    C4 7775   0.321   2.578  14.101 -0.2963 -0.3804  0.0651
  520TMC3    C5 7776   0.400   2.527  14.001 -0.1567 -0.4524 -0.1819
  520TMC3    C6 7777   0.395   2.580  13.879 -0.1580  0.4592 -0.1371
  520TMC3     C 7778   0.132   2.721  14.163 -0.8665  0.0764  0.6526
  520TMC3     O 7779   0.062   2.814  14.130 -0.2130 -0.3833 -0.0099
  520TMC3     H 7780   0.153   2.818  13.922 -1.1528  0.0084 -1.2273
  520TMC3    H1 7781   0.321   2.518  14.191  0.5408 -3.1809 -1.8156
  520TMC3    H2 7782   0.446   2.531  13.796  0.5506  1.8049 -0.4910
  520TMC3    C7 7783   0.506   2.431  14.048 -1.1966  0.3891  0.0663
  520TMC3    C8 7784   0.256   2.698  13.713 -0.0084 -0.5001 -0.9242
  520TMC3    O1 7785   0.526   2.423  14.170 -0.4932 -0.7132  0.2988
  520TMC3    O2 7786   0.334   2.649  13.635  0.5787  0.0378  0.7794
  521MPD2     C 7787   0.978   1.445  17.561  0.8534  0.4028  0.1092
  521MPD2    C1 7788   0.911   1.325  17.563  0.3817  0.0208 -0.2729
  521MPD2    C2 7789   0.981   1.199  17.539  0.4320 -0.2794 -0.7614
  521MPD2    C3 7790   1.121   1.204  17.517  0.3090 -0.2804  0.6446
  521MPD2    C4 7791   1.182   1.325  17.507 -0.3824  0.0282 -0.2588
  521MPD2    C5 7792   1.114   1.442  17.529  0.7007 -0.7655 -0.3693
  521MPD2     H 7793   0.939   1.100  17.538  2.3323 -1.1332  1.7972
  521MPD2    H1 7794   1.290   1.334  17.501 -0.4391  0.7942 -0.1537
  521MPD2    H2 7795   0.923   1.535  17.586 -1.2285 -1.3636  1.9820
  521MPD2    H3 7796   1.148   1.545  17.527 -0.5251 -0.3579 -0.2317
  521MPD2     N 7797   1.185   1.080  17.496  0.3711  0.3551  0.8507
  521MPD2    H5 7798   1.130   0.997  17.472 -1.8427  2.3451 -0.9444
  521MPD2    N1 7799   0.773   1.321  17.583 -1.0705 -0.7901  0.1173
  521MPD2    H7 7800   0.728   1.412  17.576  1.4341  0.4485  0.1069
  522TMC3    C1 7801   1.361   0.934  17.466 -0.1205  0.1735  0.3148
  522TMC3    C2 7802   1.476   0.881  17.510 -0.5567 -0.6271  0.7837
  522TMC3    C3 7803   1.517   0.755  17.463  0.3245 -0.3401 -0.0826
  522TMC3    C4 7804   1.284   0.868  17.373  0.6065 -0.1843 -0.0679
  522TMC3    C5 7805   1.329   0.743  17.333 -0.2051  0.9329  0.0450
  522TMC3    C6 7806   1.444   0.691  17.369  0.1849 -0.1774 -0.1072
  522TMC3     C 7807   1.318   1.058  17.517 -0.6753 -0.6307 -0.3789
  522TMC3     O 7808   1.406   1.128  17.565 -0.4412  0.2291  0.6270
  522TMC3     H 7809   1.536   0.944  17.574  0.6883 -0.8541 -0.1618
  522TMC3    H1 7810   1.192   0.910  17.333  0.5080  1.1037  1.5283
  522TMC3    H2 7811   1.461   0.585  17.354 -1.8680 -0.4714 -0.3668
  522TMC3    C7 7812   1.254   0.659  17.241  0.2529  0.5456  0.4399
  522TMC3    C8 7813   1.652   0.723  17.483 -0.4264 -0.5627 -0.4902
  522TMC3    O1 7814   1.276   0.538  17.258  0.0279  0.5153 -0.7221
  522TMC3    O2 7815   1.695   0.779  17.582  0.0542 -0.0893 -0.6793
  523MPD2     C 7816   2.902   4.701   9.831 -0.4432  0.2863 -0.0510
  523MPD2    C1 7817   2.928   0.070   9.919  0.4665  0.0935  0.0882
  523MPD2    C2 7818   2.859   0.190   9.902 -0.8112  0.1103  0.4346
  523MPD2    C3 7819   2.757   0.194   9.810 -0.3469 -0.3296 -0.6585
  523MPD2    C4 7820   2.746   0.083   9.723 -0.0976 -0.0874 -0.5255
  523MPD2    C5 7821   2.814   4.706   9.727 -0.2844  0.7930  0.3663
  523MPD2     H 7822   2.879   0.280   9.959 -1.1125 -0.4703  1.4538
  523MPD2    H1 7823   2.672   0.090   9.644 -1.3830 -1.4884  0.5480
  523MPD2    H2 7824   2.963   4.613   9.843  0.5846  0.7627 -1.7377
  523MPD2    H3 7825   2.806   4.633   9.647  1.0207 -0.6326  1.5439
  523MPD2     N 7826   2.678   0.311   9.782  0.9910  0.9353 -0.6116
  523MPD2    H5 7827   2.623   0.311   9.697 -1.4796 -4.7756  0.9914
  523MPD2    N1 7828   3.027   0.046  10.022  0.5452  0.4166 -0.8321
  523MPD2    H7 7829   3.068   4.690  10.015 -0.8749 -0.2618 -0.0784
  524TMC3    C1 7830   2.587   0.534   9.804  0.5097  0.0754  0.0983
  524TMC3    C2 7831   2.575   0.649   9.884  0.3631  0.7298 -0.4770
  524TMC3    C3 7832   2.512   0.760   9.824  0.4970 -0.8609  0.7564
  524TMC3    C4 7833   2.533   0.522   9.681 -0.2426  0.4456  0.2074
  524TMC3    C5 7834   2.472   0.633   9.634  0.3577 -0.2307 -0.8032
  524TMC3    C6 7835   2.462   0.752   9.696  0.5815 -0.1659  0.0153
  524TMC3     C 7836   2.681   0.430   9.856 -0.5850  0.4010  0.5723
  524TMC3     O 7837   2.723   0.455   9.971  0.4408  0.1239  0.1316
  524TMC3     H 7838   2.598   0.648   9.990 -2.2798  1.0193  0.0756
  524TMC3    H1 7839   2.534   0.427   9.630  0.8708  1.0591 -0.8947
  524TMC3    H2 7840   2.416   0.841   9.655  0.0842 -1.1170 -1.4906
  524TMC3    C7 7841   2.415   0.606   9.504  0.1565 -0.5210  0.8661
  524TMC3    C8 7842   2.518   0.890   9.889 -0.8111 -0.2485 -0.0321
  524TMC3    O1 7843   2.418   0.493   9.452  0.8387  0.2184 -0.3017
  524TMC3    O2 7844   2.583   0.901   9.989 -0.2231  0.0945  1.0013
  525MPD2     C 7845   1.164   2.334  14.950 -0.2282  0.3562  0.3602
  525MPD2    C1 7846   1.285   2.271  14.979 -0.0581  0.2009  0.1225
  525MPD2    C2 7847   1.389   2.282  14.891  0.3705  0.5253  0.0630
  525MPD2    C3 7848   1.369   2.347  14.768 -0.1663 -0.0801 -0.5465
  525MPD2    C4 7849   1.244   2.389  14.726 -0.0070  0.6562  0.8286
  525MPD2    C5 7850   1.149   2.383  14.820  0.3849 -0.0898  0.3561
  525MPD2     H 7851   1.486   2.240  14.913  1.2208  2.0166 -0.8908
  525MPD2    H1 7852   1.224   2.425  14.626  1.9930  0.7979  0.4879
  525MPD2    H2 7853   1.079   2.329  15.017  0.7231  2.3050  1.6916
  525MPD2    H3 7854   1.052   2.422  14.793  0.2168  0.2047  1.3668
  525MPD2     N 7855   1.468   2.376  14.674  0.3610 -0.3179 -0.1375
  525MPD2    H5 7856   1.434   2.414  14.587 -1.3253  2.4525  1.7537
  525MPD2    N1 7857   1.297   2.209  15.108  0.4858  0.0632 -0.2384
  525MPD2    H7 7858   1.379   2.148  15.115  0.6304 -0.0287 -3.0261
  526TMC3    C1 7859   1.271   2.153  15.336 -0.1137 -0.9697  0.3932
  526TMC3    C2 7860   1.228   2.199  15.455 -0.1344  0.0929  0.3473
  526TMC3    C3 7861   1.270   2.146  15.573 -0.1749 -0.2858  0.0342
  526TMC3    C4 7862   1.364   2.058  15.328  0.7161  0.1864  0.2086
  526TMC3    C5 7863   1.412   2.006  15.447 -0.0805 -0.1200 -0.1470
  526TMC3    C6 7864   1.373   2.047  15.568 -0.7241 -0.2725  0.3573
  526TMC3     C 7865   1.213   2.225  15.218  0.5831  0.7742  1.2014
  526TMC3     O 7866   1.126   2.307  15.232  0.3632  0.2600  0.6776
  526TMC3     H 7867   1.173   2.292  15.449  0.1239  0.2010 -0.3249
  526TMC3    H1 7868   1.368   1.996  15.239  0.4002  0.8051 -0.2306
  526TMC3    H2 7869   1.410   2.000  15.658 -2.4499 -0.4411  0.9832
  526TMC3    C7 7870   1.508   1.895  15.450  0.5277  0.3072  0.1237
  526TMC3    C8 7871   1.266   2.239  15.679 -0.5931  0.4179  0.0321
  526TMC3    O1 7872   1.560   1.877  15.558 -0.0721  0.0730  0.8357
  526TMC3    O2 7873   1.348   2.223  15.769 -0.1936  0.5357 -0.7460
  527MPD2     C 7874   4.162   0.577   1.472  0.1853  0.0689 -0.0011
  527MPD2    C1 7875   4.164   0.550   1.339 -0.2298 -0.0310 -0.9013
  527MPD2    C2 7876   4.284   0.566   1.278 -0.6008  0.1701  0.1422
  527MPD2    C3 7877   4.395   0.619   1.353 -0.3501 -0.3884  0.0773
  527MPD2    C4 7878   4.385   0.634   1.489  0.4338  0.8079 -0.2580
  527MPD2    C5 7879   4.265   0.631   1.544  0.3036 -0.0448  0.4832
  527MPD2     H 7880   4.281   0.560   1.170 -0.0765  0.6497  0.0985
  527MPD2    H1 7881   4.461   0.684   1.548 -1.1558  1.4823  1.2255
  527MPD2    H2 7882   4.071   0.556   1.527  1.5419 -2.7048  1.1545
  527MPD2    H3 7883   4.252   0.655   1.649  2.9723  0.8868  0.5922
  527MPD2     N 7884   4.515   0.639   1.277  0.1106  0.1615  0.3699
  527MPD2    H5 7885   4.504   0.628   1.176 -0.4193 -1.4784  0.5999
  527MPD2    N1 7886   4.056   0.490   1.272 -0.3188 -0.0259  0.1302
  527MPD2    H7 7887   4.086   0.450   1.183  0.7100 -0.2534  0.5831
  528TMC3    C1 7888   3.856   0.386   1.222  0.1578 -0.1207  1.1829
  528TMC3    C2 7889   3.911   0.387   1.097 -0.1563  0.4595 -0.5733
  528TMC3    C3 7890   3.866   0.295   1.006 -0.0458  0.2762  0.3424
  528TMC3    C4 7891   3.781   0.290   1.269  0.1891  0.1691  0.0198
  528TMC3    C5 7892   3.750   0.192   1.175  0.3056  0.4058 -0.7742
  528TMC3    C6 7893   3.789   0.194   1.048 -0.1881  0.5795  0.2144
  528TMC3     C 7894   3.925   0.469   1.317  0.5398  0.5040 -0.1079
  528TMC3     O 7895   3.870   0.500   1.421  0.2000  0.2791 -0.8594
  528TMC3     H 7896   3.951   0.479   1.056 -0.3497  0.4990 -0.6748
  528TMC3    H1 7897   3.732   0.307   1.364  0.9798  0.1148  0.4342
  528TMC3    H2 7898   3.762   0.107   0.990  0.1877 -0.6233  1.8465
  528TMC3    C7 7899   3.704   0.061   1.223  0.0651  0.0756 -0.2279
  528TMC3    C8 7900   3.897   0.313   0.863 -0.0647  0.5225 -0.0464
  528TMC3    O1 7901   3.682   4.703   1.145 -0.2658  0.3995 -0.3404
  528TMC3    O2 7902   3.951   0.420   0.839  0.4955  0.4642 -0.1133
  529MPD2     C 7903   1.647   3.569   0.980 -0.7071 -0.0401 -0.5182
  529MPD2    C1 7904   1.715   3.509   0.875 -0.5972  0.1310  0.2420
  529MPD2    C2 7905   1.684   3.545   0.746 -0.6881  0.4369 -0.2608
  529MPD2    C3 7906   1.578   3.624   0.707  0.6742 -0.0996 -0.1849
  529MPD2    C4 7907   1.509   3.681   0.815 -0.3304  0.3743 -0.4923
  529MPD2    C5 7908   1.543   3.649   0.943  0.4313  0.2113 -0.0306
  529MPD2     H 7909   1.747   3.508   0.665 -0.2236 -0.8258  0.6832
  529MPD2    H1 7910   1.419   3.741   0.803 -1.1884 -0.5901  1.1532
  529MPD2    H2 7911   1.659   3.554   1.086  0.6448  1.3397 -0.4857
  529MPD2    H3 7912   1.477   3.693   1.018 -1.2759  0.1152 -1.4850
  529MPD2     N 7913   1.562   3.672   0.567 -1.0703 -0.3441 -0.4178
  529MPD2    H5 7914   1.512   3.760   0.557 -0.5239  0.0428  0.2412
  529MPD2    N1 7915   1.816   3.414   0.902  0.4642  0.6415 -0.4181
  529MPD2    H7 7916   1.848   3.355   0.827 -0.7178 -1.6658  0.8870
  530TMC3    C1 7917   1.969   3.294   1.038  0.4261  0.2017  0.8737
  530TMC3    C2 7918   2.086   3.327   1.102 -0.5949 -0.3686  0.1145
  530TMC3    C3 7919   2.192   3.243   1.092 -0.0607 -0.0885 -0.1806
  530TMC3    C4 7920   1.952   3.172   0.981  0.2353  0.4690  0.3661
  530TMC3    C5 7921   2.042   3.085   1.020 -0.0446  0.2638 -0.4831
  530TMC3    C6 7922   2.168   3.114   1.062 -0.7280  0.0295  0.2964
  530TMC3     C 7923   1.867   3.396   1.032 -0.2328 -0.4712 -1.0351
  530TMC3     O 7924   1.871   3.476   1.125  0.0542  0.1155 -0.0167
  530TMC3     H 7925   2.100   3.425   1.146 -0.6889 -0.1928 -0.2484
  530TMC3    H1 7926   1.859   3.141   0.935 -0.4515  3.0771  0.0101
  530TMC3    H2 7927   2.223   3.032   1.109 -2.5098 -1.3402 -0.0202
  530TMC3    C7 7928   2.004   2.941   1.010 -0.7769  0.1687  0.0362
  530TMC3    C8 7929   2.295   3.273   1.186  0.4480 -0.0661  0.0219
  530TMC3    O1 7930   2.094   2.864   0.993  0.3823 -0.5736 -0.3946
  530TMC3    O2 7931   2.277   3.365   1.258  0.1446 -0.0209 -0.1817
  531MPD2     C 7932   0.433   0.950  13.153 -0.5078 -0.0426  0.0251
  531MPD2    C1 7933   0.336   0.980  13.242 -0.1282  0.1395  0.4668
  531MPD2    C2 7934   0.215   1.047  13.205 -0.2351 -0.3196 -0.5925
  531MPD2    C3 7935   0.211   1.101  13.079  0.1215  0.3611 -0.3207
  531MPD2    C4 7936   0.318   1.080  12.996 -0.8636 -0.7506  0.7388
  531MPD2    C5 7937   0.423   0.994  13.020  0.3103 -0.1228 -0.1175
  531MPD2     H 7938   0.152   1.082  13.287 -1.6474  1.0233 -2.2590
  531MPD2    H1 7939   0.318   1.135  12.902  1.3963 -0.0165  1.1747
  531MPD2    H2 7940   0.523   0.897  13.182 -0.7623  0.4652  1.7542
  531MPD2    H3 7941   0.501   0.970  12.949 -1.4904 -0.9418 -1.8207
  531MPD2     N 7942   0.126   1.207  13.040  0.1048 -0.8102  0.2586
  531MPD2    H5 7943   0.148   1.261  12.957  3.6931 -0.7758  1.2328
  531MPD2    N1 7944   0.351   0.926  13.372 -0.0369  0.1472  0.1463
  531MPD2    H7 7945   0.442   0.889  13.399  0.6606  1.2021 -0.8033
  532TMC3    C1 7946   0.336   0.899  13.604 -0.0455  0.3229  0.0744
  532TMC3    C2 7947   0.265   0.958  13.707 -0.5488 -0.4229 -0.3090
  532TMC3    C3 7948   0.334   1.013  13.806  0.0472 -0.0192 -0.4037
  532TMC3    C4 7949   0.475   0.901  13.602  0.2073  0.2620 -0.2280
  532TMC3    C5 7950   0.537   0.970  13.707  0.6528 -0.2904  0.5065
  532TMC3    C6 7951   0.467   1.022  13.808 -0.3166 -0.3096 -0.5665
  532TMC3     C 7952   0.272   0.940  13.477  0.3567 -0.4742  0.4111
  532TMC3     O 7953   0.155   0.972  13.483 -0.0996 -0.3047  0.0066
  532TMC3     H 7954   0.158   0.939  13.708 -0.3858 -1.4047 -1.1096
  532TMC3    H1 7955   0.529   0.831  13.538 -0.2378 -1.8206  1.6642
  532TMC3    H2 7956   0.522   1.069  13.889  0.2641  0.0906 -1.1951
  532TMC3    C7 7957   0.675   0.944  13.745  0.8703  0.4541 -0.6972
  532TMC3    C8 7958   0.270   1.139  13.850  0.5077  0.3919  0.0561
  532TMC3    O1 7959   0.717   0.983  13.855 -0.0254 -0.1377 -0.2502
  532TMC3    O2 7960   0.314   1.201  13.948  0.5157 -0.3639 -0.2440
  533TMC3    C1 7961   1.678   2.405  14.580  0.4631 -0.4187  0.4279
  533TMC3    C2 7962   1.811   2.404  14.603 -0.3110  0.4065  0.7048
  533TMC3    C3 7963   1.876   2.527  14.581 -0.9770 -0.2507  0.0894
  533TMC3    C4 7964   1.614   2.511  14.515  0.0649 -0.5491  0.0749
  533TMC3    C5 7965   1.677   2.634  14.517  0.2311  0.2807  0.7366
  533TMC3    C6 7966   1.810   2.640  14.549  0.1092  0.5932 -0.6625
  533TMC3     C 7967   1.600   2.338  14.682  0.4061 -0.2532 -0.3150
  533TMC3     O 7968   1.660   2.269  14.762  0.3904 -0.3537 -0.0583
  533TMC3     H 7969   1.861   2.317  14.644 -2.6760 -1.7707 -1.0386
  533TMC3    H1 7970   1.515   2.507  14.471  0.2373  1.6015 -0.5035
  533TMC3    H2 7971   1.860   2.736  14.549 -0.1380  0.7310 -1.8893
  533TMC3    C7 7972   1.587   2.735  14.567 -0.6891 -0.0270 -0.1100
  533TMC3    C8 7973   2.009   2.544  14.624  0.1749  1.2893  0.2107
  533TMC3    O1 7974   1.473   2.691  14.573  0.4061  0.0366  0.8748
  533TMC3    O2 7975   2.048   2.655  14.649 -0.1976 -0.4228 -0.2861
  534MPD2     C 7976   4.587   3.570   1.178 -0.0696 -0.5007 -0.2229
  534MPD2    C1 7977   4.493   3.664   1.221 -0.4093  0.0713  0.3032
  534MPD2    C2 7978   4.370   3.667   1.173  0.3837 -0.1004 -0.2202
  534MPD2    C3 7979   4.338   3.581   1.072 -0.4786  0.2543 -0.4348
  534MPD2    C4 7980   4.418   3.480   1.028 -0.1631  0.4164 -0.1242
  534MPD2    C5 7981   4.542   3.480   1.081  0.9364 -0.2693  0.2402
  534MPD2     H 7982   4.296   3.742   1.198  0.8711  0.0410  0.8013
  534MPD2    H1 7983   4.389   3.420   0.942 -1.0973  1.2453 -0.3919
  534MPD2    H2 7984   4.687   3.562   1.220  0.0998  0.4688 -0.4389
  534MPD2    H3 7985   4.611   3.400   1.055 -0.6302 -1.6696  0.3712
  534MPD2     N 7986   4.210   3.580   1.013  0.5020  0.0281 -0.1797
  534MPD2    H5 7987   4.194   3.513   0.940  2.3430 -1.2279  0.5788
  534MPD2    N1 7988   4.516   3.764   1.327  0.0438  1.0635 -0.4947
  534MPD2    H7 7989   4.440   3.831   1.336 -0.0476  0.6662  1.7330
  535TMC3    C1 7990   3.975   3.613   1.007  0.1061 -0.1033  0.5048
  535TMC3    C2 7991   3.866   3.586   1.081 -0.4698  0.3139  0.3534
  535TMC3    C3 7992   3.743   3.605   1.019 -0.3561  0.1150  0.1398
  535TMC3    C4 7993   3.970   3.648   0.875  0.3093  0.1883  0.5450
  535TMC3    C5 7994   3.846   3.672   0.831  0.1411  0.3461 -0.1816
  535TMC3    C6 7995   3.722   3.649   0.890 -0.3053  0.3647 -0.0025
  535TMC3     C 7996   4.097   3.638   1.077  0.5079  0.2505  0.2099
  535TMC3     O 7997   4.085   3.685   1.190  0.1858  0.5785  0.4195
  535TMC3     H 7998   3.870   3.541   1.180 -2.8173 -0.3501  0.1551
  535TMC3    H1 7999   4.056   3.679   0.817  0.5572 -0.6832  0.4435
  535TMC3    H2 8000   3.623   3.659   0.847  0.4206 -3.3905 -2.5835
  535TMC3    C7 8001   3.843   3.740   0.706 -0.4130 -0.0450 -0.4432
  535TMC3    C8 8002   3.632   3.586   1.095 -0.6872  0.4679  0.2956
  535TMC3    O1 8003   3.932   3.717   0.627 -0.1300 -0.3431 -0.3567
  535TMC3    O2 8004   3.534   3.558   1.027  0.5137 -0.3117  0.2863
  536MPD2     C 8005   2.602   2.322  16.542  0.0716  0.5149  0.1064
  536MPD2    C1 8006   2.511   2.219  16.520  0.0638 -0.2224  0.8144
  536MPD2    C2 8007   2.397   2.244  16.451  0.2592  0.6060 -0.0004
  536MPD2    C3 8008   2.368   2.379  16.421  0.3215  0.2663  0.6817
  536MPD2    C4 8009   2.456   2.481  16.459 -0.3250  0.0185  0.2411
  536MPD2    C5 8010   2.575   2.452  16.514  0.1810  0.4469 -0.0795
  536MPD2     H 8011   2.325   2.165  16.430  1.6169 -1.0386  1.5528
  536MPD2    H1 8012   2.430   2.586  16.446 -2.7891 -0.7779 -1.2117
  536MPD2    H2 8013   2.692   2.304  16.600 -1.3241  0.5181  2.2819
  536MPD2    H3 8014   2.643   2.536  16.521  3.5798 -2.2109 -1.2270
  536MPD2     N 8015   2.265   2.417  16.339  0.3388 -0.2924  0.3832
  536MPD2    H5 8016   2.246   2.515  16.324  1.6661 -0.0558  0.2701
  536MPD2    N1 8017   2.536   2.080  16.549  0.4344 -0.5606 -0.0228
  536MPD2    H7 8018   2.481   2.014  16.495  0.0357  0.7985 -1.2679
  537TMC3    C1 8019   2.642   1.890  16.666  0.1170 -0.0998  0.2432
  537TMC3    C2 8020   2.773   1.842  16.689 -0.8795  0.1706  0.6761
  537TMC3    C3 8021   2.789   1.729  16.761  0.4463 -0.0287  0.5971
  537TMC3    C4 8022   2.526   1.830  16.723  0.4039  0.4696  0.4418
  537TMC3    C5 8023   2.549   1.704  16.785  0.4448 -0.5926  0.2136
  537TMC3    C6 8024   2.677   1.653  16.795  0.5575  0.1205 -0.0632
  537TMC3     C 8025   2.632   2.031  16.639  0.2404 -0.2278  0.4935
  537TMC3     O 8026   2.706   2.101  16.703 -0.0203 -0.8736 -0.5217
  537TMC3     H 8027   2.861   1.900  16.664 -1.0284 -0.1302 -0.5275
  537TMC3    H1 8028   2.430   1.879  16.723  0.0327 -0.2215 -2.0400
  537TMC3    H2 8029   2.688   1.552  16.834  2.5516 -0.5493 -2.3716
  537TMC3    C7 8030   2.425   1.626  16.804  0.2258 -0.7763 -0.3305
  537TMC3    C8 8031   2.920   1.722  16.831 -0.3139 -0.0223  0.7698
  537TMC3    O1 8032   2.319   1.675  16.760 -0.4435  0.5784  0.3461
  537TMC3    O2 8033   3.008   1.799  16.793  0.1097  0.4349 -0.2148
  538TMC3    C1 8034   4.421   0.424  11.133  0.3757  0.3238 -0.1568
  538TMC3    C2 8035   4.505   0.383  11.032  0.0403  0.0071  0.0360
  538TMC3    C3 8036   4.448   0.380  10.910 -0.2254  0.1561  0.7628
  538TMC3    C4 8037   4.293   0.466  11.109  0.0813  0.7334  0.7724
  538TMC3    C5 8038   4.240   0.465  10.981 -0.0785 -0.0478 -0.0975
  538TMC3    C6 8039   4.329   0.435  10.879 -0.2815 -0.1145  0.3165
  538TMC3     C 8040   4.467   0.407  11.273 -0.2292  0.2385  0.0564
  538TMC3     O 8041   4.377   0.431  11.350 -0.4980 -0.2125 -0.5941
  538TMC3     H 8042   4.604   0.347  11.055 -0.7137 -2.6021 -0.7934
  538TMC3    H1 8043   4.234   0.508  11.189  0.3395  2.1604  0.2212
  538TMC3    H2 8044   4.293   0.430  10.777 -1.1862 -2.3902  0.7566
  538TMC3    C7 8045   4.115   0.525  10.963  0.3987 -0.1122 -0.1934
  538TMC3    C8 8046   4.550   0.375  10.803 -0.7878 -0.0259 -0.5906
  538TMC3    O1 8047   4.057   0.575  11.061 -0.1844  0.1397  0.3445
  538TMC3    O2 8048   4.656   0.318  10.829  0.5526  0.1205  0.1765
  539MPD2     C 8049   3.768   4.616  11.909  0.8874 -0.6643 -0.1933
  539MPD2    C1 8050   3.763   4.631  11.772  0.4571  0.2214  0.3064
  539MPD2    C2 8051   3.691   0.003  11.722 -0.4300  0.1966  0.7904
  539MPD2    C3 8052   3.618   0.086  11.803  0.3936 -0.4239 -0.7031
  539MPD2    C4 8053   3.616   0.056  11.936 -0.1071 -0.1142 -0.0427
  539MPD2    C5 8054   3.690   4.692  11.991  0.3560  0.3767 -0.4030
  539MPD2     H 8055   3.689   0.008  11.614  1.3040  0.1553  0.7537
  539MPD2    H1 8056   3.552   0.120  11.996  1.6839 -1.0137  2.8127
  539MPD2    H2 8057   3.818   4.531  11.955 -1.0357 -0.9998  1.2662
  539MPD2    H3 8058   3.700   4.674  12.097  1.8718 -0.7192 -0.7344
  539MPD2     N 8059   3.541   0.197  11.751  0.3479  0.2382 -0.6952
  539MPD2    H5 8060   3.474   0.236  11.816  0.5773 -1.1785  0.3982
  539MPD2    N1 8061   3.818   4.531  11.683 -0.1428  0.0843 -0.6036
  539MPD2    H7 8062   3.794   4.543  11.585  0.0743 -0.6663 -0.7546
  540TMC3    C1 8063   3.489   0.383  11.617  0.1535  0.7971 -0.2411
  540TMC3    C2 8064   3.452   0.429  11.491  0.5614 -0.2317 -0.3800
  540TMC3    C3 8065   3.382   0.546  11.480  0.5579  0.5923 -0.6283
  540TMC3    C4 8066   3.464   0.463  11.723 -0.1913 -0.2099 -0.1771
  540TMC3    C5 8067   3.394   0.580  11.710  0.5837  1.1415  0.0038
  540TMC3    C6 8068   3.346   0.620  11.591 -0.2148  0.1585  0.9423
  540TMC3     C 8069   3.558   0.254  11.627  0.3375 -0.1145  0.2444
  540TMC3     O 8070   3.634   0.225  11.536  0.1442  0.5006  0.2095
  540TMC3     H 8071   3.486   0.368  11.407  1.1026 -1.3669  0.6555
  540TMC3    H1 8072   3.504   0.443  11.821 -0.0149  2.7148  0.3505
  540TMC3    H2 8073   3.276   0.702  11.586  0.1896  0.5051  0.9528
  540TMC3    C7 8074   3.341   0.638  11.829 -0.2851 -0.4247  0.3747
  540TMC3    C8 8075   3.295   0.558  11.364  1.0027 -0.2887 -0.5993
  540TMC3    O1 8076   3.277   0.551  11.891  0.3020  0.0843  0.0651
  540TMC3    O2 8077   3.227   0.661  11.357 -0.1926  0.0609 -0.6267
  541MPD2     C 8078   1.850   1.330  13.223  0.0427 -0.1479 -0.7052
  541MPD2    C1 8079   1.899   1.231  13.139  0.0911  0.1734 -0.4535
  541MPD2    C2 8080   1.965   1.257  13.022  0.1627  0.6367  0.6999
  541MPD2    C3 8081   1.980   1.392  12.991  0.0489  0.1025  0.1672
  541MPD2    C4 8082   1.938   1.490  13.072 -0.6616 -0.1106  0.0188
  541MPD2    C5 8083   1.874   1.456  13.185  0.2438 -0.0482 -0.6648
  541MPD2     H 8084   2.003   1.175  12.962 -2.2813  1.3067 -1.7667
  541MPD2    H1 8085   1.951   1.593  13.040 -0.8860 -0.2304 -0.4666
  541MPD2    H2 8086   1.792   1.320  13.314  0.2297  0.6194 -0.5017
  541MPD2    H3 8087   1.843   1.537  13.250  0.5506 -0.8487  0.4690
  541MPD2     N 8088   2.043   1.429  12.870 -1.1489 -0.0338  0.0572
  541MPD2    H5 8089   2.048   1.528  12.848  2.1925 -0.6515 -2.0110
  541MPD2    N1 8090   1.895   1.094  13.171  0.2718  0.3407 -0.7222
  541MPD2    H7 8091   1.945   1.032  13.109  1.4208  0.2073  0.3340
  542TMC3    C1 8092   2.117   1.420  12.656 -0.3148  0.2735  0.3899
  542TMC3    C2 8093   2.210   1.383  12.564 -0.8275 -0.5182 -0.3921
  542TMC3    C3 8094   2.193   1.430  12.437 -0.8029  0.2722  0.3457
  542TMC3    C4 8095   2.011   1.491  12.613  0.3586  0.1555 -1.0410
  542TMC3    C5 8096   1.990   1.522  12.487  0.6039  0.4674 -0.4013
  542TMC3    C6 8097   2.080   1.491  12.391  0.1411 -0.4285  0.4672
  542TMC3     C 8098   2.098   1.345  12.780 -0.4607  0.3311 -0.5492
  542TMC3     O 8099   2.137   1.229  12.782  0.0436 -0.3729 -0.1427
  542TMC3     H 8100   2.290   1.315  12.589  0.2621  1.4675  1.5840
  542TMC3    H1 8101   1.931   1.505  12.685  1.0326  1.4521 -0.5311
  542TMC3    H2 8102   2.067   1.538  12.295 -1.5650 -0.5885  0.6212
  542TMC3    C7 8103   1.851   1.557  12.461 -0.3465 -0.2434  0.3349
  542TMC3    C8 8104   2.296   1.413  12.337  0.7131 -0.0501  0.3364
  542TMC3    O1 8105   1.792   1.618  12.545  0.1378  0.0137  0.2886
  542TMC3    O2 8106   2.250   1.418  12.222  0.0220 -0.0623  0.0735
  543TMC3    C1 8107   1.326   2.829  17.668 -0.4805  0.1787 -0.7213
  543TMC3    C2 8108   1.339   2.698  17.720  0.5351  0.0491  0.1069
  543TMC3    C3 8109   1.301   2.673   0.105 -0.0296 -0.6158  0.6781
  543TMC3    C4 8110   1.262   2.923  17.743 -0.4884  0.2699  0.5281
  543TMC3    C5 8111   1.217   2.891   0.122 -0.6938 -0.0748 -0.2052
  543TMC3    C6 8112   1.231   2.768   0.180  0.7120  0.8485 -0.4212
  543TMC3     C 8113   1.373   2.850  17.530 -0.1722 -0.7904  0.6054
  543TMC3     O 8114   1.413   2.755  17.461  0.2316 -0.1562  0.1959
  543TMC3     H 8115   1.390   2.625  17.659 -0.4973 -0.0744 -0.6211
  543TMC3    H1 8116   1.244   3.025  17.712 -1.1003  0.5111  1.6732
  543TMC3    H2 8117   1.188   2.750   0.278 -1.0881  1.9030 -1.0108
  543TMC3    C7 8118   1.136   2.987   0.197 -0.1370  0.2674  0.0810
  543TMC3    C8 8119   1.354   2.554   0.166  0.2749  0.0939 -0.5231
  543TMC3    O1 8120   1.052   2.941   0.271 -0.0404  0.3465 -0.1375
  543TMC3    O2 8121   1.403   2.462   0.105 -0.2230  0.2918 -0.0176
  544MPD2     C 8122   1.332   2.271   0.609  0.1909 -0.4075 -0.0718
  544MPD2    C1 8123   1.363   2.235   0.476  0.5243  0.4717 -0.8124
  544MPD2    C2 8124   1.366   2.330   0.378  0.1691 -0.3604 -0.3076
  544MPD2    C3 8125   1.335   2.463   0.408 -0.2551  0.0345 -0.0439
  544MPD2    C4 8126   1.303   2.503   0.541  0.1603  0.0370  0.7219
  544MPD2    C5 8127   1.314   2.406   0.640 -0.5944  0.3563 -0.3607
  544MPD2     H 8128   1.388   2.304   0.276  1.5698  1.3785 -0.4464
  544MPD2    H1 8129   1.296   2.609   0.563  0.3246  0.2753 -0.3999
  544MPD2    H2 8130   1.342   2.201   0.691 -0.5483  0.8506  1.1014
  544MPD2    H3 8131   1.309   2.435   0.744 -0.1440 -1.5714  0.2117
  544MPD2     N 8132   1.328   2.564   0.303  0.3232  0.3472  0.3038
  544MPD2    H5 8133   1.333   2.659   0.339  1.8785  0.2456  0.3774
  544MPD2    N1 8134   1.384   2.096   0.455 -0.0194 -0.1768  0.0027
  544MPD2    H7 8135   1.374   2.035   0.536  0.1347 -0.4572 -0.1871
  545TMC3    C1 8136   1.454   1.901   0.388 -0.0265  0.3181 -0.5758
  545TMC3    C2 8137   1.474   1.886   0.520 -0.1232 -0.3284  0.0355
  545TMC3    C3 8138   1.441   1.767   0.578 -0.3429 -0.3663 -0.5385
  545TMC3    C4 8139   1.387   1.808   0.318  0.4640 -0.2257  0.0052
  545TMC3    C5 8140   1.342   1.698   0.381  0.1963 -0.6569 -0.1487
  545TMC3    C6 8141   1.369   1.672   0.513  0.1135 -0.1554  0.2337
  545TMC3     C 8142   1.425   2.038   0.343 -0.2253 -0.6058  0.2148
  545TMC3     O 8143   1.405   2.080   0.230  0.0378 -0.3077 -0.2611
  545TMC3     H 8144   1.533   1.959   0.574 -0.3921  1.2241 -1.7849
  545TMC3    H1 8145   1.371   1.817   0.211  2.2393  0.6507 -0.1831
  545TMC3    H2 8146   1.333   1.585   0.566 -0.9736  1.1188  1.5846
  545TMC3    C7 8147   1.243   1.607   0.313 -0.6945  0.2877  0.6524
  545TMC3    C8 8148   1.408   1.799   0.712 -0.0505 -0.0969  0.7422
  545TMC3    O1 8149   1.171   1.658   0.227 -0.0895 -0.6593  0.2018
  545TMC3    O2 8150   1.360   1.911   0.726 -0.4750  0.0004 -0.0084
  546MPD2     C 8151   2.688   2.544  16.850  1.3028 -0.1053  0.0125
  546MPD2    C1 8152   2.648   2.563  16.976 -0.2480 -0.5048 -0.2833
  546MPD2    C2 8153   2.722   2.654  17.050  0.0153 -0.4813 -0.4277
  546MPD2    C3 8154   2.831   2.718  16.990 -0.0327 -0.3600 -0.2376
  546MPD2    C4 8155   2.869   2.696  16.868  0.4998 -0.4877 -0.4989
  546MPD2    C5 8156   2.793   2.612  16.793  0.6642  0.2274 -0.1064
  546MPD2     H 8157   2.705   2.664  17.157  2.7196 -3.9573  0.3193
  546MPD2    H1 8158   2.951   2.751  16.823  0.5667  1.3134  1.8497
  546MPD2    H2 8159   2.620   2.487  16.788 -1.7315  0.4748  2.7760
  546MPD2    H3 8160   2.821   2.598  16.689  0.9654 -0.0063  0.0057
  546MPD2     N 8161   2.900   2.831  17.044 -0.2608 -0.1788 -0.0806
  546MPD2    H5 8162   2.983   2.852  16.989  0.2751  0.3805  0.9380
  546MPD2    N1 8163   2.532   2.497  17.023  0.2996 -0.1298  0.3637
  546MPD2    H7 8164   2.483   2.447  16.949 -0.3939 -0.5091  1.0746
  547TMC3    C1 8165   2.371   2.416  17.171 -0.4785 -1.1180  0.2513
  547TMC3    C2 8166   2.286   2.383  17.066 -0.2630 -0.6072  0.4011
  547TMC3    C3 8167   2.161   2.325  17.096 -0.2206 -0.0031  0.3037
  547TMC3    C4 8168   2.332   2.394  17.300  0.7613  0.4066  0.4345
  547TMC3    C5 8169   2.221   2.323  17.320  0.3538  0.2047 -1.5144
  547TMC3    C6 8170   2.129   2.294  17.223 -0.2390  0.3864  0.7054
  547TMC3     C 8171   2.492   2.488  17.148 -0.6864  0.0492 -0.1381
  547TMC3     O 8172   2.545   2.523  17.251 -0.3334  0.3704  0.7262
  547TMC3     H 8173   2.329   2.393  16.967 -0.4730 -0.0491  0.3642
  547TMC3    H1 8174   2.398   2.422  17.382  1.4239 -1.3107  0.4807
  547TMC3    H2 8175   2.025   2.293  17.255  0.2168 -0.2540  2.2102
  547TMC3    C7 8176   2.163   2.345  17.452 -0.4163 -0.2549  0.2168
  547TMC3    C8 8177   2.057   2.303  16.998 -0.4223  0.2030  0.4701
  547TMC3    O1 8178   2.208   2.440  17.513  0.0752  0.7054  0.3044
  547TMC3    O2 8179   1.952   2.251  17.036 -0.5086  0.5689 -0.0470
  548MPD2     C 8180   2.867   3.323  12.268  0.2520 -0.2533  0.1635
  548MPD2    C1 8181   2.826   3.215  12.337 -0.0442 -0.4602  0.3910
  548MPD2    C2 8182   2.911   3.112  12.370 -0.2531 -0.1984 -0.9227
  548MPD2    C3 8183   3.039   3.120  12.322 -0.2705 -0.4429  0.3414
  548MPD2    C4 8184   3.080   3.219  12.242  0.0499 -0.4177  0.1420
  548MPD2    C5 8185   2.986   3.317  12.209 -0.0113  0.0224  0.9873
  548MPD2     H 8186   2.882   3.027  12.429 -0.6558 -0.6783 -1.8152
  548MPD2    H1 8187   3.176   3.220  12.193 -1.0563 -0.8328 -2.0209
  548MPD2    H2 8188   2.807   3.413  12.263  2.1711  0.9694 -0.6054
  548MPD2    H3 8189   3.022   3.396  12.144 -0.7600 -0.1240  0.4036
  548MPD2     N 8190   3.124   3.006  12.344  0.6002 -0.6579 -0.3477
  548MPD2    H5 8191   3.087   2.926  12.395 -1.5027  1.1818  0.9860
  548MPD2    N1 8192   2.688   3.212  12.366 -0.3406 -0.1805 -0.1218
  548MPD2    H7 8193   2.642   3.299  12.340  1.2107  0.5545 -0.4442
  549TMC3    C1 8194   2.494   3.151  12.463  0.1081  0.1672  0.0835
  549TMC3    C2 8195   2.452   3.285  12.466 -0.2426 -0.1941  0.8037
  549TMC3    C3 8196   2.326   3.306  12.499 -0.5814 -0.8253  0.5840
  549TMC3    C4 8197   2.415   3.039  12.498 -0.3089  0.2825 -0.0875
  549TMC3    C5 8198   2.287   3.071  12.524 -0.1855 -0.4734 -0.0461
  549TMC3    C6 8199   2.239   3.200  12.520  0.3266  0.1366  0.4398
  549TMC3     C 8200   2.621   3.109  12.412 -0.0787 -0.3320 -0.5888
  549TMC3     O 8201   2.652   2.993  12.401 -0.1440  0.0728 -0.3818
  549TMC3     H 8202   2.529   3.361  12.471  1.0522 -1.4417 -0.1197
  549TMC3    H1 8203   2.440   2.934  12.492  0.3209  0.4259 -0.0142
  549TMC3    H2 8204   2.132   3.217  12.532  0.0371 -1.0479 -0.5067
  549TMC3    C7 8205   2.189   2.979  12.473  0.0339 -0.0922 -0.2225
  549TMC3    C8 8206   2.261   3.405  12.414  0.0525  0.5043 -0.3533
  549TMC3    O1 8207   2.122   3.016  12.379  0.3080  0.6309  0.1945
  549TMC3    O2 8208   2.156   3.370  12.359 -0.5354  0.2675  0.5854
  550TMC3    C1 8209   1.264   1.016  12.380 -0.3826  0.4017  0.0003
  550TMC3    C2 8210   1.280   1.009  12.515  0.2745 -0.2709  0.4233
  550TMC3    C3 8211   1.178   1.061  12.591 -0.6898 -0.3603 -0.1614
  550TMC3    C4 8212   1.149   1.064  12.321  0.5908  0.0156  0.4701
  550TMC3    C5 8213   1.051   1.120  12.401 -0.2301  0.5664  0.5015
  550TMC3    C6 8214   1.058   1.111  12.539  0.6281 -0.2622  0.6087
  550TMC3     C 8215   1.355   0.937  12.311  0.3935  0.2011 -0.3283
  550TMC3     O 8216   1.454   0.892  12.364  0.1319 -0.8664 -0.1097
  550TMC3     H 8217   1.381   0.984  12.548  0.4560 -0.8837 -0.5772
  550TMC3    H1 8218   1.132   1.064  12.214 -1.4010 -3.4242  0.7719
  550TMC3    H2 8219   0.992   1.168  12.603  1.5299  0.9745  0.4390
  550TMC3    C7 8220   0.951   1.213  12.336  0.2566 -0.4216 -0.1992
  550TMC3    C8 8221   1.224   1.109  12.716  0.2263 -0.1363 -0.3975
  550TMC3    O1 8222   0.852   1.243  12.405  0.4630 -0.6937  0.1173
  550TMC3    O2 8223   1.319   1.183  12.723 -0.0298 -0.3987 -0.0938
  551TMC3    C1 8224   3.931   3.963  13.331  1.1490  0.0002 -0.4625
  551TMC3    C2 8225   4.047   3.906  13.292  0.1304  0.1076  0.0515
  551TMC3    C3 8226   4.110   3.822  13.379 -0.1100  0.3402 -0.7750
  551TMC3    C4 8227   3.873   3.930  13.451  0.5858 -0.0675 -0.2835
  551TMC3    C5 8228   3.932   3.828  13.521  0.6501  0.1811  0.3011
  551TMC3    C6 8229   4.051   3.771  13.488  0.7321  0.1230  0.1043
  551TMC3     C 8230   3.848   4.024  13.230  1.2318 -0.2136 -0.1943
  551TMC3     O 8231   3.799   4.134  13.249  0.0804 -0.3884  0.0642
  551TMC3     H 8232   4.089   3.943  13.199 -0.4897 -1.8801 -1.0113
  551TMC3    H1 8233   3.779   3.971  13.486  0.2405 -1.4848  0.4522
  551TMC3    H2 8234   4.109   3.703  13.549 -0.0713  0.6576  1.4597
  551TMC3    C7 8235   3.895   3.815  13.663 -0.4467 -0.2465  1.0790
  551TMC3    C8 8236   4.254   3.819  13.380  0.6702 -0.2489  0.4812
  551TMC3    O1 8237   3.977   3.781  13.743 -0.7672 -0.1467  0.1720
  551TMC3    O2 8238   4.314   3.717  13.412 -1.1520  0.2057 -0.2607
  552MPD2     C 8239   0.675   0.429  14.442 -0.4899 -0.5935 -0.1376
  552MPD2    C1 8240   0.784   0.455  14.358  0.3369  1.2484  0.5847
  552MPD2    C2 8241   0.908   0.497  14.412 -0.2440  0.2692 -1.0177
  552MPD2    C3 8242   0.922   0.514  14.544 -0.6791 -0.2594  0.1558
  552MPD2    C4 8243   0.820   0.476  14.623 -0.3807  0.7505 -0.4620
  552MPD2    C5 8244   0.703   0.429  14.572  0.1653  0.1197  0.1213
  552MPD2     H 8245   0.991   0.512  14.344  0.8905 -0.5272  0.1971
  552MPD2    H1 8246   0.827   0.487  14.730 -3.0624 -0.8448 -0.0996
  552MPD2    H2 8247   0.573   0.405  14.415 -1.0709  1.3020  0.3735
  552MPD2    H3 8248   0.628   0.401  14.645  0.4837  0.0491  0.4174
  552MPD2     N 8249   1.044   0.562  14.607 -0.0369 -0.2378  0.9377
  552MPD2    H5 8250   1.044   0.568  14.708 -0.3872  0.8109  0.8770
  552MPD2    N1 8251   0.781   0.444  14.219  0.0339  0.2270 -0.4679
  552MPD2    H7 8252   0.872   0.466  14.180  0.2353  1.1440  0.5185
  553TMC3    C1 8253   0.703   0.438  13.997 -0.1361 -0.4862 -0.3522
  553TMC3    C2 8254   0.611   0.487  13.914 -0.5290  0.0451 -0.5930
  553TMC3    C3 8255   0.651   0.492  13.784  0.3094 -0.0670  0.5917
  553TMC3    C4 8256   0.823   0.385  13.962 -0.4916  0.1928 -0.5317
  553TMC3    C5 8257   0.850   0.393  13.831 -0.5201  0.5796  0.1842
  553TMC3    C6 8258   0.767   0.441  13.733  0.3352 -0.2104 -0.1416
  553TMC3     C 8259   0.671   0.433  14.138  0.2947  0.1440  1.0244
  553TMC3     O 8260   0.551   0.447  14.170 -0.3711  0.2259  0.0527
  553TMC3     H 8261   0.507   0.507  13.940 -0.6478 -0.7464 -0.4563
  553TMC3    H1 8262   0.888   0.335  14.032  0.8388  1.9330 -0.5273
  553TMC3    H2 8263   0.796   0.457  13.630 -2.2354  0.3436 -0.8012
  553TMC3    C7 8264   0.986   0.350  13.788  0.5417 -0.0388  0.5172
  553TMC3    C8 8265   0.542   0.528  13.690 -0.2041  0.3020 -0.4709
  553TMC3    O1 8266   1.005   0.325  13.667  0.9159 -0.0578 -0.4034
  553TMC3    O2 8267   0.472   0.622  13.716  0.7946 -0.2817  0.0521
  554TMC3    C1 8268   2.839   0.627  11.887 -0.3017  0.6838  0.0429
  554TMC3    C2 8269   2.729   0.570  11.815 -0.4683 -0.2265  0.5044
  554TMC3    C3 8270   2.660   0.649  11.728  0.1363 -0.8528  0.0775
  554TMC3    C4 8271   2.871   0.758  11.878  0.0443  0.1690 -0.7683
  554TMC3    C5 8272   2.800   0.828  11.784 -0.3795  0.4998  0.3236
  554TMC3    C6 8273   2.692   0.781  11.714  0.4344  0.1671  0.3112
  554TMC3     C 8274   2.887   0.544  11.998  0.4234  0.1470  0.3965
  554TMC3     O 8275   2.956   0.598  12.085 -1.4120 -0.2214 -0.0597
  554TMC3     H 8276   2.709   0.465  11.828  0.4584 -0.5453 -0.6732
  554TMC3    H1 8277   2.951   0.799  11.939  0.0235 -0.7039 -0.1471
  554TMC3    H2 8278   2.649   0.837  11.632 -0.3339  0.2844  0.7957
  554TMC3    C7 8279   2.889   0.903  11.696 -0.0650 -0.7028 -0.5697
  554TMC3    C8 8280   2.607   0.593  11.609 -0.0651  0.2678  0.6579
  554TMC3    O1 8281   2.882   0.859  11.586 -0.6952  0.0487 -0.8037
  554TMC3    O2 8282   2.630   0.651  11.502  0.0177  0.1687 -0.0509
  555TMC3    C1 8283   1.622   4.280  15.135  0.1904  0.1336 -0.0524
  555TMC3    C2 8284   1.563   4.353  15.236 -0.9316 -0.4882  0.0881
  555TMC3    C3 8285   1.580   4.307  15.366  0.0371 -0.7472 -0.1085
  555TMC3    C4 8286   1.659   4.150  15.149  0.4469  0.4393 -0.4754
  555TMC3    C5 8287   1.669   4.105  15.279 -0.2424  1.0941 -0.4548
  555TMC3    C6 8288   1.633   4.180  15.385 -0.1912  0.7646  0.5587
  555TMC3     C 8289   1.667   4.346  15.016  0.3474 -0.4963  0.7876
  555TMC3     O 8290   1.765   4.298  14.957 -0.3626  0.6652  0.4240
  555TMC3     H 8291   1.531   4.456  15.230  1.0598  0.0293 -1.8761
  555TMC3    H1 8292   1.709   4.101  15.066  1.5011 -1.4196  1.2569
  555TMC3    H2 8293   1.637   4.134  15.482 -0.3259 -0.2539  0.0797
  555TMC3    C7 8294   1.688   3.964  15.305  0.3311 -0.1281  0.4282
  555TMC3    C8 8295   1.580   4.401  15.480 -0.1647  0.4136 -0.2181
  555TMC3    O1 8296   1.631   3.918  15.405 -0.1431  0.6306  0.1860
  555TMC3    O2 8297   1.522   4.506  15.469 -0.5476 -0.1697 -0.1326
  556MPD2     C 8298   4.411   1.556  10.593 -0.1885  0.3439 -0.3308
  556MPD2    C1 8299   4.464   1.438  10.642  0.3413 -0.1140 -0.6945
  556MPD2    C2 8300   4.458   1.323  10.571  0.3780 -0.2128  0.6862
  556MPD2    C3 8301   4.406   1.332  10.443 -0.0533 -0.1289  1.4523
  556MPD2    C4 8302   4.362   1.449  10.388  1.0020  0.4617  0.2494
  556MPD2    C5 8303   4.369   1.563  10.463 -0.2866 -0.2914 -0.9217
  556MPD2     H 8304   4.483   1.228  10.617 -1.0491 -1.8443 -1.9113
  556MPD2    H1 8305   4.314   1.460  10.291  2.2039 -1.0897 -0.5365
  556MPD2    H2 8306   4.410   1.644  10.657  2.5968 -1.7527  2.5823
  556MPD2    H3 8307   4.333   1.657  10.424  2.6165  1.4490  0.5632
  556MPD2     N 8308   4.416   1.217  10.363 -0.0984  0.1817  0.0240
  556MPD2    H5 8309   4.445   1.137  10.418 -0.9701  0.2663  0.6097
  556MPD2    N1 8310   4.543   1.435  10.764  0.0081  0.4782 -0.0240
  556MPD2    H7 8311   4.554   1.341  10.802  1.6026  0.8168  0.3404
  557TMC3    C1 8312   4.420   1.082  10.166 -0.4259 -0.3898 -0.5861
  557TMC3    C2 8313   4.388   1.079  10.040 -0.5837 -0.4417  1.0085
  557TMC3    C3 8314   4.434   0.972   9.961  0.1240  0.6222 -0.1502
  557TMC3    C4 8315   4.508   0.991  10.222 -0.2517  0.2816  0.1770
  557TMC3    C5 8316   4.551   0.885  10.144 -0.3931  0.0395 -0.0651
  557TMC3    C6 8317   4.523   0.875  10.004  0.2768  0.2023 -0.2511
  557TMC3     C 8318   4.414   1.216  10.228 -0.4981 -0.6441  0.4397
  557TMC3     O 8319   4.396   1.305  10.146  0.3516 -0.0387  0.0578
  557TMC3     H 8320   4.323   1.156  10.000  0.7598 -0.8867 -2.0425
  557TMC3    H1 8321   4.562   1.002  10.315 -1.9567  0.1360  1.1817
  557TMC3    H2 8322   4.564   0.797   9.941 -1.7968 -1.1239  0.0499
  557TMC3    C7 8323   4.621   0.774  10.207  0.1234 -0.8683  0.1584
  557TMC3    C8 8324   4.331   0.946   9.851 -0.0065 -0.3539 -0.6215
  557TMC3    O1 8325   4.697   0.706  10.137  0.6568 -0.5212 -0.0207
  557TMC3    O2 8326   4.277   1.043   9.801 -0.4213 -0.1119  0.5844
  558TMC3    C1 8327   1.797   3.640  10.131 -0.2397  0.3349  0.4344
  558TMC3    C2 8328   1.736   3.681  10.246  0.1394 -0.1146 -0.3458
  558TMC3    C3 8329   1.599   3.668  10.263  0.3067  0.5545 -0.0110
  558TMC3    C4 8330   1.736   3.580  10.023 -0.2535 -0.7559  0.3459
  558TMC3    C5 8331   1.602   3.566  10.046 -0.6375  0.0327 -0.0125
  558TMC3    C6 8332   1.533   3.605  10.165  0.0931 -0.6465  0.0445
  558TMC3     C 8333   1.934   3.673  10.115 -0.4747 -0.2177  0.6902
  558TMC3     O 8334   1.979   3.717  10.222 -0.3602 -0.7358  0.1540
  558TMC3     H 8335   1.785   3.735  10.326  2.0335 -0.1567 -1.4789
  558TMC3    H1 8336   1.779   3.546   9.930  0.0068 -1.1141  0.5994
  558TMC3    H2 8337   1.426   3.594  10.176  0.4641 -1.6922  2.6765
  558TMC3    C7 8338   1.524   3.508   9.932 -0.3435  0.1939  0.0069
  558TMC3    C8 8339   1.524   3.748  10.365 -0.6788  0.0447 -0.2185
  558TMC3    O1 8340   1.591   3.464   9.835 -0.3892 -0.0373 -0.0834
  558TMC3    O2 8341   1.403   3.727  10.375 -0.2241  0.0081  0.1325
  559MPD2     C 8342   2.553   0.214  10.574  0.2449  0.2043 -0.2735
  559MPD2    C1 8343   2.465   0.115  10.611  0.5574 -0.0763  0.6353
  559MPD2    C2 8344   2.490   0.046  10.722 -0.3658 -0.0907  0.1711
  559MPD2    C3 8345   2.606   0.064  10.796  0.6393 -0.2533 -0.3310
  559MPD2    C4 8346   2.690   0.164  10.760 -0.4382  0.0779 -0.0357
  559MPD2    C5 8347   2.667   0.238  10.646  0.1382  0.7713  0.2309
  559MPD2     H 8348   2.432   4.698  10.758 -0.4489  0.0547  0.3791
  559MPD2    H1 8349   2.791   0.177  10.796 -0.9815 -0.7435  1.8146
  559MPD2    H2 8350   2.534   0.277  10.488  0.0194  1.7937  0.9425
  559MPD2    H3 8351   2.733   0.317  10.612  1.5925 -1.1134 -1.3389
  559MPD2     N 8352   2.631   4.697  10.896 -0.4205  0.4790  0.3180
  559MPD2    H5 8353   2.555   4.634  10.921 -0.8886  1.0200  0.2686
  559MPD2    N1 8354   2.364   0.092  10.521  0.8151  0.7660  0.2057
  559MPD2    H7 8355   2.339   0.156  10.446  0.1783 -0.8238 -0.9221
  560TMC3    C1 8356   2.760   4.552  11.030 -0.6121  0.2393 -0.5391
  560TMC3    C2 8357   2.656   4.464  11.026 -0.1070 -0.1352 -0.0310
  560TMC3    C3 8358   2.667   4.358  11.114 -0.2712  0.0053 -0.1625
  560TMC3    C4 8359   2.862   4.544  11.121 -0.4041 -0.4970  0.7140
  560TMC3    C5 8360   2.867   4.441  11.205  0.2118  0.0084  0.1773
  560TMC3    C6 8361   2.771   4.341  11.202  0.0210  0.1154  1.3603
  560TMC3     C 8362   2.752   4.675  10.955  0.1485 -0.8749  0.5714
  560TMC3     O 8363   2.861   4.719  10.922 -0.7860 -0.1962 -0.2386
  560TMC3     H 8364   2.583   4.459  10.946 -0.6817  0.3917  0.4606
  560TMC3    H1 8365   2.938   4.620  11.117 -0.2779 -0.6677 -0.0441
  560TMC3    H2 8366   2.780   4.264  11.277  2.3275 -2.6869 -1.8132
  560TMC3    C7 8367   2.987   4.423  11.293  0.1577  0.4419  0.6020
  560TMC3    C8 8368   2.569   4.254  11.097 -0.1679 -0.2739 -0.1043
  560TMC3    O1 8369   2.992   4.313  11.348 -1.0702 -0.3105 -0.2088
  560TMC3    O2 8370   2.470   4.293  11.038  0.2984 -0.0726 -0.3504
  561TMC3    C1 8371   0.957   3.414  11.090  0.2328  0.1054  0.1301
  561TMC3    C2 8372   0.883   3.295  11.110  0.0355 -0.8001 -0.1239
  561TMC3    C3 8373   0.755   3.293  11.067 -0.2636 -0.3706 -0.1275
  561TMC3    C4 8374   0.889   3.524  11.033 -0.3484 -0.1784 -0.0435
  561TMC3    C5 8375   0.758   3.507  11.004  0.1831 -0.6814  0.0277
  561TMC3    C6 8376   0.688   3.399  11.022 -0.2545 -0.5171 -0.0847
  561TMC3     C 8377   1.096   3.422  11.096  0.3414  0.4652  0.0175
  561TMC3     O 8378   1.145   3.313  11.108  0.1243 -0.0300  0.0201
  561TMC3     H 8379   0.924   3.214  11.170  0.2632 -0.0040  0.8000
  561TMC3    H1 8380   0.934   3.622  11.017 -2.3504  0.5310 -1.2744
  561TMC3    H2 8381   0.595   3.382  10.971 -1.9607  2.2228  2.0816
  561TMC3    C7 8382   0.677   3.622  10.970 -0.3541  0.2855 -0.6997
  561TMC3    C8 8383   0.671   3.185  11.114 -0.3414  0.4148 -0.6455
  561TMC3    O1 8384   0.561   3.623  11.006  0.3225  0.5059  0.1043
  561TMC3    O2 8385   0.717   3.072  11.113 -0.2295 -0.1929  0.0304
  562TMC3    C1 8386   1.748   4.498  16.693  0.0554  0.7346 -0.1499
  562TMC3    C2 8387   1.728   4.628  16.663 -0.3806  0.4676  0.2926
  562TMC3    C3 8388   1.705   4.661  16.527 -0.5883  0.4937 -0.9523
  562TMC3    C4 8389   1.755   4.402  16.599  0.3638 -0.2754  0.6761
  562TMC3    C5 8390   1.753   4.437  16.466 -0.1421  0.0888 -0.5563
  562TMC3    C6 8391   1.730   4.570  16.430  0.1356  0.5056 -0.0785
  562TMC3     C 8392   1.768   4.466  16.831  0.2269 -0.3177  0.7614
  562TMC3     O 8393   1.803   4.348  16.849 -0.0233 -0.4436 -0.4564
  562TMC3     H 8394   1.724   4.709  16.735 -2.7644 -0.7181  1.5149
  562TMC3    H1 8395   1.785   4.304  16.636 -0.2595 -0.8778 -0.4047
  562TMC3    H2 8396   1.718   4.588  16.324 -0.3338 -0.9314 -0.2769
  562TMC3    C7 8397   1.789   4.343  16.358  0.1110 -0.1310 -0.3093
  562TMC3    C8 8398   1.681   0.069  16.500 -0.2882  0.2398 -0.7637
  562TMC3    O1 8399   1.808   4.388  16.249  0.5095 -0.2009 -0.3116
  562TMC3    O2 8400   1.700   0.147  16.592 -0.2220 -0.1944  0.5703
  563MPD2     C 8401   4.257   1.110  15.513  0.3364  0.4451 -0.0695
  563MPD2    C1 8402   4.254   1.188  15.625 -0.6462 -0.7326 -0.6157
  563MPD2    C2 8403   4.315   1.145  15.745 -0.8459 -0.1578 -0.0711
  563MPD2    C3 8404   4.373   1.020  15.748  0.3002 -0.6902  0.5430
  563MPD2    C4 8405   4.362   0.942  15.632  0.2121 -0.1700  0.1300
  563MPD2    C5 8406   4.314   0.984  15.516 -0.1528  0.2587 -0.0281
  563MPD2     H 8407   4.298   1.197  15.839  0.5743 -1.7865  1.1015
  563MPD2    H1 8408   4.415   0.847  15.630  2.9875  1.4820 -3.4049
  563MPD2    H2 8409   4.211   1.150  15.423 -3.4262 -1.3606  1.0304
  563MPD2    H3 8410   4.318   0.927  15.424  1.3660 -1.1591  0.9358
  563MPD2     N 8411   4.414   0.964  15.875 -0.3082 -0.0172 -0.3133
  563MPD2    H5 8412   4.392   1.025  15.953 -0.3353  2.4854 -2.2570
  563MPD2    N1 8413   4.191   1.319  15.614  0.1080 -0.0231 -0.1596
  563MPD2    H7 8414   4.118   1.319  15.543 -0.3868  0.3465  0.3541
  564TMC3    C1 8415   4.071   1.424  15.783  0.2113  0.0622 -0.1292
  564TMC3    C2 8416   3.967   1.373  15.714  0.0223 -0.0921 -0.3345
  564TMC3    C3 8417   3.862   1.309  15.782  0.1131  0.4644 -0.3581
  564TMC3    C4 8418   4.086   1.401  15.916  0.3508 -0.2010 -0.2464
  564TMC3    C5 8419   3.997   1.315  15.978 -0.4241  0.0051 -0.5810
  564TMC3    C6 8420   3.881   1.278  15.913 -0.8329  0.3866 -0.1955
  564TMC3     C 8421   4.197   1.419  15.709  0.1869 -0.5290 -0.6584
  564TMC3     O 8422   4.294   1.451  15.775 -0.5416 -0.2432  0.0348
  564TMC3     H 8423   3.953   1.405  15.611 -0.8167  0.2069 -0.1278
  564TMC3    H1 8424   4.179   1.422  15.967  0.6696 -0.3215 -0.7778
  564TMC3    H2 8425   3.825   1.208  15.973 -0.5459  1.9249  1.8912
  564TMC3    C7 8426   4.055   1.206  16.051  0.1014 -0.0653  0.9700
  564TMC3    C8 8427   3.798   1.196  15.721  0.6409  1.0268  0.0309
  564TMC3    O1 8428   4.111   1.238  16.152 -0.6013 -0.2075 -0.0187
  564TMC3    O2 8429   3.703   1.146  15.782  0.2792 -0.2685  0.3532
  565TMC3    C1 8430   4.324   2.080  10.610 -0.3832  0.4693  0.7666
  565TMC3    C2 8431   4.326   1.989  10.715 -0.0842  0.7163 -0.1901
  565TMC3    C3 8432   4.237   1.886  10.713 -0.3333 -0.3356  0.3995
  565TMC3    C4 8433   4.224   2.069  10.513  0.0807  0.2696  0.0465
  565TMC3    C5 8434   4.131   1.969  10.519 -0.2542 -0.7862  0.0142
  565TMC3    C6 8435   4.140   1.868  10.610  0.4242  0.5703 -0.0411
  565TMC3     C 8436   4.437   2.179  10.592 -0.0373  0.0685  0.0568
  565TMC3     O 8437   4.453   2.217  10.477  0.1298 -0.4667 -0.2592
  565TMC3     H 8438   4.397   1.994  10.797  0.6074  2.7884 -0.9146
  565TMC3    H1 8439   4.216   2.160  10.456  0.1201 -0.5400 -1.2448
  565TMC3    H2 8440   4.061   1.795  10.618  0.8100  0.2706  1.0782
  565TMC3    C7 8441   4.001   2.003  10.463 -0.2919  0.5607  0.5993
  565TMC3    C8 8442   4.247   1.785  10.821  0.4020 -0.1769 -0.3813
  565TMC3    O1 8443   3.988   2.125  10.448  0.0687  0.0553  0.1806
  565TMC3    O2 8444   4.196   1.675  10.802 -0.1195  0.6284  0.0599
  566MPD2     C 8445   0.906   3.530  14.357 -0.2865 -0.3297 -0.0577
  566MPD2    C1 8446   0.975   3.468  14.258 -0.0830  0.6805  0.0896
  566MPD2    C2 8447   0.900   3.409  14.153  0.5423  0.1977 -0.2935
  566MPD2    C3 8448   0.763   3.412  14.159 -0.8344  0.2731  0.4405
  566MPD2    C4 8449   0.694   3.477  14.260 -0.2337  0.4423 -0.3730
  566MPD2    C5 8450   0.766   3.536  14.361  0.8196 -1.0543 -0.3278
  566MPD2     H 8451   0.950   3.359  14.071 -0.4025 -1.9236  0.4073
  566MPD2    H1 8452   0.586   3.477  14.264 -0.3945 -0.7280 -4.4540
  566MPD2    H2 8453   0.951   3.581  14.442 -0.5318  0.0560 -0.1554
  566MPD2    H3 8454   0.716   3.588  14.442  0.5580  0.2309 -1.3212
  566MPD2     N 8455   0.687   3.344  14.057  0.3215 -0.3362 -0.2468
  566MPD2    H5 8456   0.593   3.327  14.091 -0.2770 -1.4934 -2.5201
  566MPD2    N1 8457   1.120   3.462  14.266  0.2453  0.2966 -0.4827
  566MPD2    H7 8458   1.153   3.523  14.340 -0.8064 -0.8823  0.9512
  567TMC3    C1 8459   1.340   3.464  14.183  0.0255  0.4690 -0.2612
  567TMC3    C2 8460   1.420   3.453  14.077  0.9456 -0.3320  0.1415
  567TMC3    C3 8461   1.554   3.466  14.095 -0.7160  0.0586  0.9767
  567TMC3    C4 8462   1.381   3.517  14.304  0.4528 -0.3556 -0.0699
  567TMC3    C5 8463   1.515   3.545  14.313 -0.1976  0.0564 -0.0238
  567TMC3    C6 8464   1.606   3.512  14.217  0.3681  0.0910  0.6867
  567TMC3     C 8465   1.205   3.411  14.175  0.3698 -0.1817  0.6337
  567TMC3     O 8466   1.176   3.342  14.077  0.5189  0.1964  0.3640
  567TMC3     H 8467   1.381   3.429  13.979  0.4481  1.4441 -0.0956
  567TMC3    H1 8468   1.315   3.520  14.391 -1.2104  0.3782 -1.3483
  567TMC3    H2 8469   1.710   3.534  14.235  0.4242  1.8329 -1.7395
  567TMC3    C7 8470   1.572   3.590  14.432 -0.7839 -0.1488 -0.9789
  567TMC3    C8 8471   1.599   3.548  13.988  0.0333  0.3387 -0.3503
  567TMC3    O1 8472   1.688   3.550  14.454  0.1126 -0.4355  0.2175
  567TMC3    O2 8473   1.522   3.603  13.913  0.1903 -0.1207 -0.1169
  568MPD2     C 8474   3.679   4.491  16.404  0.5367 -0.1759  0.0998
  568MPD2    C1 8475   3.735   4.591  16.481 -0.6481 -0.3431 -0.8928
  568MPD2    C2 8476   3.753   4.717  16.426  0.4155  0.3934  0.5643
  568MPD2    C3 8477   3.722   0.003  16.290  0.4566  0.5804 -0.5249
  568MPD2    C4 8478   3.682   4.631  16.210  0.1467 -0.3521  0.7106
  568MPD2    C5 8479   3.658   4.513  16.270  0.2640 -0.1806  0.4851
  568MPD2     H 8480   3.785   0.064  16.487  0.6962 -0.2912  1.3613
  568MPD2    H1 8481   3.666   4.648  16.104 -1.0287 -1.3630  0.7326
  568MPD2    H2 8482   3.662   4.397  16.455  2.5300 -0.4968  0.1753
  568MPD2    H3 8483   3.639   4.433  16.199  0.8498  2.0943 -2.2710
  568MPD2     N 8484   3.747   0.126  16.239 -0.5475  0.1407 -0.8590
  568MPD2    H5 8485   3.790   0.191  16.304 -2.4574  0.7671 -0.2217
  568MPD2    N1 8486   3.778   4.557  16.616  0.1545  0.4257  0.0781
  568MPD2    H7 8487   3.744   4.468  16.650 -1.5032  1.7337  1.8265
  569TMC3    C1 8488   3.756   0.317  16.094 -0.5756 -0.7911  0.3935
  569TMC3    C2 8489   3.753   0.411  16.194 -0.4024  0.1031  0.1712
  569TMC3    C3 8490   3.790   0.537  16.168  0.3146 -0.5124  0.0476
  569TMC3    C4 8491   3.773   0.356  15.959 -0.3402 -0.2795  0.3623
  569TMC3    C5 8492   3.795   0.490  15.941 -1.0073  0.1979 -0.1348
  569TMC3    C6 8493   3.817   0.581  16.044  0.3497  0.0529 -0.6932
  569TMC3     C 8494   3.730   0.176  16.108  0.5810  0.2409 -0.4751
  569TMC3     O 8495   3.715   0.117  16.001  0.7103 -0.4753  0.3934
  569TMC3     H 8496   3.710   0.386  16.291 -0.2985 -1.0459 -0.0723
  569TMC3    H1 8497   3.761   0.297  15.869 -1.5206  0.7690 -0.1714
  569TMC3    H2 8498   3.856   0.681  16.030 -1.6778  1.2903  2.6560
  569TMC3    C7 8499   3.814   0.539  15.805  0.0965 -1.2236  0.1076
  569TMC3    C8 8500   3.735   0.639  16.251  0.6293  0.3965 -0.2139
  569TMC3    O1 8501   3.849   0.449  15.731  0.9003 -0.4061  0.7593
  569TMC3    O2 8502   3.628   0.622  16.302  0.9769 -0.0595  0.2084
  570TMC3    C1 8503   2.920   3.313  16.017 -0.3917  0.3947 -0.0519
  570TMC3    C2 8504   3.011   3.350  15.917  0.8334  0.2064  0.3305
  570TMC3    C3 8505   3.045   3.480  15.907  1.1520  0.3188 -0.4392
  570TMC3    C4 8506   2.885   3.398  16.119 -0.0622  0.1144 -0.3936
  570TMC3    C5 8507   2.939   3.524  16.121 -0.2533 -0.1337 -0.0313
  570TMC3    C6 8508   3.009   3.568  16.009 -0.3532  0.3248 -0.6409
  570TMC3     C 8509   2.860   3.186  16.002  0.0951  0.0185 -0.5268
  570TMC3     O 8510   2.816   3.153  15.895  0.4930  0.2740 -0.5482
  570TMC3     H 8511   3.060   3.272  15.859  0.1927  0.6108 -0.7556
  570TMC3    H1 8512   2.799   3.369  16.178 -1.0995 -0.4109 -2.1573
  570TMC3    H2 8513   3.027   3.672  15.985  0.0678  0.1140 -1.2462
  570TMC3    C7 8514   2.913   3.611  16.232 -0.6835 -0.0427  0.1949
  570TMC3    C8 8515   3.150   3.520  15.802  0.2938  0.3160 -0.2721
  570TMC3    O1 8516   2.875   3.553  16.334  0.5145  0.1180  0.4907
  570TMC3    O2 8517   3.201   3.627  15.811 -0.0722 -0.1515  0.1374
  571MPD2     C 8518   0.564   0.751   0.927 -0.3761 -0.1049  0.0859
  571MPD2    C1 8519   0.599   0.725   0.789 -0.1093  0.5226 -0.0848
  571MPD2    C2 8520   0.667   0.826   0.722 -0.1901 -0.5204  0.2399
  571MPD2    C3 8521   0.724   0.931   0.793 -0.3691  0.6001  0.2606
  571MPD2    C4 8522   0.684   0.953   0.921 -0.3199 -0.5159 -0.0961
  571MPD2    C5 8523   0.602   0.866   0.986 -0.0399  0.3677 -0.1137
  571MPD2     H 8524   0.689   0.810   0.617  0.1204  0.2250  0.1911
  571MPD2    H1 8525   0.721   1.026   0.992 -1.1161 -0.5358  0.3305
  571MPD2    H2 8526   0.511   0.686   0.995  1.3084 -0.6420  0.9013
  571MPD2    H3 8527   0.593   0.868   1.094  0.5309  1.8129 -0.0903
  571MPD2     N 8528   0.808   1.036   0.735  0.6209 -0.2364  0.5510
  571MPD2    H5 8529   0.848   1.107   0.795 -0.7026  2.2790 -1.5885
  571MPD2    N1 8530   0.581   0.594   0.731 -0.2515  0.0074  0.1125
  571MPD2    H7 8531   0.629   0.586   0.642  0.6363 -0.3251  0.6238
  572TMC3    C1 8532   0.905   1.175   0.581 -0.2126 -0.4847  0.1823
  572TMC3    C2 8533   1.023   1.163   0.650  0.6709  0.2052 -0.5894
  572TMC3    C3 8534   1.101   1.274   0.672 -0.4403  0.2124  0.5102
  572TMC3    C4 8535   0.852   1.294   0.548 -0.5376 -0.2646  0.0533
  572TMC3    C5 8536   0.914   1.409   0.595  1.1966 -0.3198 -0.2117
  572TMC3    C6 8537   1.044   1.395   0.638  0.5655 -0.2302  0.7638
  572TMC3     C 8538   0.826   1.058   0.600 -0.5749 -0.3295 -0.5584
  572TMC3     O 8539   0.765   1.017   0.501 -0.3823 -0.7721  0.0743
  572TMC3     H 8540   1.078   1.070   0.643  0.5164  0.0430  0.3623
  572TMC3    H1 8541   0.752   1.291   0.508 -0.1879  3.0546 -1.0726
  572TMC3    H2 8542   1.108   1.480   0.660  1.8486 -1.3849  1.5014
  572TMC3    C7 8543   0.891   1.527   0.516 -0.3017 -0.1495  0.1879
  572TMC3    C8 8544   1.240   1.262   0.702 -0.4652  0.3089 -0.2017
  572TMC3    O1 8545   0.815   1.519   0.423  0.6139 -0.3467 -0.0614
  572TMC3    O2 8546   1.318   1.347   0.658  0.1807 -0.0794  0.0988
  573MPD2     C 8547   1.905   0.582   0.880 -0.5345  0.2477  0.1494
  573MPD2    C1 8548   1.886   0.696   0.803  0.1078 -0.3018 -0.2336
  573MPD2    C2 8549   1.769   0.717   0.737 -0.2893  0.2068  0.5836
  573MPD2    C3 8550   1.678   0.615   0.743  0.1261 -0.9746  0.2216
  573MPD2    C4 8551   1.704   0.492   0.808 -0.8948  0.2406 -0.8640
  573MPD2    C5 8552   1.821   0.478   0.874 -0.0098  0.3009  0.0970
  573MPD2     H 8553   1.731   0.809   0.696 -0.1405  0.2564  0.5570
  573MPD2    H1 8554   1.646   0.400   0.808  1.6760 -1.3768  0.8330
  573MPD2    H2 8555   1.994   0.574   0.942 -0.1012 -1.7571 -0.7111
  573MPD2    H3 8556   1.843   0.379   0.912 -0.7893 -0.7144 -2.0403
  573MPD2     N 8557   1.552   0.624   0.678  0.5528 -0.3972  0.1196
  573MPD2    H5 8558   1.487   0.546   0.677  0.3512 -0.2564  1.8828
  573MPD2    N1 8559   1.987   0.796   0.810 -0.2450  0.2773  0.2294
  573MPD2    H7 8560   2.058   0.771   0.877 -0.4940  0.8665  0.7134
  574TMC3    C1 8561   1.364   0.711   0.571 -0.1759 -0.1609  0.4158
  574TMC3    C2 8562   1.324   0.783   0.466  0.0372  0.0769 -0.0132
  574TMC3    C3 8563   1.189   0.803   0.448  0.3246 -0.7548 -0.1892
  574TMC3    C4 8564   1.277   0.670   0.672 -0.0133  0.8426 -0.7499
  574TMC3    C5 8565   1.145   0.700   0.664 -0.2236 -0.5755 -0.3652
  574TMC3    C6 8566   1.103   0.762   0.547 -0.0498  0.5882 -0.3693
  574TMC3     C 8567   1.502   0.732   0.610  0.1195 -0.5189  0.0463
  574TMC3     O 8568   1.552   0.843   0.590 -0.5809 -1.0706  0.3479
  574TMC3     H 8569   1.391   0.825   0.392 -0.3107 -0.6828 -0.7492
  574TMC3    H1 8570   1.306   0.594   0.743  0.9315  3.8797  2.1041
  574TMC3    H2 8571   0.999   0.788   0.531 -0.5829 -0.8284  0.7997
  574TMC3    C7 8572   1.040   0.638   0.750  0.3969  0.1338  0.0896
  574TMC3    C8 8573   1.138   0.892   0.350 -0.4500  0.0418 -0.4150
  574TMC3    O1 8574   0.926   0.615   0.702  0.0942  0.1236 -0.2080
  574TMC3    O2 8575   1.039   0.856   0.289  0.0622 -0.0122  0.0246
  575TMC3    C1 8576   4.176   1.042  11.355  0.2635  0.3877  0.0814
  575TMC3    C2 8577   4.225   0.940  11.277 -0.5603 -0.2225 -0.1883
  575TMC3    C3 8578   4.268   0.960  11.147 -0.5665 -0.3841 -0.2593
  575TMC3    C4 8579   4.166   1.169  11.297  0.5098  0.2273 -0.7288
  575TMC3    C5 8580   4.214   1.194  11.168  0.4193 -1.0686 -0.4544
  575TMC3    C6 8581   4.264   1.083  11.100 -0.2685  0.2277 -0.4684
  575TMC3     C 8582   4.173   1.023  11.497 -0.0808 -0.5700 -0.3812
  575TMC3     O 8583   4.173   1.124  11.567  0.2447 -0.4988  0.0225
  575TMC3     H 8584   4.239   0.839  11.315 -3.5852 -0.2463  0.8677
  575TMC3    H1 8585   4.110   1.248  11.346  0.4682  2.2932 -4.0784
  575TMC3    H2 8586   4.304   1.095  11.000 -2.0316 -0.9239 -1.3158
  575TMC3    C7 8587   4.253   1.319  11.118  0.2306 -0.3909 -0.7088
  575TMC3    C8 8588   4.371   0.876  11.093  0.0026 -0.0958 -0.4362
  575TMC3    O1 8589   4.269   1.326  10.997 -0.1745  0.7020 -0.4505
  575TMC3    O2 8590   4.378   0.871  10.969 -0.0854  0.3939 -0.5907
  576MPD2     C 8591   4.508   3.226  12.202 -0.6128 -0.2554 -0.2545
  576MPD2    C1 8592   4.460   3.329  12.130  0.4989  0.2290 -0.4145
  576MPD2    C2 8593   4.382   3.420  12.194  0.1998  0.0520  0.1828
  576MPD2    C3 8594   4.335   3.407  12.326  0.1969  0.4250  0.5487
  576MPD2    C4 8595   4.368   3.289  12.390  0.4602  0.3684  0.0399
  576MPD2    C5 8596   4.460   3.204  12.332  0.3599 -0.1619 -0.4023
  576MPD2     H 8597   4.346   3.510  12.145  0.9559  0.9882  1.3556
  576MPD2    H1 8598   4.329   3.279  12.491 -1.8908 -1.5722 -1.0619
  576MPD2    H2 8599   4.580   3.157  12.161  0.3503  0.7852 -0.3232
  576MPD2    H3 8600   4.501   3.122  12.389  0.6488 -0.8540 -1.5908
  576MPD2     N 8601   4.248   3.502  12.386  0.7325  0.5617 -0.2301
  576MPD2    H5 8602   4.223   3.569  12.313  2.2073  1.2382 -0.1259
  576MPD2    N1 8603   4.510   3.354  11.992  0.0513 -0.2100 -0.8855
  576MPD2    H7 8604   4.488   3.440  11.943  1.4088  0.6001 -0.0668
  577TMC3    C1 8605   4.640   3.319  11.793  0.2444  1.1891 -0.6368
  577TMC3    C2 8606   4.688   3.228  11.702 -0.0103  0.7098 -0.9655
  577TMC3    C3 8607   0.030   3.274  11.600  0.2138  0.1472 -0.1665
  577TMC3    C4 8608   4.644   3.454  11.769  0.5455  0.3541 -0.5363
  577TMC3    C5 8609   4.706   3.495  11.657 -0.2552  0.3017 -0.1273
  577TMC3    C6 8610   0.039   3.408  11.576  0.4930  0.4207  0.2080
  577TMC3     C 8611   4.584   3.263  11.914 -0.1710  0.2503 -0.4675
  577TMC3     O 8612   4.595   3.141  11.932  0.4844  0.3059 -0.1097
  577TMC3     H 8613   4.685   3.123  11.729 -1.0834  1.1403  0.5794
  577TMC3    H1 8614   4.623   3.529  11.844  2.3570  1.1495 -0.8302
  577TMC3    H2 8615   0.095   3.453  11.495  1.6443  0.0304  0.7764
  577TMC3    C7 8616   4.702   3.638  11.619  0.0157  0.6718 -0.2382
  577TMC3    C8 8617   0.077   3.182  11.500  0.1334 -0.2601  0.0940
  577TMC3    O1 8618   0.017   3.662  11.510 -0.3466 -0.4091 -0.1506
  577TMC3    O2 8619   0.006   3.088  11.461  0.5390 -0.2559 -0.5309
  578MPD2     C 8620   2.156   3.860   1.158  0.4732  0.0165 -0.6400
  578MPD2    C1 8621   2.191   3.757   1.071  0.1424  0.2156 -0.1174
  578MPD2    C2 8622   2.299   3.675   1.103 -0.2876 -0.4686  0.0558
  578MPD2    C3 8623   2.380   3.700   1.212  0.3248 -0.3519 -0.4827
  578MPD2    C4 8624   2.347   3.805   1.296  0.6230  0.4946 -0.4673
  578MPD2    C5 8625   2.234   3.884   1.268  0.3254 -0.0784 -0.4829
  578MPD2     H 8626   2.338   3.602   1.034 -1.2259 -1.4190  0.5220
  578MPD2    H1 8627   2.404   3.830   1.385 -0.3959 -0.4274  0.4480
  578MPD2    H2 8628   2.076   3.929   1.133 -0.6917 -1.0638  0.1245
  578MPD2    H3 8629   2.197   3.965   1.330 -1.2105  0.4323 -2.0641
  578MPD2     N 8630   2.500   3.624   1.229  0.5784 -0.2108 -0.0961
  578MPD2    H5 8631   2.514   3.544   1.168 -0.1922  0.7224 -1.4993
  578MPD2    N1 8632   2.118   3.751   0.948 -0.4244 -0.3369  0.0672
  578MPD2    H7 8633   2.039   3.813   0.936  0.3813  0.9363  1.2171
  579TMC3    C1 8634   2.705   3.548   1.319  0.3464 -0.1772 -0.1586
  579TMC3    C2 8635   2.819   3.584   1.387  0.1256  0.4844  0.0434
  579TMC3    C3 8636   2.940   3.539   1.343 -0.6072  0.7264 -1.1409
  579TMC3    C4 8637   2.716   3.471   1.209  0.4719 -0.6372  0.0010
  579TMC3    C5 8638   2.836   3.418   1.169 -0.2824  0.2769 -0.6269
  579TMC3    C6 8639   2.952   3.454   1.234  0.4052  0.1138  0.4678
  579TMC3     C 8640   2.588   3.635   1.335  0.4770  0.1398 -0.0935
  579TMC3     O 8641   2.597   3.715   1.430 -0.1901 -0.2707 -0.5612
  579TMC3     H 8642   2.824   3.647   1.476  0.5351 -0.4239  0.6606
  579TMC3    H1 8643   2.633   3.429   1.153 -0.1674 -0.9836  1.1981
  579TMC3    H2 8644   3.049   3.423   1.198 -0.6712 -1.1966 -1.3358
  579TMC3    C7 8645   2.857   3.312   1.073  0.2055  0.9281 -0.5709
  579TMC3    C8 8646   3.057   3.568   1.422 -0.3441  0.3125  0.1992
  579TMC3    O1 8647   2.970   3.271   1.056 -0.2083 -0.3505 -0.5355
  579TMC3    O2 8648   3.036   3.571   1.542 -0.3742 -0.7237 -0.1667
  580TMC3    C1 8649   2.317   3.066  12.098  0.7002 -0.4878 -0.2337
  580TMC3    C2 8650   2.429   3.122  12.042 -0.5802 -0.2879  0.0075
  580TMC3    C3 8651   2.547   3.058  12.045  0.6291 -0.1467 -0.3376
  580TMC3    C4 8652   2.330   2.940  12.161  0.3581  0.2379  0.0533
  580TMC3    C5 8653   2.453   2.888  12.170 -0.0451 -0.3021  0.1665
  580TMC3    C6 8654   2.569   2.948  12.121 -0.4923  0.9277 -0.7497
  580TMC3     C 8655   2.191   3.099  12.032  0.1273 -0.2621 -0.1318
  580TMC3     O 8656   2.198   3.140  11.915  0.1122  0.1792 -0.4727
  580TMC3     H 8657   2.419   3.219  11.996  0.9720  0.1833  0.6694
  580TMC3    H1 8658   2.241   2.883  12.185  0.9178 -1.4008 -1.7179
  580TMC3    H2 8659   2.664   2.897  12.110  1.3796  4.1835  0.3493
  580TMC3    C7 8660   2.462   2.755  12.228  0.4356 -0.7489 -0.9123
  580TMC3    C8 8661   2.663   3.129  11.998 -0.3059  0.0804 -0.3793
  580TMC3    O1 8662   2.369   2.679  12.205 -0.5662  0.4234  0.5231
  580TMC3    O2 8663   2.660   3.250  12.002 -0.0530 -0.3267  0.2646
  581MPD2     C 8664   4.411   2.093  15.014  0.3305  0.2489  0.3074
  581MPD2    C1 8665   4.470   2.200  14.949 -0.1751 -0.5810 -0.6574
  581MPD2    C2 8666   4.388   2.300  14.894  0.5185  0.5824 -0.0486
  581MPD2    C3 8667   4.251   2.299  14.913 -0.6940  0.2461  0.0638
  581MPD2    C4 8668   4.194   2.192  14.978  0.7387  0.6319 -0.5340
  581MPD2    C5 8669   4.271   2.089  15.027  0.1898 -0.1866  0.0935
  581MPD2     H 8670   4.430   2.376  14.830  0.1753  0.1872 -0.7409
  581MPD2    H1 8671   4.089   2.196  15.005  1.1363  1.4257  0.9338
  581MPD2    H2 8672   4.477   2.020  15.059 -1.9209 -0.5605  2.2867
  581MPD2    H3 8673   4.226   2.023  15.101  0.5093  0.2779  0.7049
  581MPD2     N 8674   4.171   2.403  14.852  0.5317 -0.1133  0.2046
  581MPD2    H5 8675   4.230   2.474  14.810  0.7993 -0.5279 -0.1250
  581MPD2    N1 8676   4.607   2.190  14.929  0.0054 -0.2042 -1.3756
  581MPD2    H7 8677   4.649   2.099  14.947  1.9838  1.1234  0.8210
  582TMC3    C1 8678   0.094   2.263  14.907 -0.1274  0.1873  0.0936
  582TMC3    C2 8679   0.163   2.361  14.973  0.1558 -0.1149 -0.2012
  582TMC3    C3 8680   0.253   2.328  15.071  0.5089 -0.0643  0.2103
  582TMC3    C4 8681   0.132   2.129  14.922  0.5132 -0.1043  0.1807
  582TMC3    C5 8682   0.214   2.091  15.023 -0.1516  0.1310 -0.6458
  582TMC3    C6 8683   0.281   2.191  15.098 -0.0762 -0.4184  0.0366
  582TMC3     C 8684   4.684   2.300  14.888 -0.4765  0.1480 -0.6792
  582TMC3     O 8685   4.659   2.422  14.874 -0.5202  0.0350 -0.4051
  582TMC3     H 8686   0.137   2.465  14.954 -3.6595 -1.1764 -0.7613
  582TMC3    H1 8687   0.086   2.052  14.862 -0.6295  1.2796 -0.7176
  582TMC3    H2 8688   0.342   2.160  15.183 -1.7268 -0.4345  1.2155
  582TMC3    C7 8689   0.127   2.020  15.114  0.3457 -0.3923  0.3996
  582TMC3    C8 8690   0.248   2.399  15.201  0.2858  0.3070  0.1139
  582TMC3    O1 8691   0.040   1.955  15.057  0.1117 -0.4650  0.0762
  582TMC3    O2 8692   0.262   2.327  15.303  0.1269  0.2692  0.5998
  583MPD2     C 8693   0.174   4.277  17.090 -0.3686  0.0942  0.1827
  583MPD2    C1 8694   0.197   4.383  16.997  1.5898 -0.3788  0.7844
  583MPD2    C2 8695   0.160   4.511  17.037 -0.0404  0.6876 -0.3296
  583MPD2    C3 8696   0.118   4.541  17.169 -0.3809  0.1760  0.3446
  583MPD2    C4 8697   0.089   4.432  17.254  0.1057  0.2033  0.2220
  583MPD2    C5 8698   0.117   4.307  17.210 -0.3890 -0.0351 -0.1083
  583MPD2     H 8699   0.175   4.598  16.974 -1.0580  1.6591  0.7513
  583MPD2    H1 8700   0.030   4.458  17.341  0.5882 -0.3405  0.7163
  583MPD2    H2 8701   0.206   4.175  17.073  0.8033  0.4153  0.5085
  583MPD2    H3 8702   0.096   4.223  17.275  1.4620  0.2568  0.8960
  583MPD2     N 8703   0.085   4.669  17.212  0.0601 -0.2107 -0.3399
  583MPD2    H5 8704   0.082   0.000  17.136 -1.5050  1.3056  1.0851
  583MPD2    N1 8705   0.265   4.367  16.872  0.1496  0.7251  0.4370
  583MPD2    H7 8706   0.265   4.451  16.815  0.8993 -0.6061 -1.5521
  584TMC3    C1 8707   0.076   0.104  17.385 -0.5635 -0.1637  0.1603
  584TMC3    C2 8708   0.085   0.213  17.300 -0.3221  1.0997  0.1285
  584TMC3    C3 8709   0.071   0.337  17.354  0.2726  0.4950  0.5237
  584TMC3    C4 8710   0.049   0.121  17.522 -0.3662  0.2926 -0.1661
  584TMC3    C5 8711   0.051   0.248  17.571  0.6841 -0.4354  0.1961
  584TMC3    C6 8712   0.063   0.362  17.489  0.1726 -0.8920 -1.1868
  584TMC3     C 8713   0.089   4.704  17.346 -0.1229  0.6984  0.5681
  584TMC3     O 8714   0.116   4.630  17.443  0.3428  0.3611 -0.6109
  584TMC3     H 8715   0.105   0.203  17.194 -0.6541 -0.1769  0.1809
  584TMC3    H1 8716   0.055   0.038  17.592 -1.3093  3.3904  3.5354
  584TMC3    H2 8717   0.033   0.458  17.527  1.6903 -0.5502 -0.8538
  584TMC3    C7 8718   0.011   0.261  17.717 -0.1937  0.2782  1.0100
  584TMC3    C8 8719   0.091   0.444  17.264 -0.7296 -0.2228  0.7339
  584TMC3    O1 8720   4.690   0.164   0.026  0.2706 -0.8211 -0.2117
  584TMC3    O2 8721   0.070   0.421  17.143  0.2940 -0.0348  0.5375
  585MPD2     C 8722   3.947   3.248   0.026  0.5123  0.3451  0.2975
  585MPD2    C1 8723   4.011   3.330  17.674  0.6362  0.2401  0.3122
  585MPD2    C2 8724   4.070   3.271  17.555  0.3811  0.4810 -0.3131
  585MPD2    C3 8725   4.075   3.135  17.559 -0.5768 -0.0795  0.7619
  585MPD2    C4 8726   4.020   3.053  17.655  0.1907 -0.5045 -0.0074
  585MPD2    C5 8727   3.955   3.112   0.014  0.1217  0.2150 -0.3900
  585MPD2     H 8728   4.124   3.322  17.476  0.2412  0.8039 -0.2000
  585MPD2    H1 8729   4.033   2.946  17.649 -2.0936 -0.8124  0.6001
  585MPD2    H2 8730   3.896   3.291   0.112 -0.6386  1.3329 -0.8854
  585MPD2    H3 8731   3.901   3.043   0.078 -0.8528  1.6521  0.3233
  585MPD2     N 8732   4.141   3.064  17.455 -0.3555 -0.1270 -0.5538
  585MPD2    H5 8733   4.128   2.964  17.465  0.0714 -0.0904  0.3516
  585MPD2    N1 8734   4.011   3.470  17.697  0.7506  0.1488 -0.3332
  585MPD2    H7 8735   3.977   3.505   0.040  0.4033 -0.3068 -0.2841
  586TMC3    C1 8736   4.220   3.008  17.249 -0.0372 -0.3540 -0.2639
  586TMC3    C2 8737   4.330   3.017  17.165  0.4526  0.5703  0.5459
  586TMC3    C3 8738   4.324   2.953  17.050  0.4399  0.2725  0.7949
  586TMC3    C4 8739   4.105   2.941  17.217  0.1403  0.1410 -0.2267
  586TMC3    C5 8740   4.104   2.872  17.095 -0.4207  0.2550 -0.4592
  586TMC3    C6 8741   4.216   2.876  17.018  0.4696  0.1572 -0.2597
  586TMC3     C 8742   4.211   3.113  17.350  0.0385  0.1687  0.3800
  586TMC3     O 8743   4.273   3.220  17.336  0.0920  0.7659 -0.2233
  586TMC3     H 8744   4.420   3.069  17.197  0.9516 -0.0951  0.2346
  586TMC3    H1 8745   4.013   2.958  17.272  0.2742 -0.4467  0.1847
  586TMC3    H2 8746   4.220   2.829  16.921 -0.9223 -3.0367  1.2465
  586TMC3    C7 8747   4.033   2.749  17.096  0.4952  0.3599  0.0898
  586TMC3    C8 8748   4.447   2.888  17.009 -0.5950  0.6745 -0.2395
  586TMC3    O1 8749   3.967   2.735  17.199  0.0796  0.3496 -0.1253
  586TMC3    O2 8750   4.529   2.955  16.946 -0.3817 -0.0577  0.9555
  587TMC3    C1 8751   0.598   2.174  15.752  0.2530  0.0682  0.9618
  587TMC3    C2 8752   0.681   2.145  15.856 -0.1576  0.3799  0.5319
  587TMC3    C3 8753   0.811   2.111  15.823 -0.2957  0.0117  0.4564
  587TMC3    C4 8754   0.642   2.160  15.623  0.8917  0.3207  0.5118
  587TMC3    C5 8755   0.766   2.106  15.603 -0.3346 -0.3500  0.6959
  587TMC3    C6 8756   0.857   2.092  15.699  0.1756  0.9253 -0.0743
  587TMC3     C 8757   0.457   2.184  15.774  0.2111 -0.2835  0.3878
  587TMC3     O 8758   0.399   2.212  15.668  0.1472  0.2145 -0.4758
  587TMC3     H 8759   0.648   2.157  15.958  3.5218 -0.9047  1.8716
  587TMC3    H1 8760   0.580   2.186  15.538 -1.5526 -0.4954  2.0641
  587TMC3    H2 8761   0.946   2.033  15.680  0.2678  0.1809  2.6188
  587TMC3    C7 8762   0.809   2.085  15.461  0.3290  0.1421 -0.4241
  587TMC3    C8 8763   0.903   2.089  15.927 -1.0686 -0.1904 -0.4797
  587TMC3    O1 8764   0.737   2.116  15.366 -0.5055 -0.6774 -0.1156
  587TMC3    O2 8765   0.989   1.999  15.910 -0.4030  0.2313 -0.4425
  588TMC3    C1 8766   3.997   4.328  10.557  0.2200 -0.3282 -0.0747
  588TMC3    C2 8767   3.985   4.195  10.596  0.0707  0.8833 -0.1430
  588TMC3    C3 8768   4.097   4.133  10.644  0.4017 -0.0910 -0.0940
  588TMC3    C4 8769   4.123   4.378  10.550 -0.2720  0.4116  0.1528
  588TMC3    C5 8770   4.234   4.315  10.597  0.5622 -0.7347  0.2827
  588TMC3    C6 8771   4.221   4.181  10.635  0.4556  0.3957 -0.1325
  588TMC3     C 8772   3.897   4.377  10.470  0.3862  0.0621 -0.0231
  588TMC3     O 8773   3.825   4.291  10.418 -0.0148 -0.1319  0.4337
  588TMC3     H 8774   3.890   4.142  10.598  0.1408  0.8146  1.2314
  588TMC3    H1 8775   4.134   4.482  10.521 -0.4383 -0.5109 -3.1930
  588TMC3    H2 8776   4.304   4.122  10.673  1.1460  0.6275 -1.2837
  588TMC3    C7 8777   4.355   4.388  10.598  0.1066  0.4643  0.2088
  588TMC3    C8 8778   4.082   3.997  10.691 -0.5285  0.3562 -0.1378
  588TMC3    O1 8779   4.436   4.377  10.692  0.8340  0.5433 -0.4400
  588TMC3    O2 8780   3.969   3.955  10.711 -0.1308  0.1637 -0.1453
  589TMC3    C1 8781   2.683   1.833   0.829  0.2434 -0.0393 -0.3303
  589TMC3    C2 8782   2.806   1.820   0.887  0.0223 -0.8324  0.4447
  589TMC3    C3 8783   2.889   1.724   0.839 -0.2461  0.8977 -0.7904
  589TMC3    C4 8784   2.645   1.768   0.717 -1.1240  0.6297  0.7631
  589TMC3    C5 8785   2.737   1.673   0.668 -0.2547  0.2207  0.4716
  589TMC3    C6 8786   2.853   1.649   0.728  0.3241 -0.3384  0.6001
  589TMC3     C 8787   2.596   1.951   0.859 -0.2568  0.6968 -0.2385
  589TMC3     O 8788   2.496   1.970   0.791  0.1732 -0.3628  0.1954
  589TMC3     H 8789   2.827   1.854   0.988  0.7469 -3.1784  1.0660
  589TMC3    H1 8790   2.546   1.771   0.675 -0.8400 -0.7533  0.0082
  589TMC3    H2 8791   2.914   1.572   0.682 -1.4102 -0.8493 -0.8567
  589TMC3    C7 8792   2.698   1.581   0.561 -0.3128 -0.6614 -0.1631
  589TMC3    C8 8793   2.999   1.688   0.920 -0.1515 -0.0078  0.3175
  589TMC3    O1 8794   2.756   1.478   0.572  0.2558  0.3081 -1.0579
  589TMC3    O2 8795   3.025   1.745   1.024 -0.3262 -0.0828 -0.1815
  590MPD2     C 8796   2.578   4.648  16.926  0.9246  0.8139 -0.6267
  590MPD2    C1 8797   2.525   0.012  16.853 -0.1943 -0.6286  0.0822
  590MPD2    C2 8798   2.605   0.071  16.757 -0.1184  0.3497  0.3415
  590MPD2    C3 8799   2.734   0.046  16.743 -0.7526 -0.1898 -0.6441
  590MPD2    C4 8800   2.797   4.685  16.823 -0.0140 -1.0017  0.2755
  590MPD2    C5 8801   2.714   4.623  16.911  0.1734 -0.1757 -0.3183
  590MPD2     H 8802   2.557   0.140  16.688  1.0401  0.5442 -0.2688
  590MPD2    H1 8803   2.905   4.676  16.829  0.1009 -0.4056 -0.8462
  590MPD2    H2 8804   2.517   4.589  16.994  0.4979 -0.2111 -1.8941
  590MPD2    H3 8805   2.758   4.550  16.978  2.4311  1.7457  0.3036
  590MPD2     N 8806   2.796   0.134  16.646  0.5672 -0.0108  0.2785
  590MPD2    H5 8807   2.741   0.208  16.603  1.8233  0.2850 -0.8210
  590MPD2    N1 8808   2.397   0.056  16.855  0.6605  0.4202 -0.6935
  590MPD2    H7 8809   2.369   0.123  16.784  1.8790  1.2495 -0.4010
  591TMC3    C1 8810   2.950   0.197  16.475  0.0475  0.8582 -0.1626
  591TMC3    C2 8811   3.021   0.142  16.379  0.2050  0.1188 -0.0382
  591TMC3    C3 8812   3.041   0.219  16.268  0.1798 -0.2417  0.6107
  591TMC3    C4 8813   2.891   0.322  16.473  0.1446  0.3568  0.4761
  591TMC3    C5 8814   2.918   0.395  16.361  0.1109 -0.5651  0.2000
  591TMC3    C6 8815   2.991   0.348  16.251 -0.3085 -0.2532  0.1616
  591TMC3     C 8816   2.918   0.110  16.584  0.4067 -0.1617 -0.1001
  591TMC3     O 8817   2.989   0.013  16.604 -0.0349  0.4236 -0.1766
  591TMC3     H 8818   3.062   0.042  16.385  0.8237  0.3761  0.0474
  591TMC3    H1 8819   2.832   0.359  16.556 -0.6113 -0.1457  0.1630
  591TMC3    H2 8820   2.999   0.412  16.164  0.3269  1.4387  1.4671
  591TMC3    C7 8821   2.815   0.494  16.348 -0.0189 -0.0873  0.5961
  591TMC3    C8 8822   3.146   0.189  16.179 -0.3355 -0.3337 -0.4479
  591TMC3    O1 8823   2.710   0.472  16.408 -0.6736  0.6653 -0.1705
  591TMC3    O2 8824   3.161   0.070  16.160 -0.4554  0.1441  0.0994
  592MPD2     C 8825   3.021   2.043  11.631  0.3961 -0.0827 -0.0674
  592MPD2    C1 8826   3.026   2.136  11.730  0.2565 -0.1289  0.4603
  592MPD2    C2 8827   2.997   2.101  11.860 -0.0711 -0.1825 -0.3271
  592MPD2    C3 8828   2.968   1.972  11.888 -0.4171  1.0417  0.9450
  592MPD2    C4 8829   2.965   1.878  11.791  0.5711 -0.9869 -0.4746
  592MPD2    C5 8830   2.990   1.910  11.661 -0.4393 -0.9210  0.0555
  592MPD2     H 8831   2.988   2.166  11.947 -2.3453 -1.0825  0.1381
  592MPD2    H1 8832   2.959   1.773  11.817 -1.2356 -0.9616 -0.8098
  592MPD2    H2 8833   3.047   2.066  11.528 -1.0060 -0.1685 -0.4461
  592MPD2    H3 8834   3.003   1.831  11.588 -0.7981 -1.5213  0.6321
  592MPD2     N 8835   2.931   1.940  12.025  0.0853 -0.2244 -0.3828
  592MPD2    H5 8836   2.930   2.007  12.101  1.1239 -1.1104  0.4290
  592MPD2    N1 8837   3.073   2.265  11.704  1.3647 -0.1048 -0.1676
  592MPD2    H7 8838   3.084   2.284  11.604  0.1004  0.4947 -0.1997
  593TMC3    C1 8839   3.174   2.479  11.719 -0.5332  1.0215 -0.9815
  593TMC3    C2 8840   3.221   2.581  11.802 -0.4906  0.0577  0.5839
  593TMC3    C3 8841   3.287   2.689  11.749  0.4516 -0.1898  0.6293
  593TMC3    C4 8842   3.188   2.484  11.587 -0.2283 -0.1552 -0.6363
  593TMC3    C5 8843   3.245   2.601  11.535 -0.0716 -0.5045 -0.0501
  593TMC3    C6 8844   3.296   2.696  11.616 -0.7799  0.5045  0.3005
  593TMC3     C 8845   3.109   2.367  11.785  0.0462 -0.1174 -0.4751
  593TMC3     O 8846   3.095   2.373  11.905 -1.0205 -0.6294 -0.3692
  593TMC3     H 8847   3.199   2.572  11.907  1.5731 -2.1473  0.8433
  593TMC3    H1 8848   3.121   2.422  11.528 -0.9029 -2.0892  2.1550
  593TMC3    H2 8849   3.351   2.782  11.578  2.5887 -1.1766  1.3443
  593TMC3    C7 8850   3.219   2.652  11.402  0.1592 -0.2050 -0.4033
  593TMC3    C8 8851   3.284   2.810  11.827  0.2166  0.6582 -0.9125
  593TMC3    O1 8852   3.221   2.773  11.384  0.2575  0.5760 -0.4606
  593TMC3    O2 8853   3.211   2.803  11.927 -0.7221 -0.4070 -0.1616
  594MPD2     C 8854   1.522   1.040  14.271  0.1912 -0.0473 -0.3969
  594MPD2    C1 8855   1.547   1.031  14.406 -0.2755 -0.1479  0.6121
  594MPD2    C2 8856   1.605   1.141  14.471  0.2699  0.3035  0.0447
  594MPD2    C3 8857   1.634   1.253  14.399  0.2906  0.1342  0.0310
  594MPD2    C4 8858   1.598   1.263  14.269 -0.2773 -0.6781 -0.9230
  594MPD2    C5 8859   1.540   1.154  14.208  0.4027  0.3542 -0.3889
  594MPD2     H 8860   1.629   1.153  14.576  0.2585  1.7387 -0.1091
  594MPD2    H1 8861   1.594   1.356  14.213  0.2856  0.8566  1.5930
  594MPD2    H2 8862   1.481   0.953  14.221 -1.6463 -0.3617  1.6597
  594MPD2    H3 8863   1.515   1.167  14.103 -1.5488 -0.1917 -0.0005
  594MPD2     N 8864   1.677   1.357  14.475  0.5817  0.1227  0.4064
  594MPD2    H5 8865   1.684   1.352  14.576 -0.9919 -1.7208  0.4334
  594MPD2    N1 8866   1.518   0.911  14.471 -0.4513  0.0318 -0.6559
  594MPD2    H7 8867   1.461   0.846  14.418 -0.5890  0.0084 -0.4766
  595TMC3    C1 8868   1.944   1.693  14.582 -0.4240  0.1044  0.1468
  595TMC3    C2 8869   1.866   1.636  14.479  0.4706 -0.1846 -0.0960
  595TMC3    C3 8870   1.746   1.574  14.510  0.5686 -0.2398  0.4641
  595TMC3    C4 8871   1.904   1.676  14.707 -0.3806 -0.0322 -0.5955
  595TMC3    C5 8872   1.782   1.620  14.737 -0.2915 -0.4937 -0.0621
  595TMC3    C6 8873   1.702   1.572  14.638 -0.1035 -0.1613 -0.5237
  595TMC3     C 8874   2.088   1.715  14.561  0.1675 -0.6764  0.1996
  595TMC3     O 8875   2.154   1.754  14.657 -0.0769  0.2057  0.1131
  595TMC3     H 8876   1.904   1.633  14.377  0.9473 -0.1969  0.0825
  595TMC3    H1 8877   1.965   1.706  14.791  0.7682 -1.4530 -0.9309
  595TMC3    H2 8878   1.623   1.505  14.669 -0.2677  0.5389  0.5788
  595TMC3    C7 8879   1.727   1.648  14.871  0.3933 -0.0196 -0.7798
  595TMC3    C8 8880   1.710   1.475  14.415  0.4781 -0.1324  0.0198
  595TMC3    O1 8881   1.616   1.711  14.871  0.1458  0.2009 -0.4560
  595TMC3    O2 8882   1.752   1.490  14.302 -0.4950 -0.3598 -0.0914
  596MPD2     C 8883   1.001   3.997  16.998 -0.1510 -0.6538 -0.7395
  596MPD2    C1 8884   1.050   4.093  16.912 -0.1008 -0.1037 -0.8832
  596MPD2    C2 8885   1.082   4.047  16.785 -0.1499 -0.6597 -0.0884
  596MPD2    C3 8886   1.065   3.908  16.746 -0.1718  0.2826  0.3049
  596MPD2    C4 8887   1.027   3.818  16.842  0.3897  0.1412  0.4115
  596MPD2    C5 8888   0.997   3.859  16.969  0.0854 -0.0287  0.0038
  596MPD2     H 8889   1.119   4.122  16.715  0.9210 -1.5351 -0.4493
  596MPD2    H1 8890   1.005   3.714  16.821  0.9535 -0.1452  1.2102
  596MPD2    H2 8891   0.974   4.021  17.100  1.7634  1.8790 -0.8134
  596MPD2    H3 8892   0.960   3.781  17.034  0.3984 -0.8466 -0.8043
  596MPD2     N 8893   1.091   3.861  16.614  0.4461  0.0369  0.0746
  596MPD2    H5 8894   1.086   3.761  16.598 -3.3925  0.3900 -0.9727
  596MPD2    N1 8895   1.061   4.234  16.947  0.3290  0.6815 -0.1982
  596MPD2    H7 8896   1.066   4.296  16.867  2.5010 -1.5520 -1.7778
  597TMC3    C1 8897   1.017   4.429  17.081 -0.0845 -0.1632  0.0627
  597TMC3    C2 8898   1.077   4.516  16.998  0.2517 -0.1174 -0.6285
  597TMC3    C3 8899   1.046   4.643  17.009 -0.4610  0.6699  0.1217
  597TMC3    C4 8900   0.910   4.458  17.158  0.4199  0.0090  0.0717
  597TMC3    C5 8901   0.865   4.591  17.157 -0.1473 -0.7486  0.4917
  597TMC3    C6 8902   0.942   4.685  17.088  0.3717 -0.0415  0.2262
  597TMC3     C 8903   1.048   4.282  17.077  0.1172  0.3361 -0.3330
  597TMC3     O 8904   1.043   4.221  17.186  0.1776  0.3309 -0.1422
  597TMC3     H 8905   1.161   4.484  16.938 -0.6019 -1.0387 -1.3501
  597TMC3    H1 8906   0.860   4.385  17.220 -1.9288  1.1961 -0.4203
  597TMC3    H2 8907   0.921   0.055  17.094  1.2112  0.2194 -1.4105
  597TMC3    C7 8908   0.764   4.641  17.253 -0.4912  0.4034 -0.6453
  597TMC3    C8 8909   1.094   0.005  16.914 -0.0946 -0.0300  0.4790
  597TMC3    O1 8910   0.717   4.560  17.333  0.7006 -0.1972  0.2818
  597TMC3    O2 8911   1.044   0.113  16.921  0.5423 -0.3532  0.6767
  598TMC3    C1 8912   3.813   0.637  14.876  0.2306  0.2341 -0.1505
  598TMC3    C2 8913   3.724   0.538  14.914 -0.5436 -0.1259 -0.7645
  598TMC3    C3 8914   3.611   0.574  14.982 -0.3572 -0.0031  0.1700
  598TMC3    C4 8915   3.786   0.774  14.894 -0.2251  0.0854 -0.0708
  598TMC3    C5 8916   3.661   0.813  14.947  0.9263  0.3532  0.2450
  598TMC3    C6 8917   3.584   0.712  14.994  0.1952 -0.2222  0.4693
  598TMC3     C 8918   3.933   0.587  14.805  0.0328 -0.3118 -0.5098
  598TMC3     O 8919   3.929   0.472  14.760  0.1225 -0.0347 -0.1703
  598TMC3     H 8920   3.738   0.433  14.890 -0.8230 -0.2201 -0.5217
  598TMC3    H1 8921   3.867   0.839  14.863  0.2457  0.5845  2.2482
  598TMC3    H2 8922   3.487   0.737  15.034 -1.3698 -2.9485 -1.6007
  598TMC3    C7 8923   3.583   0.918  14.878 -0.5377 -0.0023 -0.0671
  598TMC3    C8 8924   3.547   0.469  15.065 -0.8195  0.4343  0.0991
  598TMC3    O1 8925   3.466   0.901  14.844 -0.6121  0.6130 -0.2304
  598TMC3    O2 8926   3.609   0.364  15.094 -0.1108  0.0814  0.2069
  599MPD2     C 8927   3.607   3.040  15.501 -0.2816 -1.0871 -0.0473
  599MPD2    C1 8928   3.602   2.916  15.560 -0.9816  0.0097  0.3644
  599MPD2    C2 8929   3.530   2.897  15.678  0.5046 -0.2601  0.1560
  599MPD2    C3 8930   3.464   3.000  15.744 -0.1527  0.3204 -0.5415
  599MPD2    C4 8931   3.471   3.128  15.689 -0.1056 -0.3251 -0.2889
  599MPD2    C5 8932   3.532   3.139  15.563 -0.0070  0.0857 -0.4634
  599MPD2     H 8933   3.542   2.798  15.722  0.9248  0.3560  1.4313
  599MPD2    H1 8934   3.415   3.213  15.726  0.1980  0.1361 -0.8987
  599MPD2    H2 8935   3.657   3.048  15.405  0.4035  1.2848  0.5234
  599MPD2    H3 8936   3.532   3.236  15.513  0.3280  0.0785 -0.4766
  599MPD2     N 8937   3.394   2.987  15.866  0.3681 -0.2205  0.4339
  599MPD2    H5 8938   3.369   3.075  15.910  1.8691  0.6935 -0.4910
  599MPD2    N1 8939   3.681   2.813  15.504 -0.7626  0.1918 -0.9231
  599MPD2    H7 8940   3.751   2.839  15.435  1.5490 -0.2642  1.2415
  600TMC3    C1 8941   3.255   2.894  16.031  0.4522  0.3477  0.3792
  600TMC3    C2 8942   3.139   2.824  16.035 -0.6296 -0.4202  0.0595
  600TMC3    C3 8943   3.060   2.850  16.139  0.1452 -0.5941  1.2646
  600TMC3    C4 8944   3.299   2.974  16.134 -0.3593  0.0380 -0.3704
  600TMC3    C5 8945   3.217   2.992  16.241 -0.0116 -0.1231 -1.1991
  600TMC3    C6 8946   3.096   2.933  16.237  0.6369  0.3118 -0.5135
  600TMC3     C 8947   3.348   2.876  15.923  0.4289 -0.0668 -0.4119
  600TMC3     O 8948   3.360   2.764  15.873  0.4342 -0.3766  0.0046
  600TMC3     H 8949   3.119   2.741  15.969  0.9163 -0.9756  0.2856
  600TMC3    H1 8950   3.398   3.018  16.124 -0.2378  0.1666  1.3651
  600TMC3    H2 8951   3.027   2.939  16.320 -2.6487  1.2845 -3.3424
  600TMC3    C7 8952   3.264   3.075  16.356  0.3847 -0.1919  0.1741
  600TMC3    C8 8953   2.964   2.749  16.167  0.4548 -0.0067 -0.1400
  600TMC3    O1 8954   3.190   3.081  16.456 -0.8082  1.0862 -0.0729
  600TMC3    O2 8955   2.943   2.718  16.284  0.5081  0.1689  0.0605
  601MPD2     C 8956   0.982   2.036   0.444  0.5283  0.4757 -0.2843
  601MPD2    C1 8957   0.889   1.951   0.389 -0.2283  1.2140  0.5167
  601MPD2    C2 8958   0.868   1.820   0.432 -0.1973 -0.3543 -0.1226
  601MPD2    C3 8959   0.942   1.775   0.536  0.2850  0.2809 -0.1205
  601MPD2    C4 8960   1.033   1.853   0.596  0.9442 -0.6796  0.2725
  601MPD2    C5 8961   1.050   1.984   0.550  0.2756 -0.0358 -0.3727
  601MPD2     H 8962   0.793   1.760   0.381  0.9078 -1.2926 -0.6418
  601MPD2    H1 8963   1.099   1.814   0.673  0.4769 -1.5644  0.2215
  601MPD2    H2 8964   0.998   2.142   0.423 -0.8434  0.9968  1.2932
  601MPD2    H3 8965   1.121   2.049   0.600  0.1783 -0.3996  0.2342
  601MPD2     N 8966   0.933   1.643   0.584  0.3588  0.3502 -0.3491
  601MPD2    H5 8967   0.982   1.629   0.672 -0.4892 -0.6347 -0.0459
  601MPD2    N1 8968   0.814   1.991   0.281  0.3077 -0.2211  0.0294
  601MPD2    H7 8969   0.771   1.916   0.229 -1.5472  0.4245  0.6306
  602TMC3    C1 8970   0.725   2.129   0.108 -0.6300  0.0087 -0.3013
  602TMC3    C2 8971   0.676   2.258   0.084  0.6841 -0.2690  0.1704
  602TMC3    C3 8972   0.613   2.283  17.715  0.3547 -0.3112 -0.7520
  602TMC3    C4 8973   0.711   2.027   0.021 -0.2497  0.2544 -0.7613
  602TMC3    C5 8974   0.637   2.054  17.654  0.3289  0.5461  0.4226
  602TMC3    C6 8975   0.592   2.179  17.621 -0.0964  0.2885 -0.0203
  602TMC3     C 8976   0.806   2.120   0.224 -0.4765  0.0696  0.2542
  602TMC3     O 8977   0.848   2.223   0.274  0.4414  0.3430  0.0431
  602TMC3     H 8978   0.676   2.329   0.166 -1.8895  0.7373 -0.6996
  602TMC3    H1 8979   0.737   1.924   0.044 -1.1334  0.3143  0.5548
  602TMC3    H2 8980   0.564   2.197  17.517 -0.3855 -0.3653 -0.0545
  602TMC3    C7 8981   0.599   1.950  17.565  0.3521 -0.3459 -0.1547
  602TMC3    C8 8982   0.538   2.406  17.713 -0.7670  0.2774  0.2586
  602TMC3    O1 8983   0.663   1.849  17.567  0.5881 -0.1607  0.6235
  602TMC3    O2 8984   0.514   2.465   0.069  0.7412  0.2522  0.1691
  603TMC3    C1 8985   3.939   1.544  11.093  0.2858 -0.1859 -0.3537
  603TMC3    C2 8986   3.926   1.574  11.220  0.1853 -0.3842 -0.1172
  603TMC3    C3 8987   3.934   1.703  11.256 -0.2943  0.2627  0.1604
  603TMC3    C4 8988   3.935   1.642  10.997 -0.0572 -0.0883  0.0857
  603TMC3    C5 8989   3.925   1.774  11.040  0.5512 -0.1534 -0.1791
  603TMC3    C6 8990   3.941   1.809  11.169 -0.7163 -0.6010  0.0809
  603TMC3     C 8991   3.951   1.402  11.068  0.6145 -0.9188  0.0766
  603TMC3     O 8992   3.938   1.323  11.156 -0.6764 -0.3305 -0.6885
  603TMC3     H 8993   3.935   1.496  11.294 -1.4521 -1.0399 -0.5919
  603TMC3    H1 8994   3.959   1.628  10.892 -0.8464 -1.2577  0.0568
  603TMC3    H2 8995   3.937   1.914  11.198  0.8663 -0.7864  0.9585
  603TMC3    C7 8996   3.889   1.883  10.944  1.0959  0.0966 -0.3380
  603TMC3    C8 8997   3.965   1.722  11.390 -0.7485  0.0742 -0.1691
  603TMC3    O1 8998   3.903   1.998  10.986  0.3450  0.0116  0.6505
  603TMC3    O2 8999   3.920   1.644  11.471  0.3340 -0.3438  0.8211
  604MPD2     C 9000   0.025   0.212  16.583  0.3104  0.1793  0.0098
  604MPD2    C1 9001   4.693   0.293  16.494 -0.0289 -0.2568 -0.1918
  604MPD2    C2 9002   4.704   0.281  16.357  0.2654  0.4768 -0.8139
  604MPD2    C3 9003   0.064   0.201  16.307 -0.2752 -0.0616 -0.2015
  604MPD2    C4 9004   0.113   0.105  16.390 -0.1534 -0.6020  0.2151
  604MPD2    C5 9005   0.098   0.110  16.526  0.4778 -0.2999 -0.4643
  604MPD2     H 9006   4.656   0.351  16.290  1.6739  1.8797 -0.3615
  604MPD2    H1 9007   0.189   0.040  16.347 -0.0391 -0.3437  0.0288
  604MPD2    H2 9008   0.007   0.218  16.690  2.6088  1.2290  0.3301
  604MPD2    H3 9009   0.158   0.042  16.586  1.4041  1.8420  1.0296
  604MPD2     N 9010   0.084   0.211  16.166 -0.6041  0.6311 -0.0435
  604MPD2    H5 9011   0.036   0.285  16.116  1.1294  1.4517 -0.5136
  604MPD2    N1 9012   4.606   0.394  16.557 -0.1752  0.1308  0.4460
  604MPD2    H7 9013   4.592   0.385  16.658 -0.9778 -1.8364  0.1617
  605TMC3    C1 9014   4.436   0.564  16.588  0.1924 -0.0060  1.1481
  605TMC3    C2 9015   4.502   0.632  16.683  0.1928  0.1880  0.5418
  605TMC3    C3 9016   4.508   0.767  16.685 -0.6306 -0.3329  0.0680
  605TMC3    C4 9017   4.351   0.639  16.508 -0.0257  0.1195 -0.2409
  605TMC3    C5 9018   4.334   0.777  16.530 -0.1057  0.4947 -0.4837
  605TMC3    C6 9019   4.414   0.844  16.616 -0.5466  0.3626  0.3459
  605TMC3     C 9020   4.514   0.479  16.499 -0.6187  0.2200  0.2794
  605TMC3     O 9021   4.500   0.492  16.382  0.8932  0.6428 -0.5194
  605TMC3     H 9022   4.578   0.576  16.736  0.5664 -0.5180 -0.7480
  605TMC3    H1 9023   4.306   0.587  16.424 -0.6732  0.6550 -0.2367
  605TMC3    H2 9024   4.411   0.952  16.623 -2.9523  0.3088  0.1430
  605TMC3    C7 9025   4.272   0.852  16.423  0.6251  0.1696 -0.2400
  605TMC3    C8 9026   4.629   0.823  16.735 -0.2385  0.8077 -0.3986
  605TMC3    O1 9027   4.225   0.963  16.443  0.7087  0.2751 -0.0164
  605TMC3    O2 9028   4.733   0.755  16.738 -0.3502  0.3511  0.3960
  606TMC3    C1 9029   0.839   4.538  17.699 -0.2257  0.1913  0.6118
  606TMC3    C2 9030   0.803   4.512   0.082  0.0868  0.2258 -0.0257
  606TMC3    C3 9031   0.750   4.391   0.119  0.0867  0.4089 -0.8464
  606TMC3    C4 9032   0.829   4.444  17.607 -0.1148 -0.4594  0.3417
  606TMC3    C5 9033   0.773   4.322  17.640 -0.1992  0.1212 -1.1703
  606TMC3    C6 9034   0.730   4.294   0.023  0.6939  0.2430  0.4796
  606TMC3     C 9035   0.837   4.677  17.665 -0.3539 -0.3333  0.2208
  606TMC3     O 9036   0.762   0.004  17.734 -0.3786 -0.1224 -0.1751
  606TMC3     H 9037   0.804   4.582   0.165 -1.2015  0.6691 -0.3842
  606TMC3    H1 9038   0.857   4.464  17.504  0.9447 -0.2519  0.6725
  606TMC3    H2 9039   0.711   4.195   0.061  0.3282 -0.3600 -1.2720
  606TMC3    C7 9040   0.766   4.219  17.537 -0.2324 -0.1531  0.3372
  606TMC3    C8 9041   0.800   4.349   0.248  0.5202  0.6498 -0.5224
  606TMC3    O1 9042   0.837   4.241  17.442 -0.0306 -0.5948  0.1801
  606TMC3    O2 9043   0.773   4.418   0.348 -0.0355 -0.1040  0.4465
  607MPD2     C 9044   3.191   1.599  11.987 -0.0905 -0.5152 -0.1917
  607MPD2    C1 9045   3.224   1.704  12.062 -0.0118  0.0914 -0.2153
  607MPD2    C2 9046   3.221   1.695  12.204 -0.1722 -0.7892  0.6265
  607MPD2    C3 9047   3.197   1.571  12.273 -0.1263 -0.9914 -0.0463
  607MPD2    C4 9048   3.156   1.465  12.188  0.2986  0.3289  0.2275
  607MPD2    C5 9049   3.146   1.486  12.049  0.0417  0.4462 -0.2101
  607MPD2     H 9050   3.251   1.780  12.264 -0.2495  0.4040 -1.0218
  607MPD2    H1 9051   3.133   1.366  12.225 -0.8904  0.2045 -0.8549
  607MPD2    H2 9052   3.193   1.605  11.879  1.8426 -1.3709 -0.1916
  607MPD2    H3 9053   3.118   1.403  11.985 -1.7676  0.3141  0.7582
  607MPD2     N 9054   3.222   1.558  12.413  0.8018 -0.2098  1.1578
  607MPD2    H5 9055   3.262   1.633  12.468  0.5553  1.2349 -0.6148
  607MPD2    N1 9056   3.254   1.826  12.000  0.0566 -0.1726  0.4208
  607MPD2    H7 9057   3.261   1.829  11.899  3.4970 -1.8266  0.5858
  608TMC3    C1 9058   3.291   2.070  11.974  0.0632 -0.5174  0.3541
  608TMC3    C2 9059   3.295   2.179  12.052 -0.5222  0.6585 -0.1411
  608TMC3    C3 9060   3.409   2.256  12.061 -0.2531 -0.3356 -0.4915
  608TMC3    C4 9061   3.381   2.045  11.868  0.1752 -0.2877  0.0178
  608TMC3    C5 9062   3.479   2.134  11.861 -0.6962 -0.4905  0.3337
  608TMC3    C6 9063   3.496   2.234  11.956 -0.1630 -0.2826 -0.4387
  608TMC3     C 9064   3.263   1.952  12.056  0.0489 -0.1262  0.2637
  608TMC3     O 9065   3.254   1.982  12.173 -0.1555  0.2014 -0.0862
  608TMC3     H 9066   3.220   2.200  12.127  1.5201  3.1406  1.2110
  608TMC3    H1 9067   3.366   1.969  11.793  1.3752  1.5242 -2.0507
  608TMC3    H2 9068   3.578   2.304  11.958 -0.4421 -0.0502  2.0094
  608TMC3    C7 9069   3.502   2.179  11.722 -1.0620  0.3961  0.2370
  608TMC3    C8 9070   3.472   2.277  12.185  0.0266  0.3579 -0.5045
  608TMC3    O1 9071   3.448   2.120  11.632 -0.0351 -0.0220 -0.3608
  608TMC3    O2 9072   3.571   2.348  12.191 -0.4647  0.3061 -0.2526
  609TMC3    C1 9073   1.428   1.266   8.886  0.0451 -0.7725 -0.0282
  609TMC3    C2 9074   1.485   1.386   8.863  0.2293 -0.0561 -1.3027
  609TMC3    C3 9075   1.615   1.414   8.891 -0.0117  0.0096  0.0969
  609TMC3    C4 9076   1.503   1.162   8.927  0.1431  0.1403  0.8233
  609TMC3    C5 9077   1.637   1.184   8.945  0.2761  0.1606  0.9285
  609TMC3    C6 9078   1.694   1.308   8.937 -0.3011 -0.1853  0.5309
  609TMC3     C 9079   1.280   1.249   8.889  0.0573 -0.0979  0.1734
  609TMC3     O 9080   1.247   1.170   8.980  0.1584  0.2618  0.0079
  609TMC3     H 9081   1.418   1.471   8.849 -0.6229 -0.8198 -1.8867
  609TMC3    H1 9082   1.443   1.079   8.961 -2.0362  0.6655 -1.7550
  609TMC3    H2 9083   1.793   1.333   8.973 -1.5303  1.9606  2.4016
  609TMC3    C7 9084   1.702   1.077   9.018 -0.0602  0.7146 -0.3458
  609TMC3    C8 9085   1.667   1.541   8.845 -0.5154 -0.0365  0.2529
  609TMC3    O1 9086   1.787   1.112   9.099  0.2766 -0.3601  0.0619
  609TMC3    O2 9087   1.776   1.574   8.889  0.1898  0.1356  0.1051
  610TMC3    C1 9088   3.285   2.304  13.132 -0.4130  0.1947  0.1441
  610TMC3    C2 9089   3.338   2.416  13.082  0.1310 -0.1544  0.2181
  610TMC3    C3 9090   3.475   2.431  13.079 -1.0294  0.0440  0.5970
  610TMC3    C4 9091   3.361   2.203  13.183 -0.6029 -0.3150 -0.4634
  610TMC3    C5 9092   3.495   2.219  13.167  0.0177 -0.0125  0.1783
  610TMC3    C6 9093   3.556   2.334  13.123  0.0955  0.1726  0.0445
  610TMC3     C 9094   3.147   2.281  13.092  0.0654  0.4036  0.7176
  610TMC3     O 9095   3.107   2.167  13.067 -0.7255 -0.1478  0.5595
  610TMC3     H 9096   3.283   2.500  13.041  1.1265  0.4625  0.1362
  610TMC3    H1 9097   3.305   2.113  13.204  0.1859 -1.0548 -1.5381
  610TMC3    H2 9098   3.662   2.354  13.134  0.4182 -1.1810 -0.5836
  610TMC3    C7 9099   3.586   2.119  13.208  0.1119  0.2264  0.3495
  610TMC3    C8 9100   3.517   2.511  12.966  0.0340  0.3486 -0.9628
  610TMC3    O1 9101   3.700   2.153  13.231  0.5062  0.3113 -0.7324
  610TMC3    O2 9102   3.442   2.596  12.921 -0.2673 -0.0867  0.0459
  611MPD2     C 9103   2.447   1.709  10.767 -0.2661  0.7700  0.2187
  611MPD2    C1 9104   2.462   1.675  10.638  0.2292 -0.8541  0.0268
  611MPD2    C2 9105   2.583   1.697  10.581  0.4266 -0.0571 -0.0382
  611MPD2    C3 9106   2.694   1.739  10.651  0.5366  0.6142  0.3030
  611MPD2    C4 9107   2.678   1.774  10.784 -0.4025  0.4415  0.3805
  611MPD2    C5 9108   2.554   1.765  10.841  0.0622  0.4648  0.8283
  611MPD2     H 9109   2.595   1.665  10.478  0.7562  0.8722 -0.2837
  611MPD2    H1 9110   2.764   1.814  10.837  0.9495 -1.8280 -0.1192
  611MPD2    H2 9111   2.355   1.704  10.824 -0.5018  0.0752 -0.2247
  611MPD2    H3 9112   2.539   1.780  10.947 -1.9482  1.4281  0.4047
  611MPD2     N 9113   2.823   1.744  10.593 -0.3434 -0.6987  0.1364
  611MPD2    H5 9114   2.898   1.775  10.654 -0.9869 -0.3250  0.7391
  611MPD2    N1 9115   2.375   1.592  10.572 -0.3008  0.7334 -0.1755
  611MPD2    H7 9116   2.397   1.578  10.474  0.0315  2.9807 -0.4167
  612TMC3    C1 9117   2.999   1.685  10.454 -0.3651 -0.5964 -0.1867
  612TMC3    C2 9118   3.083   1.785  10.498  0.4080 -0.2276  0.0016
  612TMC3    C3 9119   3.214   1.778  10.467 -0.3828  0.0306  0.5023
  612TMC3    C4 9120   3.050   1.589  10.371  0.0676 -0.8337 -0.1144
  612TMC3    C5 9121   3.181   1.589  10.345  0.3069  0.1411  0.1145
  612TMC3    C6 9122   3.273   1.675  10.399 -0.2486 -0.1647  0.5705
  612TMC3     C 9123   2.860   1.682  10.479  0.9017  0.5772  0.1897
  612TMC3     O 9124   2.792   1.627  10.394  0.4544  0.6085 -0.3062
  612TMC3     H 9125   3.049   1.859  10.570 -0.7509  0.4162 -1.2086
  612TMC3    H1 9126   2.977   1.541  10.306  0.4411 -1.0941 -0.3449
  612TMC3    H2 9127   3.379   1.687  10.380 -0.4732 -0.8976 -1.1051
  612TMC3    C7 9128   3.232   1.520  10.220  0.0510  0.0712  0.5468
  612TMC3    C8 9129   3.290   1.881  10.523 -0.2156 -0.2406 -1.4029
  612TMC3    O1 9130   3.347   1.550  10.185  0.1702 -0.4570 -0.2554
  612TMC3    O2 9131   3.248   1.998  10.517 -0.2004  0.4374 -0.4655
  613MPD2     C 9132   2.062   4.186  16.627  0.3659 -0.0238  0.1654
  613MPD2    C1 9133   2.114   4.113  16.523 -0.1567 -0.1391 -0.0616
  613MPD2    C2 9134   2.118   3.974  16.539 -0.7764  0.3371  0.5912
  613MPD2    C3 9135   2.068   3.916  16.660 -0.3630  0.2134 -0.5082
  613MPD2    C4 9136   2.001   3.998  16.746  0.0459  0.3075  0.1455
  613MPD2    C5 9137   1.994   4.133  16.731 -0.8192 -0.0353  0.0180
  613MPD2     H 9138   2.157   3.912  16.458  1.3583  0.1948  1.7333
  613MPD2    H1 9139   1.941   3.953  16.824 -0.5070  0.0913 -0.4086
  613MPD2    H2 9140   2.078   4.294  16.629 -2.7742  0.4605 -0.4073
  613MPD2    H3 9141   1.951   4.191  16.811 -1.0161 -1.7299  1.1581
  613MPD2     N 9142   2.042   3.776  16.666  0.4797 -0.3894  0.4210
  613MPD2    H5 9143   1.987   3.746  16.746  1.5198  2.2686  2.1201
  613MPD2    N1 9144   2.178   4.168  16.411  0.0243 -0.2975  0.0880
  613MPD2    H7 9145   2.232   4.105  16.352  0.9077  2.0372 -1.6019
  614TMC3    C1 9146   2.246   4.321  16.245  0.1176  0.0712 -1.0095
  614TMC3    C2 9147   2.331   4.215  16.225 -0.3292 -0.7916  0.1404
  614TMC3    C3 9148   2.312   4.140  16.113 -0.4906 -0.1660  0.0846
  614TMC3    C4 9149   2.142   4.352  16.157  0.0673  0.3884  0.0507
  614TMC3    C5 9150   2.132   4.270  16.044 -0.0683 -0.2791  0.1926
  614TMC3    C6 9151   2.216   4.166  16.021  0.9152  0.1773  0.3988
  614TMC3     C 9152   2.182   4.298  16.372 -0.3961  0.1534  0.7279
  614TMC3     O 9153   2.117   4.392  16.418 -0.0979 -0.0057  0.3369
  614TMC3     H 9154   2.406   4.197  16.301 -0.5065  1.7045  0.9204
  614TMC3    H1 9155   2.077   4.434  16.184 -0.1021  0.0908  0.5550
  614TMC3    H2 9156   2.196   4.090  15.946  2.2937 -1.6644  1.8784
  614TMC3    C7 9157   2.031   4.294  15.941  0.1701 -0.5486  0.1039
  614TMC3    C8 9158   2.319   3.997  16.150 -0.9688  0.3301  0.1189
  614TMC3    O1 9159   2.057   4.239  15.835 -0.2421 -0.0944  0.2149
  614TMC3    O2 9160   2.322   3.978  16.271  0.2124 -0.2952  0.3334
  615MPD2     C 9161   1.737   1.397  16.839 -0.2897  0.8592 -0.3795
  615MPD2    C1 9162   1.787   1.477  16.737 -0.4140  0.0532  0.3421
  615MPD2    C2 9163   1.766   1.445  16.602  1.1076  0.9323  0.7734
  615MPD2    C3 9164   1.696   1.331  16.566 -0.2686 -0.5410 -0.1331
  615MPD2    C4 9165   1.645   1.251  16.670 -0.4402 -1.2573 -0.5716
  615MPD2    C5 9166   1.665   1.286  16.797  0.2124 -0.4064  0.1969
  615MPD2     H 9167   1.817   1.509  16.531  0.3686  0.5994 -0.0538
  615MPD2    H1 9168   1.581   1.165  16.650 -1.9796  0.1184 -1.5283
  615MPD2    H2 9169   1.750   1.423  16.943  1.8713 -1.0585 -0.1724
  615MPD2    H3 9170   1.635   1.219  16.877 -0.3386 -0.2924  0.0852
  615MPD2     N 9171   1.681   1.311  16.427  0.3619  0.6709  0.7084
  615MPD2    H5 9172   1.729   1.372  16.362  1.4094  1.0288  1.8171
  615MPD2    N1 9173   1.845   1.601  16.764  1.0258  0.3131 -0.4597
  615MPD2    H7 9174   1.859   1.663  16.685 -0.7748  0.7518 -0.4123
  616TMC3    C1 9175   1.985   1.766  16.849  0.2276  0.2390 -0.3552
  616TMC3    C2 9176   1.984   1.818  16.719 -1.0158 -0.2554  0.3333
  616TMC3    C3 9177   2.069   1.920  16.694 -0.4305 -0.7114  0.1658
  616TMC3    C4 9178   2.068   1.819  16.946  0.2629 -0.1999 -0.1337
  616TMC3    C5 9179   2.146   1.918  16.907  0.4584  0.2620  0.6894
  616TMC3    C6 9180   2.152   1.975  16.785  0.2067  0.0336  0.2234
  616TMC3     C 9181   1.910   1.644  16.877  0.1199 -0.1888 -0.2787
  616TMC3     O 9182   1.893   1.608  16.991  0.2369  0.5521 -0.6511
  616TMC3     H 9183   1.952   1.762  16.632 -0.3057 -0.8261  0.4369
  616TMC3    H1 9184   2.064   1.780  17.047  3.1083 -0.1072  0.0116
  616TMC3    H2 9185   2.212   2.061  16.754 -0.6871  0.0612 -1.4628
  616TMC3    C7 9186   2.254   1.944  17.001 -0.3191  0.0517  0.6251
  616TMC3    C8 9187   2.116   1.925  16.560  0.1301  0.5871  0.2082
  616TMC3    O1 9188   2.364   1.985  16.958  0.4382  0.3566  0.2588
  616TMC3    O2 9189   2.103   2.034  16.498  0.3932  0.7076 -0.2980
  617MPD2     C 9190   4.537   3.784  13.734 -0.0344 -0.5595  0.3670
  617MPD2    C1 9191   4.541   3.687  13.829  0.3190  0.1233 -0.3640
  617MPD2    C2 9192   4.421   3.648  13.894  0.3645  0.2158 -0.4261
  617MPD2    C3 9193   4.303   3.720  13.869  0.6089  0.2693  0.2368
  617MPD2    C4 9194   4.310   3.820  13.783  0.0965 -0.0488  0.1922
  617MPD2    C5 9195   4.424   3.859  13.711  0.5315 -0.4897  0.2466
  617MPD2     H 9196   4.412   3.556  13.949 -1.2498  1.3807  1.2463
  617MPD2    H1 9197   4.224   3.882  13.759  0.3005 -0.0460 -0.5391
  617MPD2    H2 9198   4.618   3.813  13.668 -0.5516 -0.4939 -0.2393
  617MPD2    H3 9199   4.428   3.946  13.647  0.2493  0.4721  1.5473
  617MPD2     N 9200   4.186   3.687  13.927  0.3222  0.0137 -0.0507
  617MPD2    H5 9201   4.107   3.743  13.898 -3.0930 -4.5330  0.3407
  617MPD2    N1 9202   4.663   3.626  13.848 -0.5141 -0.1458 -1.0117
  617MPD2    H7 9203   0.011   3.669  13.811  0.1834  0.4019  1.2479
  618TMC3    C1 9204   0.099   3.483  13.928  0.5217 -0.2004 -0.1324
  618TMC3    C2 9205   0.124   3.349  13.914  0.0193  0.0203  0.3415
  618TMC3    C3 9206   0.257   3.309  13.886 -0.5416 -0.2787 -0.8676
  618TMC3    C4 9207   0.196   3.578  13.909 -0.3162  0.7325 -0.5195
  618TMC3    C5 9208   0.325   3.533  13.888 -0.3259  0.6743 -0.1543
  618TMC3    C6 9209   0.362   3.401  13.887  0.0884 -0.0023 -0.6913
  618TMC3     C 9210   4.696   3.523  13.932 -0.0632 -0.1871  0.1385
  618TMC3     O 9211   4.623   3.450  14.002  0.7673 -0.2814  0.8812
  618TMC3     H 9212   0.050   3.271  13.927  0.6637 -0.5270  0.7625
  618TMC3    H1 9213   0.175   3.684  13.914  0.0108  0.8634 -1.8633
  618TMC3    H2 9214   0.462   3.374  13.856  0.3599 -1.7565  1.7474
  618TMC3    C7 9215   0.429   3.633  13.879 -0.3650 -0.1021  0.2937
  618TMC3    C8 9216   0.265   3.186  13.798  0.9990  0.5797 -0.1104
  618TMC3    O1 9217   0.436   3.723  13.957  0.1088 -0.0373 -0.2797
  618TMC3    O2 9218   0.165   3.122  13.785 -0.1637 -0.2506 -0.6845
  619MPD2     C 9219   1.132   0.047  13.462  0.1317  0.1408  0.2354
  619MPD2    C1 9220   1.021   0.111  13.413 -0.4852 -1.0509 -0.0354
  619MPD2    C2 9221   0.900   0.090  13.475  0.7069  0.2329 -0.8387
  619MPD2    C3 9222   0.885   0.006  13.581  0.4121  0.5706 -0.4288
  619MPD2    C4 9223   0.998   4.669  13.621 -0.0201 -0.2875  0.1892
  619MPD2    C5 9224   1.124   4.693  13.567 -0.3190 -0.4670 -0.4803
  619MPD2     H 9225   0.821   0.151  13.434  1.7281  2.0461 -0.1103
  619MPD2    H1 9226   0.996   4.595  13.701 -1.8847  0.0052  0.4276
  619MPD2    H2 9227   1.229   0.064  13.416  0.3909 -0.4240  0.5699
  619MPD2    H3 9228   1.216   4.653  13.609 -1.1680  0.0052  1.8421
  619MPD2     N 9229   0.765   0.006  13.660  0.5004  0.2473 -0.2395
  619MPD2    H5 9230   0.767   4.676  13.736  1.2244  1.1419  0.5242
  619MPD2    N1 9231   1.028   0.200  13.303  0.1580  0.5634  0.1253
  619MPD2    H7 9232   0.937   0.222  13.263 -0.3544 -0.7804  0.5367
  620TMC3    C1 9233   1.116   0.343  13.146 -0.0318  0.5239 -0.3920
  620TMC3    C2 9234   0.997   0.307  13.083 -0.1951 -0.2708 -0.0472
  620TMC3    C3 9235   0.908   0.403  13.051 -0.2986  0.0275 -0.0827
  620TMC3    C4 9236   1.138   0.476  13.182 -0.3206 -0.1876  0.5920
  620TMC3    C5 9237   1.048   0.576  13.145 -0.5227 -0.0328  0.5375
  620TMC3    C6 9238   0.942   0.539  13.062  0.4145  0.2537 -0.2116
  620TMC3     C 9239   1.143   0.252  13.257  0.4371  0.1055 -0.3796
  620TMC3     O 9240   1.252   0.268  13.309  0.1011  0.0744  0.5852
  620TMC3     H 9241   0.982   0.201  13.068  0.3376 -0.2050 -1.0307
  620TMC3    H1 9242   1.216   0.495  13.255  1.2165  1.4405 -1.4641
  620TMC3    H2 9243   0.869   0.615  13.038  0.9059  0.6453 -0.4645
  620TMC3    C7 9244   1.001   0.669  13.251  0.6969 -0.1999 -0.5481
  620TMC3    C8 9245   0.780   0.360  13.120 -0.0005  0.6227  0.3170
  620TMC3    O1 9246   0.910   0.750  13.222 -0.2453 -0.1125  0.2243
  620TMC3    O2 9247   0.793   0.271  13.201 -0.1308 -0.9754  0.2199
  621MPD2     C 9248   1.521   0.131  10.268 -0.0081  0.0402 -0.0043
  621MPD2    C1 9249   1.531   0.093  10.143 -0.2646 -0.2015  0.5674
  621MPD2    C2 9250   1.518   0.182  10.040 -0.3523 -0.4066  0.1172
  621MPD2    C3 9251   1.507   0.319  10.064 -0.8507 -0.1449 -0.6170
  621MPD2    C4 9252   1.510   0.356  10.195 -0.4736 -0.2908 -0.4481
  621MPD2    C5 9253   1.524   0.265  10.297 -0.4855 -0.1608 -0.7296
  621MPD2     H 9254   1.512   0.147   9.937  1.0757 -0.2349 -0.0314
  621MPD2    H1 9255   1.501   0.460  10.224 -0.4827 -1.2713  3.0952
  621MPD2    H2 9256   1.538   0.063  10.350 -1.8438  0.5293  0.7850
  621MPD2    H3 9257   1.532   0.300  10.399  0.6386 -0.9435 -0.5430
  621MPD2     N 9258   1.485   0.407   9.955 -0.1528  0.0051  0.3130
  621MPD2    H5 9259   1.478   0.358   9.866  0.4676  0.8047 -0.1682
  621MPD2    N1 9260   1.526   4.691  10.120  0.4589 -0.0411  0.4272
  621MPD2    H7 9261   1.497   4.637  10.200  0.7411  1.4881  1.5680
  622TMC3    C1 9262   1.530   4.496   9.995 -0.2428 -0.3015 -0.3278
  622TMC3    C2 9263   1.401   4.463  10.026  0.0548 -0.2742 -0.6412
  622TMC3    C3 9264   1.337   4.368   9.948  0.8114 -0.2496  0.0650
  622TMC3    C4 9265   1.597   4.417   9.905 -0.2679  0.3214 -0.4177
  622TMC3    C5 9266   1.532   4.314   9.839  0.1062  0.1826 -0.4200
  622TMC3    C6 9267   1.399   4.295   9.859 -0.3590  0.4295 -0.3957
  622TMC3     C 9268   1.565   4.635   9.997  0.4360 -0.1688  0.1305
  622TMC3     O 9269   1.621   4.677   9.894  0.8548  0.3651 -0.2232
  622TMC3     H 9270   1.340   4.521  10.095  0.1167  1.2693 -1.8895
  622TMC3    H1 9271   1.699   4.439   9.876 -0.0890 -0.6843 -0.5406
  622TMC3    H2 9272   1.338   4.217   9.814  1.2394 -0.0376 -1.7620
  622TMC3    C7 9273   1.598   4.256   9.729 -0.4720 -0.3383  0.4505
  622TMC3    C8 9274   1.196   4.354   9.961 -0.4554  0.0856  0.2647
  622TMC3    O1 9275   1.721   4.261   9.723  0.0002 -0.3338 -0.5367
  622TMC3    O2 9276   1.148   4.244   9.942 -0.5970 -0.0997 -0.2100
  623MPD2     C 9277   0.310   0.522  16.142 -0.2358  0.2712  0.1601
  623MPD2    C1 9278   0.245   0.616  16.218  0.1554  0.0105 -0.6440
  623MPD2    C2 9279   0.321   0.706  16.293  0.2632  0.1467 -0.0029
  623MPD2    C3 9280   0.459   0.704  16.288  0.3587 -0.4380 -1.1668
  623MPD2    C4 9281   0.529   0.610  16.211 -0.2473  0.4074  0.0839
  623MPD2    C5 9282   0.446   0.520  16.143 -0.0817  0.1565 -0.7857
  623MPD2     H 9283   0.267   0.778  16.353 -3.2042 -2.4775 -0.0118
  623MPD2    H1 9284   0.636   0.598  16.214 -0.1763  1.3911  1.3008
  623MPD2    H2 9285   0.254   0.456  16.076  2.4272 -0.4274 -1.4028
  623MPD2    H3 9286   0.496   0.441  16.088  1.9787  0.0459  1.2285
  623MPD2     N 9287   0.512   0.799  16.379  0.0414 -0.3111 -0.2929
  623MPD2    H5 9288   0.445   0.851  16.435  2.6257  1.8257  0.8433
  623MPD2    N1 9289   0.106   0.645  16.217 -0.5898  0.4801  0.0815
  623MPD2    H7 9290   0.078   0.712  16.288  0.4730  0.4915  0.4765
  624TMC3    C1 9291   0.741   0.939  16.712  0.2184 -0.2826 -0.0794
  624TMC3    C2 9292   0.637   1.019  16.750 -0.2044 -0.3621  0.3381
  624TMC3    C3 9293   0.539   1.044  16.656 -0.1847  0.0782 -0.1480
  624TMC3    C4 9294   0.763   0.893  16.586 -0.6080  0.4615 -1.2330
  624TMC3    C5 9295   0.665   0.922  16.497  0.3953  0.5115  0.2154
  624TMC3    C6 9296   0.555   1.003  16.529  0.0336 -0.6510 -0.4584
  624TMC3     C 9297   0.834   0.897  16.816 -0.5062  0.6904  0.4277
  624TMC3     O 9298   0.864   0.978  16.906 -0.0376  0.2175  0.0736
  624TMC3     H 9299   0.603   1.049  16.848 -1.0528  1.1171 -0.3983
  624TMC3    H1 9300   0.831   0.815  16.552 -0.3272 -0.5457  1.6717
  624TMC3    H2 9301   0.466   1.018  16.468 -1.5875  1.5021  2.3915
  624TMC3    C7 9302   0.637   0.828  16.396 -0.3933 -0.6926 -0.4832
  624TMC3    C8 9303   0.405   1.017  16.690 -0.9815 -0.1434 -0.1237
  624TMC3    O1 9304   0.735   0.779  16.339  0.2185  0.2109  0.3739
  624TMC3    O2 9305   0.360   0.915  16.639  0.2162  0.1550 -0.0765
  625MPD2     C 9306   0.438   2.479   1.110 -0.8356  0.9765 -0.0985
  625MPD2    C1 9307   0.495   2.605   1.098 -0.3099  0.4553 -0.1207
  625MPD2    C2 9308   0.632   2.614   1.082 -0.1937 -0.2074  0.2651
  625MPD2    C3 9309   0.718   2.504   1.109 -0.7596  0.3043  0.7814
  625MPD2    C4 9310   0.656   2.387   1.132 -0.5814  0.0118 -0.3926
  625MPD2    C5 9311   0.520   2.376   1.127  0.3276 -0.1124 -0.1812
  625MPD2     H 9312   0.672   2.713   1.065  0.4368 -0.4865  0.1074
  625MPD2    H1 9313   0.708   2.293   1.143  2.2905  1.5608 -0.7283
  625MPD2    H2 9314   0.331   2.470   1.119 -0.5867  1.9422  3.7939
  625MPD2    H3 9315   0.480   2.275   1.133  0.6944 -0.1445  1.8025
  625MPD2     N 9316   0.865   2.519   1.126 -0.5214  0.5481 -0.3157
  625MPD2    H5 9317   0.902   2.612   1.106 -0.6260  0.7567  0.4464
  625MPD2    N1 9318   0.414   2.720   1.087  0.5030 -0.2822  0.1533
  625MPD2    H7 9319   0.459   2.805   1.055 -0.5357 -0.0178 -0.5801
  626TMC3    C1 9320   0.208   2.810   1.045 -0.0180 -0.1165  0.1200
  626TMC3    C2 9321   0.265   2.855   0.921  0.1861 -0.4984 -0.1051
  626TMC3    C3 9322   0.165   2.872   0.830  1.3118 -0.5779 -0.6005
  626TMC3    C4 9323   0.074   2.796   1.078 -0.4760  0.4342  0.1321
  626TMC3    C5 9324   4.725   2.830   0.975 -0.0954 -0.0917 -0.0174
  626TMC3    C6 9325   0.031   2.869   0.852 -0.5698  0.1302  0.3919
  626TMC3     C 9326   0.284   2.726   1.128 -0.0538 -0.1629  0.4026
  626TMC3     O 9327   0.233   2.661   1.217  1.0600 -0.4951  0.4243
  626TMC3     H 9328   0.368   2.855   0.889 -0.1736 -0.3370 -1.2713
  626TMC3    H1 9329   0.036   2.763   1.174  0.2687 -0.1741  0.2151
  626TMC3    H2 9330   4.693   2.899   0.778  0.3021  1.5700  0.0822
  626TMC3    C7 9331   4.583   2.809   1.000  0.1826  0.1440  0.4781
  626TMC3    C8 9332   0.201   2.923   0.693 -0.5843  0.2898 -0.0976
  626TMC3    O1 9333   4.551   2.766   1.111  0.2229  0.4440  0.1726
  626TMC3    O2 9334   0.128   2.895   0.600  0.1810 -0.3064 -0.1695
  627MPD2     C 9335   3.561   2.440  14.339  0.3312  0.1552 -0.7767
  627MPD2    C1 9336   3.546   2.433  14.476 -0.1372 -0.3750 -0.3344
  627MPD2    C2 9337   3.445   2.355  14.528 -0.6196 -0.2596 -0.4332
  627MPD2    C3 9338   3.370   2.269  14.445  0.3411  0.1307  0.5800
  627MPD2    C4 9339   3.383   2.293  14.305  0.1320  0.6193 -0.8566
  627MPD2    C5 9340   3.479   2.371  14.258  0.8706 -0.5769  0.0997
  627MPD2     H 9341   3.445   2.341  14.635  2.4785 -1.7829 -0.6337
  627MPD2    H1 9342   3.324   2.233  14.237 -0.4146  0.0043  0.1520
  627MPD2    H2 9343   3.651   2.485  14.299  2.2510 -0.8833  2.3938
  627MPD2    H3 9344   3.485   2.380  14.150  0.3086 -0.6472  0.0629
  627MPD2     N 9345   3.278   2.177  14.496  0.2646  0.1342 -0.2037
  627MPD2    H5 9346   3.267   2.181  14.597 -0.7719  0.8486 -0.3514
  627MPD2    N1 9347   3.634   2.499  14.569 -0.3967 -0.3454  0.3204
  627MPD2    H7 9348   3.630   2.482  14.669 -3.2047  0.2478  0.3174
  628TMC3    C1 9349   3.826   2.621  14.633  0.1030 -0.2512 -0.3417
  628TMC3    C2 9350   3.877   2.526  14.708 -0.7606 -0.1966  0.0717
  628TMC3    C3 9351   3.995   2.535  14.770 -0.2410 -0.1968  0.8704
  628TMC3    C4 9352   3.905   2.732  14.608 -0.0791 -0.0318 -0.4298
  628TMC3    C5 9353   4.030   2.731  14.673  0.5770 -0.7244 -0.7455
  628TMC3    C6 9354   4.090   2.631  14.746 -0.0024 -0.5786 -0.5070
  628TMC3     C 9355   3.725   2.592  14.531 -0.2873  0.5208  0.2200
  628TMC3     O 9356   3.738   2.659  14.432  0.1449 -0.3689 -0.5062
  628TMC3     H 9357   3.820   2.435  14.722 -0.2399 -0.6174 -0.5104
  628TMC3    H1 9358   3.888   2.813  14.538 -0.2714  0.3293  0.0255
  628TMC3    H2 9359   4.165   2.657  14.819 -1.8342  1.4800  0.6520
  628TMC3    C7 9360   4.116   2.834  14.634  0.2921 -0.2121 -0.5887
  628TMC3    C8 9361   4.032   2.422  14.856  0.4521 -0.4372 -0.3512
  628TMC3    O1 9362   4.230   2.803  14.612  0.7506  0.2589  0.0635
  628TMC3    O2 9363   3.946   2.353  14.912  0.2212  0.7335 -0.0198
  629MPD2     C 9364   2.511   1.843  16.258 -0.0954 -0.2949  0.0289
  629MPD2    C1 9365   2.501   1.734  16.337 -0.0745  0.0672 -0.9867
  629MPD2    C2 9366   2.392   1.720  16.416 -0.0488  0.2728  0.7325
  629MPD2    C3 9367   2.292   1.821  16.425  0.6405  0.1513  0.2091
  629MPD2    C4 9368   2.300   1.923  16.335 -0.4568  0.4991 -0.2207
  629MPD2    C5 9369   2.409   1.932  16.254 -0.4556  0.6155 -0.3608
  629MPD2     H 9370   2.391   1.641  16.490  0.7033 -0.8344 -0.4491
  629MPD2    H1 9371   2.232   2.008  16.331  1.4596  2.0763  0.7297
  629MPD2    H2 9372   2.606   1.873  16.215 -0.4576  2.6273  1.2954
  629MPD2    H3 9373   2.416   2.020  16.191  1.9297  0.0265 -0.9092
  629MPD2     N 9374   2.211   1.823  16.537 -0.2783 -0.1586 -0.1327
  629MPD2    H5 9375   2.234   1.759  16.613 -1.6392  1.2415  1.4784
  629MPD2    N1 9376   2.610   1.644  16.348 -0.1550  0.2270  0.3375
  629MPD2    H7 9377   2.693   1.676  16.298 -0.3823  2.7362  1.5606
  630TMC3    C1 9378   2.777   1.499  16.438 -0.3289 -0.6559  0.2246
  630TMC3    C2 9379   2.838   1.488  16.315 -0.3262  0.1578  0.2478
  630TMC3    C3 9380   2.950   1.419  16.311 -0.4406  0.3236 -0.1039
  630TMC3    C4 9381   2.815   1.428  16.544 -0.6032 -0.1599  0.4387
  630TMC3    C5 9382   2.926   1.351  16.532 -0.0641  1.2711 -0.0094
  630TMC3    C6 9383   3.007   1.356  16.422  0.4363  0.6863 -0.3377
  630TMC3     C 9384   2.636   1.549  16.441  0.4550 -0.2949  0.6970
  630TMC3     O 9385   2.573   1.505  16.539  0.1165 -0.0434 -0.0738
  630TMC3     H 9386   2.796   1.542  16.230 -0.7124  0.9888  0.9667
  630TMC3    H1 9387   2.758   1.425  16.636 -0.0911  0.7110  0.7810
  630TMC3    H2 9388   3.089   1.286  16.408  1.4902  1.2368  3.0589
  630TMC3    C7 9389   2.920   1.234  16.616  0.2517  0.1168  0.0529
  630TMC3    C8 9390   3.033   1.441  16.197  0.1001 -0.1156  0.1404
  630TMC3    O1 9391   2.820   1.226  16.688 -0.1829  0.0492 -0.1722
  630TMC3    O2 9392   3.089   1.341  16.153  0.2776 -0.3856  0.1271
  631MPD2     C 9393   1.108   0.984  15.574  0.4559 -0.8141  0.3949
  631MPD2    C1 9394   1.129   1.120  15.592 -0.2043 -0.1710 -0.8365
  631MPD2    C2 9395   1.209   1.163  15.695  0.1357 -0.2974  0.1098
  631MPD2    C3 9396   1.282   1.075  15.773 -0.0862 -0.4903 -0.6314
  631MPD2    C4 9397   1.257   0.939  15.761  0.2195 -0.0733  0.0036
  631MPD2    C5 9398   1.171   0.898  15.663  0.3177 -0.4409  0.0615
  631MPD2     H 9399   1.241   1.267  15.703  2.6904 -1.1890  1.5235
  631MPD2    H1 9400   1.304   0.862  15.822 -0.9912 -2.2619 -1.8218
  631MPD2    H2 9401   1.040   0.948  15.497 -1.0924  1.0502  0.8884
  631MPD2    H3 9402   1.170   0.791  15.643  2.2486 -0.7454  1.6773
  631MPD2     N 9403   1.385   1.129  15.853  0.1940 -0.9699 -0.3049
  631MPD2    H5 9404   1.393   1.230  15.851 -0.6962 -0.8539  2.0476
  631MPD2    N1 9405   1.056   1.208  15.513  0.0118 -0.2181 -0.4724
  631MPD2    H7 9406   1.010   1.166  15.433  1.2203 -1.3460 -0.5839
  632TMC3    C1 9407   0.943   1.406  15.447 -0.1305 -0.0928 -0.3910
  632TMC3    C2 9408   0.859   1.501  15.491  0.3308 -0.2369  0.2458
  632TMC3    C3 9409   0.824   1.599  15.406  0.3804  0.5051  0.1249
  632TMC3    C4 9410   1.002   1.405  15.324  0.8062 -0.1530  0.4341
  632TMC3    C5 9411   0.970   1.509  15.242 -0.8182  0.1192  0.0897
  632TMC3    C6 9412   0.886   1.605  15.283 -0.0710 -0.0473  0.2396
  632TMC3     C 9413   1.012   1.329  15.555 -0.2261  0.3073 -0.0625
  632TMC3     O 9414   1.020   1.382  15.665  0.3972 -0.2523  0.1232
  632TMC3     H 9415   0.824   1.499  15.594  0.7244 -0.6421  0.3728
  632TMC3    H1 9416   1.089   1.344  15.304 -0.1417 -1.8292  1.3636
  632TMC3    H2 9417   0.859   1.685  15.215 -0.7296  0.6978  1.3718
  632TMC3    C7 9418   0.964   1.484  15.094 -0.2657 -0.5788 -0.0902
  632TMC3    C8 9419   0.690   1.640  15.420  0.8605 -0.3534  0.1870
  632TMC3    O1 9420   0.885   1.562  15.041 -0.7658 -0.4056  0.4249
  632TMC3    O2 9421   0.621   1.592  15.510 -0.1350 -0.3639  0.0907
  633MPD2     C 9422   0.355   4.120  17.580 -0.0525  0.3742  0.5052
  633MPD2    C1 9423   0.342   4.067  17.449  0.5702  1.0784 -0.3059
  633MPD2    C2 9424   0.286   3.939  17.434  0.0849  0.1212 -0.5630
  633MPD2    C3 9425   0.263   3.866  17.549  0.0824 -0.2680 -0.1177
  633MPD2    C4 9426   0.272   3.919  17.675  0.5858  0.5248 -0.2487
  633MPD2    C5 9427   0.319   4.043  17.685  0.1964 -0.2331  0.0219
  633MPD2     H 9428   0.290   3.890  17.337  2.5228 -1.4640  0.3343
  633MPD2    H1 9429   0.251   3.857   0.015  1.1196 -0.9909 -1.1940
  633MPD2    H2 9430   0.402   4.217  17.593  0.5534  0.4027 -1.7185
  633MPD2    H3 9431   0.335   4.072   0.043  2.9572  2.6368 -1.2322
  633MPD2     N 9432   0.229   3.729  17.554 -0.2822  0.2861  0.1055
  633MPD2    H5 9433   0.227   3.685  17.645  0.0923  0.7753  0.3506
  633MPD2    N1 9434   0.377   4.138  17.333  0.1518  0.6355 -0.3254
  633MPD2    H7 9435   0.365   4.095  17.242 -1.2459  3.4672 -1.4769
  634TMC3    C1 9436   0.502   4.277  17.207 -0.0289  0.3815  0.5272
  634TMC3    C2 9437   0.554   4.165  17.143  0.0591 -0.2044  0.7062
  634TMC3    C3 9438   0.635   4.190  17.030  0.4126  0.0585  0.2739
  634TMC3    C4 9439   0.516   4.406  17.166  0.0758  0.3717 -0.2561
  634TMC3    C5 9440   0.595   4.423  17.052 -0.6935 -0.3068 -0.5354
  634TMC3    C6 9441   0.659   4.321  16.989  0.7950 -0.0351  0.4340
  634TMC3     C 9442   0.445   4.262  17.338 -0.0728 -0.3560 -0.1047
  634TMC3     O 9443   0.446   4.353  17.422 -0.0100 -0.4838  0.0484
  634TMC3     H 9444   0.572   4.075  17.201  1.8383  0.4132  1.1248
  634TMC3    H1 9445   0.460   4.479  17.223  0.1269  0.0075  0.2635
  634TMC3    H2 9446   0.729   4.340  16.908  1.0695  1.5034  1.0107
  634TMC3    C7 9447   0.568   4.541  16.959 -0.1124 -0.7165  0.3566
  634TMC3    C8 9448   0.681   4.076  16.947  0.4196  0.1258 -0.0368
  634TMC3    O1 9449   0.616   4.518  16.849  0.5350  0.1419  0.0439
  634TMC3    O2 9450   0.637   3.965  16.971 -0.2036  0.1436  0.1842
  635TMC3    C1 9451   0.551   0.357   0.706  0.0448 -0.5802 -0.0348
  635TMC3    C2 9452   0.484   0.249   0.759 -0.5963  0.1752 -0.1733
  635TMC3    C3 9453   0.521   0.123   0.708  0.9805  0.7647 -0.2298
  635TMC3    C4 9454   0.636   0.340   0.600  0.0339 -0.1840  0.0932
  635TMC3    C5 9455   0.676   0.222   0.560  0.2466 -0.9391  0.3222
  635TMC3    C6 9456   0.616   0.109   0.610 -0.2024 -0.0089  0.3287
  635TMC3     C 9457   0.527   0.480   0.788 -0.3697 -0.3746 -0.1254
  635TMC3     O 9458   0.460   0.472   0.889  0.0966  0.2515  0.6408
  635TMC3     H 9459   0.419   0.266   0.844  0.1774 -1.2847  0.7084
  635TMC3    H1 9460   0.690   0.428   0.567  0.2454 -1.4528 -2.9947
  635TMC3    H2 9461   0.631   0.011   0.566  0.4664  0.3984 -0.3569
  635TMC3    C7 9462   0.766   0.203   0.447 -0.2588  0.1826 -0.1050
  635TMC3    C8 9463   0.471   0.011   0.783 -0.6292 -0.3907 -0.6100
  635TMC3    O1 9464   0.799   0.088   0.412 -0.2149 -0.2813 -0.0905
  635TMC3    O2 9465   0.536   4.641   0.777 -0.3680  0.5655  0.1864
  636MPD2     C 9466   1.795   4.097  16.184  0.6494  0.4088  0.7082
  636MPD2    C1 9467   1.784   4.096  16.318  0.3881  0.3428 -0.2259
  636MPD2    C2 9468   1.779   3.970  16.381 -1.3750 -0.2462 -0.4874
  636MPD2    C3 9469   1.790   3.851  16.307 -0.0133  0.0138  0.1020
  636MPD2    C4 9470   1.805   3.862  16.174 -0.1337 -0.3245  0.4711
  636MPD2    C5 9471   1.799   3.981  16.105 -0.2089  0.3149 -0.2019
  636MPD2     H 9472   1.786   3.972  16.489  0.8221  0.5862 -0.6417
  636MPD2    H1 9473   1.825   3.771  16.118 -3.4022 -1.6361  1.4111
  636MPD2    H2 9474   1.794   4.190  16.127 -2.0698 -1.5080 -2.4220
  636MPD2    H3 9475   1.807   3.996  15.998  1.5794  0.4064 -0.0591
  636MPD2     N 9476   1.802   3.735  16.378  0.0750  0.1432  0.4492
  636MPD2    H5 9477   1.808   3.749  16.479  1.7211 -0.3916  0.4337
  636MPD2    N1 9478   1.774   4.215  16.399  0.1116  0.2064 -0.3126
  636MPD2    H7 9479   1.738   4.205  16.493 -2.3442  1.2723 -1.1379
  637TMC3    C1 9480   1.866   3.515  16.420 -0.0461  0.2803 -0.0662
  637TMC3    C2 9481   1.912   3.573  16.539  0.3095  0.1027  0.6832
  637TMC3    C3 9482   2.050   3.554  16.569  0.2734 -1.1079  1.1362
  637TMC3    C4 9483   1.930   3.411  16.366 -0.1048 -0.7356  0.1115
  637TMC3    C5 9484   2.056   3.385  16.410 -0.0750  0.6436 -0.3532
  637TMC3    C6 9485   2.122   3.455  16.507  0.3976 -0.3382  0.7158
  637TMC3     C 9486   1.809   3.604  16.328 -0.5911 -0.1785  0.0861
  637TMC3     O 9487   1.793   3.568  16.213  0.3149  0.4175  0.0589
  637TMC3     H 9488   1.849   3.640  16.596 -0.9548 -0.2045 -0.3517
  637TMC3    H1 9489   1.893   3.359  16.278  0.0539 -2.0704  0.8229
  637TMC3    H2 9490   2.225   3.428  16.529  0.2590 -1.6285 -0.1697
  637TMC3    C7 9491   2.141   3.364  16.295  0.1124 -0.7624  0.0047
  637TMC3    C8 9492   2.111   3.680  16.587  0.3298 -0.0137 -0.2371
  637TMC3    O1 9493   2.099   3.291  16.211 -0.3437  0.0857  0.1842
  637TMC3    O2 9494   2.203   3.690  16.505 -0.6589  0.0642 -0.3399
  638MPD2     C 9495   1.606   3.051  14.745 -0.2875 -0.3376 -0.2153
  638MPD2    C1 9496   1.542   2.948  14.682  0.0661 -0.0870  0.0649
  638MPD2    C2 9497   1.405   2.934  14.704 -0.1080  0.1720 -0.5246
  638MPD2    C3 9498   1.336   3.018  14.795 -0.4114  0.8184  0.3343
  638MPD2    C4 9499   1.403   3.128  14.853 -0.2530  0.1927 -0.1578
  638MPD2    C5 9500   1.535   3.144  14.825  0.1267 -0.0551  0.1522
  638MPD2     H 9501   1.346   2.853  14.663  0.1351  0.9014 -2.3210
  638MPD2    H1 9502   1.351   3.202  14.912 -1.3382 -1.9406  1.5500
  638MPD2    H2 9503   1.709   3.079  14.730  0.0862 -2.1187 -0.9413
  638MPD2    H3 9504   1.582   3.236  14.860 -0.4014  1.1455 -2.3129
  638MPD2     N 9505   1.196   2.987  14.826  0.3123  0.3858  0.3386
  638MPD2    H5 9506   1.156   2.904  14.784 -0.1416  0.6759  0.1998
  638MPD2    N1 9507   1.628   2.856  14.617  0.0857  0.3889  0.2681
  638MPD2    H7 9508   1.726   2.881  14.608 -0.1089  1.5675  1.3913
  639TMC3    C1 9509   1.016   2.962  14.982  0.0954 -0.5168 -0.1581
  639TMC3    C2 9510   0.971   2.859  14.902  0.2252  0.8290 -0.5309
  639TMC3    C3 9511   0.922   2.746  14.962 -0.2590  0.6252 -0.2426
  639TMC3    C4 9512   1.001   2.954  15.121 -0.6791 -0.2733 -0.2083
  639TMC3    C5 9513   0.963   2.836  15.179  0.0829 -0.0813  0.0054
  639TMC3    C6 9514   0.929   2.731  15.102 -0.6387 -0.3622 -0.6472
  639TMC3     C 9515   1.131   3.042  14.935  0.5164 -0.7298  0.1552
  639TMC3     O 9516   1.163   3.136  15.006  1.0602  0.1575  0.4621
  639TMC3     H 9517   0.972   2.874  14.795 -1.5451  0.6104 -0.5627
  639TMC3    H1 9518   1.038   3.027  15.192 -1.1819 -0.3009  0.0867
  639TMC3    H2 9519   0.907   2.634  15.145  2.5817 -0.9305 -0.2739
  639TMC3    C7 9520   1.044   2.801  15.293  0.0769  0.3298  0.0597
  639TMC3    C8 9521   0.872   2.635  14.882  0.1231 -0.7840 -0.4367
  639TMC3    O1 9522   1.033   2.873  15.391 -0.3441  0.0221  0.1202
  639TMC3    O2 9523   0.903   2.629  14.762 -0.2483  0.3149 -0.6480
  640MPD2     C 9524   1.995   1.886  10.129 -0.1831  0.1783  0.2371
  640MPD2    C1 9525   1.863   1.898  10.149 -0.0393 -0.3670  0.5394
  640MPD2    C2 9526   1.827   2.012  10.207 -0.0336 -0.7132  0.0329
  640MPD2    C3 9527   1.908   2.115  10.238 -0.5124  0.3451  0.3258
  640MPD2    C4 9528   2.043   2.101  10.212 -0.7871 -0.2054  0.4110
  640MPD2    C5 9529   2.084   1.988  10.151  0.6648  0.3835  0.3258
  640MPD2     H 9530   1.720   2.015  10.219 -0.0211 -1.9466  0.4059
  640MPD2    H1 9531   2.113   2.182  10.229  0.1786 -1.4916  2.5526
  640MPD2    H2 9532   2.037   1.793  10.093  1.2831  1.1884 -0.6741
  640MPD2    H3 9533   2.188   1.973  10.122 -0.1856  0.3997 -2.7257
  640MPD2     N 9534   1.866   2.239  10.293  0.5647  0.2829  0.5165
  640MPD2    H5 9535   1.930   2.317  10.300  2.0420 -0.7157 -1.7296
  640MPD2    N1 9536   1.780   1.798  10.098 -0.2690 -0.4854 -0.2590
  640MPD2    H7 9537   1.821   1.710  10.068  1.0531  0.1695 -0.3289
  641TMC3    C1 9538   1.600   1.692   9.998 -0.3411  0.3067  0.3375
  641TMC3    C2 9539   1.674   1.579  10.021  0.0544  0.5998 -0.0601
  641TMC3    C3 9540   1.662   1.483   9.925  0.5640  0.4438  0.1661
  641TMC3    C4 9541   1.532   1.719   9.878 -0.5577 -0.3318  0.5054
  641TMC3    C5 9542   1.533   1.625   9.782 -0.1923  0.2382  0.8070
  641TMC3    C6 9543   1.592   1.506   9.805 -0.5042 -0.1224 -0.5038
  641TMC3     C 9544   1.645   1.808  10.066  0.1476 -0.0448  0.4262
  641TMC3     O 9545   1.568   1.906  10.072 -0.0408 -0.3002 -0.1153
  641TMC3     H 9546   1.698   1.543  10.121  2.1067 -0.6403 -0.9888
  641TMC3    H1 9547   1.485   1.814   9.857 -0.2547 -1.1563 -3.8879
  641TMC3    H2 9548   1.560   1.424   9.741 -0.6161 -1.6612  1.5268
  641TMC3    C7 9549   1.503   1.666   9.646  0.5118  0.1087 -0.4930
  641TMC3    C8 9550   1.735   1.358   9.933  0.4894  0.2325  0.4010
  641TMC3    O1 9551   1.416   1.751   9.629  0.0241 -0.4063 -0.2165
  641TMC3    O2 9552   1.693   1.274   9.855  0.6873 -0.3912 -0.3939
  642TMC3    C1 9553   3.323   2.876  12.290 -0.2152  0.1433  0.2576
  642TMC3    C2 9554   3.428   2.871  12.206 -0.1710 -0.3905  0.6425
  642TMC3    C3 9555   3.444   2.760  12.129  0.0249  0.7112 -0.2752
  642TMC3    C4 9556   3.241   2.774  12.317  0.1998 -0.2441 -0.3687
  642TMC3    C5 9557   3.277   2.654  12.257 -0.0896 -0.0194 -0.6227
  642TMC3    C6 9558   3.368   2.651  12.152 -0.1616  0.3554 -0.2694
  642TMC3     C 9559   3.257   3.005  12.317  0.4217 -0.1110 -0.1762
  642TMC3     O 9560   3.331   3.097  12.286  0.3737 -0.0537  0.2060
  642TMC3     H 9561   3.502   2.950  12.205  0.5524 -1.0799 -1.9789
  642TMC3    H1 9562   3.176   2.786  12.403 -0.2912 -0.2459 -0.7411
  642TMC3    H2 9563   3.391   2.553  12.110  1.7667  0.2430  1.0215
  642TMC3    C7 9564   3.225   2.528  12.303 -0.5129  0.2914  0.4561
  642TMC3    C8 9565   3.561   2.729  12.055  0.2650 -0.3004 -0.2701
  642TMC3    O1 9566   3.176   2.456  12.218  0.3709 -0.6983  0.7249
  642TMC3    O2 9567   3.550   2.641  11.976 -0.3723  0.2171 -0.7063
  643TMC3    C1 9568   2.301   2.713   0.380  0.4804  0.0659 -0.0148
  643TMC3    C2 9569   2.259   2.842   0.348 -0.6033  0.5247  0.5234
  643TMC3    C3 9570   2.134   2.844   0.282 -0.6705 -0.2627 -0.6292
  643TMC3    C4 9571   2.225   2.598   0.347  0.0890 -0.0893  0.5110
  643TMC3    C5 9572   2.109   2.615   0.277 -0.0388  0.1822  0.5514
  643TMC3    C6 9573   2.066   2.736   0.247 -0.0150  0.0922  0.2469
  643TMC3     C 9574   2.415   2.705   0.478 -0.6370  0.4285  0.4152
  643TMC3     O 9575   2.457   2.811   0.513 -0.2256  0.0335  0.0616
  643TMC3     H 9576   2.318   2.932   0.366  0.1920 -0.1606  1.3299
  643TMC3    H1 9577   2.253   2.497   0.374  1.7479  0.5462  1.1514
  643TMC3    H2 9578   1.970   2.750   0.198  1.3744  3.3974 -1.5270
  643TMC3    C7 9579   2.045   2.513   0.193  1.1305 -0.5721 -0.3186
  643TMC3    C8 9580   2.086   2.964   0.230  0.6290 -0.5893  0.1445
  643TMC3    O1 9581   1.969   2.558   0.108  0.5324  0.2647 -0.2548
  643TMC3    O2 9582   2.035   3.048   0.303 -0.5808  0.7587 -0.5171
  644MPD2     C 9583   1.968   1.341   9.515  0.2829 -0.3670  0.0439
  644MPD2    C1 9584   2.005   1.433   9.417 -0.3507  0.3034  0.2205
  644MPD2    C2 9585   2.018   1.565   9.454  0.0697 -0.8609 -0.5129
  644MPD2    C3 9586   2.001   1.603   9.587  0.4391 -0.3325 -0.1064
  644MPD2    C4 9587   1.969   1.504   9.679  0.3593 -0.4284  0.4724
  644MPD2    C5 9588   1.950   1.376   9.642  0.0834 -0.0511  0.4909
  644MPD2     H 9589   2.060   1.640   9.388 -0.6074  2.0226  2.3159
  644MPD2    H1 9590   1.948   1.520   9.785  0.4936  1.2081  0.2533
  644MPD2    H2 9591   1.933   1.241   9.494  0.0830 -0.5795  1.4067
  644MPD2    H3 9592   1.921   1.294   9.706  0.9428 -0.9662 -0.2761
  644MPD2     N 9593   2.021   1.740   9.628  0.1808 -0.1604 -0.4412
  644MPD2    H5 9594   2.058   1.808   9.562  4.1271 -1.0210  0.8648
  644MPD2    N1 9595   2.025   1.389   9.290 -0.2110 -0.5670  0.0308
  644MPD2    H7 9596   2.012   1.290   9.271 -0.3476 -0.5656  0.1221
  645TMC3    C1 9597   2.037   1.923   9.761  0.2110 -0.2168  0.5906
  645TMC3    C2 9598   1.956   2.019   9.819 -0.0832 -0.1985  0.4197
  645TMC3    C3 9599   1.988   2.151   9.818  0.7792 -0.2760  0.2642
  645TMC3    C4 9600   2.160   1.954   9.713  0.0806  0.0206 -0.3979
  645TMC3    C5 9601   2.197   2.085   9.727 -0.3256  0.8256 -0.7563
  645TMC3    C6 9602   2.115   2.184   9.768  0.4562  0.3751 -0.0157
  645TMC3     C 9603   1.997   1.790   9.752  0.2713 -0.0177  0.4566
  645TMC3     O 9604   1.922   1.747   9.835  0.4636  0.1242 -0.1637
  645TMC3     H 9605   1.857   1.988   9.850 -1.0425  1.3564 -1.1186
  645TMC3    H1 9606   2.222   1.878   9.667 -0.2007  0.1718 -1.0310
  645TMC3    H2 9607   2.156   2.284   9.781 -0.5557  0.7500  0.2490
  645TMC3    C7 9608   2.311   2.125   9.648  0.1554  0.4814 -0.1236
  645TMC3    C8 9609   1.904   2.257   9.865 -0.8753 -0.2917 -0.4361
  645TMC3    O1 9610   2.403   2.045   9.626 -0.1313 -0.1145 -0.6630
  645TMC3    O2 9611   1.952   2.370   9.858 -0.1735  0.1018  0.7962
  646MPD2     C 9612   1.411   1.293  14.732  0.1367  0.4528 -0.3205
  646MPD2    C1 9613   1.400   1.399  14.816  0.4074  0.1344  0.0312
  646MPD2    C2 9614   1.348   1.522  14.779  1.0386  0.6050  0.4958
  646MPD2    C3 9615   1.306   1.540  14.653  0.2773  0.9070  0.3730
  646MPD2    C4 9616   1.314   1.441  14.563  0.4375 -0.5311 -0.5718
  646MPD2    C5 9617   1.351   1.310  14.603  0.1344 -0.4828  0.6219
  646MPD2     H 9618   1.340   1.601  14.852  0.0031  2.0742 -1.1961
  646MPD2    H1 9619   1.296   1.459  14.458  0.2397  0.0936 -0.4296
  646MPD2    H2 9620   1.454   1.197  14.759  0.8313  0.9498  0.3288
  646MPD2    H3 9621   1.357   1.231  14.530  1.8398  0.0683  0.1653
  646MPD2     N 9622   1.254   1.667  14.627  0.1201 -0.1990  0.3421
  646MPD2    H5 9623   1.259   1.737  14.701  0.4948  0.1898 -0.0531
  646MPD2    N1 9624   1.465   1.374  14.939 -0.0551 -0.3130 -0.3725
  646MPD2    H7 9625   1.516   1.287  14.949  0.2977 -0.1587 -0.8760
  647TMC3    C1 9626   1.528   1.377  15.162 -0.0719  0.0925 -0.7352
  647TMC3    C2 9627   1.473   1.376  15.283 -0.6473  0.4141  0.0308
  647TMC3    C3 9628   1.558   1.366  15.389  0.1421 -0.1722 -0.7761
  647TMC3    C4 9629   1.663   1.360  15.138 -0.3108 -0.3668 -0.0183
  647TMC3    C5 9630   1.733   1.336  15.246 -0.2253 -0.1384  0.0171
  647TMC3    C6 9631   1.694   1.357  15.371  0.3715  0.3049  0.8269
  647TMC3     C 9632   1.451   1.442  15.057 -0.3365 -0.1335  0.7342
  647TMC3     O 9633   1.385   1.538  15.090  0.2472  0.2644 -0.0528
  647TMC3     H 9634   1.367   1.362  15.295 -0.8563  0.9276 -1.1618
  647TMC3    H1 9635   1.704   1.348  15.038 -0.7873  1.0071 -0.3769
  647TMC3    H2 9636   1.759   1.338  15.455 -2.3517  0.0556  2.8704
  647TMC3    C7 9637   1.849   1.259  15.228 -0.0900 -0.8577 -0.5599
  647TMC3    C8 9638   1.518   1.265  15.488  0.3571 -0.2405  0.5070
  647TMC3    O1 9639   1.925   1.257  15.319 -0.1724  0.2680  0.3694
  647TMC3    O2 9640   1.580   1.268  15.597 -0.1750  0.0431 -0.0120
  648TMC3    C1 9641   1.090   3.881  16.377  0.5095  0.0560  0.2189
  648TMC3    C2 9642   1.087   3.745  16.362 -0.3756  0.2658  0.4749
  648TMC3    C3 9643   1.075   3.695  16.233 -0.1819 -0.9222 -0.5668
  648TMC3    C4 9644   1.053   3.964  16.277 -0.2049  0.0648 -0.6321
  648TMC3    C5 9645   1.020   3.907  16.156 -0.6643  0.0399  0.1496
  648TMC3    C6 9646   1.039   3.777  16.125 -0.3793  0.4091  0.8431
  648TMC3     C 9647   1.102   3.946  16.503 -0.0622  0.7992  0.1033
  648TMC3     O 9648   1.097   4.066  16.497 -0.1355  0.1082 -0.0405
  648TMC3     H 9649   1.120   3.680  16.443  0.5149  0.2133  0.0726
  648TMC3    H1 9650   1.068   4.071  16.285  1.1685 -0.1229 -0.5503
  648TMC3    H2 9651   1.016   3.741  16.025  2.6171 -1.2272  0.7433
  648TMC3    C7 9652   0.973   3.991  16.056  0.3210 -0.4691  0.3094
  648TMC3    C8 9653   1.126   3.563  16.208 -0.1619 -0.1705  0.4001
  648TMC3    O1 9654   0.981   3.954  15.940  0.0270 -0.2531  0.3898
  648TMC3    O2 9655   1.126   3.491  16.306 -0.7895  0.5455 -0.3389
  649TMC3    C1 9656   0.114   0.428  12.614  0.4014 -0.1813 -0.3888
  649TMC3    C2 9657   0.225   0.506  12.600 -0.3697 -0.2542  0.3794
  649TMC3    C3 9658   0.300   0.531  12.711 -0.1082  0.6051 -0.2313
  649TMC3    C4 9659   0.083   0.371  12.737 -0.3214 -0.5102 -0.2160
  649TMC3    C5 9660   0.153   0.410  12.847 -0.1962 -0.0257  1.0901
  649TMC3    C6 9661   0.263   0.490  12.833 -0.1955  0.5063  0.7242
  649TMC3     C 9662   0.017   0.412  12.497  0.0986  0.1458  1.1487
  649TMC3     O 9663   4.637   0.388  12.525 -0.3103 -0.7986  0.8277
  649TMC3     H 9664   0.238   0.563  12.509  3.6205 -0.0166  1.0657
  649TMC3    H1 9665   4.728   0.313  12.746 -1.3956  1.3479  0.8858
  649TMC3    H2 9666   0.322   0.514  12.921 -2.0305  1.3291  1.7447
  649TMC3    C7 9667   0.140   0.316  12.954 -0.5026  0.0257  0.1869
  649TMC3    C8 9668   0.400   0.633  12.702  0.0019  0.1501 -0.8782
  649TMC3    O1 9669   0.025   0.271  12.965  0.8913 -0.0991  0.3164
  649TMC3    O2 9670   0.429   0.687  12.810  0.3496 -0.1835  0.4672
  650TMC3    C1 9671   2.306   1.995  12.639 -0.3362 -0.1387 -0.2632
  650TMC3    C2 9672   2.191   2.063  12.586 -0.0037 -0.3152 -0.4557
  650TMC3    C3 9673   2.202   2.148  12.488  0.0148 -0.3553 -0.4965
  650TMC3    C4 9674   2.429   2.013  12.587  0.1086  0.4861 -0.5666
  650TMC3    C5 9675   2.446   2.096  12.477  0.3125  0.9167  0.0152
  650TMC3    C6 9676   2.331   2.168  12.436  0.0073 -0.2431 -0.0112
  650TMC3     C 9677   2.289   1.898  12.747  0.2918  0.3646 -0.5052
  650TMC3     O 9678   2.190   1.912  12.812  0.4056  0.1061 -0.1315
  650TMC3     H 9679   2.095   2.066  12.637 -0.8105 -1.4882 -1.8989
  650TMC3    H1 9680   2.511   1.971  12.644  0.6848 -1.9586 -3.1529
  650TMC3    H2 9681   2.322   2.224  12.344 -2.5828  0.8286  0.9078
  650TMC3    C7 9682   2.583   2.147  12.455  0.1195  0.0241 -0.9253
  650TMC3    C8 9683   2.114   2.261  12.491 -0.3512 -0.4607 -0.3841
  650TMC3    O1 9684   2.661   2.125  12.544  0.4228 -0.4393 -0.2324
  650TMC3    O2 9685   1.998   2.246  12.526 -0.0081 -0.1447  0.0257
  651MPD2     C 9686   1.598   4.118  10.174 -0.5728  0.2515  0.0377
  651MPD2    C1 9687   1.533   4.217  10.246 -0.3172 -0.4339  0.2598
  651MPD2    C2 9688   1.610   4.325  10.287  0.0675 -1.0920 -0.1527
  651MPD2    C3 9689   1.742   4.334  10.258 -0.4316  0.1936 -0.0019
  651MPD2    C4 9690   1.798   4.236  10.176  0.6123  0.3228  0.0885
  651MPD2    C5 9691   1.723   4.134  10.136 -0.1123  0.0892  0.1769
  651MPD2     H 9692   1.556   4.406  10.334  1.3873 -0.9966  1.1969
  651MPD2    H1 9693   1.900   4.241  10.140  1.1268 -0.8430  1.3452
  651MPD2    H2 9694   1.542   4.027  10.154 -0.0309  0.3678 -2.0272
  651MPD2    H3 9695   1.768   4.060  10.071  0.6007  1.5381 -0.9899
  651MPD2     N 9696   1.814   4.451  10.297  0.6740  0.4570 -0.4930
  651MPD2    H5 9697   1.762   4.519  10.351 -1.9043 -1.0333 -1.0874
  651MPD2    N1 9698   1.397   4.222  10.273 -0.7267  0.1149  0.0257
  651MPD2    H7 9699   1.364   4.301  10.327  0.8912  1.0694 -0.3592
  652TMC3    C1 9700   2.178   4.726  10.409  0.0839 -0.1944  0.0242
  652TMC3    C2 9701   2.124   4.605  10.375  0.1279  0.7668  0.4202
  652TMC3    C3 9702   1.995   4.600  10.330  0.3127  0.0374 -0.2197
  652TMC3    C4 9703   2.104   0.106  10.394  0.0819 -0.5929  0.0369
  652TMC3    C5 9704   1.975   0.091  10.348 -1.0166  0.1573  0.1439
  652TMC3    C6 9705   1.920   4.710  10.306 -0.1018 -0.2146  0.6302
  652TMC3     C 9706   2.278   4.719  10.522 -0.4123 -0.1224  0.0718
  652TMC3     O 9707   2.269   4.622  10.594  0.4416  0.2629 -0.1576
  652TMC3     H 9708   2.176   4.512  10.398  1.6704  1.3923 -0.4837
  652TMC3    H1 9709   2.141   0.207  10.406 -0.9001 -0.0569 -1.5349
  652TMC3    H2 9710   1.816   4.701  10.275  0.2167 -2.4980  0.1999
  652TMC3    C7 9711   1.887   0.203  10.347  0.1508 -0.3881 -0.1172
  652TMC3    C8 9712   1.950   4.474  10.284 -0.5645 -0.0085  0.4102
  652TMC3    O1 9713   1.824   0.226  10.246 -0.5127  0.6943  0.3612
  652TMC3    O2 9714   2.036   4.391  10.259 -0.2340  0.0183  0.1758
  653MPD2     C 9715   0.282   4.362   0.392  0.8743 -0.0912 -0.2359
  653MPD2    C1 9716   0.269   4.412   0.262 -0.4295  0.2631 -0.1228
  653MPD2    C2 9717   0.180   4.348   0.174 -0.1061 -0.2123 -0.2090
  653MPD2    C3 9718   0.114   4.233   0.208 -0.4944 -0.8435  0.1238
  653MPD2    C4 9719   0.127   4.187   0.336  0.4035 -0.2153 -0.3895
  653MPD2    C5 9720   0.206   4.254   0.429 -0.1052  0.1871 -0.9404
  653MPD2     H 9721   0.176   4.391   0.074 -0.7736 -2.4737 -1.1401
  653MPD2    H1 9722   0.085   4.092   0.368 -0.7752  0.7192  0.8521
  653MPD2    H2 9723   0.352   4.395   0.468  0.2044 -0.2038  0.4329
  653MPD2    H3 9724   0.215   4.208   0.526 -3.9645 -1.2381 -1.2821
  653MPD2     N 9725   0.042   4.170   0.105 -0.5507 -0.2054  0.0641
  653MPD2    H5 9726   0.024   4.228   0.024  0.2065 -1.0256 -0.6891
  653MPD2    N1 9727   0.333   4.529   0.210 -0.4892 -0.1237  0.1041
  653MPD2    H7 9728   0.293   4.570   0.126  0.1922  3.1271  1.3792
  654TMC3    C1 9729   4.648   4.015   0.005  0.1712 -0.5401 -0.3314
  654TMC3    C2 9730   4.598   4.102  17.660  0.1836  0.2771  0.2754
  654TMC3    C3 9731   4.540   4.051  17.546  0.0032 -0.0877 -0.2042
  654TMC3    C4 9732   4.648   3.880  17.720 -0.2323  0.5697  0.0074
  654TMC3    C5 9733   4.592   3.835  17.602  0.5129 -0.7126 -0.0536
  654TMC3    C6 9734   4.521   3.919  17.519  0.0987  0.4438  0.4381
  654TMC3     C 9735   4.731   4.039   0.114  0.4720 -0.4178 -0.3516
  654TMC3     O 9736   0.030   3.952   0.190  0.0747 -0.2410  0.7774
  654TMC3     H 9737   4.604   4.208  17.679  0.9204  0.1508  0.7467
  654TMC3    H1 9738   4.705   3.802   0.024 -1.5494 -0.2183  0.2803
  654TMC3    H2 9739   4.470   3.881  17.431 -0.8632 -0.1752  1.2600
  654TMC3    C7 9740   4.544   3.697  17.599  0.2715 -0.4290  0.3457
  654TMC3    C8 9741   4.480   4.140  17.447 -0.3788 -0.0416 -0.2473
  654TMC3    O1 9742   4.439   3.680  17.537  0.0428  0.1310 -0.2426
  654TMC3    O2 9743   4.403   4.082  17.374 -0.2423  0.1282 -0.0909
  655MPD2     C 9744   1.421   4.142  15.723 -0.0424 -0.3671 -0.0271
  655MPD2    C1 9745   1.336   4.244  15.681 -0.5832  0.0223  0.1688
  655MPD2    C2 9746   1.276   4.237  15.556  0.4258  0.7111  0.3166
  655MPD2    C3 9747   1.292   4.120  15.476 -0.0523 -0.3575  0.4955
  655MPD2    C4 9748   1.368   4.020  15.526 -0.0250 -0.1595 -0.0661
  655MPD2    C5 9749   1.422   4.029  15.656  0.5087  0.1994  0.1508
  655MPD2     H 9750   1.216   4.315  15.510 -0.2690  2.5106  4.3369
  655MPD2    H1 9751   1.387   3.929  15.469 -0.0437 -0.4996  0.4671
  655MPD2    H2 9752   1.471   4.151  15.819 -0.2822  0.1226  0.0481
  655MPD2    H3 9753   1.489   3.948  15.683  0.6455  0.8502  1.7309
  655MPD2     N 9754   1.227   4.095  15.354 -0.2879 -0.3871  1.1450
  655MPD2    H5 9755   1.239   4.004  15.310  1.3643  0.1611  0.4606
  655MPD2    N1 9756   1.330   4.364  15.750 -0.3179  0.6833 -0.6778
  655MPD2    H7 9757   1.288   4.443  15.701 -3.2115 -1.7045 -2.0498
  656TMC3    C1 9758   1.278   4.494  15.945  0.1180  0.0109  0.5284
  656TMC3    C2 9759   1.226   4.488  16.070  0.8480  0.0669  0.1904
  656TMC3    C3 9760   1.160   4.597  16.125  0.4401 -0.4243 -0.3870
  656TMC3    C4 9761   1.273   4.614  15.880  0.5717 -0.9632 -0.2187
  656TMC3    C5 9762   1.208   4.723  15.934  0.0308  0.4995  0.5307
  656TMC3    C6 9763   1.149   4.714  16.059  0.0039  0.6785 -0.2198
  656TMC3     C 9764   1.338   4.373  15.890  0.5274  0.5701  0.4128
  656TMC3     O 9765   1.367   4.288  15.972  0.2317  0.3036 -0.0859
  656TMC3     H 9766   1.230   4.394  16.124  1.6600  0.2284  0.4117
  656TMC3    H1 9767   1.324   4.628  15.785  0.0228  0.0849 -0.3651
  656TMC3    H2 9768   1.088   0.059  16.097 -0.9914 -0.7202  1.2190
  656TMC3    C7 9769   1.145   0.074  15.836 -0.2257  1.0214 -0.2200
  656TMC3    C8 9770   1.077   4.576  16.247 -0.0802  0.9090  0.2650
  656TMC3    O1 9771   1.201   0.106  15.735  0.0933  0.2761  0.6867
  656TMC3    O2 9772   1.062   4.461  16.278  0.7421  0.3707  0.3337
  657TMC3    C1 9773   0.040   3.768  15.311 -0.3069 -0.3613  0.4134
  657TMC3    C2 9774   0.123   3.842  15.391  0.1628  0.0149  0.7188
  657TMC3    C3 9775   0.094   3.978  15.404  0.2138 -0.6640  0.2668
  657TMC3    C4 9776   4.659   3.814  15.257 -0.1968  0.3016  0.5672
  657TMC3    C5 9777   4.639   3.944  15.259 -0.6332 -0.1501 -0.7165
  657TMC3    C6 9778   4.719   4.030  15.338 -0.1468  0.0039 -0.1437
  657TMC3     C 9779   0.047   3.619  15.314  0.2253 -0.5315 -0.1316
  657TMC3     O 9780   4.686   3.547  15.304  0.7166  0.4896  0.4082
  657TMC3     H 9781   0.220   3.807  15.425  0.2877 -0.1140  0.2249
  657TMC3    H1 9782   4.605   3.750  15.188 -0.6270  2.8154 -1.4549
  657TMC3    H2 9783   4.684   4.130  15.358 -4.1698 -1.4173 -0.0363
  657TMC3    C7 9784   4.558   4.009  15.153  0.6624 -0.0665 -0.4151
  657TMC3    C8 9785   0.161   4.066  15.504  0.0359  0.0641  0.2291
  657TMC3    O1 9786   4.455   3.952  15.115 -0.1271 -0.1913  0.2586
  657TMC3    O2 9787   0.106   4.178  15.510  0.5731  0.6524  0.0792
  658MPD2     C 9788   1.514   3.767  14.923  0.1431  0.5368 -0.3000
  658MPD2    C1 9789   1.402   3.804  14.853  0.0235 -0.3088  0.1014
  658MPD2    C2 9790   1.396   3.771  14.713  0.3789  0.2996  0.3742
  658MPD2    C3 9791   1.505   3.705  14.655  0.0011  0.6138 -0.2500
  658MPD2    C4 9792   1.620   3.680  14.730  0.3309 -0.4079  0.2339
  658MPD2    C5 9793   1.628   3.721  14.861  0.2948 -0.0052  0.8541
  658MPD2     H 9794   1.308   3.778  14.651  0.2719  1.7707  0.6898
  658MPD2    H1 9795   1.710   3.635  14.689 -0.4222  0.4347 -2.3422
  658MPD2    H2 9796   1.529   3.790  15.028  1.3223  1.6074 -0.7169
  658MPD2    H3 9797   1.723   3.710  14.912  0.8421 -2.2760 -0.6119
  658MPD2     N 9798   1.484   3.665  14.514  0.6780 -0.1214 -0.7025
  658MPD2    H5 9799   1.398   3.682  14.463  0.4049 -1.8030 -0.8296
  658MPD2    N1 9800   1.309   3.874  14.927  0.7812 -0.1487  0.0290
  658MPD2    H7 9801   1.314   3.867  15.028 -1.7592  0.2764  0.1920
  659TMC3    C1 9802   1.112   3.988  14.980  0.1010  1.1876  0.7746
  659TMC3    C2 9803   1.160   4.029  15.108 -0.0453 -0.1099 -0.8572
  659TMC3    C3 9804   1.073   4.107  15.184  0.3289  0.0104 -0.0879
  659TMC3    C4 9805   0.997   4.043  14.924  0.0003 -0.6211  0.0600
  659TMC3    C5 9806   0.916   4.112  15.010 -0.4776 -0.2085  0.2296
  659TMC3    C6 9807   0.949   4.145  15.140 -0.1575  0.6404  0.4147
  659TMC3     C 9808   1.205   3.947  14.879  0.0619  0.1103  0.2896
  659TMC3     O 9809   1.179   3.968  14.760  0.3991  0.0773  0.5271
  659TMC3     H 9810   1.266   4.016  15.130 -0.1252  0.5445 -0.0950
  659TMC3    H1 9811   0.966   4.010  14.826  0.7704 -0.2488 -0.3147
  659TMC3    H2 9812   0.888   4.209  15.203  1.2516 -0.1339  2.5593
  659TMC3    C7 9813   0.782   4.126  14.995  0.1392  0.5772 -0.6863
  659TMC3    C8 9814   1.124   4.168  15.303 -0.2498  0.1121 -0.8991
  659TMC3    O1 9815   0.720   4.151  15.099 -0.1983 -0.4634  0.4294
  659TMC3    O2 9816   1.066   4.265  15.346  0.0301  0.0112  0.1054
  660MPD2     C 9817   4.218   2.923  12.393  0.6155  0.0605  0.1728
  660MPD2    C1 9818   4.124   3.015  12.436  0.2253  0.0359  0.1239
  660MPD2    C2 9819   4.057   2.997  12.561 -0.5494  0.0446  0.2455
  660MPD2    C3 9820   4.088   2.892  12.634  0.0694  0.0305  0.6169
  660MPD2    C4 9821   4.183   2.803  12.589  0.3946 -0.0739  0.4296
  660MPD2    C5 9822   4.258   2.826  12.474  0.0593  0.7966  0.3251
  660MPD2     H 9823   3.977   3.065  12.589  1.0630  1.4179  1.5172
  660MPD2    H1 9824   4.210   2.724  12.658 -0.9859 -1.2255 -0.3549
  660MPD2    H2 9825   4.270   2.932  12.298 -0.2516  1.3455 -0.1861
  660MPD2    H3 9826   4.332   2.758  12.435 -0.5488 -0.9849  2.2916
  660MPD2     N 9827   4.039   2.871  12.767  0.1136  0.4210 -0.0226
  660MPD2    H5 9828   4.066   2.782  12.808  2.4021  0.2065 -1.9900
  660MPD2    N1 9829   4.092   3.114  12.341 -0.4946  0.0232  0.6557
  660MPD2    H7 9830   4.159   3.116  12.264  0.1862  0.1864  1.2448
  661TMC3    C1 9831   3.992   3.277  12.221 -0.3870  0.0774  0.8663
  661TMC3    C2 9832   4.101   3.256  12.131  0.1748 -0.2137 -0.0289
  661TMC3    C3 9833   4.072   3.303  12.006 -0.6141  0.8011 -0.1886
  661TMC3    C4 9834   3.882   3.340  12.189 -0.3379 -0.3932  0.1901
  661TMC3    C5 9835   3.855   3.366  12.060  0.3017  0.3571  0.6240
  661TMC3    C6 9836   3.955   3.350  11.966 -0.3519 -0.1438 -0.2058
  661TMC3     C 9837   3.993   3.199  12.341 -0.3105  0.1082 -0.2993
  661TMC3     O 9838   3.903   3.214  12.418  0.2710 -0.1187  0.3911
  661TMC3     H 9839   4.197   3.209  12.147  0.4974  0.3004 -0.4850
  661TMC3    H1 9840   3.806   3.348  12.266 -0.8406 -1.2869 -0.2168
  661TMC3    H2 9841   3.921   3.356  11.863  0.7896 -1.4133 -0.6425
  661TMC3    C7 9842   3.718   3.359  12.020  0.4977  0.1416 -0.4922
  661TMC3    C8 9843   4.155   3.254  11.902  0.0394 -0.7671  0.2199
  661TMC3    O1 9844   3.645   3.417  12.099 -0.2994  0.2526  0.3452
  661TMC3    O2 9845   4.202   3.136  11.910  0.3652  0.1754  0.8403
  662MPD2     C 9846   4.585   2.463  16.788  0.7623 -0.0502 -0.1277
  662MPD2    C1 9847   4.496   2.435  16.884 -0.5356  0.4916  0.1596
  662MPD2    C2 9848   4.451   2.535  16.966 -0.2816  0.1144 -0.4966
  662MPD2    C3 9849   4.500   2.657  16.953 -0.0791  0.2629 -0.4908
  662MPD2    C4 9850   4.611   2.685  16.873  0.2270  0.1119  0.1118
  662MPD2    C5 9851   4.651   2.585  16.788  0.3481 -0.4083 -0.0205
  662MPD2     H 9852   4.365   2.519  17.031 -0.6996  0.9011 -0.8680
  662MPD2    H1 9853   4.657   2.783  16.869  0.6031 -0.1736 -2.2221
  662MPD2    H2 9854   4.627   2.390  16.720  0.3922 -2.3216  2.0875
  662MPD2    H3 9855   4.719   2.602  16.705 -0.2683 -0.3468 -0.5146
  662MPD2     N 9856   4.438   2.760  17.025 -0.0905 -0.0304  0.3201
  662MPD2    H5 9857   4.366   2.732  17.091  0.9994 -1.7494  0.7701
  662MPD2    N1 9858   4.425   2.320  16.884 -0.2142  0.3540  0.0586
  662MPD2    H7 9859   4.347   2.310  16.949  0.5197 -2.4928  0.4885
  663TMC3    C1 9860   4.386   2.085  16.871 -0.1137 -0.3130 -0.1010
  663TMC3    C2 9861   4.260   2.116  16.915  0.2320 -1.3341  1.1371
  663TMC3    C3 9862   4.199   2.039  17.008 -0.6906  0.5416 -0.3059
  663TMC3    C4 9863   4.461   1.991  16.932  0.6257  0.3058 -0.7858
  663TMC3    C5 9864   4.398   1.926  17.029 -0.2634  0.4532 -0.2324
  663TMC3    C6 9865   4.268   1.939  17.069  0.3203  0.0409  0.8875
  663TMC3     C 9866   4.475   2.203  16.838 -0.3087 -0.0009  0.3900
  663TMC3     O 9867   4.587   2.160  16.800 -0.4052 -0.3983  0.7665
  663TMC3     H 9868   4.204   2.185  16.853  0.4120 -1.0476  1.2925
  663TMC3    H1 9869   4.564   1.962  16.914  0.9167  0.3168  0.8563
  663TMC3    H2 9870   4.234   1.896  17.163  1.2167 -1.9751  0.2684
  663TMC3    C7 9871   4.462   1.819  17.098 -0.0278 -0.0284 -0.2461
  663TMC3    C8 9872   4.158   2.136  17.105  0.2341 -0.4741  0.7947
  663TMC3    O1 9873   4.577   1.835  17.134 -0.0134 -0.3235  0.4230
  663TMC3    O2 9874   4.202   2.247  17.086 -0.4944 -0.2108  0.1042
  664MPD2     C 9875   2.436   0.419  17.457  0.5088  0.5088  0.1358
  664MPD2    C1 9876   2.423   0.554  17.470  0.1905  0.2779 -0.3944
  664MPD2    C2 9877   2.366   0.607  17.586  0.1007  0.7126 -0.2296
  664MPD2    C3 9878   2.333   0.518  17.685 -0.4635  0.9587 -0.7582
  664MPD2    C4 9879   2.336   0.380  17.666  0.5841  0.7678  0.4646
  664MPD2    C5 9880   2.395   0.331  17.555 -0.1873  0.4099 -1.2661
  664MPD2     H 9881   2.349   0.713  17.592 -0.6059  0.4484  2.5628
  664MPD2    H1 9882   2.298   0.305  17.734  1.6735 -0.2583 -0.0526
  664MPD2    H2 9883   2.497   0.382  17.376  0.3288 -1.0110  0.6866
  664MPD2    H3 9884   2.390   0.227  17.525 -2.9584  0.4361 -0.8994
  664MPD2     N 9885   2.292   0.565   0.063 -0.0036  0.2510  0.7834
  664MPD2    H5 9886   2.269   0.663   0.070 -0.1883  0.2324  0.4106
  664MPD2    N1 9887   2.469   0.641  17.370 -0.1232 -0.6895  0.2457
  664MPD2    H7 9888   2.453   0.739  17.392 -1.7413 -1.2147  1.3765
  665TMC3    C1 9889   2.224   0.554   0.281  0.2869 -0.5218 -0.2671
  665TMC3    C2 9890   2.232   0.512   0.411 -0.0837  0.0854 -0.2208
  665TMC3    C3 9891   2.200   0.589   0.515 -0.1049  0.1357  0.2943
  665TMC3    C4 9892   2.172   0.678   0.262  0.2063  0.2043 -1.1405
  665TMC3    C5 9893   2.151   0.761   0.365 -0.3472 -0.5498  1.1370
  665TMC3    C6 9894   2.161   0.714   0.492  0.4095  0.6426 -0.7344
  665TMC3     C 9895   2.286   0.483   0.177  0.4955  0.0924  0.2550
  665TMC3     O 9896   2.324   0.370   0.209  0.1261 -0.2320  0.8022
  665TMC3     H 9897   2.252   0.406   0.427  0.5778  0.1488 -0.6612
  665TMC3    H1 9898   2.127   0.703   0.167  0.9345 -1.3435 -1.8935
  665TMC3    H2 9899   2.139   0.777   0.578  0.1696  1.9711 -1.7573
  665TMC3    C7 9900   2.126   0.905   0.345 -0.1486 -0.4109  0.2005
  665TMC3    C8 9901   2.239   0.552   0.647  0.0676  0.6935 -0.1729
  665TMC3    O1 9902   2.067   0.958   0.253  0.3844  0.1388 -0.0526
  665TMC3    O2 9903   2.291   0.638   0.714 -0.1696  0.0906  0.2955
  666TMC3    C1 9904   1.409   0.603   9.849 -0.1995 -0.0664 -0.0583
  666TMC3    C2 9905   1.458   0.564   9.727 -0.4685 -0.8267 -0.5592
  666TMC3    C3 9906   1.426   0.643   9.621 -0.2222  0.6662  0.4044
  666TMC3    C4 9907   1.328   0.710   9.865 -0.4428  0.2459  0.1535
  666TMC3    C5 9908   1.306   0.791   9.760  0.1909  0.2664 -0.0278
  666TMC3    C6 9909   1.344   0.761   9.630  0.3819  0.2750  0.4250
  666TMC3     C 9910   1.462   0.536   9.965 -0.2719  0.1780 -0.2329
  666TMC3     O 9911   1.450   0.602  10.066 -0.2074  0.4095  0.2066
  666TMC3     H 9912   1.543   0.496   9.723  0.6448  0.4766  1.2032
  666TMC3    H1 9913   1.295   0.741   9.964  0.7915  2.9076 -0.2781
  666TMC3    H2 9914   1.324   0.815   9.539  3.2429 -0.5500 -0.6916
  666TMC3    C7 9915   1.308   0.932   9.783  0.7500  0.5053  0.7506
  666TMC3    C8 9916   1.493   0.612   9.496 -0.3255  0.1417 -0.5417
  666TMC3    O1 9917   1.305   0.957   9.902  0.1950  0.0409  0.3468
  666TMC3    O2 9918   1.489   0.496   9.453 -0.3191  0.6483  0.4827
  667MPD2     C 9919   2.991   0.909  14.633 -0.0250 -0.4280  0.1783
  667MPD2    C1 9920   3.008   0.931  14.769  0.0371 -0.8221 -0.0698
  667MPD2    C2 9921   2.940   0.857  14.863 -0.0900 -0.2819  0.0360
  667MPD2    C3 9922   2.846   0.765  14.830  0.7007  0.0165 -0.1148
  667MPD2    C4 9923   2.825   0.747  14.695 -0.0456 -0.0513 -0.5722
  667MPD2    C5 9924   2.900   0.817  14.597 -0.1360 -0.0379  0.6582
  667MPD2     H 9925   2.953   0.874  14.969  0.9219  0.2744 -0.1692
  667MPD2    H1 9926   2.760   0.665  14.668  2.3091 -2.0990  0.0480
  667MPD2    H2 9927   3.046   0.961  14.555 -1.2118 -0.9195 -0.9844
  667MPD2    H3 9928   2.882   0.795  14.492  2.8736 -0.1016  0.1722
  667MPD2     N 9929   2.776   0.675  14.919  0.1033 -0.7830  0.0903
  667MPD2    H5 9930   2.710   0.610  14.877 -1.0027 -1.1278  2.3596
  667MPD2    N1 9931   3.099   1.023  14.825  0.2916 -0.1733  0.2273
  667MPD2    H7 9932   3.094   1.039  14.925 -1.3582  0.8395 -0.0116
  668TMC3    C1 9933   3.272   1.166  14.843 -0.2446 -0.6257  0.1624
  668TMC3    C2 9934   3.283   1.301  14.827  0.5769  0.3551  0.3576
  668TMC3    C3 9935   3.339   1.368  14.938 -0.7659 -0.7125 -0.5882
  668TMC3    C4 9936   3.306   1.102  14.959 -0.4936  0.3377  0.4682
  668TMC3    C5 9937   3.356   1.172  15.065 -0.5169 -0.0626 -0.8311
  668TMC3    C6 9938   3.369   1.308  15.056 -0.3133 -0.0805  0.4352
  668TMC3     C 9939   3.174   1.111  14.751 -0.6695  0.2108 -0.0414
  668TMC3     O 9940   3.180   1.142  14.629 -0.2053  0.1071 -0.1213
  668TMC3     H 9941   3.269   1.343  14.728  1.1431 -1.0571 -0.3223
  668TMC3    H1 9942   3.284   0.997  14.976 -0.0154  0.2209  0.3568
  668TMC3    H2 9943   3.423   1.366  15.130  1.4888 -1.2305  0.0338
  668TMC3    C7 9944   3.413   1.114  15.189 -0.0767  0.2653 -0.0482
  668TMC3    C8 9945   3.346   1.513  14.950 -0.4012 -0.3884  0.3552
  668TMC3    O1 9946   3.490   1.182  15.255 -0.3021  0.3181 -0.9859
  668TMC3    O2 9947   3.336   1.563  15.060  0.5268  0.1020  0.2658
  669TMC3    C1 9948   1.385   0.630  14.817  0.7976  0.3139 -0.2144
  669TMC3    C2 9949   1.272   0.592  14.750 -0.0586  0.1917  0.4032
  669TMC3    C3 9950   1.250   0.656  14.631 -0.4124  0.0526 -0.1993
  669TMC3    C4 9951   1.481   0.713  14.762 -0.0899 -0.0259  0.6401
  669TMC3    C5 9952   1.456   0.761  14.639 -0.0297 -0.1828 -0.6705
  669TMC3    C6 9953   1.343   0.735  14.569 -0.0263  0.2062 -0.2275
  669TMC3     C 9954   1.406   0.561  14.946 -0.2242  0.5719 -0.0879
  669TMC3     O 9955   1.308   0.510  14.995 -0.2410  0.0654 -0.2703
  669TMC3     H 9956   1.210   0.514  14.792 -0.2951  0.9435  1.4434
  669TMC3    H1 9957   1.569   0.748  14.815  0.8474  0.0588 -0.9692
  669TMC3    H2 9958   1.324   0.771  14.468  0.7276 -1.8663 -1.1060
  669TMC3    C7 9959   1.535   0.881  14.602  0.1393 -0.4201 -0.0436
  669TMC3    C8 9960   1.159   0.593  14.542 -0.0124 -0.4056  0.5727
  669TMC3    O1 9961   1.606   0.943  14.681 -0.4129 -0.0888 -0.3023
  669TMC3    O2 9962   1.188   0.589  14.426 -0.0847 -0.1141 -0.3102
  670MPD2     C 9963   4.213   3.337  13.637 -0.6301 -0.4871  0.3615
  670MPD2    C1 9964   4.315   3.261  13.687 -0.1545  0.6946 -0.4631
  670MPD2    C2 9965   4.313   3.209  13.814  0.3625 -0.5699 -0.7693
  670MPD2    C3 9966   4.193   3.203  13.882 -0.0356  0.7076 -0.5939
  670MPD2    C4 9967   4.087   3.272  13.828  0.3332  0.3826  0.1340
  670MPD2    C5 9968   4.104   3.347  13.716 -0.4416  0.5299  0.0563
  670MPD2     H 9969   4.402   3.157  13.849 -0.2267 -0.3027  1.1147
  670MPD2    H1 9970   3.994   3.286  13.883  0.3792  1.9279 -0.2070
  670MPD2    H2 9971   4.208   3.384  13.539  1.3856 -0.7152  0.1418
  670MPD2    H3 9972   4.022   3.411  13.686 -0.5594  1.3345  2.0371
  670MPD2     N 9973   4.194   3.132  14.003 -0.0323 -0.6718  0.0415
  670MPD2    H5 9974   4.289   3.104  14.027 -0.0561 -1.0378 -0.2812
  670MPD2    N1 9975   4.426   3.227  13.603  0.1705  0.2923  0.5120
  670MPD2    H7 9976   4.503   3.180  13.648  0.7680  1.0786  0.3152
  671TMC3    C1 9977   4.106   3.014  14.194 -0.2623  0.3875  0.2507
  671TMC3    C2 9978   4.240   2.989  14.221  0.2708 -0.0407 -0.1253
  671TMC3    C3 9979   4.271   2.870  14.282  0.2210  1.0379  0.1032
  671TMC3    C4 9980   4.015   2.918  14.223 -0.5911 -0.0247  0.6332
  671TMC3    C5 9981   4.044   2.798  14.275  0.3402 -0.3752  0.5022
  671TMC3    C6 9982   4.175   2.774  14.309  0.2750  0.1957  0.2049
  671TMC3     C 9983   4.080   3.085  14.061 -0.5420 -0.3183  0.1754
  671TMC3     O 9984   3.963   3.086  14.022 -0.3091  0.0283 -0.6162
  671TMC3     H 9985   4.310   3.071  14.226 -0.9797  0.9084  1.7409
  671TMC3    H1 9986   3.916   2.925  14.179  0.4561  1.5141 -1.5463
  671TMC3    H2 9987   4.210   2.678  14.345  1.0614  0.3722 -0.0779
  671TMC3    C7 9988   4.003   2.704  14.176 -0.6300 -0.0275 -0.0909
  671TMC3    C8 9989   4.404   2.846  14.304  0.1942 -0.8192 -0.3769
  671TMC3    O1 9990   4.089   2.640  14.117 -0.0841  0.4164  0.4409
  671TMC3    O2 9991   4.483   2.883  14.216  0.0128  0.1161  0.3891
  672MPD2     C 9992   4.400   4.173   1.228 -0.1040 -0.0319  0.1081
  672MPD2    C1 9993   4.496   4.103   1.160 -0.0783  0.1878  0.4224
  672MPD2    C2 9994   4.626   4.123   1.199 -0.4544 -0.4234  0.4181
  672MPD2    C3 9995   4.660   4.222   1.288  0.7810  0.2084 -0.1978
  672MPD2    C4 9996   4.566   4.298   1.353 -0.1880  0.0260  0.1637
  672MPD2    C5 9997   4.439   4.263   1.326 -0.3457  0.5089  0.2292
  672MPD2     H 9998   4.697   4.049   1.162  0.1914 -0.1997  1.2215
  672MPD2    H1 9999   4.602   4.371   1.424  2.5237 -0.5294 -0.6606
  672MPD2    H210000   4.295   4.152   1.218  0.4102 -1.5302 -2.0186
  672MPD2    H310001   4.360   4.304   1.389 -1.1345 -1.2347  0.3604
  672MPD2     N10002   0.051   4.241   1.324  0.2333  0.0648  0.4567
  672MPD2    H510003   0.066   4.316   1.391 -1.8048 -0.2764  1.2767
  672MPD2    N110004   4.474   4.009   1.056 -0.0929 -0.2319 -0.4908
  672MPD2    H710005   4.546   3.973   0.994 -0.7982  0.4688 -1.7140
  673TMC3    C110006   4.364   3.907   0.878 -0.3641 -0.7451  0.1079
  673TMC3    C210007   4.456   3.805   0.854 -0.2192  0.0519  0.1341
  673TMC3    C310008   4.438   3.725   0.741  0.6251 -0.5414  0.6996
  673TMC3    C410009   4.259   3.929   0.793  0.2257  0.0024  0.0349
  673TMC3    C510010   4.256   3.859   0.677 -0.0066  0.1209 -0.0882
  673TMC3    C610011   4.345   3.757   0.648 -0.5350  0.0910 -0.9677
  673TMC3     C10012   4.350   3.972   1.006 -0.0242  0.1144  0.3755
  673TMC3     O10013   4.238   4.000   1.042  0.0330 -0.5316 -0.0900
  673TMC3     H10014   4.524   3.769   0.930 -2.6964 -0.7306  1.9900
  673TMC3    H110015   4.186   4.005   0.819  1.2016  1.1484 -0.5779
  673TMC3    H210016   4.332   3.696   0.560 -0.0883 -1.4682  0.0400
  673TMC3    C710017   4.203   3.929   0.559  0.0082 -0.7761  0.2602
  673TMC3    C810018   4.503   3.598   0.729 -0.8391 -0.3297  0.0246
  673TMC3    O110019   4.172   3.859   0.466 -0.0856  0.3044 -0.1009
  673TMC3    O210020   4.437   3.515   0.672 -0.5084 -0.9775  0.0579
  674MPD2     C10021   4.535   3.882   0.401  0.4976 -1.1420  0.4634
  674MPD2    C110022   4.502   3.760   0.343 -0.0090  0.3145  0.2608
  674MPD2    C210023   4.409   3.761   0.241 -0.1764 -0.7884  0.2976
  674MPD2    C310024   4.366   3.873   0.182 -0.1774  0.2872 -0.1224
  674MPD2    C410025   4.404   3.995   0.234 -0.0525 -0.2870 -0.4535
  674MPD2    C510026   4.477   3.991   0.353  0.3621 -0.1628 -0.5729
  674MPD2     H10027   4.365   3.669   0.202  1.2789 -0.2897 -2.4783
  674MPD2    H110028   4.372   4.095   0.208  1.7009 -0.2959 -2.5724
  674MPD2    H210029   4.599   3.881   0.489 -2.3785  1.7575  2.5794
  674MPD2    H310030   4.481   4.088   0.399  0.1160 -0.4693  0.0948
  674MPD2     N10031   4.275   3.863   0.079 -0.3685 -0.2938 -0.2012
  674MPD2    H510032   4.256   3.770   0.042 -0.4322 -0.1596 -0.5071
  674MPD2    N110033   4.568   3.645   0.391 -0.0900  0.2539  0.4128
  674MPD2    H710034   4.639   3.658   0.462  0.3364  1.5655 -0.2467
  675TMC3    C110035   4.648   3.428   0.359  0.0559  0.3966  0.5884
  675TMC3    C210036   4.637   3.307   0.295  0.1460  0.1832  0.5263
  675TMC3    C310037   0.005   3.224   0.283  0.0201  0.3833  0.3371
  675TMC3    C410038   0.038   3.463   0.410  0.0017  0.0310  0.1543
  675TMC3    C510039   0.138   3.384   0.382 -0.0865 -0.0630 -0.1829
  675TMC3    C610040   0.131   3.265   0.319  0.1545  0.7939  0.2477
  675TMC3     C10041   4.544   3.522   0.338 -0.2074  0.9012  0.1832
  675TMC3     O10042   4.441   3.472   0.294  0.2773 -0.9633 -0.4673
  675TMC3     H10043   4.539   3.276   0.261  0.3770  0.9396 -0.8247
  675TMC3    H110044   0.057   3.563   0.447 -1.4385 -0.2912  1.7544
  675TMC3    H210045   0.223   3.209   0.308 -0.9825 -0.8401 -0.8828
  675TMC3    C710046   0.271   3.426   0.415  0.9439  0.3909 -0.5577
  675TMC3    C810047   4.727   3.093   0.216 -0.0128 -0.3510 -0.5914
  675TMC3    O110048   0.365   3.373   0.356 -0.1853 -0.4469  0.2084
  675TMC3    O210049   0.087   3.019   0.197  0.3368  0.0421  0.2574
  676MPD2     C10050   1.766   1.963  11.401  1.0124  0.2050 -0.7084
  676MPD2    C110051   1.896   1.947  11.444 -0.3563 -0.0802 -0.3086
  676MPD2    C210052   1.977   1.866  11.362 -0.6259  0.3407 -0.0095
  676MPD2    C310053   1.927   1.810  11.248  0.0328  0.6760 -0.8013
  676MPD2    C410054   1.807   1.846  11.201  0.6986  0.2535 -0.5095
  676MPD2    C510055   1.725   1.924  11.276 -0.1147  0.1681 -0.1130
  676MPD2     H10056   2.076   1.841  11.399 -0.6098  0.4019 -0.0115
  676MPD2    H110057   1.755   1.797  11.119 -2.0087  0.0110  1.3242
  676MPD2    H210058   1.687   2.009  11.460  0.0514 -0.0860 -1.7466
  676MPD2    H310059   1.618   1.937  11.259 -0.0104  0.2760 -0.6668
  676MPD2     N10060   2.000   1.702  11.185 -0.9578 -0.4377 -0.2028
  676MPD2    H510061   1.949   1.643  11.120  0.8338 -2.3182  0.0934
  676MPD2    N110062   1.941   1.997  11.567  0.3977  0.7685  0.7009
  676MPD2    H710063   2.032   1.967  11.600 -0.5094 -0.3656  2.1689
  677TMC3    C110064   1.979   2.156  11.723 -0.0221  0.3983 -0.4088
  677TMC3    C210065   2.065   2.066  11.785 -0.4226 -0.1766  0.4355
  677TMC3    C310066   2.187   2.118  11.821 -0.4294  0.5000 -0.6709
  677TMC3    C410067   2.006   2.288  11.714 -0.1588 -0.4513  0.5289
  677TMC3    C510068   2.141   2.318  11.721  0.2675  0.0341  0.3992
  677TMC3    C610069   2.233   2.240  11.784 -0.0559  0.5584  0.1882
  677TMC3     C10070   1.893   2.109  11.614 -0.2342 -0.2812 -0.2396
  677TMC3     O10071   1.808   2.187  11.570  0.3486  0.3428  0.1574
  677TMC3     H10072   2.026   1.970  11.819  1.6110 -1.5547 -1.1286
  677TMC3    H110073   1.937   2.354  11.664 -0.0735  0.2350  1.3236
  677TMC3    H210074   2.329   2.276  11.820  1.0240 -0.1634 -1.9973
  677TMC3    C710075   2.178   2.461  11.707 -0.4279 -0.1272 -1.2458
  677TMC3    C810076   2.258   2.042  11.921  0.6586 -0.1931 -0.9417
  677TMC3    O110077   2.091   2.543  11.736 -0.5006 -0.7971  0.4098
  677TMC3    O210078   2.381   2.049  11.919 -0.3977 -0.2758  0.7987
  678MPD2     C10079   3.312   1.299   1.054  0.5980  0.2578 -0.4695
  678MPD2    C110080   3.273   1.288   0.921 -0.5433 -0.6708 -1.0300
  678MPD2    C210081   3.192   1.381   0.868 -0.2102 -0.1915 -0.2667
  678MPD2    C310082   3.149   1.488   0.937 -0.5347  0.7305  0.2495
  678MPD2    C410083   3.180   1.499   1.070  0.0631 -0.3602  0.2017
  678MPD2    C510084   3.265   1.410   1.124  0.2211 -0.0548  0.0646
  678MPD2     H10085   3.150   1.371   0.769 -1.7022 -2.4401  0.5933
  678MPD2    H110086   3.135   1.570   1.138  2.9663  0.8881  0.7965
  678MPD2    H210087   3.386   1.238   1.105  0.2297 -0.3281 -0.6437
  678MPD2    H310088   3.304   1.432   1.223  1.4368  1.1954 -0.6881
  678MPD2     N10089   3.046   1.566   0.878  0.4660 -0.5854  0.0521
  678MPD2    H510090   3.001   1.533   0.793  1.1285  1.8051 -1.2114
  678MPD2    N110091   3.328   1.191   0.840  0.1813  0.1882 -0.9811
  678MPD2    H710092   3.309   1.213   0.743  0.4873  0.7053 -0.9248
  679TMC3    C110093   3.693   0.932   0.714  0.0257  0.0695 -0.8793
  679TMC3    C210094   3.588   0.952   0.802  0.3155 -0.1951 -0.0389
  679TMC3    C310095   3.482   1.030   0.759 -0.3730 -0.6072 -0.0910
  679TMC3    C410096   3.698   0.994   0.592  0.1687 -0.2747 -0.0289
  679TMC3    C510097   3.587   1.077   0.554  0.2907  0.0556  0.2524
  679TMC3    C610098   3.481   1.090   0.637  0.1178  1.1544  1.1439
  679TMC3     C10099   3.824   0.907   0.774  0.2831  0.0818  0.4748
  679TMC3     O10100   3.924   0.942   0.709  0.1596  0.2640  0.9644
  679TMC3     H10101   3.569   0.901   0.896  4.6875  1.5394  1.7724
  679TMC3    H110102   3.785   0.993   0.528 -0.4755  1.1745 -0.9318
  679TMC3    H210103   3.393   1.147   0.610 -1.2514 -1.7267 -0.4697
  679TMC3    C710104   3.583   1.162   0.432 -0.4583  0.6488 -0.0089
  679TMC3    C810105   3.409   1.088   0.878  0.7919 -0.1429  0.8466
  679TMC3    O110106   3.485   1.237   0.424 -0.3837 -0.1256  0.4776
  679TMC3    O210107   3.441   1.049   0.988 -0.5022 -0.3468 -0.1597
  680MPD2     C10108   4.248   0.636  13.528  0.1284 -0.7764  0.1350
  680MPD2    C110109   4.341   0.588  13.609 -0.5458 -0.8412  0.4467
  680MPD2    C210110   4.413   0.673  13.693  0.3457  0.7160 -0.3160
  680MPD2    C310111   4.371   0.807  13.701 -0.4768  0.7897  0.4946
  680MPD2    C410112   4.270   0.853  13.619 -0.7183 -0.5018 -0.9658
  680MPD2    C510113   4.220   0.773  13.529  1.1282  0.2338  0.4414
  680MPD2     H10114   4.502   0.640  13.746 -0.9945  0.1026  1.5463
  680MPD2    H110115   4.226   0.951  13.635 -0.0524 -0.6647  1.9421
  680MPD2    H210116   4.191   0.575  13.459  1.9312 -0.2452 -1.8002
  680MPD2    H310117   4.135   0.819  13.478  1.0111  3.1886  3.2592
  680MPD2     N10118   4.432   0.902  13.793  0.1438  0.2776  0.1319
  680MPD2    H510119   4.414   1.002  13.782 -0.9574  0.3242  2.5148
  680MPD2    N110120   4.375   0.449  13.608 -0.0834  0.1392  0.1462
  680MPD2    H710121   4.456   0.423  13.663  1.2826  1.1493 -1.3909
  681TMC3    C110122   4.361   0.221  13.551  0.0550 -0.1798 -0.4145
  681TMC3    C210123   4.295   0.122  13.617  0.2303 -0.1969  0.0838
  681TMC3    C310124   4.369   0.009  13.642 -0.6455  0.1384  0.6609
  681TMC3    C410125   4.495   0.223  13.527 -0.1798 -1.0496 -0.0163
  681TMC3    C510126   4.557   0.104  13.559  0.3345 -0.0508  0.4989
  681TMC3    C610127   4.497   4.728  13.613 -0.0595 -0.2648 -0.1230
  681TMC3     C10128   4.297   0.351  13.543  0.0906 -0.0554  0.1157
  681TMC3     O10129   4.190   0.351  13.488  0.4438 -0.5289 -0.2945
  681TMC3     H10130   4.190   0.118  13.642  0.1093 -0.9106 -0.5178
  681TMC3    H110131   4.542   0.315  13.492  0.8509 -1.3382  0.6130
  681TMC3    H210132   4.550   4.636  13.631  2.4906  1.7437  2.6007
  681TMC3    C710133   4.696   0.099  13.529  0.5598  0.6728  0.2985
  681TMC3    C810134   4.305   4.649  13.720  0.1898  0.5233 -0.2381
  681TMC3    O110135   0.032   0.058  13.618  0.7423  0.7315  0.1325
  681TMC3    O210136   4.325   4.535  13.688  0.0914 -0.1606 -0.1077
  682MPD2     C10137   1.157   1.981  10.556 -0.3522 -0.2105 -0.6863
  682MPD2    C110138   1.056   1.895  10.540 -0.6748 -1.0131 -0.0399
  682MPD2    C210139   0.998   1.842  10.650  0.9467 -0.1824 -0.1869
  682MPD2    C310140   1.038   1.881  10.778  0.3360 -0.3204  0.0991
  682MPD2    C410141   1.139   1.980  10.791 -0.0510 -0.4608  0.7463
  682MPD2    C510142   1.192   2.033  10.679 -0.4381  0.8767 -0.5893
  682MPD2     H10143   0.914   1.776  10.632 -0.2147  0.7506  1.8189
  682MPD2    H110144   1.170   2.019  10.887  0.8943 -0.4313  0.4248
  682MPD2    H210145   1.211   2.014  10.468  0.4369 -1.2749 -0.6061
  682MPD2    H310146   1.282   2.092  10.671 -1.1251  2.0493  0.2377
  682MPD2     N10147   0.982   1.829  10.896 -0.3349 -0.3306  0.8421
  682MPD2    H510148   1.006   1.881  10.980  0.4490 -1.5079  1.3476
  682MPD2    N110149   1.005   1.835  10.424 -0.3780 -0.3022  0.4410
  682MPD2    H710150   0.935   1.762  10.432  0.6252 -1.3512 -0.4954
  683TMC3    C110151   0.902   1.658  11.268 -0.2207  0.3958 -0.2511
  683TMC3    C210152   0.823   1.547  11.280 -0.4325 -0.6281  0.3289
  683TMC3    C310153   0.765   1.504  11.165 -0.2428 -0.4046  0.2541
  683TMC3    C410154   0.938   1.714  11.145 -0.5760  0.5282 -0.4351
  683TMC3    C510155   0.881   1.664  11.033  0.0149  0.1259  0.7789
  683TMC3    C610156   0.792   1.561  11.048 -0.0959 -1.0686 -0.0223
  683TMC3     C10157   0.977   1.700  11.380 -0.3041 -0.3067  0.1611
  683TMC3     O10158   0.996   1.820  11.390 -0.1652  0.2435 -0.4155
  683TMC3     H10159   0.797   1.505  11.377  0.1668  0.9941  1.1878
  683TMC3    H110160   1.021   1.783  11.146  1.3510 -1.7975 -0.8151
  683TMC3    H210161   0.734   1.529  10.963 -0.0732 -1.9897  0.3014
  683TMC3    C710162   0.900   1.715  10.900  0.6388  1.0331  0.4423
  683TMC3    C810163   0.709   1.372  11.161 -0.5313  0.4278 -0.5729
  683TMC3    O110164   0.869   1.641  10.807 -0.6096 -0.7163  0.2054
  683TMC3    O210165   0.613   1.346  11.090  0.2683 -0.2704  0.1711
  684MPD2     C10166   4.586   1.225  16.517  0.1997  0.7272 -0.0129
  684MPD2    C110167   4.500   1.207  16.409 -0.3863  0.8887 -0.2143
  684MPD2    C210168   4.417   1.308  16.374  0.1670 -0.2939  0.4416
  684MPD2    C310169   4.425   1.435  16.434  0.3188 -0.5717  0.1455
  684MPD2    C410170   4.501   1.455  16.545 -0.4990 -0.3164  0.1703
  684MPD2    C510171   4.578   1.345  16.585  0.8045 -0.2800  1.1510
  684MPD2     H10172   4.343   1.301  16.295 -0.1134  1.3510  0.5425
  684MPD2    H110173   4.515   1.549  16.596  0.2385 -0.4498  0.2097
  684MPD2    H210174   4.655   1.153  16.559  0.2968  0.3255 -0.8635
  684MPD2    H310175   4.639   1.363  16.672 -0.2309 -0.3264  1.8954
  684MPD2     N10176   4.358   1.552  16.395  0.9012  0.0057  0.1943
  684MPD2    H510177   4.374   1.635  16.452  0.8076  1.7847 -2.3661
  684MPD2    N110178   4.493   1.090  16.332  0.3150  0.0857  0.3807
  684MPD2    H710179   4.426   1.083  16.257  2.5296 -1.4315 -1.4587
  685TMC3    C110180   4.566   0.883  16.238 -0.0268 -0.6457  0.4096
  685TMC3    C210181   4.528   0.916  16.115  0.0417 -0.2872 -0.5030
  685TMC3    C310182   4.518   0.821  16.019  0.2926 -0.4828 -0.4040
  685TMC3    C410183   4.616   0.759  16.256  0.4264  0.8595 -0.0001
  685TMC3    C510184   4.619   0.663  16.157  0.5452  0.1333  0.5169
  685TMC3    C610185   4.573   0.693  16.034 -0.8308  0.0707 -0.7275
  685TMC3     C10186   4.579   0.982  16.342  0.8010 -0.0627  0.3817
  685TMC3     O10187   4.666   0.953  16.417 -0.4276  0.2821 -0.2174
  685TMC3     H10188   4.488   1.015  16.095  0.4518  0.4440  2.3566
  685TMC3    H110189   4.652   0.724  16.353 -3.8324  1.7528  1.9213
  685TMC3    H210190   4.581   0.623  15.952 -0.2189 -1.6802  0.8569
  685TMC3    C710191   0.004   0.589  16.139 -0.0371 -0.7212  0.3597
  685TMC3    C810192   4.463   0.841  15.897  0.1603 -0.2048  0.2281
  685TMC3    O110193   0.013   0.503  16.054 -0.6848 -1.0493  0.0289
  685TMC3    O210194   4.496   0.764  15.808 -0.2745 -0.0733  0.4927
  686MPD2     C10195   1.331   1.556  15.719  0.4486 -0.1552 -0.2009
  686MPD2    C110196   1.355   1.508  15.847 -0.4400  0.0616 -0.9513
  686MPD2    C210197   1.485   1.496  15.891  0.5048  0.2308 -0.5124
  686MPD2    C310198   1.589   1.504  15.803  0.2328  0.5285  0.6144
  686MPD2    C410199   1.565   1.559  15.678  0.5338 -0.8752 -0.1192
  686MPD2    C510200   1.435   1.585  15.637 -0.3128  0.0344  0.4275
  686MPD2     H10201   1.500   1.468  15.995  0.2021 -2.5169 -1.2144
  686MPD2    H110202   1.642   1.562  15.602  1.8157  2.5224  1.3032
  686MPD2    H210203   1.228   1.579  15.694  1.0795 -0.2057 -2.8681
  686MPD2    H310204   1.420   1.633  15.541  2.9358 -0.8479 -0.5101
  686MPD2     N10205   1.725   1.480  15.843  0.1626 -0.0176 -0.0141
  686MPD2    H510206   1.799   1.521  15.786 -0.2524 -0.0779 -0.5955
  686MPD2    N110207   1.241   1.464  15.917 -0.0266 -0.6837 -0.8911
  686MPD2    H710208   1.156   1.479  15.863  0.5529  2.1891 -0.9822
  687TMC3    C110209   1.681   1.328  16.026 -0.0563  0.0549  0.4737
  687TMC3    C210210   1.603   1.244  15.958  0.5742  0.5647  0.0121
  687TMC3    C310211   1.545   1.141  16.021 -0.0369 -0.2236 -0.2374
  687TMC3    C410212   1.689   1.312  16.161 -0.3781  0.0806  0.4705
  687TMC3    C510213   1.620   1.208  16.218 -0.7489 -0.9800  0.3571
  687TMC3    C610214   1.552   1.109  16.153 -0.0322 -0.3720 -0.3275
  687TMC3     C10215   1.775   1.417  15.954 -0.3251  0.3380  0.4816
  687TMC3     O10216   1.887   1.423  16.000 -0.2383  0.6072  0.1692
  687TMC3     H10217   1.592   1.247  15.850  1.6430 -1.0371 -0.1358
  687TMC3    H110218   1.761   1.373  16.214 -1.9780  3.7254 -1.5386
  687TMC3    H210219   1.497   1.030  16.202 -0.9071 -0.2685 -1.1515
  687TMC3    C710220   1.607   1.205  16.367  0.1187  0.0665 -0.2141
  687TMC3    C810221   1.467   1.057  15.938  0.1513  0.1118  0.2170
  687TMC3    O110222   1.535   1.115  16.411 -0.3454  0.4707  0.0159
  687TMC3    O210223   1.462   0.939  15.971 -0.2766 -0.2505 -0.4282
  688MPD2     C10224   0.429   0.264  17.411  0.2301  0.3557 -0.2756
  688MPD2    C110225   0.485   0.151  17.475 -0.1320 -0.8735 -0.0409
  688MPD2    C210226   0.574   0.075  17.413  0.1346  0.1492  0.0791
  688MPD2    C310227   0.613   0.101  17.280 -0.1871  0.4570 -0.2377
  688MPD2    C410228   0.562   0.217  17.228  0.1957 -0.0846 -0.2983
  688MPD2    C510229   0.475   0.299  17.287  0.0201 -0.3018 -0.4883
  688MPD2     H10230   0.618   4.722  17.456  1.7604  1.1309  0.4975
  688MPD2    H110231   0.587   0.244  17.126 -0.3407  1.1367 -0.1135
  688MPD2    H210232   0.348   0.327  17.444  1.7245  2.4790 -0.6715
  688MPD2    H310233   0.436   0.390  17.244  0.6972  0.3568  0.2887
  688MPD2     N10234   0.708   0.025  17.204  0.3149  0.3011 -0.9159
  688MPD2    H510235   0.749   0.050  17.115 -0.8013 -1.9302 -2.0662
  688MPD2    N110236   0.456   0.118  17.607  0.2014  0.1581 -0.1065
  688MPD2    H710237   0.496   0.037  17.653 -1.4099 -0.2970  0.5161
  689TMC3    C110238   0.404   0.161   0.085  0.7140 -0.3945  0.2293
  689TMC3    C210239   0.376   0.257   0.180  0.2659 -0.1282  0.8514
  689TMC3    C310240   0.387   0.223   0.310 -0.3974 -0.4570  0.0767
  689TMC3    C410241   0.434   0.034   0.116  0.1354 -0.4843  0.1527
  689TMC3    C510242   0.429   0.006   0.248 -0.3175 -0.9316 -0.1657
  689TMC3    C610243   0.416   0.100   0.349 -0.3443  0.4349 -0.3040
  689TMC3     C10244   0.388   0.199  17.694  0.1335 -0.5274  0.5054
  689TMC3     O10245   0.332   0.303  17.669  0.0861  0.5635 -0.3296
  689TMC3     H10246   0.334   0.353   0.151  3.4335  1.0636  0.2466
  689TMC3    H110247   0.449   4.685   0.052 -0.5071 -1.1279  0.8710
  689TMC3    H210248   0.410   0.069   0.453  3.9086 -1.4944 -0.6511
  689TMC3    C710249   0.423   4.605   0.286 -0.5527  0.6107 -0.4969
  689TMC3    C810250   0.327   0.317   0.408  0.0540  0.6808  0.2423
  689TMC3    O110251   0.463   4.587   0.400 -0.2142  0.4516  0.4893
  689TMC3    O210252   0.268   0.265   0.502  0.6251 -0.0080  0.1527
  690MPD2     C10253   2.746   1.610  15.857  0.5207  0.1779 -0.3263
  690MPD2    C110254   2.629   1.675  15.823 -0.5161 -0.6117  0.1812
  690MPD2    C210255   2.625   1.748  15.706 -1.1316 -0.2478 -0.9123
  690MPD2    C310256   2.741   1.787  15.640  0.6067  0.7211  0.6814
  690MPD2    C410257   2.859   1.735  15.687  0.1401 -0.3615 -0.5250
  690MPD2    C510258   2.855   1.641  15.784 -0.0717  0.7694 -0.5212
  690MPD2     H10259   2.527   1.787  15.683 -1.2237  0.3866  0.5332
  690MPD2    H110260   2.958   1.772  15.662 -0.3817 -0.2997 -2.4524
  690MPD2    H210261   2.757   1.542  15.941 -0.0054  0.7391  0.1982
  690MPD2    H310262   2.949   1.597  15.814  0.2579 -0.2231 -3.0408
  690MPD2     N10263   2.745   1.863  15.520 -0.3286  0.3266 -0.3076
  690MPD2    H510264   2.838   1.880  15.483  0.5445 -0.5429  1.4912
  690MPD2    N110265   2.509   1.650  15.881  0.1819  0.0629 -0.1687
  690MPD2    H710266   2.432   1.695  15.833 -0.0878 -0.3344 -0.1113
  691TMC3    C110267   2.336   1.567  16.020 -0.7954  0.0820 -0.2582
  691TMC3    C210268   2.242   1.632  15.938  0.3639  0.2308 -0.1074
  691TMC3    C310269   2.118   1.637  15.985  0.0763  0.3495 -0.3258
  691TMC3    C410270   2.297   1.525  16.146  0.7407  0.1221 -0.1198
  691TMC3    C510271   2.174   1.543  16.193 -0.3793  0.4928  0.1336
  691TMC3    C610272   2.081   1.590  16.106  0.1002  0.5724 -0.0634
  691TMC3     C10273   2.479   1.573  15.997 -0.4723  1.0379  0.0269
  691TMC3     O10274   2.554   1.504  16.072 -0.4136  0.0570 -0.0814
  691TMC3     H10275   2.265   1.657  15.835 -0.7890 -0.1502 -0.4515
  691TMC3    H110276   2.374   1.486  16.212  0.7291 -0.3210 -0.3656
  691TMC3    H210277   1.981   1.610  16.143  0.3794  0.0380  0.9830
  691TMC3    C710278   2.129   1.445  16.288  0.1817  0.4742  0.3083
  691TMC3    C810279   2.017   1.677  15.886  0.7374  0.5412  1.5142
  691TMC3    O110280   2.200   1.431  16.390 -0.1889 -0.2713  0.3502
  691TMC3    O210281   2.016   1.614  15.784  0.1360 -0.0566 -0.0367
  692TMC3    C110282   3.769   2.600  15.502 -0.2857 -0.3921 -0.2648
  692TMC3    C210283   3.894   2.652  15.501  0.2706  0.1341  0.3507
  692TMC3    C310284   4.001   2.561  15.499  0.8711 -0.4313 -0.5066
  692TMC3    C410285   3.740   2.469  15.488  0.1863 -0.0440  0.3270
  692TMC3    C510286   3.840   2.381  15.494 -0.0575  0.3175 -0.2053
  692TMC3    C610287   3.965   2.427  15.511 -0.4249 -0.0343  0.1804
  692TMC3     C10288   3.657   2.683  15.530 -0.3378  0.5933 -0.4158
  692TMC3     O10289   3.554   2.625  15.561 -0.0598 -0.5205  0.0636
  692TMC3     H10290   3.909   2.759  15.514 -1.5476  0.4589 -0.2018
  692TMC3    H110291   3.637   2.434  15.497 -0.6263  2.3311  0.1179
  692TMC3    H210292   4.046   2.360  15.485  0.4766  0.7286  1.0126
  692TMC3    C710293   3.802   2.243  15.531 -0.1136 -0.0029 -0.1171
  692TMC3    C810294   4.111   2.596  15.583 -0.1762  0.2441  0.1296
  692TMC3    O110295   3.702   2.191  15.488  0.2052 -0.0177  0.0096
  692TMC3    O210296   4.163   2.505  15.642 -0.0585  0.0724  0.1797
  693MPD2     C10297   3.712   0.618  10.671 -1.2211 -0.3101 -0.2017
  693MPD2    C110298   3.731   0.644  10.802 -0.8822  0.3630  0.2283
  693MPD2    C210299   3.844   0.598  10.865  0.4284  0.0321  0.6919
  693MPD2    C310300   3.943   0.535  10.792  0.3387 -0.5616 -0.5020
  693MPD2    C410301   3.921   0.501  10.662  0.1433 -0.4125  0.1680
  693MPD2    C510302   3.807   0.549  10.604 -0.2613  0.5051 -0.2215
  693MPD2     H10303   3.862   0.623  10.969 -1.8578 -2.4547  1.6951
  693MPD2    H110304   3.995   0.441  10.610 -0.4418 -1.3218  0.3830
  693MPD2    H210305   3.632   0.649  10.605  0.6249 -0.1270 -2.3784
  693MPD2    H310306   3.790   0.525  10.499  0.1053 -1.7058  0.2140
  693MPD2     N10307   4.066   0.489  10.845 -0.4957  0.5583  0.0953
  693MPD2    H510308   4.118   0.429  10.782  2.7212  2.5754  0.8351
  693MPD2    N110309   3.636   0.720  10.864 -0.5717 -0.5227 -0.0834
  693MPD2    H710310   3.561   0.767  10.814 -1.3316 -1.3235  0.2942
  694TMC3    C110311   3.502   0.799  11.042  0.0599 -0.1808  0.8226
  694TMC3    C210312   3.399   0.800  10.959 -0.7059  0.5054  0.0833
  694TMC3    C310313   3.288   0.877  10.990 -1.4568  0.0901 -0.1571
  694TMC3    C410314   3.501   0.864  11.163 -0.2993  0.8845 -0.9014
  694TMC3    C510315   3.383   0.924  11.203  0.5617  0.2116  0.2505
  694TMC3    C610316   3.275   0.931  11.116 -0.2539  0.4416 -1.0415
  694TMC3     C10317   3.631   0.742  10.998  0.3484 -0.2822 -0.3465
  694TMC3     O10318   3.717   0.725  11.088  0.1114 -0.9963 -0.7664
  694TMC3     H10319   3.389   0.721  10.886 -1.4283  0.3961  0.3071
  694TMC3    H110320   3.586   0.879  11.229  0.5602  0.3044 -1.8957
  694TMC3    H210321   3.193   0.995  11.144 -2.0693 -1.1451 -2.6921
  694TMC3    C710322   3.385   0.998  11.327 -0.0874  0.6624 -0.6657
  694TMC3    C810323   3.156   0.845  10.931 -0.7668 -0.8724  0.4143
  694TMC3    O110324   3.498   1.034  11.364 -0.0643 -0.3547  0.2464
  694TMC3    O210325   3.052   0.838  11.000 -0.1891  0.0488 -0.1048
  695MPD2     C10326   0.114   2.723  13.445 -0.2801  0.4305  0.2367
  695MPD2    C110327   0.057   2.737  13.573 -1.1891 -1.1881  0.0510
  695MPD2    C210328   4.655   2.763  13.565  0.3845  0.4466 -0.2158
  695MPD2    C310329   4.589   2.795  13.445 -0.1957  0.7354  0.1457
  695MPD2    C410330   4.657   2.789  13.327 -0.6286 -0.4504  0.7940
  695MPD2    C510331   0.052   2.756  13.331  0.4240  0.2537 -0.1399
  695MPD2     H10332   4.597   2.775  13.656 -2.5204 -1.6968 -1.8254
  695MPD2    H110333   4.613   2.812  13.230 -0.5185 -0.0591  0.8366
  695MPD2    H210334   0.218   2.698  13.432 -0.6632 -0.0699 -1.8020
  695MPD2    H310335   0.100   2.751  13.234 -2.1319  0.8481 -1.4407
  695MPD2     N10336   4.455   2.830  13.465 -0.7175  0.4407 -0.0545
  695MPD2    H510337   4.418   2.832  13.559 -0.7915  2.1269 -0.1361
  695MPD2    N110338   0.121   2.719  13.697  0.2056  0.8843  0.3033
  695MPD2    H710339   0.065   2.729  13.781 -2.1277 -4.4645 -0.6195
  696TMC3    C110340   4.220   2.859  13.394  0.2230 -0.4935  0.0545
  696TMC3    C210341   4.194   2.778  13.498  0.2168 -0.4083 -0.7924
  696TMC3    C310342   4.059   2.781  13.532  0.1448  0.3031  0.5587
  696TMC3    C410343   4.135   2.942  13.322 -0.2819 -0.0022  0.2369
  696TMC3    C510344   4.011   2.950  13.369 -0.1234 -0.5205 -0.0946
  696TMC3    C610345   3.970   2.866  13.470 -0.0090 -0.1184  0.0935
  696TMC3     C10346   4.364   2.867  13.363  0.7624 -0.5608 -1.1302
  696TMC3     O10347   4.401   2.909  13.254  0.1161  0.0677 -0.3859
  696TMC3     H10348   4.260   2.701  13.537 -1.1140 -1.0843  0.1185
  696TMC3    H110349   4.172   2.997  13.236 -2.1842  0.9292  0.0232
  696TMC3    H210350   3.863   2.865  13.485  0.0302  0.2184  0.4035
  696TMC3    C710351   3.941   3.076  13.340  0.1648  0.2888 -0.3524
  696TMC3    C810352   4.033   2.718  13.657  0.8202  0.4711 -0.4630
  696TMC3    O110353   3.964   3.132  13.234  0.3184  0.0821 -0.2568
  696TMC3    O210354   4.122   2.703  13.735  0.9760  0.1799 -0.3416
  697MPD2     C10355   4.022   4.341  15.708  0.3572 -0.2085 -0.1300
  697MPD2    C110356   3.947   4.333  15.588 -0.5632  0.6397 -0.7706
  697MPD2    C210357   3.955   4.444  15.509  0.4585  0.1130  0.4009
  697MPD2    C310358   4.023   4.559  15.534  0.2888  0.6720  0.0982
  697MPD2    C410359   4.094   4.566  15.651 -0.5213  0.3381  0.5304
  697MPD2    C510360   4.094   4.453  15.731  0.8061 -0.1614  0.4058
  697MPD2     H10361   3.896   4.438  15.418  1.9198  0.7990 -0.5878
  697MPD2    H110362   4.143   4.653  15.693 -1.1067  0.9791 -0.1254
  697MPD2    H210363   4.027   4.255  15.774 -1.5357 -1.1103 -1.1850
  697MPD2    H310364   4.153   4.458  15.822  1.4750 -0.6386 -0.0004
  697MPD2     N10365   4.030   4.653  15.435 -0.1051 -0.0683 -0.0533
  697MPD2    H510366   4.009   4.620  15.341  0.5360 -0.8734  0.0825
  697MPD2    N110367   3.884   4.218  15.548 -0.1617  0.1843 -0.7661
  697MPD2    H710368   3.867   4.221  15.447 -0.6822 -1.6682 -0.7314
  698TMC3    C110369   4.031   0.136  15.330 -0.0853  0.0959 -0.5252
  698TMC3    C210370   4.070   0.264  15.332 -0.0148  0.8372  0.4796
  698TMC3    C310371   4.008   0.343  15.243  0.4946  0.0291 -0.2122
  698TMC3    C410372   3.960   0.091  15.228  0.3243  0.2181 -0.8166
  698TMC3    C510373   3.900   0.175  15.139  0.2113  0.1185  0.1210
  698TMC3    C610374   3.925   0.302  15.141 -0.7274 -1.1506  0.7094
  698TMC3     C10375   4.070   0.050  15.446 -0.5853 -0.3347  0.4705
  698TMC3     O10376   4.098   0.116  15.543 -0.5552 -0.1725  0.6712
  698TMC3     H10377   4.143   0.300  15.403 -1.0027 -0.2311  2.0371
  698TMC3    H110378   3.931   4.723  15.227 -0.4606  0.4235  0.1125
  698TMC3    H210379   3.856   0.362  15.084  0.1511  0.2616  1.1428
  698TMC3    C710380   3.888   0.133  15.003  0.9697 -0.5300 -0.5820
  698TMC3    C810381   4.025   0.489  15.246 -0.2469  0.0707 -0.5381
  698TMC3    O110382   3.831   0.197  14.920  0.4504 -0.5690  0.0981
  698TMC3    O210383   3.930   0.564  15.218  0.2159  0.4279  0.0173
  699TMC3    C110384   3.903   2.909  12.941 -0.3753  0.1107 -0.8068
  699TMC3    C210385   3.955   2.792  13.001  0.6228  0.5645  0.0164
  699TMC3    C310386   3.874   2.718  13.090  0.4448 -0.4468 -0.1523
  699TMC3    C410387   3.785   2.960  12.977  1.0440 -0.4602 -0.5303
  699TMC3    C510388   3.718   2.893  13.077 -0.3731 -0.2652 -0.3205
  699TMC3    C610389   3.755   2.768  13.124  0.8958 -0.1807 -0.1149
  699TMC3     C10390   3.958   2.964  12.825  0.0603  0.1064 -0.1950
  699TMC3     O10391   3.925   3.079  12.797 -0.6183  0.3556 -0.2598
  699TMC3     H10392   4.061   2.769  13.001  0.4431 -0.2385 -1.3958
  699TMC3    H110393   3.755   3.060  12.947  0.4133 -0.9945 -1.6865
  699TMC3    H210394   3.696   2.706  13.191 -0.6631  0.3766 -0.9854
  699TMC3    C710395   3.608   2.955  13.144 -0.5745  0.5137 -0.3312
  699TMC3    C810396   3.915   2.586  13.136 -0.8423 -0.1926 -0.1145
  699TMC3    O110397   3.581   2.896  13.248  0.3451  0.1216  0.9701
  699TMC3    O210398   3.840   2.548  13.226  0.5552  0.0681  0.0707
  700TMC3    C110399   2.860   0.037  17.227 -0.1988 -0.4596  0.9005
  700TMC3    C210400   2.965   4.713  17.168  0.6256 -0.2741 -0.5309
  700TMC3    C310401   3.029   4.631  17.258  0.3903 -0.7908  0.0173
  700TMC3    C410402   2.826   0.020  17.360  0.0334  0.3506 -0.0004
  700TMC3    C510403   2.902   4.679  17.445 -0.5920  0.1868  0.4610
  700TMC3    C610404   3.007   4.613  17.394  0.2457 -0.0157 -0.7512
  700TMC3     C10405   2.788   0.133  17.168  0.4565  0.0001 -0.3523
  700TMC3     O10406   2.669   0.139  17.188 -0.2907  0.1425  0.3485
  700TMC3     H10407   2.989   4.715  17.063 -1.5045 -1.6785 -1.0485
  700TMC3    H110408   2.742   0.070  17.407  0.4727  2.2197 -1.2124
  700TMC3    H210409   3.074   4.566  17.466 -1.0048 -1.9177 -0.8124
  700TMC3    C710410   2.946   0.010  17.566  0.1881 -0.3624  0.0485
  700TMC3    C810411   3.158   4.577  17.219  0.4067 -0.6690  0.1675
  700TMC3    O110412   3.062   0.046  17.581 -0.0481  0.5294 -0.1396
  700TMC3    O210413   3.215   4.635  17.124  0.2656 -0.5135  0.0667
  701TMC3    C110414   2.959   3.700  15.513  0.3328  0.2546  0.5121
  701TMC3    C210415   2.971   3.618  15.403 -0.2631 -0.7609 -0.8071
  701TMC3    C310416   3.074   3.636  15.307 -0.9135  0.0346 -0.7080
  701TMC3    C410417   3.041   3.800  15.532 -0.4385  0.5711 -0.0454
  701TMC3    C510418   3.146   3.809  15.451 -0.2668 -0.1481  0.4418
  701TMC3    C610419   3.168   3.730  15.341  0.0868 -0.7487 -0.0656
  701TMC3     C10420   2.874   3.674  15.626  0.2163  0.6300  0.7044
  701TMC3     O10421   2.905   3.739  15.730 -0.0560 -0.0022  0.0025
  701TMC3     H10422   2.907   3.532  15.387 -0.2963 -0.9441  0.3699
  701TMC3    H110423   3.038   3.866  15.618  4.7615  0.5304  0.1729
  701TMC3    H210424   3.263   3.736  15.289  0.1898  2.4215  0.5405
  701TMC3    C710425   3.261   3.877  15.497  0.1258 -0.3003 -1.1593
  701TMC3    C810426   3.103   3.558  15.188  0.5081  0.2336 -0.0745
  701TMC3    O110427   3.330   3.932  15.409 -0.1642 -0.0986 -0.2938
  701TMC3    O210428   3.216   3.571  15.141  0.2917 -0.3230  0.3200
  702MPD2     C10429   2.612   1.408  10.777 -1.1853 -0.1122  0.1593
  702MPD2    C110430   2.493   1.351  10.783  0.2184 -0.3143 -0.1257
  702MPD2    C210431   2.456   1.262  10.683  0.0720  0.1586 -0.1905
  702MPD2    C310432   2.527   1.259  10.564 -0.1295 -0.3032 -0.6000
  702MPD2    C410433   2.647   1.331  10.559 -0.3164 -0.3782 -0.1936
  702MPD2    C510434   2.698   1.394  10.669  0.2406 -0.5613 -1.0058
  702MPD2     H10435   2.378   1.188  10.697  1.7672 -1.9756 -1.8936
  702MPD2    H110436   2.707   1.328  10.469  2.0223  0.3822  1.3635
  702MPD2    H210437   2.652   1.456  10.866  0.0661  0.2173 -0.5769
  702MPD2    H310438   2.800   1.429  10.661  0.2441 -0.6017 -1.1368
  702MPD2     N10439   2.487   1.192  10.451  0.4171 -0.0716 -0.6326
  702MPD2    H510440   2.558   1.153  10.389 -1.2540  0.0092 -2.6198
  702MPD2    N110441   2.418   1.380  10.894 -0.0745  0.0973  0.4368
  702MPD2    H710442   2.462   1.433  10.969  1.5639 -1.7149  0.7298
  703TMC3    C110443   2.247   1.237  10.469  0.0776 -0.1151 -0.1705
  703TMC3    C210444   2.134   1.188  10.511 -0.4630 -0.1488 -1.0535
  703TMC3    C310445   2.045   1.272  10.582 -0.3077  0.2794  0.1449
  703TMC3    C410446   2.272   1.371  10.475  0.2614 -0.1274 -0.0201
  703TMC3    C510447   2.197   1.450  10.556 -0.0454  0.0123  0.6897
  703TMC3    C610448   2.083   1.400  10.612 -0.3057 -0.9375 -0.1069
  703TMC3     C10449   2.355   1.144  10.434 -0.1189  0.3164  0.9493
  703TMC3     O10450   2.322   1.040  10.385  0.5559  0.0112  0.3651
  703TMC3     H10451   2.114   1.081  10.511 -1.1035 -0.0453  1.7069
  703TMC3    H110452   2.358   1.409  10.420  2.5265 -1.8692  2.3219
  703TMC3    H210453   2.007   1.460  10.661 -0.7002 -3.2090  2.0700
  703TMC3    C710454   2.254   1.553  10.621  0.5201 -0.0956 -0.0868
  703TMC3    C810455   1.923   1.217  10.620 -0.2549 -0.3365  0.4864
  703TMC3    O110456   2.202   1.589  10.723 -0.6732 -0.0526  0.1361
  703TMC3    O210457   1.875   1.130  10.556  0.3598 -0.5198  0.0292
  704TMC3    C110458   0.780   4.123  12.682 -0.9437 -0.0829 -0.8485
  704TMC3    C210459   0.812   4.060  12.572  0.4091 -0.0076  0.3082
  704TMC3    C310460   0.873   3.937  12.577 -0.4289 -0.4270 -0.2060
  704TMC3    C410461   0.801   4.065  12.808  0.5569 -0.3095  0.0248
  704TMC3    C510462   0.866   3.943  12.812  0.0905 -0.0658  0.7274
  704TMC3    C610463   0.921   3.887  12.692  0.5236  0.1903 -0.7649
  704TMC3     C10464   0.715   4.250  12.681 -0.2625 -0.0471  0.1661
  704TMC3     O10465   0.706   4.311  12.787 -0.1338  0.3321 -0.3907
  704TMC3     H10466   0.799   4.104  12.474 -1.4709 -1.7008 -0.1995
  704TMC3    H110467   0.759   4.104  12.900  0.8401  0.0805 -0.0110
  704TMC3    H210468   0.966   3.789  12.701  0.6472  0.3593  0.5597
  704TMC3    C710469   0.804   3.837  12.892 -0.2615 -0.0764 -0.2225
  704TMC3    C810470   0.840   3.846  12.472 -0.7617  0.4325  0.4801
  704TMC3    O110471   0.810   3.723  12.849  0.4323  0.1571  0.1298
  704TMC3    O210472   0.734   3.859  12.416  0.7268  0.4412  0.1845
  705MPD2     C10473   4.204   2.334  16.069 -0.7591  0.6739  0.2609
  705MPD2    C110474   4.246   2.458  16.103  0.3961 -0.2969  0.2092
  705MPD2    C210475   4.154   2.542  16.170  0.6187 -0.2384 -0.1661
  705MPD2    C310476   4.026   2.504  16.186  0.0681 -0.8970  0.8754
  705MPD2    C410477   3.984   2.381  16.155 -0.3891  0.0380  0.1471
  705MPD2    C510478   4.082   2.296  16.104 -0.0724 -0.3873 -0.3689
  705MPD2     H10479   4.178   2.645  16.193 -0.5362 -0.3918  1.6432
  705MPD2    H110480   3.890   2.329  16.167 -0.0627 -0.2632  1.3893
  705MPD2    H210481   4.267   2.258  16.025 -1.8812 -0.0453 -0.1090
  705MPD2    H310482   4.052   2.195  16.083  0.1454 -0.8896  1.7418
  705MPD2     N10483   3.920   2.583  16.240 -0.2038 -0.2510  1.0310
  705MPD2    H510484   3.831   2.537  16.254 -0.7818  0.7066  0.4743
  705MPD2    N110485   4.376   2.510  16.074 -0.3324 -0.1281  0.4495
  705MPD2    H710486   4.397   2.601  16.112 -0.4711  0.0180  0.1739
  706TMC3    C110487   0.052   2.545  15.838  0.2007  0.8790 -0.4481
  706TMC3    C210488   0.085   2.657  15.909 -0.9998  0.3601  0.7444
  706TMC3    C310489   0.013   2.674  16.024  0.1124 -0.5690  0.2890
  706TMC3    C410490   4.675   2.478  15.867 -0.5687  0.2306  0.6276
  706TMC3    C510491   4.599   2.505  15.976  0.0670  0.2343 -0.4438
  706TMC3    C610492   4.631   2.609  16.057 -0.3732  0.0736  0.1003
  706TMC3     C10493   0.102   2.532  15.708 -0.0494  0.0057 -0.8942
  706TMC3     O10494   0.082   2.424  15.654  0.3926  0.5191  0.3796
  706TMC3     H10495   0.169   2.720  15.883 -0.2437 -1.1353 -0.4927
  706TMC3    H110496   4.635   2.405  15.798 -0.5483  1.4947 -0.7392
  706TMC3    H210497   4.589   2.623  16.156 -0.4226 -1.8964  0.3628
  706TMC3    C710498   4.468   2.441  15.997  0.0437  0.1121 -0.2981
  706TMC3    C810499   0.008   2.817  16.056  0.6011 -0.3151 -0.4046
  706TMC3    O110500   4.467   2.331  15.948 -0.5245  0.6264  0.3257
  706TMC3    O210501   0.045   2.899  15.976  0.4910 -0.0620 -0.4280
  707TMC3    C110502   1.795   1.795   1.368  0.1374  0.4734 -0.4092
  707TMC3    C210503   1.861   1.700   1.441 -0.5168  0.1129  0.1956
  707TMC3    C310504   1.811   1.669   1.564 -0.2607  1.0655 -0.1233
  707TMC3    C410505   1.684   1.858   1.420 -0.3698 -0.3147 -0.1468
  707TMC3    C510506   1.645   1.833   1.551 -0.4497  0.0828 -0.3463
  707TMC3    C610507   1.710   1.739   1.619 -0.1851  0.3332 -0.0452
  707TMC3     C10508   1.811   1.807   1.226  0.5688 -0.1419  0.0439
  707TMC3     O10509   1.759   1.899   1.168  0.1473 -0.0372 -0.4944
  707TMC3     H10510   1.950   1.655   1.400 -0.8254 -1.0998  0.8636
  707TMC3    H110511   1.618   1.920   1.360 -1.4714 -1.7140 -0.3707
  707TMC3    H210512   1.683   1.727   1.723 -2.1175  0.1203 -0.5712
  707TMC3    C710513   1.514   1.868   1.591  0.2620  0.0589  0.3552
  707TMC3    C810514   1.898   1.599   1.654  0.2622 -0.3546 -0.0816
  707TMC3    O110515   1.463   1.780   1.663  0.2748 -0.3281  0.6078
  707TMC3    O210516   1.882   1.619   1.774  0.0906  0.0821 -0.5019
  708MPD2     C10517   2.754   0.783  13.926  0.3244  0.6653  0.7880
  708MPD2    C110518   2.616   0.794  13.945 -0.5051 -0.3835  0.2089
  708MPD2    C210519   2.563   0.723  14.052 -0.1046  0.1813 -0.5323
  708MPD2    C310520   2.636   0.644  14.142  0.3950 -0.5768  0.4984
  708MPD2    C410521   2.768   0.636  14.116  0.4741 -0.7134 -0.3351
  708MPD2    C510522   2.825   0.707  14.009  0.6509 -0.2036  0.1922
  708MPD2     H10523   2.455   0.730  14.062 -0.0924  0.5059 -0.6212
  708MPD2    H110524   2.825   0.580  14.189 -0.8487 -0.3049  1.0005
  708MPD2    H210525   2.796   0.817  13.832  0.8060 -0.9460  0.4132
  708MPD2    H310526   2.930   0.694  13.985  0.0196 -1.3747 -1.9994
  708MPD2     N10527   2.585   0.587  14.262  0.2467 -0.1916 -0.2047
  708MPD2    H510528   2.645   0.561  14.339 -0.6980  1.4002  1.0907
  708MPD2    N110529   2.538   0.876  13.860 -0.2422  0.7724 -0.4657
  708MPD2    H710530   2.593   0.928  13.791 -0.1195  1.3390  0.0535
  709TMC3    C110531   2.355   0.988  13.768  0.3035  0.3202 -0.1336
  709TMC3    C210532   2.363   0.933  13.646 -0.3235 -0.3370 -0.3340
  709TMC3    C310533   2.257   0.935  13.564  0.2217  0.5416 -0.2480
  709TMC3    C410534   2.235   1.035  13.812  0.0631  0.3525 -0.5162
  709TMC3    C510535   2.117   1.025  13.740 -0.1871  0.3987 -0.3319
  709TMC3    C610536   2.129   0.966  13.612  0.4406 -0.1741  0.9442
  709TMC3     C10537   2.406   0.906  13.872  0.4174 -0.1550  0.2533
  709TMC3     O10538   2.333   0.896  13.964  0.3107 -0.1643 -0.0389
  709TMC3     H10539   2.461   0.902  13.610 -1.6977 -1.7629 -2.8407
  709TMC3    H110540   2.232   1.091  13.905  4.0234  1.6459 -1.1540
  709TMC3    H210541   2.035   0.944  13.565  1.1022 -0.2957 -0.3103
  709TMC3    C710542   2.010   0.973  13.824  0.7017  0.0915  0.3960
  709TMC3    C810543   2.269   0.867  13.431  0.0887 -0.8173 -0.0637
  709TMC3    O110544   1.898   0.999  13.788  0.4713  0.1053  0.2462
  709TMC3    O210545   2.169   0.809  13.390 -0.3288 -0.0181  0.1437
  710TMC3    C110546   3.485   1.963   0.122 -0.3217 -0.9008 -0.4887
  710TMC3    C210547   3.573   2.010   0.024 -0.2607  0.2902  0.2801
  710TMC3    C310548   3.660   1.922  17.711 -0.5875 -0.2107  0.3140
  710TMC3    C410549   3.488   1.827   0.152 -0.3817  0.5729 -0.2579
  710TMC3    C510550   3.580   1.750   0.095 -0.1599 -0.7800  0.2510
  710TMC3    C610551   3.669   1.795   0.005  0.1211  0.0870 -0.3241
  710TMC3     C10552   3.364   2.032   0.164 -1.0306 -0.6234 -0.7626
  710TMC3     O10553   3.270   1.960   0.203  0.3303 -0.3975 -0.1810
  710TMC3     H10554   3.552   2.104  17.719  0.6221 -0.1639 -0.9205
  710TMC3    H110555   3.436   1.798   0.243  0.3549 -1.1850 -0.4031
  710TMC3    H210556   3.727   1.721  17.696  0.0789 -0.1426 -0.0549
  710TMC3    C710557   3.578   1.607   0.139 -0.0233  0.6976 -0.9318
  710TMC3    C810558   3.750   1.966  17.595 -0.7538 -0.3249 -0.0626
  710TMC3    O110559   3.544   1.580   0.255  0.0448  0.1178  0.4659
  710TMC3    O210560   3.787   1.877  17.514 -0.2881 -0.0305  0.0512
  711TMC3    C110561   3.701   3.370  14.874  0.3291 -0.1445  0.2611
  711TMC3    C210562   3.694   3.422  14.999  0.1888  0.1119  0.4378
  711TMC3    C310563   3.817   3.448  15.059  0.4917  0.0530  0.6353
  711TMC3    C410564   3.822   3.331  14.814 -0.4235  0.0614  0.3084
  711TMC3    C510565   3.935   3.358  14.874  0.6692  0.3493 -0.0745
  711TMC3    C610566   3.936   3.414  15.001  0.1265  1.3374 -0.1919
  711TMC3     C10567   3.605   3.266  14.863  0.0558  0.3567  0.4923
  711TMC3     O10568   3.585   3.228  14.748  0.3670  0.3700 -0.2271
  711TMC3     H10569   3.600   3.460  15.037 -0.0754 -1.0796  1.0041
  711TMC3    H110570   3.816   3.290  14.714  2.0416  0.5486 -0.0450
  711TMC3    H210571   4.031   3.414  15.054 -1.0001 -0.1693  1.8198
  711TMC3    C710572   4.006   3.228  14.879 -0.4380 -0.2009  0.5326
  711TMC3    C810573   3.814   3.491  15.194  0.0897  0.3547 -0.4656
  711TMC3    O110574   4.114   3.220  14.939 -0.3223 -0.0055 -0.0394
  711TMC3    O210575   3.704   3.520  15.235  0.1728 -0.1952  0.4648
  712MPD2     C10576   0.369   4.240  14.203 -0.7507 -0.3552  0.0861
  712MPD2    C110577   0.363   4.247  14.066  0.3374  0.7473 -0.0067
  712MPD2    C210578   0.397   4.366  14.004 -0.0259  0.3516 -0.5950
  712MPD2    C310579   0.435   4.477  14.078  0.3052  0.9240 -0.0013
  712MPD2    C410580   0.447   4.475  14.219  0.5486 -0.2348  0.5213
  712MPD2    C510581   0.423   4.353  14.277  0.8478 -0.2998 -0.1712
  712MPD2     H10582   0.398   4.367  13.896  1.9080 -3.2670 -0.6230
  712MPD2    H110583   0.467   4.561  14.281  0.8409 -0.9359  1.4091
  712MPD2    H210584   0.345   4.147  14.255  0.0197 -1.5664 -1.7331
  712MPD2    H310585   0.439   4.337  14.383 -1.5262 -0.4362  0.1572
  712MPD2     N10586   0.474   4.593  14.010  0.3150  0.1312  0.2046
  712MPD2    H510587   0.504   4.594  13.913 -0.3276 -1.0512  0.0070
  712MPD2    N110588   0.328   4.144  13.983  0.1778 -0.3585  0.3773
  712MPD2    H710589   0.350   4.164  13.885  0.6586  0.8863  0.7330
  713TMC3    C110590   0.516   0.083  13.976 -0.0599 -0.1690  0.1155
  713TMC3    C210591   0.594   0.042  13.872  0.0973  0.1439  0.2955
  713TMC3    C310592   0.563   0.094  13.746 -0.2296 -0.1293 -0.2974
  713TMC3    C410593   0.415   0.171  13.964  0.0607 -0.1364 -0.4351
  713TMC3    C510594   0.386   0.216  13.838  0.2991  0.5727 -0.4060
  713TMC3    C610595   0.453   0.176  13.727  0.1115 -0.6541  0.3287
  713TMC3     C10596   0.476   4.713  14.067 -0.8992 -0.2340  0.8701
  713TMC3     O10597   0.401   0.013  14.157  0.4055  0.3511 -0.4563
  713TMC3     H10598   0.688   4.724  13.879  0.6404  0.9509 -0.6257
  713TMC3    H110599   0.366   0.210  14.053  0.5552  0.0652 -0.2482
  713TMC3    H210600   0.436   0.227  13.633  0.1054 -1.3383 -0.0339
  713TMC3    C710601   0.297   0.332  13.825 -0.3816 -0.2861 -0.0995
  713TMC3    C810602   0.657   0.094  13.642  0.3668 -0.6296 -0.4452
  713TMC3    O110603   0.257   0.372  13.931  0.1281  0.1995 -0.0350
  713TMC3    O210604   0.649   0.197  13.577  0.3956 -0.4964 -0.0280
  714MPD2     C10605   2.729   3.169   1.429 -0.1790  1.0305  0.8870
  714MPD2    C110606   2.734   3.103   1.314 -0.2299 -0.3918  0.2504
  714MPD2    C210607   2.618   3.102   1.236  0.4021  0.1706  0.2607
  714MPD2    C310608   2.510   3.183   1.267  0.6642 -0.1146 -0.6264
  714MPD2    C410609   2.516   3.254   1.387 -0.3947 -0.4752  0.0593
  714MPD2    C510610   2.621   3.246   1.466  0.4337  0.5742 -0.1780
  714MPD2     H10611   2.611   3.055   1.138 -0.8428 -0.8760  0.8413
  714MPD2    H110612   2.437   3.310   1.436 -0.7221 -1.6863  0.9074
  714MPD2    H210613   2.815   3.167   1.495  1.0278 -1.1187 -0.7441
  714MPD2    H310614   2.627   3.302   1.558  0.4711  2.3042 -1.2284
  714MPD2     N10615   2.400   3.186   1.177 -0.3966 -0.1842 -0.2336
  714MPD2    H510616   2.391   3.116   1.104  1.7349 -0.2560 -0.4069
  714MPD2    N110617   2.857   3.044   1.274  0.1480 -0.0816 -0.6838
  714MPD2    H710618   2.936   3.083   1.325  0.2359 -0.6796 -0.3633
  715TMC3    C110619   3.011   2.915   1.145  0.7218 -0.0294 -0.0867
  715TMC3    C210620   3.036   2.785   1.099 -0.0049  0.6838 -0.1891
  715TMC3    C310621   3.172   2.752   1.088  0.1151  0.6382  0.2393
  715TMC3    C410622   3.109   2.999   1.194 -0.3132 -0.4614 -0.5847
  715TMC3    C510623   3.238   2.952   1.193  0.1997  0.2633  0.4692
  715TMC3    C610624   3.273   2.838   1.130 -0.4568 -0.6206 -0.5201
  715TMC3     C10625   2.874   2.952   1.175 -0.7237 -0.1405 -0.5150
  715TMC3     O10626   2.793   2.883   1.121  1.0217 -0.1087 -0.0124
  715TMC3     H10627   2.961   2.723   1.050  0.5458 -1.6008  1.8426
  715TMC3    H110628   3.090   3.105   1.209 -0.9709 -0.3499 -2.2057
  715TMC3    H210629   3.374   2.798   1.138  0.0837  0.0387 -4.4095
  715TMC3    C710630   3.350   3.040   1.224 -0.6901 -0.7900 -0.0554
  715TMC3    C810631   3.202   2.645   0.993 -0.7501  0.8666 -0.4005
  715TMC3    O110632   3.462   3.021   1.180  0.3630  0.0243  0.3075
  715TMC3    O210633   3.105   2.603   0.932 -0.1455  0.1911 -0.2780
  716MPD2     C10634   2.033   1.239  10.116 -0.8379  0.1044  0.3920
  716MPD2    C110635   1.929   1.233  10.024 -0.3657  0.2289  0.2678
  716MPD2    C210636   1.928   1.133   9.934  0.6851 -0.7563 -0.7095
  716MPD2    C310637   2.020   1.030   9.935 -0.9536  0.5885  0.1837
  716MPD2    C410638   2.121   1.035  10.034 -0.3109 -0.4874  0.3456
  716MPD2    C510639   2.126   1.139  10.125  0.0432  0.2437  0.0948
  716MPD2     H10640   1.851   1.133   9.857  0.3502  0.9280 -0.3755
  716MPD2    H110641   2.186   0.949  10.046 -1.9781 -1.8676 -0.4937
  716MPD2    H210642   2.041   1.320  10.188 -0.9274 -0.1122  0.6443
  716MPD2    H310643   2.208   1.143  10.196  0.2985  3.1884 -0.3742
  716MPD2     N10644   1.999   0.917   9.848 -0.1203  0.1843 -0.1478
  716MPD2    H510645   1.917   0.928   9.790 -0.6667 -0.6244  0.4910
  716MPD2    N110646   1.846   1.347  10.014  0.3163 -0.5155  0.1059
  716MPD2    H710647   1.863   1.417  10.086  2.8011 -0.4207 -0.5717
  717TMC3    C110648   2.032   0.706   9.743  0.0168  0.1621 -0.4199
  717TMC3    C210649   1.958   0.742   9.635 -0.4845 -0.1859 -0.9529
  717TMC3    C310650   1.961   0.660   9.529  0.7898  0.2013 -0.2507
  717TMC3    C410651   2.098   0.582   9.748  0.1874  0.2864 -0.0101
  717TMC3    C510652   2.095   0.503   9.639  0.6003  0.1824  0.1393
  717TMC3    C610653   2.029   0.542   9.526 -0.0927  0.2850 -0.0101
  717TMC3     C10654   2.071   0.798   9.851 -0.8372  0.4261  0.6871
  717TMC3     O10655   2.182   0.771   9.898 -0.4191 -0.7587  0.2924
  717TMC3     H10656   1.903   0.835   9.628  0.2010  0.5184  3.2884
  717TMC3    H110657   2.138   0.550   9.844 -0.1039 -0.6855 -0.2102
  717TMC3    H210658   2.027   0.477   9.440 -3.3007  3.2146 -2.1063
  717TMC3    C710659   2.130   0.370   9.671  0.0463 -0.3041  0.2735
  717TMC3    C810660   1.909   0.728   9.411  0.1657  0.0148  0.3140
  717TMC3    O110661   2.207   0.354   9.766  0.1221  0.0486 -0.1986
  717TMC3    O210662   1.908   0.849   9.405  0.4087 -0.1934  0.6923
  718MPD2     C10663   2.144   4.693  13.325  0.7456 -0.3213 -0.4202
  718MPD2    C110664   2.076   4.640  13.214 -0.2814 -0.4484  0.1804
  718MPD2    C210665   2.045   4.500  13.214  0.4026  0.3884 -0.5564
  718MPD2    C310666   2.089   4.414  13.312  0.5529 -0.2296  0.3578
  718MPD2    C410667   2.151   4.467  13.422  0.3822  0.0452  0.0657
  718MPD2    C510668   2.177   4.605  13.425 -0.0104 -0.1453  0.3735
  718MPD2     H10669   1.975   4.457  13.143 -1.6116  0.3363  1.4499
  718MPD2    H110670   2.190   4.403  13.500 -0.0598  0.7565  0.8651
  718MPD2    H210671   2.175   0.059  13.338 -0.8947  0.1115  0.1270
  718MPD2    H310672   2.236   4.647  13.505 -0.9962  1.6620  0.1596
  718MPD2     N10673   2.098   4.270  13.302  0.5810  0.8235  0.8755
  718MPD2    H510674   2.130   4.216  13.382 -0.1504  1.1638  1.3954
  718MPD2    N110675   2.032   0.005  13.115  0.1329  0.5789 -0.2241
  718MPD2    H710676   2.067   0.098  13.132 -2.3506  1.8781 -2.2295
  719TMC3    C110677   1.954   0.083  12.896 -0.0444  0.0660 -0.1912
  719TMC3    C210678   1.886   0.031  12.792 -0.6985  0.9563  0.7481
  719TMC3    C310679   1.935   0.057  12.665  0.1557  0.2033 -0.2458
  719TMC3    C410680   2.072   0.150  12.880  0.2941  0.3057 -0.0357
  719TMC3    C510681   2.116   0.175  12.751  0.5449  0.2194  0.2889
  719TMC3    C610682   2.054   0.118  12.648  0.3242 -0.1924  0.2711
  719TMC3     C10683   1.963   4.716  12.996 -0.3876  0.1331 -0.0116
  719TMC3     O10684   1.901   4.612  12.974 -0.0295 -0.4249 -0.1112
  719TMC3     H10685   1.801   4.701  12.793 -1.4546  1.8785 -1.7051
  719TMC3    H110686   2.134   0.164  12.968  0.3226  1.4036 -0.2256
  719TMC3    H210687   2.106   0.118  12.553  0.3944 -0.0374  0.3099
  719TMC3    C710688   2.245   0.218  12.724 -0.1435 -0.2414 -0.4122
  719TMC3    C810689   1.918   4.666  12.596  0.1569  0.4248  0.4068
  719TMC3    O110690   2.272   0.243  12.608  0.3826 -0.5662  0.2607
  719TMC3    O210691   1.887   4.667  12.482 -0.0321  0.2088 -0.2297
  720MPD2     C10692   0.145   1.932  14.151 -0.5732  0.3373 -0.0767
  720MPD2    C110693   0.226   1.892  14.046 -0.2305 -0.8728 -0.1481
  720MPD2    C210694   0.357   1.855  14.062  0.2521  0.6359 -0.3645
  720MPD2    C310695   0.416   1.839  14.183 -0.7970  0.0417  0.3366
  720MPD2    C410696   0.335   1.863  14.298  0.0284 -0.0280 -0.1822
  720MPD2    C510697   0.207   1.916  14.276  0.1131  0.1415 -0.2893
  720MPD2     H10698   0.420   1.838  13.976  0.2599  1.2672 -0.4862
  720MPD2    H110699   0.367   1.845  14.400 -1.3030 -1.9561 -0.1171
  720MPD2    H210700   0.046   1.976  14.154 -0.6747  0.0692  0.4968
  720MPD2    H310701   0.144   1.934  14.362  0.7467  3.2631 -0.4719
  720MPD2     N10702   0.547   1.787  14.193 -0.4015  0.0639  0.0548
  720MPD2    H510703   0.585   1.750  14.107 -0.5697 -2.6078  1.0995
  720MPD2    N110704   0.180   1.896  13.913 -0.2032 -0.1660 -0.1356
  720MPD2    H710705   0.242   1.861  13.841 -0.6737 -2.5074  0.5792
  721TMC3    C110706   0.749   1.707  14.290 -0.3056  0.3430 -0.4611
  721TMC3    C210707   0.792   1.622  14.390  0.3154  0.3768 -0.7448
  721TMC3    C310708   0.902   1.550  14.366  0.3459 -0.7986  0.0907
  721TMC3    C410709   0.816   1.725  14.171  0.0062 -0.0632  0.9682
  721TMC3    C510710   0.928   1.645  14.153 -0.1883  0.3897 -0.2172
  721TMC3    C610711   0.974   1.549  14.241  0.1588  0.3168  0.3163
  721TMC3     C10712   0.621   1.762  14.307  0.7619 -0.3800  0.3275
  721TMC3     O10713   0.581   1.783  14.422 -0.2464  0.9193 -0.1598
  721TMC3     H10714   0.738   1.611  14.484  0.7273  1.0967 -0.4248
  721TMC3    H110715   0.791   1.812  14.111 -0.2858 -1.1567 -0.4847
  721TMC3    H210716   1.052   1.474  14.235 -0.1467  0.1406 -1.5942
  721TMC3    C710717   1.032   1.688  14.058  0.0207 -0.2406  0.7482
  721TMC3    C810718   0.919   1.430  14.448 -0.5253 -0.4908 -0.3755
  721TMC3    O110719   1.147   1.653  14.078 -0.5117 -0.6446  0.1812
  721TMC3    O210720   0.926   1.327  14.384 -0.2444 -0.3220  0.3847
  722MPD2     C10721   4.298   0.014  13.283  0.1682 -0.1415 -0.5800
  722MPD2    C110722   4.230   0.122  13.244  0.4758 -0.1718  0.1604
  722MPD2    C210723   4.091   0.128  13.259 -0.1633 -0.6818 -0.0297
  722MPD2    C310724   4.026   0.020  13.316 -0.3087  0.0907  0.2087
  722MPD2    C410725   4.101   4.643  13.349 -0.3319 -0.0558 -0.6713
  722MPD2    C510726   4.236   4.639  13.332  0.2089  0.2339 -0.1506
  722MPD2     H10727   4.044   0.223  13.239  0.5203 -0.4674 -0.5774
  722MPD2    H110728   4.049   4.555  13.384 -2.4780  0.6331 -2.1342
  722MPD2    H210729   4.406   0.006  13.275  0.2044  0.4770 -0.7134
  722MPD2    H310730   4.294   4.551  13.359  1.3467  1.6676  2.0402
  722MPD2     N10731   3.885   0.033  13.323 -0.6242 -0.4543  0.0283
  722MPD2    H510732   3.838   0.121  13.306 -0.7262 -0.2337  1.4314
  722MPD2    N110733   4.291   0.230  13.181  0.1963  0.0051 -0.4585
  722MPD2    H710734   4.232   0.308  13.156 -0.3026 -0.6908 -1.4526
  723TMC3    C110735   3.657   4.713  13.336  0.0445 -0.3140  0.0758
  723TMC3    C210736   3.567   4.614  13.360 -0.8464 -0.5882  0.6475
  723TMC3    C310737   3.442   4.647  13.399 -0.0227 -0.0598 -0.7030
  723TMC3    C410738   3.625   0.107  13.352 -0.2508 -0.4183  0.5148
  723TMC3    C510739   3.495   0.134  13.397 -0.2069 -0.2076 -1.1616
  723TMC3    C610740   3.396   0.040  13.423  0.7984 -0.1772 -0.1221
  723TMC3     C10741   3.796   4.669  13.330 -0.0581  0.1474 -0.3720
  723TMC3     O10742   3.820   4.552  13.316  0.7089 -0.7181 -0.2320
  723TMC3     H10743   3.600   4.515  13.331  3.2778  0.9451  0.2221
  723TMC3    H110744   3.695   0.189  13.341 -0.8796  0.0577  0.0493
  723TMC3    H210745   3.299   0.068  13.462  1.3683  0.0372  1.1196
  723TMC3    C710746   3.439   0.262  13.372 -0.5165 -0.2793 -0.4997
  723TMC3    C810747   3.345   4.545  13.403 -0.7126 -0.2545 -0.4874
  723TMC3    O110748   3.499   0.370  13.391 -0.1898 -0.1866  0.3033
  723TMC3    O210749   3.239   4.572  13.460 -0.0675 -1.0394 -0.1677
  724TMC3    C110750   4.307   2.585  11.026 -0.7250  0.3027  0.1650
  724TMC3    C210751   4.291   2.554  10.895  0.0683 -0.4012  0.0181
  724TMC3    C310752   4.291   2.652  10.804  0.0883 -0.3602 -0.1671
  724TMC3    C410753   4.320   2.712  11.066 -0.0628 -0.0597  0.1790
  724TMC3    C510754   4.338   2.801  10.967 -1.0553 -0.6210  0.0427
  724TMC3    C610755   4.333   2.773  10.835 -0.0099  0.3089 -0.2945
  724TMC3     C10756   4.326   2.467  11.109  0.3400 -0.2210  0.2351
  724TMC3     O10757   4.271   2.362  11.074  0.6836  0.1949  0.1732
  724TMC3     H10758   4.274   2.451  10.865  1.0841 -0.0969 -1.5818
  724TMC3    H110759   4.331   2.733  11.172 -1.8150 -0.6372  0.4796
  724TMC3    H210760   4.352   2.854  10.766  1.2774 -0.7027 -1.1430
  724TMC3    C710761   4.381   2.932  10.996 -0.4967  0.2566 -0.5635
  724TMC3    C810762   4.269   2.621  10.660 -0.3584 -0.0720  0.0784
  724TMC3    O110763   4.448   2.993  10.908 -0.0642  0.3749 -0.2160
  724TMC3    O210764   4.245   2.506  10.626  0.2749  0.3836  0.1768
  725TMC3    C110765   1.290   1.916  12.977 -0.2627 -0.0833  0.1364
  725TMC3    C210766   1.198   1.968  13.066 -0.1874 -0.1619 -0.5798
  725TMC3    C310767   1.120   1.884  13.140  0.0870 -0.4379  0.2034
  725TMC3    C410768   1.303   1.778  12.968  0.1735  0.0903  0.5380
  725TMC3    C510769   1.220   1.694  13.040 -0.0636  0.8908  0.5468
  725TMC3    C610770   1.124   1.750  13.116 -0.0731  0.0755 -0.0145
  725TMC3     C10771   1.356   2.002  12.884  0.0486  0.2919 -0.6632
  725TMC3     O10772   1.356   2.124  12.910  0.0136  0.5441 -0.1344
  725TMC3     H10773   1.187   2.075  13.075 -0.9884 -0.2096 -0.9913
  725TMC3    H110774   1.379   1.734  12.904  1.3632  2.0802  0.5745
  725TMC3    H210775   1.047   1.690  13.163  1.0408  0.6734  2.5546
  725TMC3    C710776   1.207   1.560  13.001  0.1200  0.0673 -0.5662
  725TMC3    C810777   0.986   1.931  13.156  0.0455  0.4029 -0.2825
  725TMC3    O110778   1.236   1.537  12.883  0.5968  0.0449  0.4329
  725TMC3    O210779   0.957   1.989  13.261 -0.8730  0.3563 -0.9402
  726MPD2     C10780   2.442   3.637   9.656 -0.3177  0.5516 -0.2938
  726MPD2    C110781   2.534   3.655   9.756  0.4255 -0.6743  0.4216
  726MPD2    C210782   2.523   3.580   9.875  0.0996 -0.3561  0.3999
  726MPD2    C310783   2.413   3.506   9.901 -0.0854 -0.0200  1.2220
  726MPD2    C410784   2.326   3.482   9.799  0.5934  0.6452 -0.4385
  726MPD2    C510785   2.344   3.543   9.674 -0.0961  0.0101 -0.4017
  726MPD2     H10786   2.605   3.600   9.943  0.3281 -0.6230  0.2030
  726MPD2    H110787   2.245   3.413   9.816  1.9301 -0.4953  1.3039
  726MPD2    H210788   2.442   3.704   9.570  0.8031  0.6211 -0.2389
  726MPD2    H310789   2.267   3.533   9.598  0.9828 -0.3768 -1.4420
  726MPD2     N10790   2.394   3.422  10.009  0.2442  0.1922  0.2523
  726MPD2    H510791   2.316   3.357  10.007 -0.7150  1.3737 -0.2584
  726MPD2    N110792   2.639   3.747   9.758 -0.1662  0.4965 -0.1314
  726MPD2    H710793   2.694   3.748   9.843  0.2151  1.4082 -0.3825
  727TMC3    C110794   2.753   3.944   9.693  0.3170  0.1793 -0.2892
  727TMC3    C210795   2.791   3.962   9.823  0.2165  0.4168 -0.1346
  727TMC3    C310796   2.852   4.082   9.853 -0.3911 -0.4813  0.2309
  727TMC3    C410797   2.784   4.039   9.604  0.0322 -0.3232 -1.0093
  727TMC3    C510798   2.849   4.155   9.631  0.2142  0.1536  0.0903
  727TMC3    C610799   2.875   4.177   9.757 -0.7938 -0.5098 -0.4956
  727TMC3     C10800   2.680   3.825   9.653  0.3160  0.3252  0.3512
  727TMC3     O10801   2.629   3.826   9.544 -0.3245  0.0873 -0.0961
  727TMC3     H10802   2.761   3.897   9.905  2.2477  0.9113  1.0183
  727TMC3    H110803   2.756   4.031   9.500  1.1630  2.1645 -1.5254
  727TMC3    H210804   2.920   4.269   9.792  2.3252 -2.4453  0.5067
  727TMC3    C710805   2.822   4.279   9.553 -0.3621  0.4969  0.4775
  727TMC3    C810806   2.877   4.117   9.996 -0.3451  0.1663 -0.2881
  727TMC3    O110807   2.707   4.276   9.504 -0.1563  0.1296  0.1894
  727TMC3    O210808   2.909   4.033  10.079  0.3186  0.0625 -0.2762
  728TMC3    C110809   2.688   1.984  15.338 -0.2517  0.6822 -0.3282
  728TMC3    C210810   2.795   2.063  15.373  0.0024 -0.7681  1.1427
  728TMC3    C310811   2.887   2.097  15.272  0.0297  0.3149 -0.6202
  728TMC3    C410812   2.670   1.957  15.205 -0.3013 -0.3283 -0.2054
  728TMC3    C510813   2.754   2.002  15.110 -0.5466 -0.0908  0.0122
  728TMC3    C610814   2.865   2.079  15.140  0.0374  0.1563  0.2508
  728TMC3     C10815   2.637   1.889  15.442 -0.3796  0.0687 -0.1854
  728TMC3     O10816   2.515   1.869  15.438 -0.0565  0.0228 -0.2400
  728TMC3     H10817   2.819   2.086  15.477 -1.7424  0.0059  1.3841
  728TMC3    H110818   2.583   1.897  15.181 -2.4291  2.6376  0.0442
  728TMC3    H210819   2.943   2.117  15.076  1.6209  1.0512  2.7012
  728TMC3    C710820   2.692   2.011  14.974  0.7656  0.3059 -0.0872
  728TMC3    C810821   2.983   2.201  15.306 -0.0805  0.5670 -0.8435
  728TMC3    O110822   2.608   1.932  14.930 -0.3822 -0.2162 -0.2423
  728TMC3    O210823   2.946   2.288  15.380  0.3463  0.8016  0.2168
  729MPD2     C10824   0.210   3.275  16.729  0.3503  0.2029  0.0593
  729MPD2    C110825   0.335   3.296  16.791  0.5206  0.2705  0.1444
  729MPD2    C210826   0.351   3.293  16.927 -0.0857 -0.6170 -0.1513
  729MPD2    C310827   0.240   3.276  17.010 -0.5770 -0.1345  0.0320
  729MPD2    C410828   0.118   3.267  16.946  0.3809 -0.2700 -0.8387
  729MPD2    C510829   0.099   3.261  16.809 -0.0053  0.2235  0.1453
  729MPD2     H10830   0.445   3.311  16.979 -0.4145  1.9469 -0.4420
  729MPD2    H110831   0.021   3.274  16.994  1.6753  0.1508  1.7362
  729MPD2    H210832   0.203   3.273  16.621 -1.8066 -0.6408  0.2248
  729MPD2    H310833   0.003   3.245  16.761 -0.6923  2.9884  0.6102
  729MPD2     N10834   0.242   3.277  17.150  0.0047 -0.0432  0.4191
  729MPD2    H510835   0.152   3.279  17.196 -0.6638  2.3881 -1.0085
  729MPD2    N110836   0.445   3.330  16.702 -0.1946 -0.2446  0.0765
  729MPD2    H710837   0.431   3.360  16.606  2.1234  1.7945  0.3823
  730TMC3    C110838   0.346   3.322  17.359  0.0854  0.1542  0.6939
  730TMC3    C210839   0.462   3.327  17.436 -0.1570 -1.0813  0.5757
  730TMC3    C310840   0.482   3.429  17.525 -0.3390 -0.9487  0.5630
  730TMC3    C410841   0.250   3.423  17.379 -0.2459 -0.3391 -0.5191
  730TMC3    C510842   0.270   3.516  17.478  0.6399 -0.1094  0.3629
  730TMC3    C610843   0.384   3.515  17.553 -0.0643  0.1078 -0.3666
  730TMC3     C10844   0.359   3.270  17.228  0.6013 -0.3716 -1.0032
  730TMC3     O10845   0.474   3.231  17.197 -0.3824 -0.1111 -0.1574
  730TMC3     H10846   0.541   3.255  17.416  1.6520  0.7485  1.1295
  730TMC3    H110847   0.154   3.418  17.328 -0.6316  3.2591 -0.1437
  730TMC3    H210848   0.397   3.566  17.647  1.3854  0.4937 -0.7732
  730TMC3    C710849   0.227   3.650  17.442  0.1028 -0.7532 -1.1141
  730TMC3    C810850   0.602   3.500  17.498  0.0894  0.1854 -0.3240
  730TMC3    O110851   0.192   3.674  17.327 -0.2517  0.1631 -0.6681
  730TMC3    O210852   0.678   3.455  17.418  0.3654 -0.3111 -0.1224
  731MPD2     C10853   0.304   1.863  12.547  0.1558  1.1820  0.2889
  731MPD2    C110854   0.248   1.742  12.524  0.3573 -0.0639  0.2353
  731MPD2    C210855   0.190   1.672  12.632 -0.2492 -0.2057 -0.2391
  731MPD2    C310856   0.179   1.730  12.756 -0.8098  0.2070  0.8613
  731MPD2    C410857   0.238   1.855  12.774  0.1298 -0.2384  0.0149
  731MPD2    C510858   0.307   1.916  12.677 -0.2660  0.0061  0.9047
  731MPD2     H10859   0.150   1.573  12.613  2.3138 -0.8079 -2.6209
  731MPD2    H110860   0.245   1.905  12.869  0.9189  0.5103 -0.4353
  731MPD2    H210861   0.356   1.915  12.468  0.7212 -2.2294 -1.5807
  731MPD2    H310862   0.369   2.004  12.693 -2.0417  1.3648  0.3730
  731MPD2     N10863   0.123   1.656  12.855 -0.2575 -0.5492  0.0428
  731MPD2    H510864   0.097   1.558  12.846 -0.6749 -0.4540  0.2180
  731MPD2    N110865   0.261   1.681  12.392 -0.4183 -0.0997  0.1104
  731MPD2    H710866   0.295   1.735  12.313  0.6032 -0.0306  0.6005
  732TMC3    C110867   0.229   1.542  12.216 -0.1639 -0.1106 -0.6350
  732TMC3    C210868   0.149   1.453  12.157  0.4130  0.1669 -0.7143
  732TMC3    C310869   0.177   1.411  12.027 -0.1619  0.0510  0.3065
  732TMC3    C410870   0.343   1.581  12.148 -0.4836  0.4058  0.1975
  732TMC3    C510871   0.356   1.549  12.008  0.3428  0.6434  0.5106
  732TMC3    C610872   0.270   1.469  11.944 -0.4755  0.7507  0.0125
  732TMC3     C10873   0.213   1.567  12.357 -0.5309  0.4798  0.3853
  732TMC3     O10874   0.138   1.485  12.411  0.3192 -0.0821  0.3574
  732TMC3     H10875   0.056   1.426  12.206 -0.3226 -1.2189 -2.8729
  732TMC3    H110876   0.424   1.634  12.199  0.4175 -0.2769 -0.5203
  732TMC3    H210877   0.301   1.428  11.848  0.3678  0.7483  0.2901
  732TMC3    C710878   0.492   1.522  11.963  0.4604 -0.0657  0.6815
  732TMC3    C810879   0.124   1.287  11.978 -0.1044 -0.5741 -0.1307
  732TMC3    O110880   0.506   1.535  11.843 -0.3099  0.7522  0.8897
  732TMC3    O210881   0.132   1.261  11.859  0.0725 -0.9033 -0.0942
  733TMC3    C110882   1.831   3.969  13.257  0.8148 -0.1541  0.5003
  733TMC3    C210883   1.943   4.038  13.301  0.4804  0.1231 -1.0509
  733TMC3    C310884   2.039   4.066  13.207 -0.3283  0.0370 -0.9503
  733TMC3    C410885   1.810   3.937  13.126 -0.7074  0.0862 -0.2356
  733TMC3    C510886   1.906   3.958  13.035  1.1039 -0.1526 -0.3938
  733TMC3    C610887   2.030   4.012  13.079  0.0875  1.2246  0.8204
  733TMC3     C10888   1.714   4.001  13.335 -0.1344  0.1043  0.3458
  733TMC3     O10889   1.709   4.107  13.401  0.4094 -0.2301 -0.5100
  733TMC3     H10890   1.938   4.093  13.394  0.0016  1.0652 -1.6404
  733TMC3    H110891   1.716   3.899  13.089 -0.9434  0.2494  0.2035
  733TMC3    H210892   2.114   4.036  13.016 -0.8627  0.6794 -0.6403
  733TMC3    C710893   1.863   4.006  12.903 -0.2047  0.1355 -0.2921
  733TMC3    C810894   2.065   4.204  13.186 -0.5765  0.1689  0.1622
  733TMC3    O110895   1.788   3.935  12.837  0.0006 -0.4426  0.1070
  733TMC3    O210896   2.045   4.246  13.072  0.3988  0.2037 -0.2382
  734MPD2     C10897   3.565   2.093  12.662 -0.9622  0.3690 -0.4450
  734MPD2    C110898   3.461   2.023  12.602 -0.2390 -0.3933  0.3113
  734MPD2    C210899   3.416   2.066  12.478  0.1195 -0.2252 -0.3582
  734MPD2    C310900   3.477   2.164  12.411 -0.3610  0.2475  0.4070
  734MPD2    C410901   3.579   2.233  12.467  0.2276  0.1841 -0.0665
  734MPD2    C510902   3.621   2.203  12.593  0.2967  0.3389 -0.2080
  734MPD2     H10903   3.331   2.019  12.430  0.3150  0.0168 -0.9349
  734MPD2    H110904   3.628   2.311  12.410  2.6929  0.0481  1.8826
  734MPD2    H210905   3.577   2.080  12.769  1.0948  1.2196 -0.5599
  734MPD2    H310906   3.689   2.272  12.642 -0.5307  1.0646 -0.0994
  734MPD2     N10907   3.433   2.184  12.278 -0.2046 -0.0517  0.2942
  734MPD2    H510908   3.360   2.118  12.255  1.8895 -2.7405  1.2890
  734MPD2    N110909   3.423   1.901  12.668 -0.0825  0.1735 -0.6385
  734MPD2    H710910   3.468   1.876  12.756 -0.1421  0.0387 -0.6459
  735TMC3    C110911   3.351   1.689  12.691  1.0667  0.2489  0.7206
  735TMC3    C210912   3.244   1.613  12.660 -0.1358  0.3467  0.6440
  735TMC3    C310913   3.264   1.487  12.623  0.3442 -0.1024 -0.0510
  735TMC3    C410914   3.474   1.636  12.697  0.5059  0.0923 -0.9756
  735TMC3    C510915   3.489   1.508  12.655  0.8126  0.5991  1.3525
  735TMC3    C610916   3.389   1.428  12.625 -0.5058  0.0561 -0.1637
  735TMC3     C10917   3.336   1.815  12.619 -0.7368 -1.1010  0.2095
  735TMC3     O10918   3.281   1.816  12.512 -0.6548 -0.0679 -0.0035
  735TMC3     H10919   3.150   1.662  12.638  0.0805  0.1188 -0.7867
  735TMC3    H110920   3.561   1.698  12.719 -0.7793  1.1387  1.1888
  735TMC3    H210921   3.392   1.324  12.593  2.4605 -0.5216  1.9741
  735TMC3    C710922   3.620   1.470  12.605 -0.4728  0.3713 -0.1645
  735TMC3    C810923   3.203   1.451  12.495 -0.4884  0.3781 -0.0466
  735TMC3    O110924   3.692   1.563  12.574  0.0589  0.2505 -0.0937
  735TMC3    O210925   3.158   1.339  12.474  0.1917  0.2825  0.6942
  736MPD2     C10926   3.769   1.141  12.540 -0.0144  0.5612  0.0031
  736MPD2    C110927   3.743   1.274  12.519  0.5814 -0.7925  0.0669
  736MPD2    C210928   3.839   1.336  12.437  0.0403 -0.0438  0.0227
  736MPD2    C310929   3.934   1.261  12.369  0.2529 -0.5275  0.8284
  736MPD2    C410930   3.947   1.127  12.388  0.1165  0.1269 -0.6330
  736MPD2    C510931   3.863   1.063  12.478  0.3657  0.5422 -0.1730
  736MPD2     H10932   3.843   1.445  12.439  1.3177 -0.0939 -0.1716
  736MPD2    H110933   4.013   1.069  12.325 -1.7424 -2.7725  0.0800
  736MPD2    H210934   3.693   1.086  12.594 -0.0224  0.4796 -0.0926
  736MPD2    H310935   3.873   0.959  12.505 -1.6532  0.4700  0.2888
  736MPD2     N10936   4.034   1.319  12.282 -0.0295 -0.2425 -0.4036
  736MPD2    H510937   4.117   1.263  12.262 -1.2734 -1.9394 -0.8797
  736MPD2    N110938   3.633   1.335  12.584  0.0415 -0.5698 -0.2541
  736MPD2    H710939   3.559   1.278  12.624 -0.2602 -1.0776 -1.5370
  737TMC3    C110940   4.153   1.473  12.169 -0.0350 -0.2318  0.0778
  737TMC3    C210941   4.169   1.601  12.129  0.2445 -0.0376 -0.4519
  737TMC3    C310942   4.268   1.626  12.038  0.2109  0.1731 -0.0360
  737TMC3    C410943   4.218   1.372  12.110 -0.3573  0.0718 -0.1764
  737TMC3    C510944   4.307   1.400  12.013  0.0258 -0.2246  0.5605
  737TMC3    C610945   4.329   1.533  11.975  0.0156  0.1048 -0.3127
  737TMC3     C10946   4.041   1.450  12.253 -0.3873 -0.0566  0.1944
  737TMC3     O10947   3.976   1.543  12.298 -0.5641 -0.1824  0.2660
  737TMC3     H10948   4.111   1.685  12.164 -1.9444 -1.1566 -1.4177
  737TMC3    H110949   4.214   1.267  12.138  1.7119  0.3333  1.0902
  737TMC3    H210950   4.408   1.558  11.904  0.4193 -1.2465 -0.3347
  737TMC3    C710951   4.363   1.289  11.930  0.0392  0.6369  0.7664
  737TMC3    C810952   4.266   1.758  11.975 -0.2741 -0.2843  0.5548
  737TMC3    O110953   4.367   1.175  11.972 -0.2497 -0.3243 -0.2128
  737TMC3    O210954   4.333   1.848  12.021 -0.6521 -0.4994 -0.6154
  738MPD2     C10955   4.141   0.759  15.168  0.1502 -1.0073  0.8323
  738MPD2    C110956   4.219   0.649  15.210  0.4517  0.0556 -0.0408
  738MPD2    C210957   4.361   0.651  15.199  0.1537  0.5348  0.3355
  738MPD2    C310958   4.423   0.769  15.156 -0.5504 -0.3408 -0.7869
  738MPD2    C410959   4.346   0.876  15.120  0.5618 -0.1366  0.0613
  738MPD2    C510960   4.210   0.870  15.122 -0.0444 -0.2811  0.0960
  738MPD2     H10961   4.417   0.567  15.239 -0.6745 -0.2344 -0.1128
  738MPD2    H110962   4.389   0.970  15.087 -2.3744  0.7221 -1.3512
  738MPD2    H210963   4.033   0.759  15.158  0.2151  0.8218  0.1464
  738MPD2    H310964   4.148   0.956  15.096 -1.6962 -1.4853  0.0423
  738MPD2     N10965   4.564   0.778  15.138  0.5907  0.7383 -0.5541
  738MPD2    H510966   4.602   0.860  15.091  1.5394  1.3335  1.2273
  738MPD2    N110967   4.160   0.522  15.241  0.5165 -0.1007 -0.0888
  738MPD2    H710968   4.228   0.447  15.252 -0.2754 -0.7099  0.6050
  739TMC3    C110969   0.048   0.722  15.133  0.3489 -0.2920 -0.1884
  739TMC3    C210970   0.058   0.750  14.999  0.2800 -0.1504  0.2317
  739TMC3    C310971   0.141   0.840  14.950  0.9709 -0.7469  0.2566
  739TMC3    C410972   0.123   0.800  15.223 -0.1854 -0.0822 -0.1635
  739TMC3    C510973   0.203   0.900  15.170 -0.3367 -0.4304 -0.9472
  739TMC3    C610974   0.225   0.911  15.032  0.7110  0.8937  0.6790
  739TMC3     C10975   4.656   0.680  15.173 -0.3500  0.6635 -0.0528
  739TMC3     O10976   4.648   0.584  15.248 -0.6386 -0.4475 -0.5931
  739TMC3     H10977   4.724   0.710  14.927 -0.0830  0.0306  0.4896
  739TMC3    H110978   0.098   0.785  15.327 -0.2988 -0.9412 -0.3136
  739TMC3    H210979   0.290   0.991  14.998  0.8377  0.0625 -1.0275
  739TMC3    C710980   0.285   0.979  15.262 -0.1856  0.0925  0.0130
  739TMC3    C810981   0.127   0.884  14.811  0.0606  0.9582 -0.0303
  739TMC3    O110982   0.361   1.056  15.209  0.9615 -0.0741  0.2839
  739TMC3    O210983   0.042   0.832  14.740 -0.1233  0.3048  0.2448
  740TMC3    C110984   4.565   2.342  14.341  0.6724  0.1816  0.2014
  740TMC3    C210985   4.624   2.289  14.449  0.2843  0.4339 -0.1102
  740TMC3    C310986   0.021   2.255  14.440 -0.6019 -0.9489 -0.4992
  740TMC3    C410987   4.624   2.341  14.216 -0.1858  0.1017 -0.5203
  740TMC3    C510988   0.015   2.286  14.209  0.0172 -0.5105 -0.7912
  740TMC3    C610989   0.076   2.242  14.319  0.6294 -0.1608  0.1845
  740TMC3     C10990   4.419   2.369  14.341  0.4041 -0.1526 -0.1627
  740TMC3     O10991   4.377   2.423  14.242 -0.4483 -0.1517  0.3630
  740TMC3     H10992   4.573   2.296  14.544  1.5151 -0.1014  0.5953
  740TMC3    H110993   4.582   2.379  14.123  1.2917  1.7315 -0.5278
  740TMC3    H210994   0.168   2.185  14.309  0.4004 -0.5292  0.1827
  740TMC3    C710995   0.112   2.321  14.104 -0.2719 -0.0554  0.2298
  740TMC3    C810996   0.074   2.180  14.551 -0.6183  0.7265 -0.5818
  740TMC3    O110997   0.227   2.304  14.139 -0.6082  0.3416  0.0831
  740TMC3    O210998   4.730   2.129  14.624  0.2530 -0.3704 -0.3591
  741TMC3    C110999   4.245   1.259  14.501 -0.3572  0.2726 -0.7042
  741TMC3    C211000   4.188   1.131  14.485 -0.7300 -0.5505  0.9249
  741TMC3    C311001   4.141   1.061  14.597 -0.3571 -0.1478 -0.5172
  741TMC3    C411002   4.269   1.314  14.625  0.3488 -0.8424 -0.6085
  741TMC3    C511003   4.234   1.237  14.732 -0.0535  0.3775 -0.3232
  741TMC3    C611004   4.167   1.112  14.721 -0.8019  0.2271  0.5234
  741TMC3     C11005   4.233   1.346  14.391  0.3237  0.4459 -0.4990
  741TMC3     O11006   4.232   1.293  14.280  0.1348  0.8130 -0.2050
  741TMC3     H11007   4.137   1.110  14.391  0.5683  0.2350  0.0442
  741TMC3    H111008   4.335   1.399  14.636  0.1646 -0.9631  1.4484
  741TMC3    H211009   4.136   1.056  14.808  1.0721  0.1226  1.1307
  741TMC3    C711010   4.264   1.279  14.864 -0.7506  0.1175  0.4213
  741TMC3    C811011   4.031   0.975  14.592  0.4408  0.0857 -0.0414
  741TMC3    O111012   4.222   1.211  14.953 -0.3318  0.3084 -0.4494
  741TMC3    O211013   3.953   0.978  14.686  0.1873 -0.2795  0.0677
  742TMC3    C111014   4.283   4.253  15.469  0.5119 -0.2928  0.5660
  742TMC3    C211015   4.201   4.263  15.365  0.5716  0.2069 -0.0047
  742TMC3    C311016   4.211   4.385  15.298 -0.2330 -0.5686 -0.6191
  742TMC3    C411017   4.387   4.341  15.498 -0.5135 -0.1695  0.2002
  742TMC3    C511018   4.401   4.444  15.413  0.2604 -0.0804  0.2611
  742TMC3    C611019   4.312   4.474  15.316 -0.5641 -0.5221  0.1842
  742TMC3     C11020   4.254   4.140  15.560 -0.5242 -0.0303 -0.0171
  742TMC3     O11021   4.210   4.036  15.509 -0.4710 -0.1366  0.1806
  742TMC3     H11022   4.121   4.190  15.358  1.0403 -0.1582 -1.3786
  742TMC3    H111023   4.466   4.314  15.567  1.0656 -1.5653 -2.1449
  742TMC3    H211024   4.324   4.560  15.250 -1.3507  0.2974  1.1053
  742TMC3    C711025   4.533   4.510  15.406 -0.5165 -0.6667  0.1748
  742TMC3    C811026   4.105   4.422  15.206 -0.1950  0.4491  0.3646
  742TMC3    O111027   4.571   4.545  15.300  0.1958 -0.6030 -0.0811
  742TMC3    O211028   4.066   4.536  15.195 -0.4826  0.3113 -0.3615
  743MPD2     C11029   2.773   0.780   1.703 -0.4877  0.0353  0.0214
  743MPD2    C111030   2.721   0.731   1.586 -0.5054 -0.2122 -0.4062
  743MPD2    C211031   2.810   0.663   1.501 -0.1615 -0.6112 -0.7031
  743MPD2    C311032   2.944   0.660   1.514  0.8703  0.1541 -0.3010
  743MPD2    C411033   3.004   0.726   1.623 -0.6598 -0.2013  0.9672
  743MPD2    C511034   2.913   0.775   1.713 -0.0449  0.0037 -0.5759
  743MPD2     H11035   2.773   0.630   1.405  1.6937  0.1601 -1.6847
  743MPD2    H111036   3.110   0.742   1.635 -0.5608 -0.4605  0.4474
  743MPD2    H211037   2.708   0.834   1.770  0.1762 -0.9876  1.5092
  743MPD2    H311038   2.951   0.825   1.802 -1.0034 -2.1116  1.0249
  743MPD2     N11039   3.024   0.624   1.408  0.3825 -0.2300 -0.2088
  743MPD2    H511040   2.973   0.585   1.329  0.3156 -1.9771  0.6954
  743MPD2    N111041   2.590   0.759   1.567  0.4271 -0.0124  0.1747
  743MPD2    H711042   2.541   0.824   1.627  0.6815  0.1998  0.1542
  744TMC3    C111043   2.398   0.748   1.443  0.5284  0.7528 -0.4145
  744TMC3    C211044   2.365   0.871   1.477 -0.1660 -0.0379 -0.4105
  744TMC3    C311045   2.260   0.920   1.407  0.0345 -0.3795 -0.2997
  744TMC3    C411046   2.322   0.671   1.354 -0.0075  0.1711  0.6301
  744TMC3    C511047   2.217   0.733   1.286  0.4326  0.0397 -0.4598
  744TMC3    C611048   2.191   0.863   1.308 -0.8487  0.5965  0.0354
  744TMC3     C11049   2.524   0.691   1.467 -0.3405  0.1797  0.7199
  744TMC3     O11050   2.559   0.598   1.400  0.3413 -0.0199  0.5173
  744TMC3     H11051   2.428   0.935   1.536  0.5895  0.8542 -2.1744
  744TMC3    H111052   2.350   0.570   1.329  0.3766  0.1090  1.3022
  744TMC3    H211053   2.112   0.912   1.253 -2.1289 -0.8921  0.5569
  744TMC3    C711054   2.184   0.661   1.162 -0.1957  0.3528 -0.1743
  744TMC3    C811055   2.202   1.050   1.441 -0.1489 -0.1852 -0.4533
  744TMC3    O111056   2.134   0.726   1.072 -0.9605  0.3297 -0.1133
  744TMC3    O211057   2.132   1.109   1.360 -0.6068  0.0888  0.4063
  745TMC3    C111058   0.204   3.977  13.898  0.3147  0.5329 -0.0579
  745TMC3    C211059   0.071   3.959  13.925 -0.0404  0.5143  0.2289
  745TMC3    C311060   4.719   4.009  13.829 -0.0251  0.8123  0.2498
  745TMC3    C411061   0.253   4.031  13.780 -0.1590  0.4069  0.2172
  745TMC3    C511062   0.154   4.082  13.693  0.4419  0.2396 -0.6572
  745TMC3    C611063   0.017   4.067  13.715  0.2432 -0.4849  0.7341
  745TMC3     C11064   0.267   4.029  14.020  0.2006 -0.3648  0.0109
  745TMC3     O11065   0.217   4.007  14.129  0.7611 -0.8652 -0.1787
  745TMC3     H11066   0.032   3.919  14.019 -0.9705 -1.0485 -0.8277
  745TMC3    H111067   0.359   4.027  13.759 -0.5454  2.1328 -2.0615
  745TMC3    H211068   4.690   4.086  13.630 -0.0393 -0.7463  0.8897
  745TMC3    C711069   0.190   4.159  13.577 -0.3975  0.2576  0.5974
  745TMC3    C811070   4.614   4.088  13.889  0.2510 -0.0632  0.0548
  745TMC3    O111071   0.091   4.204  13.521 -0.0340  0.5583 -0.0178
  745TMC3    O211072   4.521   4.115  13.814  0.0849  0.2234 -0.0305
  746TMC3    C111073   2.171   1.549  11.189 -0.1751 -0.6480 -0.2256
  746TMC3    C211074   2.243   1.510  11.082 -0.0838  0.6032 -0.0647
  746TMC3    C311075   2.228   1.384  11.039 -0.4283  0.3900 -0.6374
  746TMC3    C411076   2.084   1.465  11.250 -0.0433 -0.0516  0.5453
  746TMC3    C511077   2.084   1.332  11.216 -0.6027 -0.0781  0.0601
  746TMC3    C611078   2.151   1.295  11.099 -0.0143 -0.1553 -0.1528
  746TMC3     C11079   2.137   1.683  11.201  0.7556 -0.7410  1.1629
  746TMC3     O11080   2.224   1.751  11.251  0.5347 -0.6867 -0.7915
  746TMC3     H11081   2.299   1.580  11.022  1.8163  1.7791  3.0618
  746TMC3    H111082   2.031   1.512  11.331  0.4065  0.6678  0.4168
  746TMC3    H211083   2.139   1.201  11.048 -1.2147 -0.9828  1.6396
  746TMC3    C711084   1.956   1.258  11.222  0.0105 -0.4854  0.2800
  746TMC3    C811085   2.284   1.339  10.915 -0.6671 -0.9496 -1.0113
  746TMC3    O111086   1.907   1.218  11.116  0.3201 -0.1954  0.2193
  746TMC3    O211087   2.219   1.260  10.848  0.2271 -0.2095 -0.1157
  747TMC3    C111088   4.638   1.520  10.967  0.1309  0.2070 -0.0958
  747TMC3    C211089   4.594   1.415  11.038 -0.0186 -0.8312  0.4563
  747TMC3    C311090   4.664   1.371  11.148 -0.0704  0.4938  1.1065
  747TMC3    C411091   0.017   1.587  10.995 -0.4272  0.5300  0.1007
  747TMC3    C511092   0.080   1.545  11.109 -0.1560  0.3938  0.0055
  747TMC3    C611093   0.036   1.440  11.190 -0.5023  0.8216 -0.4351
  747TMC3     C11094   4.592   1.543  10.834  0.7608  0.0316  0.4322
  747TMC3     O11095   4.630   1.648  10.792  0.2238  0.7197 -0.9424
  747TMC3     H11096   4.504   1.362  11.008  0.1775  0.1350 -1.8949
  747TMC3    H111097   0.050   1.670  10.934  2.0071 -0.5752 -0.0850
  747TMC3    H211098   0.100   1.409  11.272 -0.6697 -1.4566 -1.1615
  747TMC3    C711099   0.185   1.624  11.177 -0.1796  0.0265  0.2263
  747TMC3    C811100   4.614   1.270  11.234  0.1410  0.2090 -0.4455
  747TMC3    O111101   0.182   1.632  11.298 -0.0705  0.5862  0.0796
  747TMC3    O211102   4.585   1.160  11.187  0.4770 -0.5368 -0.4601
  748MPD2     C11103   1.524   2.521   1.868 -0.0751  0.4543 -0.2239
  748MPD2    C111104   1.552   2.391   1.848  0.3528 -0.5669 -0.5771
  748MPD2    C211105   1.662   2.349   1.778 -1.1028 -0.6691 -0.5742
  748MPD2    C311106   1.747   2.448   1.719  0.2865 -0.3744 -0.2332
  748MPD2    C411107   1.732   2.581   1.748  0.7684 -0.5344  0.0877
  748MPD2    C511108   1.617   2.618   1.825  0.1774 -0.2338 -0.1462
  748MPD2     H11109   1.692   2.246   1.763  0.7467 -0.2962  0.6077
  748MPD2    H111110   1.792   2.659   1.702 -0.7414  1.7976  2.0507
  748MPD2    H211111   1.428   2.544   1.912 -0.5076  1.3051 -1.6310
  748MPD2    H311112   1.594   2.724   1.835  0.0704 -0.3101  0.4487
  748MPD2     N11113   1.845   2.401   1.640 -0.2760  0.3811  0.2305
  748MPD2    H511114   1.831   2.302   1.622 -0.2250  0.4808 -0.3563
  748MPD2    N111115   1.462   2.297   1.893 -0.4283 -0.2870  0.8178
  748MPD2    H711116   1.383   2.330   1.947 -0.9177 -0.0676 -0.0283
  749TMC3    C111117   2.011   2.378   1.491  0.0986  0.6014  0.1127
  749TMC3    C211118   2.011   2.249   1.528 -0.2349 -0.3482  0.1149
  749TMC3    C311119   2.053   2.158   1.426 -0.2273  0.1089 -0.0204
  749TMC3    C411120   2.068   2.427   1.378  0.3623 -0.4549  0.5630
  749TMC3    C511121   2.125   2.336   1.295 -0.2985  0.9560 -0.7794
  749TMC3    C611122   2.107   2.203   1.308  0.2563 -0.4785  0.1390
  749TMC3     C11123   1.934   2.472   1.573  0.3720 -0.0536 -0.4506
  749TMC3     O11124   1.948   2.594   1.545 -0.0086  0.0128 -0.3576
  749TMC3     H11125   1.987   2.218   1.629 -2.3286  1.7262  0.2445
  749TMC3    H111126   2.069   2.534   1.360 -0.7266 -0.6156 -0.4890
  749TMC3    H211127   2.136   2.127   1.235 -0.2097  0.0544 -0.6033
  749TMC3    C711128   2.158   2.387   1.160  0.4000 -0.6682 -0.0249
  749TMC3    C811129   2.082   2.026   1.471 -0.0546 -0.4080  0.2910
  749TMC3    O111130   2.185   2.508   1.158 -0.0628 -0.7256  0.4070
  749TMC3    O211131   2.030   1.993   1.579 -0.2248 -0.7779  0.0537
  750MPD2     C11132   2.121   2.924  11.327 -0.0094  0.3723  0.0390
  750MPD2    C111133   1.987   2.934  11.296  1.0217 -0.4150  0.7106
  750MPD2    C211134   1.932   2.831  11.225 -0.7404 -0.7646 -0.6268
  750MPD2    C311135   1.996   2.713  11.212 -0.1810 -0.3232  0.2079
  750MPD2    C411136   2.123   2.690  11.270  0.2179  0.8376 -0.5422
  750MPD2    C511137   2.178   2.799  11.327  0.2585 -0.9890  0.4713
  750MPD2     H11138   1.836   2.846  11.177 -1.8208  0.8890  2.0241
  750MPD2    H111139   2.189   2.604  11.266  0.6883  1.0616  2.6247
  750MPD2    H211140   2.176   3.009  11.364  1.7793 -2.3697  3.7178
  750MPD2    H311141   2.282   2.799  11.358  0.3365  0.6771  0.2188
  750MPD2     N11142   1.927   2.602  11.156 -0.0528  0.3255  0.1627
  750MPD2    H511143   1.977   2.514  11.163  0.0094  0.3569  0.1113
  750MPD2    N111144   1.927   3.056  11.324 -0.3887  0.3302 -0.4766
  750MPD2    H711145   1.978   3.125  11.379  0.1760 -0.4499 -0.0187
  751TMC3    C111146   1.758   2.462  11.069  0.3936  0.1308 -0.8434
  751TMC3    C211147   1.624   2.424  11.070  0.0190 -0.3511  0.0469
  751TMC3    C311148   1.600   2.297  11.025 -0.6294 -0.7669 -0.3387
  751TMC3    C411149   1.853   2.382  11.006 -0.0888 -0.3348  0.0224
  751TMC3    C511150   1.830   2.255  10.974 -0.2427 -0.4660 -0.4752
  751TMC3    C611151   1.697   2.213  10.985  0.1452 -0.0221  0.0908
  751TMC3     C11152   1.794   2.589  11.121  0.3413  0.7105  0.0630
  751TMC3     O11153   1.700   2.664  11.141  0.5214  0.5543  0.2127
  751TMC3     H11154   1.552   2.483  11.126 -1.0999 -1.1127 -0.5937
  751TMC3    H111155   1.955   2.417  10.993 -0.0338 -0.9734 -1.1797
  751TMC3    H211156   1.654   2.117  10.958 -0.8142  0.0510  1.3617
  751TMC3    C711157   1.933   2.200  10.888 -0.3736 -0.6900  0.8075
  751TMC3    C811158   1.500   2.225  11.094 -0.1927  0.5288  0.6945
  751TMC3    O111159   2.045   2.242  10.882 -0.3443 -0.2061  0.1600
  751TMC3    O211160   1.431   2.152  11.025 -0.0306  0.5213  0.2216
  752TMC3    C111161   0.992   3.315  17.537 -0.5787 -0.0749  0.3556
  752TMC3    C211162   0.991   3.180  17.513 -0.5056 -0.4641  0.2010
  752TMC3    C311163   0.900   3.107  17.589  0.6890 -0.2821 -0.1699
  752TMC3    C411164   0.922   3.372  17.641  0.3026  0.2239 -0.1584
  752TMC3    C511165   0.841   3.293  17.717 -0.3141 -0.7723 -0.5106
  752TMC3    C611166   0.831   3.157  17.696  0.4748  0.5868 -0.0607
  752TMC3     C11167   1.054   3.406  17.443  0.3772 -0.4049 -0.0411
  752TMC3     O11168   1.090   3.521  17.487  0.1186 -0.4002  0.1916
  752TMC3     H11169   1.048   3.141  17.430 -0.5225  1.8337 -0.8920
  752TMC3    H111170   0.923   3.477  17.666  4.8482  0.3498 -0.8623
  752TMC3    H211171   0.763   3.106   0.018 -1.0276  2.3707 -0.2061
  752TMC3    C711172   0.722   3.349   0.042  0.6584  0.3329 -0.2125
  752TMC3    C811173   0.940   2.968  17.589  0.2062  0.3313 -0.2906
  752TMC3    O111174   0.626   3.283   0.072  0.1527 -0.5055 -0.1323
  752TMC3    O211175   1.005   2.926  17.494  0.3997 -0.0983  0.5250
  753TMC3    C111176   3.557   4.133  13.576  0.1970  0.1747 -0.2042
  753TMC3    C211177   3.488   4.068  13.671  0.3711  0.2157  0.0794
  753TMC3    C311178   3.367   4.013  13.644  0.1029 -0.7647 -0.2238
  753TMC3    C411179   3.508   4.143  13.455 -0.0985  0.4026  0.5184
  753TMC3    C511180   3.401   4.075  13.422  0.6326 -0.7107 -0.2352
  753TMC3    C611181   3.327   4.002  13.509 -0.1735  0.0035 -0.0247
  753TMC3     C11182   3.641   4.245  13.619 -1.0259  0.4955 -0.6993
  753TMC3     O11183   3.759   4.216  13.638 -0.5477  0.1558 -0.2729
  753TMC3     H11184   3.512   4.091  13.775  1.9797  1.0125 -0.4728
  753TMC3    H111185   3.564   4.188  13.374  1.2940 -0.0186  1.2551
  753TMC3    H211186   3.226   3.979  13.478  0.2846  0.1423 -1.6497
  753TMC3    C711187   3.400   4.033  13.283  0.3593 -0.0932  0.8303
  753TMC3    C811188   3.257   4.005  13.738 -0.1270  0.0913 -0.4182
  753TMC3    O111189   3.454   4.099  13.197 -0.0794 -0.5535  0.1141
  753TMC3    O211190   3.144   3.987  13.698  0.2173  0.3039 -0.4126
  754MPD2     C11191   2.480   2.226  13.041 -0.4808  0.4791  0.1086
  754MPD2    C111192   2.409   2.321  13.111  0.5623  0.1702  0.6155
  754MPD2    C211193   2.320   2.401  13.035 -0.1365 -0.5581  0.2439
  754MPD2    C311194   2.291   2.375  12.902 -0.3747 -0.5422 -0.1494
  754MPD2    C411195   2.358   2.267  12.842 -0.0597 -0.0125  0.5327
  754MPD2    C511196   2.448   2.192  12.913 -0.5115 -0.5214  0.6054
  754MPD2     H11197   2.263   2.478  13.086 -1.1950 -0.7793 -0.5875
  754MPD2    H111198   2.331   2.244  12.740  1.6185 -3.3557  0.8628
  754MPD2    H211199   2.552   2.169  13.098 -1.5239 -0.0919  0.8635
  754MPD2    H311200   2.494   2.103  12.872  1.3243  1.0225 -0.6810
  754MPD2     N11201   2.193   2.441  12.830 -0.0283 -1.0135 -0.0234
  754MPD2    H511202   2.164   2.400  12.742  2.3580  1.3641 -1.9554
  754MPD2    N111203   2.415   2.313  13.249 -0.1653 -0.0611 -0.3259
  754MPD2    H711204   2.486   2.256  13.294  1.5966  2.8876  0.6782
  755MPD2     C11205   1.438   3.187  13.016  0.0371  0.2095 -0.0635
  755MPD2    C111206   1.386   3.056  13.015 -0.2423 -0.8530 -0.0137
  755MPD2    C211207   1.457   2.959  12.954  0.2651 -0.1782 -0.4856
  755MPD2    C311208   1.579   2.985  12.891 -0.4377 -0.4941 -0.5805
  755MPD2    C411209   1.623   3.113  12.874 -0.2080 -0.1298  0.6681
  755MPD2    C511210   1.551   3.210  12.937 -0.4294 -0.0548  0.3479
  755MPD2     H11211   1.421   2.857  12.958 -2.2163  0.6540 -1.0372
  755MPD2    H111212   1.717   3.142  12.829  0.3420 -0.2550  1.7388
  755MPD2    H211213   1.392   3.271  13.066  1.0171  0.3287  0.6505
  755MPD2    H311214   1.583   3.313  12.946  3.5039 -1.3781  1.3916
  755MPD2     N11215   1.649   2.872  12.841 -0.7858 -0.0203  0.8542
  755MPD2    H511216   1.601   2.783  12.834 -0.7949  0.1271 -1.1948
  755MPD2    N111217   1.267   3.021  13.076  0.0312  0.0935  0.2588
  755MPD2    H711218   1.237   2.924  13.077 -1.6182  0.5789 -2.8917
  756MPD2     C11219   1.325   3.495   9.713  0.0451 -0.2329  0.4653
  756MPD2    C111220   1.294   3.531   9.838 -0.6435 -0.1279 -0.5302
  756MPD2    C211221   1.160   3.563   9.871  0.0176  0.8886 -0.4032
  756MPD2    C311222   1.068   3.565   9.774  0.3917  0.7462 -0.3816
  756MPD2    C411223   1.099   3.506   9.655  0.0619 -0.6203 -0.1652
  756MPD2    C511224   1.226   3.474   9.622  0.1925  0.0375  0.0389
  756MPD2     H11225   1.129   3.593   9.971  0.3848 -3.3028  0.9603
  756MPD2    H111226   1.021   3.494   9.580  0.3477 -1.2380 -0.3569
  756MPD2    H211227   1.425   3.473   9.677  0.0397 -1.2886  1.0902
  756MPD2    H311228   1.248   3.459   9.517  0.3261 -0.0656  0.0812
  756MPD2     N11229   0.941   3.622   9.795 -0.3615 -0.1738  0.1126
  756MPD2    H511230   0.911   3.631   9.892 -0.8509 -3.2187  0.2587
  756MPD2    N111231   1.386   3.525   9.942 -0.2407  0.1746 -0.4339
  756MPD2    H711232   1.342   3.551  10.030 -0.0847  0.2820 -0.3889
  757MPD2     C11233   0.526   3.229  10.394 -0.2566  0.2071 -0.6431
  757MPD2    C111234   0.648   3.237  10.330 -0.8673  0.2391  0.1513
  757MPD2    C211235   0.668   3.326  10.233  0.2278  0.7615 -0.7603
  757MPD2    C311236   0.569   3.416  10.197  0.1090 -0.3162 -0.6169
  757MPD2    C411237   0.442   3.403  10.253 -0.0103 -0.5315 -0.7400
  757MPD2    C511238   0.425   3.317  10.356  0.1598 -0.0558  0.4400
  757MPD2     H11239   0.764   3.339  10.186  0.5927 -0.0750 -0.2488
  757MPD2    H111240   0.365   3.477  10.233 -0.7942 -0.4458  2.5367
  757MPD2    H211241   0.510   3.167  10.481  3.7823 -0.3398 -0.3118
  757MPD2    H311242   0.335   3.320  10.417 -0.5767  0.4941 -0.6662
  757MPD2     N11243   0.605   3.515  10.104  0.3250  0.1295  1.0319
  757MPD2    H511244   0.700   3.503  10.071 -1.3066 -0.9210 -3.3130
  757MPD2    N111245   0.747   3.152  10.370 -0.6403  0.9290  0.5184
  757MPD2    H711246   0.722   3.077  10.434 -1.0571  1.4562  0.9768
  758MPD2     C11247   1.589   2.857  16.066 -0.3591 -0.4766 -0.0140
  758MPD2    C111248   1.646   2.776  16.155  0.6135  0.1174 -0.1358
  758MPD2    C211249   1.583   2.742  16.272 -0.1240  0.4414  0.0261
  758MPD2    C311250   1.461   2.795  16.301  0.2883  0.1145  0.7305
  758MPD2    C411251   1.402   2.873  16.205  0.2968  0.2354  0.0072
  758MPD2    C511252   1.464   2.901  16.080  0.2314 -0.3773 -0.0929
  758MPD2     H11253   1.637   2.672  16.335 -1.7315 -0.7600  0.0869
  758MPD2    H111254   1.304   2.918  16.221  0.3358  0.4253 -0.2732
  758MPD2    H211255   1.635   2.874  15.969 -1.5336 -1.8885 -0.8166
  758MPD2    H311256   1.410   2.962  16.008 -1.0376 -1.0284  0.3142
  758MPD2     N11257   1.398   2.770  16.425 -0.3215  0.3649  0.2251
  758MPD2    H511258   1.319   2.829  16.452 -1.3825 -1.2959  0.7390
  758MPD2    N111259   1.774   2.716  16.121  0.1810 -0.3284 -0.8755
  758MPD2    H711260   1.812   2.748  16.033 -0.4571  0.9048 -0.7052
  759MPD2     C11261   0.913   0.773   9.801  0.4650 -0.7987 -0.3317
  759MPD2    C111262   0.805   0.686   9.760  0.5710  0.2611  0.0828
  759MPD2    C211263   0.756   0.701   9.634  0.5127  0.2231  0.0621
  759MPD2    C311264   0.808   0.802   9.555 -1.1497  0.5600 -0.1121
  759MPD2    C411265   0.905   0.893   9.599 -0.1628 -0.6472 -0.3103
  759MPD2    C511266   0.956   0.876   9.724  0.3669  0.0107 -0.1403
  759MPD2     H11267   0.687   0.634   9.584 -2.4945  0.7765  3.4875
  759MPD2    H111268   0.946   0.970   9.535  0.2112 -0.0477  0.6523
  759MPD2    H211269   0.968   0.764   9.894 -0.0818  0.6396  0.1269
  759MPD2    H311270   1.031   0.944   9.763  2.4254 -1.1376 -2.0377
  759MPD2     N11271   0.742   0.823   9.432 -0.3825 -0.0382 -0.0064
  759MPD2    H511272   0.665   0.762   9.407 -0.8676  0.9370 -0.8910
  759MPD2    N111273   0.762   0.577   9.836  0.4353  0.6440 -0.2387
  759MPD2    H711274   0.685   0.527   9.793  0.7722 -0.0924  0.0122
  760MPD2     C11275   0.375   2.878  12.014  0.0664  0.2648 -0.0918
  760MPD2    C111276   0.514   2.861  12.010  0.3877 -0.2683 -0.1620
  760MPD2    C211277   0.581   2.757  12.084  0.1465  0.0682 -0.0078
  760MPD2    C311278   0.502   2.680  12.174  0.8443  0.4861  0.4032
  760MPD2    C411279   0.363   2.712  12.186  0.6329 -0.4023  0.1287
  760MPD2    C511280   0.304   2.807  12.104  0.4471  0.2720 -0.8786
  760MPD2     H11281   0.687   2.740  12.065  0.2759  0.3509  0.4630
  760MPD2    H111282   0.295   2.659  12.252  1.2733  0.2712  1.3348
  760MPD2    H211283   0.318   2.943  11.949  0.6434  1.8684  1.0108
  760MPD2    H311284   0.196   2.815  12.104  0.3129 -1.4057  0.8268
  760MPD2     N11285   0.554   2.567  12.252 -0.0859 -0.0576  0.6700
  760MPD2    H511286   0.485   2.497  12.280  1.0130 -0.6257  1.9389
  760MPD2    N111287   0.601   2.940  11.929  0.4793 -0.0769 -0.6832
  760MPD2    H711288   0.699   2.920  11.917  0.2612 -1.7926  0.4525
  761MPD2     C11289   1.397   2.014  11.553 -0.0857 -0.4218 -0.4871
  761MPD2    C111290   1.369   1.963  11.424 -0.8385 -1.4382 -0.4422
  761MPD2    C211291   1.389   2.042  11.316  0.1182 -0.2538  0.1314
  761MPD2    C311292   1.447   2.168  11.334 -0.2900 -0.1808  0.9027
  761MPD2    C411293   1.476   2.213  11.462 -0.1868  0.3639  0.2218
  761MPD2    C511294   1.454   2.136  11.568  0.4866  0.2079 -0.2099
  761MPD2     H11295   1.367   2.010  11.215 -0.6844  1.8512 -0.3613
  761MPD2    H111296   1.521   2.311  11.471  1.8756 -0.5187 -0.2700
  761MPD2    H211297   1.393   1.946  11.638  1.0827 -0.1935 -0.2466
  761MPD2    H311298   1.480   2.166  11.669 -0.7042 -0.0047  0.1546
  761MPD2     N11299   1.507   2.241  11.226  0.3257 -0.6416  0.4846
  761MPD2    H511300   1.569   2.313  11.261 -1.1761  0.3529  1.1045
  761MPD2    N111301   1.329   1.820  11.425 -0.3407  0.1353 -0.1501
  761MPD2    H711302   1.342   1.774  11.515  3.4732 -0.5911 -1.0924
  762MPD2     C11303   1.494   1.275  10.881  0.1683  0.8608  0.2913
  762MPD2    C111304   1.592   1.343  10.954 -0.2472 -0.0522 -0.2735
  762MPD2    C211305   1.722   1.331  10.903  0.8334  0.2035  0.6839
  762MPD2    C311306   1.746   1.258  10.791 -0.3397 -0.1458 -0.2809
  762MPD2    C411307   1.651   1.174  10.732 -0.4940 -0.2930 -0.5779
  762MPD2    C511308   1.524   1.195  10.774 -0.5252  0.6978  0.3281
  762MPD2     H11309   1.803   1.388  10.947  1.4206  0.1115 -0.2880
  762MPD2    H111310   1.664   1.109  10.646  1.2231  2.0301 -2.0705
  762MPD2    H211311   1.391   1.293  10.911  0.8537  0.8615  2.6036
  762MPD2    H311312   1.443   1.145  10.722 -0.4464  0.0648  0.8150
  762MPD2     N11313   1.872   1.277  10.732  0.0744  0.3460  1.1124
  762MPD2    H511314   1.933   1.346  10.776  1.0005 -0.4223  1.0257
  762MPD2    N111315   1.550   1.427  11.055  0.2339 -0.4474 -0.9306
  762MPD2    H711316   1.451   1.432  11.076  0.3330  2.0990 -1.0626
  763MPD2     C11317   3.848   2.535  15.870 -0.1980 -0.5298  0.5413
  763MPD2    C111318   3.724   2.597  15.878 -0.2402  0.5912 -0.2589
  763MPD2    C211319   3.715   2.729  15.922  0.1179  0.0886  0.7117
  763MPD2    C311320   3.831   2.799  15.952 -0.0029 -0.3667  0.0590
  763MPD2    C411321   3.954   2.732  15.937  0.4117  0.4093 -0.9332
  763MPD2    C511322   3.961   2.601  15.901 -0.8012  0.7484 -0.4451
  763MPD2     H11323   3.616   2.772  15.936  0.2292  0.5027  0.1783
  763MPD2    H111324   4.048   2.778  15.966 -0.6033  0.7227  1.8292
  763MPD2    H211325   3.864   2.438  15.823 -0.2030  0.7871 -2.1902
  763MPD2    H311326   4.059   2.555  15.893 -1.2657 -0.0719 -1.2970
  763MPD2     N11327   3.833   2.935  15.995  0.1763 -0.4532  0.3740
  763MPD2    H511328   3.915   2.992  15.980  0.0342 -0.1077  0.9188
  763MPD2    N111329   3.603   2.534  15.852  0.4073 -0.5387  0.3000
  763MPD2    H711330   3.525   2.598  15.839  1.9635  1.3169  0.1525
  764MPD2     C11331   1.941   3.944  17.326 -0.4494  0.7822  0.5161
  764MPD2    C111332   1.809   3.979  17.335 -0.4238  0.1203 -0.0900
  764MPD2    C211333   1.733   3.963  17.446 -0.3479 -0.3872  0.6765
  764MPD2    C311334   1.788   3.910  17.564  0.7717  0.4991 -0.3692
  764MPD2    C411335   1.927   3.875  17.562 -0.2032 -0.5749 -0.5511
  764MPD2    C511336   1.996   3.891  17.443 -0.1027 -0.0444  0.2774
  764MPD2     H11337   1.632   4.003  17.443 -0.5096 -0.6482  2.8218
  764MPD2    H111338   1.974   3.832  17.650  3.3540  0.9397 -1.7091
  764MPD2    H211339   2.002   3.941  17.237 -0.1682  0.2830  0.7235
  764MPD2    H311340   2.095   3.847  17.448 -0.4322 -0.6068  1.7212
  764MPD2     N11341   1.699   3.901  17.675 -0.1210  0.3221  0.0278
  764MPD2    H511342   1.602   3.930  17.666 -0.6739 -1.6884 -0.6344
  764MPD2    N111343   1.744   4.031  17.216 -0.1841  0.8131  0.6016
  764MPD2    H711344   1.650   4.067  17.228  0.0580  1.0826  1.7012
  765MPD2     C11345   1.779   2.072  15.668  0.2383 -0.5962  0.0379
  765MPD2    C111346   1.753   2.078  15.803 -0.0632 -0.2261 -0.0419
  765MPD2    C211347   1.820   1.992  15.889 -0.1479  0.3715  0.0210
  765MPD2    C311348   1.887   1.883  15.838 -0.2913 -0.0129 -0.0528
  765MPD2    C411349   1.889   1.874  15.702  0.3952 -0.1899  0.0394
  765MPD2    C511350   1.851   1.969  15.614 -0.3389  0.0055  0.6108
  765MPD2     H11351   1.816   2.005  15.997  0.8922 -0.0634  0.1156
  765MPD2    H111352   1.945   1.792  15.660 -1.0842 -0.7556 -0.8062
  765MPD2    H211353   1.725   2.135  15.599 -2.6757 -1.9818  1.0520
  765MPD2    H311354   1.865   1.954  15.508 -0.6452 -2.7507  0.9541
  765MPD2     N11355   1.951   1.794  15.925  0.5008  0.2119  0.0360
  765MPD2    H511356   1.948   1.810  16.025  0.6152 -1.5122  0.3151
  765MPD2    N111357   1.669   2.188  15.836 -0.6195 -0.3508 -0.0092
  765MPD2    H711358   1.637   2.251  15.764 -0.2496 -1.2469 -0.9680
  766MPD2     C11359   1.033   2.592  15.988  0.2471 -0.6044  0.5720
  766MPD2    C111360   1.138   2.516  16.008  0.5420 -0.2297  0.4562
  766MPD2    C211361   1.179   2.425  15.912 -0.3153  0.2256  0.3817
  766MPD2    C311362   1.112   2.415  15.787 -0.2414  0.6954  0.2803
  766MPD2    C411363   1.016   2.498  15.767  0.4189 -0.2522 -0.1827
  766MPD2    C511364   0.971   2.583  15.864 -0.5357  1.0671 -0.0923
  766MPD2     H11365   1.256   2.351  15.930 -2.6623 -2.1009  0.9244
  766MPD2    H111366   0.965   2.495  15.671  3.0198 -0.9389 -1.5385
  766MPD2    H211367   0.983   2.652  16.063 -0.3912  1.4968 -1.5497
  766MPD2    H311368   0.885   2.646  15.846 -0.7885  0.6827 -0.2155
  766MPD2     N11369   1.151   2.329  15.680 -0.0135  0.2162 -0.3752
  766MPD2    H511370   1.094   2.339  15.597  2.0341 -1.5689 -2.0075
  766MPD2    N111371   1.187   2.527  16.139 -0.5785 -0.2564  0.2035
  766MPD2    H711372   1.125   2.566  16.209 -0.2370  1.5122 -0.4680
  767MPD2     C11373   0.662   2.352  15.009  0.0258  0.8887 -0.0538
  767MPD2    C111374   0.749   2.419  14.925 -0.7740 -0.2415  0.2197
  767MPD2    C211375   0.801   2.354  14.822 -0.2290 -0.4495 -0.2713
  767MPD2    C311376   0.794   2.219  14.801  0.5074 -0.3277 -0.1319
  767MPD2    C411377   0.715   2.152  14.893 -0.2830  0.0568 -1.0394
  767MPD2    C511378   0.648   2.217  14.996 -1.1843 -0.0971  0.2466
  767MPD2     H11379   0.861   2.406  14.747 -1.3780 -2.9158 -2.8957
  767MPD2    H111380   0.688   2.047  14.889 -1.3141  0.2358  1.1048
  767MPD2    H211381   0.601   2.411  15.077 -1.3029  0.2213 -0.6751
  767MPD2    H311382   0.578   2.169  15.064 -0.5824 -0.4497  0.6164
  767MPD2     N11383   0.869   2.158  14.704 -0.2260  0.4300 -0.3136
  767MPD2    H511384   0.898   2.224  14.633 -1.3070  2.2720  0.9788
  767MPD2    N111385   0.792   2.553  14.955 -0.3704  0.3264  0.2787
  767MPD2    H711386   0.755   2.603  15.035  1.2280  0.2680  1.0392
  768MPD2     C11387   1.620   0.487  11.102  0.9788  0.4944 -0.0903
  768MPD2    C111388   1.631   0.624  11.115  0.0208  0.0986 -0.3071
  768MPD2    C211389   1.743   0.672  11.179  0.7549  0.3997  0.0857
  768MPD2    C311390   1.854   0.598  11.216 -0.2213  0.3227  0.3166
  768MPD2    C411391   1.840   0.467  11.203  0.2577 -0.9329 -0.7302
  768MPD2    C511392   1.720   0.412  11.153 -0.0361 -0.1743 -0.4963
  768MPD2     H11393   1.745   0.779  11.196  0.7797  0.4331 -0.1244
  768MPD2    H111394   1.917   0.403  11.244 -0.6525  0.3318  3.0073
  768MPD2    H211395   1.532   0.441  11.059 -0.8870  3.4578  0.4772
  768MPD2    H311396   1.717   0.304  11.151  2.8700 -0.2392 -1.0257
  768MPD2     N11397   1.958   0.650  11.286 -0.7649 -0.9351  0.1325
  768MPD2    H511398   2.025   0.590  11.332 -0.3091 -0.6988 -0.2117
  768MPD2    N111399   1.524   0.712  11.085 -0.3157 -0.5701 -0.1712
  768MPD2    H711400   1.536   0.812  11.098 -3.1420 -0.1422 -0.7672
  769MPD2     C11401   3.047   3.092  14.968 -0.5243 -0.5649 -0.2717
  769MPD2    C111402   2.927   3.117  15.036  0.0139 -0.1095 -0.3057
  769MPD2    C211403   2.928   3.240  15.109 -0.3336  0.3901 -0.2208
  769MPD2    C311404   3.034   3.330  15.107  0.0694 -0.2718  0.1247
  769MPD2    C411405   3.141   3.300  15.027  0.0231 -0.5177  0.2875
  769MPD2    C511406   3.139   3.185  14.957 -0.4792  0.2602  0.5192
  769MPD2     H11407   2.841   3.268  15.166  0.7803  2.0750  0.6586
  769MPD2    H111408   3.238   3.348  15.016 -0.0317 -0.4052  0.2872
  769MPD2    H211409   3.065   3.003  14.908  2.7939 -0.8413  1.1099
  769MPD2    H311410   3.232   3.150  14.914 -1.5126 -1.8708  0.0464
  769MPD2     N11411   3.014   3.449  15.181  0.1584 -0.0337  0.0833
  769MPD2    H511412   2.929   3.460  15.235  0.3067 -0.2410  0.3578
  769MPD2    N111413   2.827   3.017  15.031  0.2756  0.3515 -0.1957
  769MPD2    H711414   2.834   2.941  14.964 -4.7045 -0.7902  0.5558
  770MPD2     C11415   1.827   2.757  14.951  0.6795 -0.3018 -0.0549
  770MPD2    C111416   1.888   2.645  14.989 -0.3435 -0.5663  0.2215
  770MPD2    C211417   2.018   2.662  15.038 -0.8360 -0.0872 -0.0158
  770MPD2    C311418   2.066   2.784  15.061  0.4042 -0.1225 -0.4611
  770MPD2    C411419   2.002   2.893  15.025  1.2978  0.1623 -0.1365
  770MPD2    C511420   1.883   2.880  14.973  0.2350 -0.4318  0.0070
  770MPD2     H11421   2.082   2.579  15.067 -0.5140 -0.2404 -1.1602
  770MPD2    H111422   2.039   2.995  15.032  2.1449 -0.2268  1.0319
  770MPD2    H211423   1.730   2.759  14.903  1.4230  0.5226 -1.5215
  770MPD2    H311424   1.827   2.967  14.941  0.6480  0.5055  1.7984
  770MPD2     N11425   2.202   2.784  15.106 -0.1842 -0.3603 -0.5191
  770MPD2    H511426   2.230   2.690  15.131  0.4568  0.5236  2.0280
  770MPD2    N111427   1.830   2.522  14.986 -0.1807  0.2375 -0.0876
  770MPD2    H711428   1.731   2.525  14.965 -0.7157 -1.0165  2.1833
  771MPD2     C11429   3.709   1.362  13.686 -0.3245 -0.5452 -0.3832
  771MPD2    C111430   3.623   1.455  13.625 -0.3351  0.4537 -0.5606
  771MPD2    C211431   3.506   1.405  13.564  0.2976  1.0236 -0.3087
  771MPD2    C311432   3.477   1.270  13.561 -0.0899  0.6425 -0.2074
  771MPD2    C411433   3.563   1.186  13.627 -0.3192 -0.1554 -1.4138
  771MPD2    C511434   3.675   1.230  13.687 -0.0486  0.1156 -0.0849
  771MPD2     H11435   3.432   1.471  13.520 -0.4879  0.6523  0.4572
  771MPD2    H111436   3.539   1.080  13.625 -2.3518  0.2237  2.3541
  771MPD2    H211437   3.803   1.390  13.731  0.5661 -1.2821 -1.8017
  771MPD2    H311438   3.732   1.159  13.745 -2.3876 -0.1903  1.8701
  771MPD2     N11439   3.365   1.224  13.485  0.7920 -0.0036  0.4544
  771MPD2    H511440   3.312   1.302  13.447 -1.4960 -1.9236 -0.3145
  771MPD2    N111441   3.644   1.592  13.619  0.0767  0.3708 -0.1648
  771MPD2    H711442   3.573   1.653  13.581  0.1755  0.1707 -0.6709
  772MPD2     C11443   3.265   2.185  13.508 -0.4575  0.3445 -0.4004
  772MPD2    C111444   3.298   2.052  13.495 -0.1526 -0.2331 -0.2827
  772MPD2    C211445   3.197   1.969  13.465  0.5409 -0.0949  0.0935
  772MPD2    C311446   3.066   2.014  13.455 -0.2423 -0.6392  0.4532
  772MPD2    C411447   3.039   2.147  13.462  0.0252 -0.7514 -0.5018
  772MPD2    C511448   3.144   2.234  13.471 -0.0147  0.5339  0.5330
  772MPD2     H11449   3.222   1.869  13.433  0.8928  0.0990 -0.2388
  772MPD2    H111450   2.948   2.189  13.420 -1.3050 -0.8169  2.3455
  772MPD2    H211451   3.340   2.259  13.532  1.0603 -0.9462 -1.1540
  772MPD2    H311452   3.130   2.341  13.462  0.9926  0.6459  0.2766
  772MPD2     N11453   2.962   1.926  13.427 -0.3618  0.7300  0.0498
  772MPD2    H511454   2.875   1.979  13.426 -0.7218  0.1474  0.0078
  772MPD2    N111455   3.424   1.998  13.532  0.4134 -0.1103 -0.0647
  772MPD2    H711456   3.432   1.896  13.530 -0.3610 -0.1242 -2.0415
  773MPD2     C11457   2.418   3.159  17.514 -0.4901  0.4741  0.3472
  773MPD2    C111458   2.436   3.039  17.441 -0.9634  0.2348 -0.1571
  773MPD2    C211459   2.518   2.945  17.498  0.1379 -0.0870  0.7064
  773MPD2    C311460   2.580   2.952  17.626  0.6076 -0.0716  0.1436
  773MPD2    C411461   2.534   3.061  17.702 -0.1268  0.0726 -0.8190
  773MPD2    C511462   2.464   3.167  17.642  0.3275  0.0089 -0.3961
  773MPD2     H11463   2.534   2.865  17.428  0.0526 -0.5245  1.1900
  773MPD2    H111464   2.567   3.074   0.059 -1.2002  1.1392 -0.6029
  773MPD2    H211465   2.366   3.248  17.482 -2.5935  0.6358  4.2940
  773MPD2    H311466   2.450   3.255  17.702  2.0687 -1.0135  1.5061
  773MPD2     N11467   2.661   2.845  17.673 -0.0525 -0.0576 -0.3754
  773MPD2    H511468   2.690   2.783  17.597  1.5570 -0.0853  0.2558
  773MPD2    N111469   2.377   3.010  17.318 -0.2663 -0.3327 -0.2180
  773MPD2    H711470   2.362   2.915  17.285  0.1084 -0.1550 -0.8975
  774MPD2     C11471   2.191   1.782  13.992  0.2664  0.1368  0.8971
  774MPD2    C111472   2.098   1.860  13.931  0.4878 -0.2380  0.0469
  774MPD2    C211473   2.147   1.969  13.861  0.5120  0.6119 -0.5175
  774MPD2    C311474   2.275   2.005  13.852  0.2064  0.8030  0.6792
  774MPD2    C411475   2.365   1.938  13.934 -0.1067 -0.4093 -0.2507
  774MPD2    C511476   2.318   1.828  14.000 -0.1263  0.9111 -0.3865
  774MPD2     H11477   2.080   2.034  13.804  0.1215 -0.7396 -1.5999
  774MPD2    H111478   2.464   1.981  13.945  0.6817 -2.9129  2.6115
  774MPD2    H211479   2.167   1.684  14.032  0.9793 -0.2645  0.3332
  774MPD2    H311480   2.398   1.763  14.033 -0.5200 -0.3518 -1.8926
  774MPD2     N11481   2.313   2.125  13.798  0.1894 -0.5863 -0.3250
  774MPD2    H511482   2.243   2.196  13.780  1.3761  0.4410 -0.8818
  774MPD2    N111483   1.964   1.820  13.913 -0.2869 -0.1703 -0.6490
  774MPD2    H711484   1.941   1.732  13.958 -0.9523  1.1486  1.5651
  775MPD2     C11485   3.229   3.358  15.475 -0.3449 -0.2916 -0.1254
  775MPD2    C111486   3.246   3.436  15.588  0.4044 -0.5115 -0.2806
  775MPD2    C211487   3.358   3.518  15.587  0.1323  0.2512  0.5247
  775MPD2    C311488   3.442   3.522  15.477 -0.0884  0.6804 -0.0154
  775MPD2    C411489   3.410   3.449  15.368 -0.1533 -0.7309  0.1666
  775MPD2    C511490   3.305   3.360  15.369 -0.6999 -0.5737  0.1181
  775MPD2     H11491   3.364   3.605  15.651 -1.0580 -0.1804  1.2286
  775MPD2    H111492   3.458   3.464  15.272  1.8048  0.3369  1.3205
  775MPD2    H211493   3.143   3.293  15.473  1.3392 -2.4935 -0.9578
  775MPD2    H311494   3.287   3.298  15.282 -4.3492  1.2749 -0.4730
  775MPD2     N11495   3.553   3.612  15.463 -0.4170 -0.6675  0.1932
  775MPD2    H511496   3.604   3.608  15.375 -1.9438  0.7629 -0.7637
  775MPD2    N111497   3.155   3.428  15.700 -0.0043  0.4188 -0.7476
  775MPD2    H711498   3.079   3.361  15.702  0.2658  0.1476  0.7222
  776MPD2     C11499   2.249   3.558  11.448 -0.4253 -0.9528  0.2407
  776MPD2    C111500   2.120   3.594  11.449 -0.0075 -0.1066  0.1430
  776MPD2    C211501   2.088   3.734  11.443 -0.8223 -0.0560 -0.4935
  776MPD2    C311502   2.185   3.833  11.440 -0.5307 -0.7591  0.6669
  776MPD2    C411503   2.322   3.790  11.445  0.2163  0.0903  0.8561
  776MPD2    C511504   2.345   3.655  11.445  0.0746 -0.7322 -0.3516
  776MPD2     H11505   1.987   3.772  11.443 -0.6858  0.3050 -0.1649
  776MPD2    H111506   2.407   3.858  11.452  0.1372  0.2497  0.2518
  776MPD2    H211507   2.289   3.458  11.440  0.9147 -0.3441 -0.7496
  776MPD2    H311508   2.446   3.615  11.450  0.1687 -0.7870 -2.9403
  776MPD2     N11509   2.167   3.971  11.416 -0.5342 -0.5645 -0.1460
  776MPD2    H511510   2.247   4.033  11.428 -0.5646 -0.6286  0.4041
  776MPD2    N111511   2.018   3.496  11.452  0.1837 -0.0009  0.1137
  776MPD2    H711512   2.040   3.397  11.460 -1.0935 -0.3339 -0.4902
  777MPD2     C11513   2.178   1.395   0.519  0.0424 -0.3912 -0.4191
  777MPD2    C111514   2.277   1.317   0.570 -0.2058  0.5402 -0.3235
  777MPD2    C211515   2.282   1.178   0.541  0.0320  0.5697 -0.1229
  777MPD2    C311516   2.194   1.118   0.452 -0.7878 -0.6990  0.5462
  777MPD2    C411517   2.091   1.195   0.404  0.1425  0.8948  0.2613
  777MPD2    C511518   2.091   1.328   0.434  0.3284  0.3193 -0.1164
  777MPD2     H11519   2.356   1.116   0.590 -1.1392 -1.7432 -1.2704
  777MPD2    H111520   2.008   1.159   0.343  0.1799 -0.0004  0.7499
  777MPD2    H211521   2.171   1.502   0.530 -0.0517 -0.2829 -1.5415
  777MPD2    H311522   2.014   1.387   0.386 -1.0273 -0.8319  0.6357
  777MPD2     N11523   2.197   0.976   0.441  0.0532 -0.1751 -0.0950
  777MPD2    H511524   2.270   0.929   0.494  2.1175  3.1769  0.0318
  777MPD2    N111525   2.364   1.381   0.660 -0.4506 -0.1763 -0.3791
  777MPD2    H711526   2.352   1.480   0.678 -0.9358 -0.2577 -0.2754
  778MPD2     C11527   3.392   1.801  14.914  0.3901 -0.6359 -0.5100
  778MPD2    C111528   3.402   1.705  14.816  0.0379  0.0691 -0.4173
  778MPD2    C211529   3.453   1.738  14.693  0.0782 -0.1036 -0.4054
  778MPD2    C311530   3.502   1.861  14.665  0.2444 -0.1099 -0.2020
  778MPD2    C411531   3.491   1.960  14.760 -0.2468  0.2191 -0.3342
  778MPD2    C511532   3.434   1.931  14.884  0.9814 -1.1058 -0.3772
  778MPD2     H11533   3.460   1.666  14.612  2.6282 -0.3875  0.0621
  778MPD2    H111534   3.530   2.061  14.751  1.1375 -0.2296  0.6180
  778MPD2    H211535   3.354   1.786  15.014  1.6601  0.5393  0.1557
  778MPD2    H311536   3.432   2.001  14.967 -0.1241 -0.0894 -1.2698
  778MPD2     N11537   3.555   1.879  14.537  0.1654 -0.0514  0.1875
  778MPD2    H511538   3.557   1.800  14.473  1.6212 -0.1020  0.2950
  778MPD2    N111539   3.358   1.568  14.831  0.1025 -0.0291 -0.3685
  778MPD2    H711540   3.373   1.510  14.750  0.9557 -0.5231  0.1391
  779MPD2     C11541   3.054   0.029  14.453  0.6513 -0.0627 -0.2909
  779MPD2    C111542   3.185   0.052  14.469  0.6501 -0.0358  0.6993
  779MPD2    C211543   3.232   0.181  14.435 -0.6492 -0.0088 -0.0277
  779MPD2    C311544   3.144   0.282  14.407  0.4375  0.6265  0.0803
  779MPD2    C411545   3.009   0.253  14.387  0.1132 -0.2050 -0.5076
  779MPD2    C511546   2.966   0.127  14.420  0.8168 -0.4833  0.1058
  779MPD2     H11547   3.337   0.206  14.431 -0.8690  1.2899  2.5626
  779MPD2    H111548   2.935   0.327  14.356  0.5715 -0.4151 -2.1360
  779MPD2    H211549   3.001   4.678  14.489 -0.7788 -0.1447 -2.5825
  779MPD2    H311550   2.860   0.109  14.417  0.9418 -0.7828 -2.7204
  779MPD2     N11551   3.195   0.415  14.386  0.5198  0.1167  0.2608
  779MPD2    H511552   3.294   0.430  14.370  0.5275 -0.0590  0.1472
  779MPD2    N111553   3.284   4.695  14.517 -0.7097  0.2342 -0.0046
  779MPD2    H711554   3.382   4.722  14.526  0.2162 -2.1092 -3.2963
  780MPD2     C11555   2.926   0.198   1.061  0.1521 -0.0454  0.1030
  780MPD2    C111556   2.879   0.189   0.928 -0.1217  0.6876 -0.0465
  780MPD2    C211557   2.962   0.186   0.821  0.4658 -0.1889 -0.6125
  780MPD2    C311558   3.097   0.201   0.844 -0.1811 -0.0155 -0.1263
  780MPD2    C411559   3.146   0.220   0.969 -0.5797  0.7769  0.6766
  780MPD2    C511560   3.059   0.228   1.074 -0.5143  0.0568  0.8956
  780MPD2     H11561   2.928   0.164   0.721 -1.0238  1.1397 -0.3985
  780MPD2    H111562   3.250   0.240   0.990  0.1896 -1.0732 -1.2931
  780MPD2    H211563   2.853   0.201   1.141  0.1635 -1.1297  0.1484
  780MPD2    H311564   3.107   0.251   1.169  0.4678  2.0821 -0.1034
  780MPD2     N11565   3.178   0.217   0.734  0.4174 -0.0792  0.0978
  780MPD2    H511566   3.142   0.199   0.641  2.5035  1.1472 -0.9491
  780MPD2    N111567   2.746   0.151   0.925 -0.4191  0.4028  0.1375
  780MPD2    H711568   2.699   0.130   1.013 -1.4864 -0.5190 -0.6436
  781MPD2     C11569   4.728   1.664  11.949  0.2834  0.4617 -0.0524
  781MPD2    C111570   0.034   1.765  12.035 -0.1246  0.5846  0.1568
  781MPD2    C211571   0.134   1.849  11.987 -0.5229 -0.4316 -0.5467
  781MPD2    C311572   0.189   1.828  11.864 -0.4242 -0.5454 -0.4752
  781MPD2    C411573   0.144   1.728  11.783  0.0369 -0.4762 -0.7587
  781MPD2    C511574   0.037   1.652  11.820 -0.0712  0.1277 -0.3877
  781MPD2     H11575   0.167   1.941  12.035  1.8936 -2.2074  1.2323
  781MPD2    H111576   0.193   1.708  11.688 -1.7214 -1.4016 -1.4773
  781MPD2    H211577   4.648   1.599  11.981 -1.0134  1.6237 -0.9181
  781MPD2    H311578   4.731   1.575  11.756  1.5515 -2.0431  1.1583
  781MPD2     N11579   0.299   1.892  11.801 -0.0083  0.0034 -0.0154
  781MPD2    H511580   0.318   1.857  11.707  2.3226 -2.1175  1.2282
  781MPD2    N111581   4.722   1.779  12.166 -0.2008  0.1074  0.2479
  781MPD2    H711582   0.023   1.863  12.210  0.9245  0.5628 -1.5922
  782MPD2     C11583   2.474   2.445   9.944  0.5638  0.0696  0.0697
  782MPD2    C111584   2.482   2.457  10.083  0.0595  0.4058  0.0523
  782MPD2    C211585   2.461   2.579  10.137  0.1206 -0.1159 -0.8004
  782MPD2    C311586   2.432   2.694  10.061 -0.7527 -0.3351  0.3596
  782MPD2    C411587   2.416   2.677   9.925 -0.3298 -0.2576  0.5596
  782MPD2    C511588   2.427   2.552   9.871  0.0034 -0.1965 -0.6106
  782MPD2     H11589   2.456   2.593  10.245  0.2246 -2.1954 -0.5353
  782MPD2    H111590   2.389   2.761   9.862 -0.9534 -1.1396 -0.3394
  782MPD2    H211591   2.479   2.353   9.887  3.2795 -0.8865  1.8911
  782MPD2    H311592   2.398   2.542   9.767 -2.0774 -0.8936  0.0408
  782MPD2     N11593   2.415   2.815  10.135 -0.4278  0.0461 -0.1953
  782MPD2    H511594   2.428   2.804  10.235  2.0316 -0.2680 -0.5430
  782MPD2    N111595   2.513   2.348  10.168 -0.2723  0.5156 -0.5516
  782MPD2    H711596   2.517   2.374  10.266  0.2934  0.4199 -0.5455
  783MPD2     C11597   1.879   1.910  10.664  0.3525 -0.4943  0.7019
  783MPD2    C111598   1.955   2.005  10.730 -0.5507  0.7167  0.0370
  783MPD2    C211599   2.088   2.023  10.688 -0.9481 -0.1653 -0.6567
  783MPD2    C311600   2.144   1.941  10.595 -0.9948  0.3050  0.0100
  783MPD2    C411601   2.067   1.843  10.540  0.3772 -0.4775  0.3871
  783MPD2    C511602   1.932   1.838  10.562 -0.1349  0.2468  0.8745
  783MPD2     H11603   2.146   2.111  10.715  0.8494 -0.8968 -2.0801
  783MPD2    H111604   2.117   1.775  10.471  0.0694  0.3757 -0.6721
  783MPD2    H211605   1.774   1.897  10.690 -0.1557 -0.2756 -1.2672
  783MPD2    H311606   1.866   1.768  10.512 -0.8338  0.8761  0.9166
  783MPD2     N11607   2.272   1.972  10.551 -0.1651 -0.5403 -0.2110
  783MPD2    H511608   2.324   2.039  10.607  1.3538 -0.1410 -2.0983
  783MPD2    N111609   1.886   2.088  10.826 -0.1310 -0.5946 -0.2604
  783MPD2    H711610   1.786   2.069  10.832  0.0096 -2.1585 -3.0584
  784MPD2     C11611   0.170   3.285   0.762 -0.0284 -0.5302  0.2932
  784MPD2    C111612   0.181   3.374   0.857 -0.3103  0.1695  0.0125
  784MPD2    C211613   0.080   3.469   0.865  0.0240  0.5656 -0.0844
  784MPD2    C311614   4.707   3.465   0.782  0.3239 -0.3934  0.0493
  784MPD2    C411615   4.691   3.358   0.704 -0.3875  0.7313  0.0009
  784MPD2    C511616   0.066   3.279   0.674 -0.6664 -0.6306  0.3112
  784MPD2     H11617   0.098   3.561   0.920  0.6153  0.3094  0.1497
  784MPD2    H111618   4.603   3.353   0.640 -0.0300 -1.1104 -0.3687
  784MPD2    H211619   0.238   3.201   0.760 -0.9439 -1.3134  1.7204
  784MPD2    H311620   0.067   3.200   0.600 -1.2090  0.3063 -0.6927
  784MPD2     N11621   4.633   3.586   0.779  1.0307  0.0784  0.4396
  784MPD2    H511622   4.668   3.666   0.831 -1.2710  0.8036  0.8820
  784MPD2    N111623   0.295   3.378   0.944 -0.2353  0.8577 -0.2357
  784MPD2    H711624   0.298   3.455   1.009  1.0955 -0.9943  1.8760
  785MPD2     C11625   0.204   0.956  10.020  0.0337  0.1445 -0.8903
  785MPD2    C111626   0.289   0.936  10.129  0.0863 -0.1183 -0.5057
  785MPD2    C211627   0.251   0.976  10.257  0.6140 -0.0274 -0.4729
  785MPD2    C311628   0.145   1.066  10.266 -0.5391 -0.0772 -0.0561
  785MPD2    C411629   0.069   1.094  10.159 -0.4142  0.5421  0.4593
  785MPD2    C511630   0.091   1.033  10.038 -0.6218  0.2291  0.6012
  785MPD2     H11631   0.314   0.946  10.340 -0.9911  1.4928  1.2997
  785MPD2    H111632   4.709   1.143  10.165 -1.3089 -0.9557 -2.1323
  785MPD2    H211633   0.230   0.914   9.924 -0.2349  1.0805 -1.3684
  785MPD2    H311634   0.020   1.051   9.958  0.5116  0.8050 -0.2816
  785MPD2     N11635   0.124   1.125  10.391 -0.4461  0.4326  0.2169
  785MPD2    H511636   0.175   1.092  10.473  1.6996 -0.1783 -1.3857
  785MPD2    N111637   0.415   0.877  10.114  0.5819  0.1364  0.3373
  785MPD2    H711638   0.473   0.861  10.196  1.3438  2.3601  0.2444
  786MPD2     C11639   3.760   4.270  14.840 -0.5466 -0.0481  0.5351
  786MPD2    C111640   3.862   4.178  14.854 -1.0377 -0.9720  0.5595
  786MPD2    C211641   3.949   4.195  14.961  0.0553  0.4789 -0.1763
  786MPD2    C311642   3.952   4.300  15.042  0.4148  0.3185  0.5814
  786MPD2    C411643   3.863   4.399  15.018  0.4900 -0.7857 -0.1681
  786MPD2    C511644   3.771   4.387  14.922 -0.7002  0.0695  1.0859
  786MPD2     H11645   4.024   4.118  14.972  0.0525  0.4797 -0.1523
  786MPD2    H111646   3.858   4.494  15.071  2.5650 -0.2274 -1.0078
  786MPD2    H211647   3.690   4.277  14.757  0.5526  2.1908 -0.2026
  786MPD2    H311648   3.694   4.461  14.905  0.1418  0.8078  0.4773
  786MPD2     N11649   4.061   4.310  15.138 -0.0517 -0.0481 -0.7102
  786MPD2    H511650   4.125   4.231  15.144 -1.1404 -0.7105  2.4202
  786MPD2    N111651   3.889   4.071  14.760 -0.2540  0.4920 -0.3066
  786MPD2    H711652   3.969   4.013  14.783  1.1548  1.7957 -1.8786
  787MPD2     C11653   4.410   3.782  14.834  0.3653 -1.0614  0.0246
  787MPD2    C111654   4.365   3.725  14.723  0.2825  0.2063 -0.2207
  787MPD2    C211655   4.412   3.604  14.687  0.2113  0.4271 -0.1697
  787MPD2    C311656   4.497   3.533  14.773 -0.1066  0.1804  0.1227
  787MPD2    C411657   4.547   3.596  14.883  0.5096  0.5442 -0.0179
  787MPD2    C511658   4.514   3.723  14.908  0.3742  0.4767  0.1299
  787MPD2     H11659   4.374   3.550  14.601  0.3694 -0.5913  0.4106
  787MPD2    H111660   4.610   3.539  14.950 -0.2359  0.2197  0.4139
  787MPD2    H211661   4.374   3.876  14.874  0.6083 -0.8915 -0.1559
  787MPD2    H311662   4.550   3.769  14.999 -0.3263  1.6458 -0.1801
  787MPD2     N11663   4.545   3.407  14.736  0.2231 -0.3930 -0.1007
  787MPD2    H511664   4.526   3.373  14.642  0.2501 -0.9067  0.0814
  787MPD2    N111665   4.275   3.802  14.639  0.0888  0.3387  0.0258
  787MPD2    H711666   4.249   3.887  14.688 -0.7748  0.6439 -0.9501
  788MPD2     C11667   1.443   3.003   1.195  0.7654 -0.4552 -0.1840
  788MPD2    C111668   1.429   2.943   1.075 -0.7468  0.0427 -0.3149
  788MPD2    C211669   1.466   3.017   0.963 -0.4083 -0.5887  0.7773
  788MPD2    C311670   1.499   3.154   0.975  0.0833 -0.1062  0.2652
  788MPD2    C411671   1.500   3.211   1.103 -0.0439 -0.1815  0.3914
  788MPD2    C511672   1.474   3.134   1.211 -0.4711  0.2929 -0.5412
  788MPD2     H11673   1.456   2.977   0.862  0.2892  1.0080  0.0785
  788MPD2    H111674   1.517   3.316   1.126 -2.0254  0.3639 -0.6509
  788MPD2    H211675   1.423   2.941   1.282  2.1119 -1.1073 -0.3398
  788MPD2    H311676   1.470   3.175   1.311  2.2673 -0.5267 -0.0904
  788MPD2     N11677   1.527   3.232   0.862 -0.0108 -0.3969  0.0729
  788MPD2    H511678   1.535   3.332   0.874 -0.3947 -0.5197  1.4051
  788MPD2    N111679   1.373   2.821   1.063 -0.1951  0.2295 -0.0823
  788MPD2    H711680   1.370   2.769   0.976  0.8150  0.1900 -0.0918
  789MPD2     C11681   1.018   2.054  16.198 -0.0213 -0.2714 -0.0920
  789MPD2    C111682   0.964   2.174  16.154  0.3196  0.3656  0.6415
  789MPD2    C211683   0.963   2.283  16.240 -0.0110 -0.4001  0.3036
  789MPD2    C311684   1.012   2.272  16.372  0.1536  0.5347 -0.2085
  789MPD2    C411685   1.074   2.153  16.412 -0.3997 -0.0658 -0.5324
  789MPD2    C511686   1.079   2.045  16.321 -0.5047  0.1427  0.1091
  789MPD2     H11687   0.917   2.375  16.205  0.6503  0.1288  0.8298
  789MPD2    H111688   1.115   2.145  16.512 -0.1844  1.0892 -0.5271
  789MPD2    H211689   1.038   1.978  16.123  1.2529 -0.6798  0.6607
  789MPD2    H311690   1.133   1.957  16.354 -0.3419  0.9608  2.0103
  789MPD2     N11691   1.005   2.378  16.466  0.7857 -0.6479 -0.3878
  789MPD2    H511692   1.043   2.359  16.558 -1.4073  1.6070  1.0102
  789MPD2    N111693   0.898   2.180  16.033 -0.1401  0.1043 -0.0225
  789MPD2    H711694   0.831   2.257  16.032 -0.3582 -0.0870 -0.3516
  790MPD2     C11695   2.462   4.225  13.357  1.0331 -0.7592 -0.3046
  790MPD2    C111696   2.489   4.092  13.371 -0.2166 -0.4720  0.1246
  790MPD2    C211697   2.472   4.015  13.256  0.0710 -0.1019  0.1032
  790MPD2    C311698   2.427   4.065  13.138 -0.3038  0.4988 -0.3021
  790MPD2    C411699   2.401   4.198  13.133 -0.4103  0.3524 -0.0642
  790MPD2    C511700   2.414   4.280  13.242 -0.0416  0.0714 -0.1315
  790MPD2     H11701   2.483   3.907  13.250 -1.3545 -0.0751 -2.6222
  790MPD2    H111702   2.364   4.251  13.046  3.1081  1.8235 -0.6770
  790MPD2    H211703   2.477   4.287  13.444 -2.5497 -0.4721  0.1084
  790MPD2    H311704   2.391   4.386  13.238  2.1389  0.5451  0.2073
  790MPD2     N11705   2.414   3.983  13.026  0.2183  0.2751  0.2793
  790MPD2    H511706   2.449   3.888  13.033 -0.3422 -0.0448 -1.2908
  790MPD2    N111707   2.552   4.038  13.491  0.0286 -0.1556  0.3058
  790MPD2    H711708   2.562   4.104  13.568 -2.5959  1.1187 -0.4176
  791MPD2     C11709   1.820   3.882  12.515  0.1278 -0.1948  0.0024
  791MPD2    C111710   1.882   3.773  12.567  0.2072  0.3101 -0.2744
  791MPD2    C211711   1.821   3.652  12.569 -0.2983 -0.0577 -1.1806
  791MPD2    C311712   1.695   3.632  12.515  0.4223  0.6272 -0.9739
  791MPD2    C411713   1.641   3.741  12.442 -0.0024 -0.6578 -0.0276
  791MPD2    C511714   1.701   3.863  12.451 -0.0619  0.1899  0.3686
  791MPD2     H11715   1.878   3.576  12.621  0.2684  0.8223 -0.5115
  791MPD2    H111716   1.544   3.737  12.393  0.1665 -1.1046 -0.3249
  791MPD2    H211717   1.876   3.974  12.505  0.7451 -0.6924 -1.1239
  791MPD2    H311718   1.656   3.952  12.407 -0.7936  0.2767  1.2856
  791MPD2     N11719   1.630   3.509  12.530 -0.4765 -0.2047 -0.1942
  791MPD2    H511720   1.689   3.438  12.572  1.0026  0.9004 -0.4209
  791MPD2    N111721   2.019   3.797  12.608  0.2438  0.0379  0.3290
  791MPD2    H711722   2.056   3.891  12.596 -0.4394  0.3196  0.4206
  792MPD2     C11723   2.578   3.902  11.170  0.1223 -0.0370  0.1247
  792MPD2    C111724   2.517   4.022  11.146 -0.0301  0.3137  0.3826
  792MPD2    C211725   2.385   4.021  11.101  0.4507  0.8124 -0.1943
  792MPD2    C311726   2.326   3.896  11.088  0.5146 -0.2390  0.2294
  792MPD2    C411727   2.392   3.780  11.105 -0.0300 -0.4718 -0.8884
  792MPD2    C511728   2.521   3.779  11.147 -0.4812 -0.4197 -0.4819
  792MPD2     H11729   2.333   4.115  11.084  1.7635  1.0742 -2.8264
  792MPD2    H111730   2.343   3.684  11.091  0.9233 -1.4094  2.1401
  792MPD2    H211731   2.680   3.897  11.205 -0.3425 -0.5156  1.4493
  792MPD2    H311732   2.575   3.689  11.176 -0.8255 -0.2235  0.7712
  792MPD2     N11733   2.179   3.888  11.081  0.6658 -0.4601  0.5803
  792MPD2    H511734   2.137   3.799  11.058  0.0727  0.0553 -0.2982
  792MPD2    N111735   2.598   4.137  11.163 -0.1725  0.5583 -0.3067
  792MPD2    H711736   2.688   4.124  11.208 -0.8236  3.1964  1.7821
  793MPD2     C11737   1.407   3.942  10.547 -0.3379 -0.2932 -0.1674
  793MPD2    C111738   1.542   3.925  10.533 -0.3670 -0.9029 -0.0735
  793MPD2    C211739   1.626   3.975  10.629 -0.3162  0.5684  0.4252
  793MPD2    C311740   1.574   4.022  10.750  0.3793  0.0235 -0.3387
  793MPD2    C411741   1.442   4.061  10.749  0.0927 -0.2620 -0.2044
  793MPD2    C511742   1.358   4.023  10.652 -0.7561  0.6076 -0.4875
  793MPD2     H11743   1.730   3.950  10.612 -0.3429  0.3869  0.5263
  793MPD2    H111744   1.397   4.118  10.830 -1.1855  0.9887 -1.7821
  793MPD2    H211745   1.336   3.906  10.473 -0.0400 -2.4497  0.6140
  793MPD2    H311746   1.253   4.035  10.676 -0.8626 -1.8235  0.2512
  793MPD2     N11747   1.668   4.050  10.846 -0.6216 -0.0801  0.9190
  793MPD2    H511748   1.763   4.033  10.814 -0.5751 -0.8264  1.4606
  793MPD2    N111749   1.596   3.837  10.433  0.0175  0.3121  0.3472
  793MPD2    H711750   1.696   3.828  10.414 -0.2464 -2.2117  0.1590
  794MPD2     C11751   2.098   3.043  16.550 -0.7137  0.1385  0.1693
  794MPD2    C111752   1.992   3.095  16.625 -0.2186 -0.1037  0.1994
  794MPD2    C211753   1.871   3.121  16.555  0.3322 -0.1190  0.0360
  794MPD2    C311754   1.860   3.102  16.422  0.3211 -0.6201 -0.0027
  794MPD2    C411755   1.966   3.052  16.344 -0.1037  0.1948  0.3237
  794MPD2    C511756   2.083   3.020  16.415  0.4327  0.1248  0.8658
  794MPD2     H11757   1.787   3.166  16.607  2.0038  3.1941 -0.1769
  794MPD2    H111758   1.956   3.026  16.239  0.6116  0.1385  0.2707
  794MPD2    H211759   2.199   3.022  16.583 -1.1989 -2.0605  0.2442
  794MPD2    H311760   2.173   2.984  16.366 -0.5403  1.3668 -1.8040
  794MPD2     N11761   1.742   3.137  16.351 -0.0011  0.1322 -0.5451
  794MPD2    H511762   1.753   3.135  16.250  1.6198  1.3883 -0.4029
  794MPD2    N111763   2.004   3.121  16.763  0.3956  0.0617 -0.7330
  794MPD2    H711764   1.924   3.163  16.809  0.5474 -0.0378 -0.3824
  795MPD2     C11765   4.734   0.674  13.603 -0.2774 -1.4578 -0.0985
  795MPD2    C111766   0.038   0.582  13.507 -0.3752 -0.0048 -0.4426
  795MPD2    C211767   0.123   0.481  13.548  0.0500  0.2856 -0.0612
  795MPD2    C311768   0.167   0.474  13.676  0.2741 -0.1150  0.2160
  795MPD2    C411769   0.147   0.583  13.764 -0.4108  0.3430  0.5949
  795MPD2    C511770   0.059   0.681  13.728  0.1097 -0.3808  0.5582
  795MPD2     H11771   0.139   0.407  13.470  2.8340  1.2230 -0.3962
  795MPD2    H111772   0.204   0.590  13.855  0.0846 -2.6600  0.5058
  795MPD2    H211773   4.664   0.746  13.563 -0.6431 -1.5795  0.3183
  795MPD2    H311774   0.047   0.758  13.803  2.4272 -0.5130  1.0603
  795MPD2     N11775   0.263   0.370  13.697 -0.7179 -0.0070 -0.2642
  795MPD2    H511776   0.290   0.310  13.620  2.4907 -0.5527  1.2867
  795MPD2    N111777   4.716   0.579  13.379  0.3399 -0.2611  0.3447
  795MPD2    H711778   0.015   0.500  13.326  1.0330 -0.6822  1.4389
  796MPD2     C11779   3.901   1.809  15.797  0.2724  0.5678 -0.2082
  796MPD2    C111780   3.994   1.899  15.830 -0.5729 -0.3039  0.2685
  796MPD2    C211781   3.992   2.024  15.769  0.5736  0.3416  0.9805
  796MPD2    C311782   3.893   2.059  15.677  0.1236  0.3471 -0.6029
  796MPD2    C411783   3.795   1.962  15.644 -0.3877 -0.0344 -0.7656
  796MPD2    C511784   3.806   1.836  15.701 -0.0232 -0.2158 -0.0614
  796MPD2     H11785   4.054   2.109  15.798 -1.7669  2.2945  0.2877
  796MPD2    H111786   3.726   1.979  15.563 -0.9232 -0.3613 -0.3715
  796MPD2    H211787   3.899   1.708  15.835  0.5100  0.1665 -1.2487
  796MPD2    H311788   3.720   1.771  15.692 -0.6663  0.3470  2.0158
  796MPD2     N11789   3.898   2.188  15.614 -0.3448  0.4897  0.7711
  796MPD2    H511790   3.989   2.231  15.629  0.1246  0.4546 -2.0626
  796MPD2    N111791   4.079   1.860  15.938 -0.3216  0.1001  0.7499
  796MPD2    H711792   4.046   1.777  15.986 -2.0161 -0.2733 -1.0705
  797MPD2     C11793   0.521   1.824  17.298 -0.4622  0.1047 -0.1977
  797MPD2    C111794   0.451   1.924  17.361 -0.1101  0.4077  0.3722
  797MPD2    C211795   0.345   1.981  17.295 -0.1423 -0.0980  0.5496
  797MPD2    C311796   0.304   1.942  17.171  0.3191 -0.1753  0.0445
  797MPD2    C411797   0.375   1.842  17.108  0.5193 -0.2201  0.0974
  797MPD2    C511798   0.481   1.783  17.177  0.4597 -0.1169 -0.5300
  797MPD2     H11799   0.295   2.063  17.345  0.1049 -0.1185  0.8269
  797MPD2    H111800   0.342   1.812  17.009 -0.5623  0.8411  0.1396
  797MPD2    H211801   0.590   1.758  17.350 -2.4780 -2.0571 -0.2853
  797MPD2    H311802   0.533   1.701  17.127 -1.4780  0.0667 -2.8616
  797MPD2     N11803   0.210   2.019  17.097  0.2170  0.2195  0.2248
  797MPD2    H511804   0.220   2.006  16.996 -1.3806 -1.7694  0.3327
  797MPD2    N111805   0.490   1.979  17.488 -0.0080  0.2275 -0.6281
  797MPD2    H711806   0.426   2.050  17.523 -0.3485 -0.1519 -0.4932
  798MPD2     C11807   0.127   2.628  17.503 -0.4598 -0.1445 -0.2889
  798MPD2    C111808   0.187   2.547  17.405 -0.2239 -0.3787 -0.2851
  798MPD2    C211809   0.306   2.484  17.441  0.5959 -0.7948  0.5479
  798MPD2    C311810   0.358   2.492  17.572  0.2660  0.3575 -0.4175
  798MPD2    C411811   0.297   2.581  17.660 -0.3035 -0.0963  0.2419
  798MPD2    C511812   0.190   2.653  17.624  0.0641  0.2905 -0.4923
  798MPD2     H11813   0.361   2.429  17.366  0.2362 -2.1945  1.3222
  798MPD2    H111814   0.320   2.586   0.020  0.3562 -1.0125  0.1450
  798MPD2    H211815   0.033   2.677  17.483  0.2461  0.1717 -2.9432
  798MPD2    H311816   0.147   2.718  17.699 -0.5036 -2.2784  1.4069
  798MPD2     N11817   0.479   2.424  17.590  0.0537  0.1733 -0.0043
  798MPD2    H511818   0.506   2.362  17.514 -0.9638 -1.4973  0.9845
  798MPD2    N111819   0.129   2.531  17.272  0.4294 -0.1476 -0.3909
  798MPD2    H711820   0.029   2.547  17.258  0.5326  1.2585  0.4676
  799MPD2     C11821   4.264   3.083  14.590 -0.2098  0.3116 -0.2769
  799MPD2    C111822   4.131   3.065  14.558 -0.1314  0.9576 -0.3878
  799MPD2    C211823   4.059   3.163  14.491 -0.0725  0.8419 -0.0041
  799MPD2    C311824   4.128   3.265  14.428  0.0981 -0.1199 -0.2567
  799MPD2    C411825   4.266   3.277  14.453  0.4887 -0.7568 -0.4578
  799MPD2    C511826   4.325   3.196  14.543 -0.8440 -0.0175 -0.5294
  799MPD2     H11827   3.953   3.152  14.471  0.3424 -0.2480 -1.6032
  799MPD2    H111828   4.328   3.356  14.411 -1.1788  1.1140  0.5655
  799MPD2    H211829   4.319   3.015  14.653 -0.1374  0.3348 -0.3147
  799MPD2    H311830   4.432   3.194  14.556 -0.5729  3.3923 -2.1181
  799MPD2     N11831   4.066   3.363  14.344 -0.5850 -0.2604  0.2945
  799MPD2    H511832   4.137   3.416  14.295 -1.6057 -0.4586 -1.3594
  799MPD2    N111833   4.055   2.957  14.608 -0.1267  0.2112 -0.1001
  799MPD2    H711834   3.954   2.964  14.619  0.1301 -1.5268  3.1995
  800MPD2     C11835   4.442   4.444  14.217  0.3796 -0.0410 -0.4160
  800MPD2    C111836   4.566   4.402  14.254 -0.1908  0.0129  0.9826
  800MPD2    C211837   4.626   4.295  14.182 -0.2901 -0.6007  0.3613
  800MPD2    C311838   4.565   4.226  14.084  0.7815  0.7685 -0.3686
  800MPD2    C411839   4.438   4.263  14.046 -0.1139  0.7961 -0.0586
  800MPD2    C511840   4.388   4.373  14.110  0.0362 -0.3416  0.5961
  800MPD2     H11841   4.727   4.257  14.192 -0.5211 -1.9130 -2.3087
  800MPD2    H111842   4.375   4.210  13.975  0.1467  0.8668 -0.3388
  800MPD2    H211843   4.389   4.522  14.270  0.8005 -0.5253  0.7013
  800MPD2    H311844   4.291   4.414  14.080  0.5972  2.0563  2.0183
  800MPD2     N11845   4.644   4.133  14.015  0.0621  0.2280  0.0164
  800MPD2    H511846   4.734   4.105  14.052  1.1543 -0.2552 -3.0652
  800MPD2    N111847   4.630   4.485  14.354  0.0464 -0.1119  0.3034
  800MPD2    H711848   4.579   4.562  14.397 -0.0684  0.6316 -1.1646
  801MPD2     C11849   4.382   0.135  14.902 -0.0092 -0.3989  0.6332
  801MPD2    C111850   4.392   0.104  14.765 -0.6076 -1.0965  0.0389
  801MPD2    C211851   4.303   0.152  14.672 -0.1940 -0.0500  0.0379
  801MPD2    C311852   4.191   0.224  14.722 -0.9478  0.5012 -0.2779
  801MPD2    C411853   4.193   0.271  14.845 -0.3644 -0.0288  0.6578
  801MPD2    C511854   4.281   0.223  14.937 -0.5034 -0.2473  0.1194
  801MPD2     H11855   4.315   0.116  14.570  2.1005 -0.2033  0.3657
  801MPD2    H111856   4.116   0.340  14.878  0.2611  0.2909  1.4469
  801MPD2    H211857   4.445   0.093  14.980 -0.2160 -2.1698 -0.1545
  801MPD2    H311858   4.257   0.261  15.036  0.8831 -4.2957  2.0440
  801MPD2     N11859   4.078   0.262  14.646 -0.9783  0.5783  0.1902
  801MPD2    H511860   4.009   0.323  14.688 -2.4998  0.0481 -1.5840
  801MPD2    N111861   4.507   0.037  14.716  0.6140 -0.2919 -0.1139
  801MPD2    H711862   4.511   0.029  14.615 -1.1825 -1.9588 -0.0310
  802MPD2     C11863   3.631   0.675  17.143 -0.2870 -0.5781 -0.1539
  802MPD2    C111864   3.727   0.702  17.241 -0.3291  0.1889  0.0266
  802MPD2    C211865   3.846   0.631  17.246 -0.0100 -0.3083  0.3105
  802MPD2    C311866   3.876   0.534  17.151 -0.3028 -0.0594 -0.6480
  802MPD2    C411867   3.791   0.520  17.043 -0.7453  0.1072 -0.1685
  802MPD2    C511868   3.668   0.590  17.040 -0.3771  0.3099  0.2858
  802MPD2     H11869   3.928   0.658  17.312 -0.1448  0.7447  0.0356
  802MPD2    H111870   3.815   0.464  16.953 -0.9709  1.1777 -0.9085
  802MPD2    H211871   3.540   0.732  17.127 -0.3649 -1.0394 -1.3522
  802MPD2    H311872   3.604   0.587  16.953 -3.0416  1.3589  2.2155
  802MPD2     N11873   4.007   0.483  17.156  0.4090 -0.1421 -0.3264
  802MPD2    H511874   4.070   0.525  17.223 -0.8789 -0.2131  0.9404
  802MPD2    N111875   3.707   0.792  17.346 -0.6287 -0.3482  0.1803
  802MPD2    H711876   3.777   0.808  17.417 -0.2310 -0.4566 -0.1836
  803MPD2     C11877   0.063   3.459  12.274 -0.2327 -0.1292  1.0338
  803MPD2    C111878   0.188   3.404  12.270  0.4617  0.0639  0.3051
  803MPD2    C211879   0.231   3.350  12.390  0.2000 -0.7940 -0.2173
  803MPD2    C311880   0.170   3.362  12.508 -1.0807 -0.0053 -0.4725
  803MPD2    C411881   0.041   3.400  12.504  0.1268 -0.0332 -0.2377
  803MPD2    C511882   4.724   3.453  12.393 -0.4958 -0.2293  0.8469
  803MPD2     H11883   0.323   3.293  12.387  1.9862  1.9872  1.7113
  803MPD2    H111884   4.717   3.411  12.593  0.6935  0.8622  0.0373
  803MPD2    H211885   0.012   3.500  12.187  0.4867  0.3921  0.8624
  803MPD2    H311886   4.620   3.482  12.396 -0.4763  0.2290 -2.6769
  803MPD2     N11887   0.224   3.317  12.630 -0.7520  0.2440  0.0674
  803MPD2    H511888   0.155   3.297  12.702 -1.0231 -1.6369 -0.6977
  803MPD2    N111889   0.278   3.405  12.160  0.1118 -0.2620 -0.4617
  803MPD2    H711890   0.368   3.359  12.174  1.1772  1.7441 -0.7260
  804MPD2     C11891   0.132   0.702  17.134 -0.2729  0.3636 -0.0708
  804MPD2    C111892   0.190   0.666  17.258 -0.2195  0.6072 -0.1046
  804MPD2    C211893   0.244   0.765  17.342  0.2738 -0.0548 -0.0795
  804MPD2    C311894   0.244   0.895  17.304  1.4246  0.8379  0.2883
  804MPD2    C411895   0.186   0.933  17.185  0.0379  0.5822 -0.6054
  804MPD2    C511896   0.120   0.839  17.106 -0.7111 -0.4912  0.0872
  804MPD2     H11897   0.276   0.733  17.441 -2.0244  2.9283  1.6227
  804MPD2    H111898   0.189   1.035  17.150 -2.2537  1.5342  1.9547
  804MPD2    H211899   0.085   0.635  17.064  1.0939 -3.7430  2.9413
  804MPD2    H311900   0.101   0.873  17.004  1.7351 -0.7580 -0.4594
  804MPD2     N11901   0.313   0.994  17.386  0.8943 -0.2787 -0.2363
  804MPD2    H511902   0.373   0.960  17.460  0.4057  0.3922  0.4658
  804MPD2    N111903   0.166   0.543  17.321 -0.0312  0.6897  0.4722
  804MPD2    H711904   0.196   0.534  17.418 -0.4596  1.5499  0.6803
  805MPD2     C11905   3.847   3.459  15.490 -0.1361 -0.2054 -0.1650
  805MPD2    C111906   3.944   3.492  15.400  0.4412  0.5207 -0.1511
  805MPD2    C211907   4.073   3.519  15.457 -0.4313 -0.1480 -0.0469
  805MPD2    C311908   4.095   3.517  15.592 -0.6783  0.4622  0.4248
  805MPD2    C411909   3.991   3.502  15.688  0.2154 -0.0702  0.1560
  805MPD2    C511910   3.873   3.467  15.631 -0.3553  0.3249 -0.5776
  805MPD2     H11911   4.153   3.537  15.385 -0.9847 -2.5933 -1.2846
  805MPD2    H111912   3.994   3.506  15.796  1.0058 -0.8699  0.1693
  805MPD2    H211913   3.749   3.426  15.456 -0.7317 -0.1156  1.4756
  805MPD2    H311914   3.790   3.454  15.700  1.6917  0.6849  1.9386
  805MPD2     N11915   4.224   3.541  15.643  0.1961 -0.0474 -0.8950
  805MPD2    H511916   4.299   3.563  15.579  1.1869  0.7313  0.5685
  805MPD2    N111917   3.937   3.493  15.258  0.7741  0.2154 -0.2399
  805MPD2    H711918   4.020   3.494  15.200  0.7616  1.2671 -0.2326
  806MPD2     C11919   4.428   2.750  17.722 -0.3691  0.8314 -0.6330
  806MPD2    C111920   4.347   2.826   0.063 -0.2767 -0.5056  0.6568
  806MPD2    C211921   4.406   2.932   0.120  0.5589 -0.4505 -0.2785
  806MPD2    C311922   4.544   2.950   0.105  0.3679  0.6540 -0.5056
  806MPD2    C411923   4.622   2.874   0.023  0.1303  0.3197 -0.1866
  806MPD2    C511924   4.559   2.771  17.703  0.6771  0.2781 -0.3613
  806MPD2     H11925   4.345   3.001   0.176 -1.1604 -2.1603 -0.0430
  806MPD2    H111926   4.728   2.892   0.010  0.3977 -1.1872 -0.0984
  806MPD2    H211927   4.390   2.668  17.662 -0.2350  0.8476 -0.7410
  806MPD2    H311928   4.605   2.710  17.626  1.2332  2.6140 -1.8922
  806MPD2     N11929   4.597   3.055   0.185 -0.0155  0.7103  0.0672
  806MPD2    H511930   4.522   3.111   0.223  0.7980  2.4208 -0.8321
  806MPD2    N111931   4.214   2.786   0.087 -0.5637  0.6021  0.4714
  806MPD2    H711932   4.197   2.695   0.047  2.6101  0.7192 -1.1241
  807MPD2     C11933   4.044   2.107   0.075  0.4366  0.1791 -0.0644
  807MPD2    C111934   3.968   2.156   0.177  0.2817 -0.5347 -0.0956
  807MPD2    C211935   3.901   2.067   0.250  0.8430 -0.0437  0.5994
  807MPD2    C311936   3.895   1.932   0.227  0.0083  0.5137 -0.7172
  807MPD2    C411937   3.966   1.886   0.118  0.0579  0.0459 -0.6365
  807MPD2    C511938   4.037   1.973   0.043 -0.0094 -0.3885 -0.6629
  807MPD2     H11939   3.855   2.107   0.339 -2.4165  1.0785 -1.5639
  807MPD2    H111940   3.966   1.783   0.086 -0.3550 -0.3313  0.5832
  807MPD2    H211941   4.107   2.170   0.013 -0.1647  0.0627 -0.8025
  807MPD2    H311942   4.102   1.935  17.710 -0.7405 -0.9385 -0.9960
  807MPD2     N11943   3.815   1.854   0.312  0.1283  0.3472 -0.6877
  807MPD2    H511944   3.756   1.907   0.376  0.9156 -1.4473  1.5401
  807MPD2    N111945   3.955   2.289   0.208  0.2535 -0.5798  0.2931
  807MPD2    H711946   3.882   2.320   0.271  0.4456  0.7217 -0.1272
  808MPD2     C11947   4.554   3.859  10.262  0.0303  0.3562 -0.1673
  808MPD2    C111948   4.589   3.800  10.140 -0.0507  0.0618  0.2710
  808MPD2    C211949   4.658   3.867  10.048  0.3062  0.4510 -0.2701
  808MPD2    C311950   4.691   4.003  10.060 -1.1455  0.2761  0.2517
  808MPD2    C411951   4.638   4.066  10.176  0.1151 -0.6026  0.3219
  808MPD2    C511952   4.582   3.993  10.276  0.7632  0.0991 -0.4526
  808MPD2     H11953   4.686   3.809   9.961  0.1096  1.4978 -1.0290
  808MPD2    H111954   4.651   4.173  10.186  0.8463 -0.7066  0.5036
  808MPD2    H211955   4.508   3.818  10.352  1.9604 -1.1072  0.1448
  808MPD2    H311956   4.554   4.044  10.368  2.2102  0.0749 -0.0033
  808MPD2     N11957   0.021   4.087   9.973  0.0060 -0.1627  0.2102
  808MPD2    H511958   0.013   4.186   9.996 -4.0514  0.3640 -3.3217
  808MPD2    N111959   4.547   3.667  10.107 -0.1961  0.3718  0.1117
  808MPD2    H711960   4.570   3.626  10.017 -1.6937 -0.3648  0.0574
  809MPD2     C11961   0.485   3.889   9.148 -0.8559  0.6665 -0.4442
  809MPD2    C111962   0.559   3.994   9.210  0.7492  0.2666 -0.0053
  809MPD2    C211963   0.494   4.061   9.309  0.4870  1.0696 -0.1283
  809MPD2    C311964   0.363   4.036   9.338 -0.3471 -0.3248  0.5671
  809MPD2    C411965   0.288   3.942   9.279 -0.0397 -0.0809  0.2742
  809MPD2    C511966   0.351   3.868   9.182 -0.3889  0.2320 -0.0286
  809MPD2     H11967   0.548   4.135   9.368 -0.6060  0.6402  1.4265
  809MPD2    H111968   0.192   3.910   9.318 -0.4763 -0.2677 -0.9546
  809MPD2    H211969   0.522   3.830   9.065 -0.9161 -0.6115  0.4404
  809MPD2    H311970   0.303   3.783   9.135  0.0484  0.2103 -0.4387
  809MPD2     N11971   0.293   4.096   9.435  0.0958  0.6124  0.1777
  809MPD2    H511972   0.213   4.041   9.464 -0.6222  2.2025  1.2421
  809MPD2    N111973   0.702   4.028   9.179  0.2161  0.0904 -0.3503
  809MPD2    H711974   0.742   4.108   9.228  0.6949 -0.6470  0.4544
  810MPD2     C11975   3.361   3.639  11.153  0.0810 -0.3019 -0.1845
  810MPD2    C111976   3.487   3.676  11.112  0.7798  0.2236 -0.1711
  810MPD2    C211977   3.497   3.774  11.016 -0.4588  0.4577 -0.2331
  810MPD2    C311978   3.386   3.837  10.963  0.4265 -0.5888  0.6026
  810MPD2    C411979   3.260   3.803  11.011  0.3435  0.1561  0.0759
  810MPD2    C511980   3.247   3.702  11.104  0.3387 -0.3871 -0.3654
  810MPD2     H11981   3.593   3.805  10.977  0.5238 -1.3649  0.7416
  810MPD2    H111982   3.165   3.835  10.968  0.0563  1.0929  1.4029
  810MPD2    H211983   3.335   3.560  11.222 -3.5117 -0.5676 -1.8479
  810MPD2    H311984   3.152   3.652  11.122  0.6446  0.4208  3.4996
  810MPD2     N11985   3.400   3.935  10.861  0.1804 -0.1749 -0.2149
  810MPD2    H511986   3.496   3.959  10.842  0.4410  0.0178  1.3523
  810MPD2    N111987   3.612   3.615  11.150  0.1490 -0.9079 -0.3353
  810MPD2    H711988   3.690   3.664  11.109  0.0420 -2.4808 -2.4064
  811MPD2     C11989   4.241   3.512  10.701  0.1346  0.0535 -0.1742
  811MPD2    C111990   4.150   3.576  10.773  0.1704  0.0595 -0.1075
  811MPD2    C211991   4.133   3.715  10.766  0.2729 -0.2946 -0.0152
  811MPD2    C311992   4.207   3.785  10.675  0.0948  0.2613  0.6943
  811MPD2    C411993   4.295   3.718  10.596  0.5984 -0.2964 -0.7485
  811MPD2    C511994   4.301   3.585  10.605  0.3633  0.4852  0.1289
  811MPD2     H11995   4.068   3.775  10.830  0.2228  0.5367 -0.8504
  811MPD2    H111996   4.355   3.763  10.518 -0.1189 -2.6777 -2.6999
  811MPD2    H211997   4.252   3.404  10.704  0.8640  0.1241 -0.2603
  811MPD2    H311998   4.384   3.543  10.550  0.6740  2.6133 -1.0230
  811MPD2     N11999   4.189   3.922  10.648  0.2094 -0.4684  0.4932
  811MPD2    H512000   4.263   3.955  10.588 -0.5300  0.6610  0.2036
  811MPD2    N112001   4.087   3.502  10.877  0.7633  0.3506 -0.0454
  811MPD2    H712002   4.084   3.401  10.867  1.6914  0.3724 -0.5490
  812MPD2     C12003   3.035   3.759  11.894 -0.4514 -0.0430  0.5571
  812MPD2    C112004   3.061   3.852  11.991  0.2635  0.2322 -0.2835
  812MPD2    C212005   3.127   3.809  12.107 -0.6559 -0.1802  0.4144
  812MPD2    C312006   3.185   3.680  12.116 -0.2208 -0.5547  0.8801
  812MPD2    C412007   3.156   3.581  12.023 -0.2699 -0.8136 -0.0985
  812MPD2    C512008   3.088   3.623  11.908 -0.4809  0.6933 -0.3371
  812MPD2     H12009   3.126   3.883  12.185  1.4176 -0.6056  0.8479
  812MPD2    H112010   3.185   3.477  12.038  1.2889 -0.3238  0.2317
  812MPD2    H212011   2.988   3.777  11.798  2.2881 -0.5983 -0.8732
  812MPD2    H312012   3.050   3.551  11.836 -0.4530  0.2468  0.0965
  812MPD2     N12013   3.278   3.652  12.222  0.1336  0.2606  0.4895
  812MPD2    H512014   3.287   3.718  12.299 -1.7570  1.0764  0.0064
  812MPD2    N112015   3.010   3.985  11.977  0.0071  0.1089 -0.0545
  812MPD2    H712016   2.959   4.000  11.890 -1.3707 -1.0639  0.5505
  813MPD2     C12017   2.345   0.660  12.678  0.0382  0.1143 -0.3778
  813MPD2    C112018   2.371   0.775  12.744  0.3534 -0.3329 -0.0652
  813MPD2    C212019   2.286   0.795  12.847  0.6308  0.0149  0.1410
  813MPD2    C312020   2.188   0.702  12.883  0.2181  0.0477  0.6491
  813MPD2    C412021   2.165   0.592  12.808 -0.0836  0.0976 -0.4758
  813MPD2    C512022   2.245   0.564  12.705  0.1148  0.0686 -0.5628
  813MPD2     H12023   2.283   0.892  12.895 -3.8013  0.1752 -0.5070
  813MPD2    H112024   2.088   0.527  12.848  0.4813 -0.0411  0.3901
  813MPD2    H212025   2.400   0.627  12.590  3.6816  1.4668  1.4010
  813MPD2    H312026   2.238   0.477  12.641 -1.7420  0.0347 -0.3270
  813MPD2     N12027   2.108   0.739  12.994 -0.1818  0.1776 -0.0897
  813MPD2    H512028   2.102   0.836  13.023  2.3267  0.0139  1.0191
  813MPD2    N112029   2.476   0.871  12.715 -0.1661 -0.0873 -0.0243
  813MPD2    H712030   2.496   0.940  12.787  1.0544 -0.0510 -0.4099
  814MPD2     C12031   3.128   2.188  12.676  0.4306 -0.2940 -0.0370
  814MPD2    C112032   3.080   2.195  12.541  0.4003  0.8605 -0.0710
  814MPD2    C212033   3.114   2.295  12.453  0.5554  0.6819  0.2466
  814MPD2    C312034   3.201   2.392  12.501 -0.2191  0.1845 -0.0400
  814MPD2    C412035   3.246   2.384  12.628 -0.5966  0.4276  0.4753
  814MPD2    C512036   3.214   2.283  12.714 -0.1679 -1.2932  0.5305
  814MPD2     H12037   3.087   2.285  12.348 -0.4588  0.5361  0.5196
  814MPD2    H112038   3.317   2.462  12.654  1.7938 -1.8819  0.8900
  814MPD2    H212039   3.107   2.104  12.741  1.6165 -0.0459  0.6546
  814MPD2    H312040   3.271   2.269  12.805  2.3224  1.9051 -0.5659
  814MPD2     N12041   3.253   2.509  12.432 -0.1088 -0.1081  0.3797
  814MPD2    H512042   3.303   2.585  12.477 -2.0417  0.2604  1.8783
  814MPD2    N112043   3.012   2.086  12.483  0.2622  0.3267  0.2338
  814MPD2    H712044   2.998   2.099  12.384 -0.6393 -1.8379  0.0751
  815MPD2     C12045   3.340   0.982  11.944  0.2846  0.1752  0.2404
  815MPD2    C112046   3.310   0.849  11.940 -0.2924  1.2256 -0.3761
  815MPD2    C212047   3.206   0.809  12.024  0.2232  0.0851  0.1188
  815MPD2    C312048   3.138   0.891  12.110 -0.4372  0.2612  0.3980
  815MPD2    C412049   3.174   1.022  12.120  0.4602  0.6505 -0.7982
  815MPD2    C512050   3.267   1.066  12.025  0.3401  0.4917 -0.3194
  815MPD2     H12051   3.185   0.702  12.027 -0.9767  0.2845 -0.8380
  815MPD2    H112052   3.128   1.092  12.188  2.5160  0.8213  0.4191
  815MPD2    H212053   3.420   1.019  11.880 -1.0896 -0.4931 -1.8627
  815MPD2    H312054   3.289   1.171  12.040 -0.5192  0.3914  1.6347
  815MPD2     N12055   3.039   0.828  12.195 -0.2355 -0.1365  0.2263
  815MPD2    H512056   3.022   0.730  12.171  0.7784 -0.8202  2.3072
  815MPD2    N112057   3.362   0.772  11.841 -0.3321 -0.8820 -0.4772
  815MPD2    H712058   3.423   0.823  11.778 -0.4739 -2.0068 -1.5185
  816MPD2     C12059   3.293   4.255  17.312 -0.0306 -0.0087 -0.0858
  816MPD2    C112060   3.285   4.367  17.244  0.1731  0.7212  0.0847
  816MPD2    C212061   3.396   4.414  17.178  0.3264  0.0364  0.3645
  816MPD2    C312062   3.509   4.339  17.165 -0.7000 -0.5087 -0.0186
  816MPD2    C412063   3.514   4.218  17.222  0.1673  0.2292  0.0956
  816MPD2    C512064   3.406   4.177  17.300 -0.2965  0.3454 -0.9262
  816MPD2     H12065   3.411   4.516  17.144  0.7236  0.6180  2.3050
  816MPD2    H112066   3.604   4.158  17.235  0.0847 -0.0039 -0.3936
  816MPD2    H212067   3.213   4.228  17.379  1.8555 -0.2475  2.0846
  816MPD2    H312068   3.413   4.081  17.351 -1.6043  1.8087  2.0333
  816MPD2     N12069   3.619   4.391  17.090  0.3890  0.1006  0.3969
  816MPD2    H512070   3.603   4.486  17.057  0.0719 -0.0610  0.0807
  816MPD2    N112071   3.174   4.449  17.268 -0.0787 -0.1711 -0.1187
  816MPD2    H712072   3.110   4.416  17.339 -0.5667 -2.0003 -1.3909
  817MPD2     C12073   2.265   0.601   9.248  0.1359 -0.6389 -0.9714
  817MPD2    C112074   2.305   0.715   9.313  0.0219 -0.2510  0.5857
  817MPD2    C212075   2.270   0.837   9.256  0.6204 -0.1946 -0.4428
  817MPD2    C312076   2.208   0.845   9.135  0.2545  0.6616 -0.2406
  817MPD2    C412077   2.173   0.726   9.075  0.5541 -0.4116 -0.2887
  817MPD2    C512078   2.204   0.605   9.129 -0.1592  0.3452 -0.0326
  817MPD2     H12079   2.307   0.931   9.296  0.3096 -0.8833  1.4948
  817MPD2    H112080   2.118   0.724   8.981  1.5380 -0.5041 -0.8708
  817MPD2    H212081   2.284   0.503   9.289  3.5985  0.1066 -0.8315
  817MPD2    H312082   2.188   0.512   9.077  3.8229 -0.8916  0.9031
  817MPD2     N12083   2.184   0.975   9.090 -0.2794  0.3230 -0.4375
  817MPD2    H512084   2.220   1.046   9.154 -0.4515  0.5418 -0.5840
  817MPD2    N112085   2.365   0.721   9.441  0.0026  0.0723  0.5148
  817MPD2    H712086   2.372   0.810   9.488 -2.1738  0.5567 -0.0538
  818MPD2     C12087   1.263   1.438   9.661 -0.5024  0.8231  0.2972
  818MPD2    C112088   1.271   1.370   9.782 -0.4933  0.2705 -0.2040
  818MPD2    C212089   1.291   1.232   9.789  0.3095 -0.4675  0.0026
  818MPD2    C312090   1.289   1.160   9.674 -0.1497 -0.5079  0.9904
  818MPD2    C412091   1.290   1.226   9.554 -0.1243  0.0759  0.8775
  818MPD2    C512092   1.285   1.361   9.548 -0.6716  0.4504 -0.1497
  818MPD2     H12093   1.286   1.191   9.889  2.1180  1.7106  0.9685
  818MPD2    H112094   1.294   1.181   9.455 -0.0731 -1.7517  1.7224
  818MPD2    H212095   1.238   1.543   9.650 -0.4452  0.8775  0.6830
  818MPD2    H312096   1.278   1.403   9.448 -0.6563 -2.3736 -1.3435
  818MPD2     N12097   1.307   1.015   9.673 -0.2520 -0.3101  0.1714
  818MPD2    H512098   1.321   0.969   9.584 -0.8778 -1.1007  0.4773
  818MPD2    N112099   1.257   1.428   9.910 -0.0536  0.2854 -0.2643
  818MPD2    H712100   1.274   1.368   9.990 -0.6861 -0.7213 -0.8827
  819MPD2     C12101   4.604   3.214  15.523 -0.3426 -0.6866  0.3552
  819MPD2    C112102   4.629   3.089  15.563 -1.4284 -0.5899  0.2510
  819MPD2    C212103   4.694   3.070  15.690 -0.2240  0.4546  0.5840
  819MPD2    C312104   0.009   3.186  15.747 -0.0477 -0.4902 -0.4256
  819MPD2    C412105   4.732   3.322  15.694  0.0164  0.3156 -0.2954
  819MPD2    C512106   4.656   3.330  15.578  0.3476 -0.5726 -0.4090
  819MPD2     H12107   4.714   2.973  15.734 -2.4762 -0.0378  0.5390
  819MPD2    H112108   0.035   3.414  15.734  1.2341 -0.0121 -0.7436
  819MPD2    H212109   4.549   3.225  15.430 -1.2151 -0.0691  0.9459
  819MPD2    H312110   4.637   3.429  15.537 -1.5424 -1.6383 -2.1309
  819MPD2     N12111   0.079   3.157  15.863  0.2959 -0.5368  0.4474
  819MPD2    H512112   0.086   3.060  15.892 -0.8837  0.1920  3.1251
  819MPD2    N112113   4.566   2.985  15.493  0.4783 -0.6087  0.1535
  819MPD2    H712114   4.532   3.012  15.401  1.1188  1.3437  0.4890
  820MPD2     C12115   3.829   2.908  14.902 -0.0791 -0.1411 -0.0033
  820MPD2    C112116   3.935   2.993  14.918 -0.4920  0.0253 -0.2757
  820MPD2    C212117   4.043   2.951  14.991  0.3426  0.5972 -0.0110
  820MPD2    C312118   4.052   2.818  15.037  0.1338 -0.1402 -0.1596
  820MPD2    C412119   3.942   2.743  15.022  0.7866  0.2221  0.3946
  820MPD2    C512120   3.835   2.779  14.946  0.2127 -0.5653  0.5668
  820MPD2     H12121   4.133   3.012  15.001 -0.1330  1.3150 -0.1053
  820MPD2    H112122   3.927   2.667  15.097 -0.0287 -0.1004 -0.0895
  820MPD2    H212123   3.738   2.940  14.852  0.1335  0.7865  0.1978
  820MPD2    H312124   3.753   2.712  14.925 -1.0756  1.6410 -1.4068
  820MPD2     N12125   4.154   2.774  15.112 -1.2634 -0.1633 -0.1187
  820MPD2    H512126   4.146   2.678  15.143  0.7309 -1.1808 -2.7798
  820MPD2    N112127   3.925   3.120  14.857  0.0308  0.3958  0.1937
  820MPD2    H712128   3.837   3.132  14.807  0.3566  1.5022 -0.0950
  821MPD2     C12129   0.307   4.257  13.336 -0.3393  0.1558 -0.1675
  821MPD2    C112130   0.381   4.233  13.448 -0.2867 -0.3174  0.2000
  821MPD2    C212131   0.521   4.247  13.440 -0.1478  0.3775 -0.2142
  821MPD2    C312132   0.581   4.288  13.321 -0.5181  0.2271  0.1900
  821MPD2    C412133   0.513   4.288  13.204 -0.0868 -0.1082  0.2824
  821MPD2    C512134   0.375   4.271  13.217 -0.0075 -0.1925 -0.0443
  821MPD2     H12135   0.578   4.236  13.532 -1.1065  0.5607  0.4087
  821MPD2    H112136   0.562   4.311  13.110 -0.2889  0.2165  0.2567
  821MPD2    H212137   0.199   4.255  13.332 -0.3174  0.5914 -0.9244
  821MPD2    H312138   0.318   4.270  13.125  0.4221 -0.8665 -0.3012
  821MPD2     N12139   0.714   4.313  13.304 -0.9914  0.1426 -0.0688
  821MPD2    H512140   0.743   4.330  13.209 -0.9094 -2.2503 -0.4582
  821MPD2    N112141   0.322   4.195  13.569 -0.4852 -0.4423 -0.1251
  821MPD2    H712142   0.386   4.164  13.641 -0.3523 -1.0837 -0.5091
  822MPD2     C12143   0.908   4.240  15.911  0.2172 -0.6692  0.0318
  822MPD2    C112144   0.889   4.223  16.047 -0.3439 -0.6470 -0.0791
  822MPD2    C212145   0.823   4.321  16.124  0.7622  0.0225 -0.3316
  822MPD2    C312146   0.787   4.443  16.071 -0.1841  0.0874  0.0561
  822MPD2    C412147   0.813   4.457  15.936 -0.7480  0.6242 -0.2410
  822MPD2    C512148   0.865   4.359  15.858  0.1443  0.1288 -0.3328
  822MPD2     H12149   0.802   4.310  16.230 -0.4521  1.1508 -0.4483
  822MPD2    H112150   0.777   4.546  15.885 -0.5592 -1.5027 -4.1051
  822MPD2    H212151   0.935   4.160  15.844  0.3347 -1.9346  1.5907
  822MPD2    H312152   0.879   4.383  15.753 -1.3788  0.8088 -0.3780
  822MPD2     N12153   0.718   4.546  16.139 -0.0884 -0.0942 -0.4036
  822MPD2    H512154   0.668   4.531  16.226  1.4782 -1.5326  0.2505
  822MPD2    N112155   0.922   4.103  16.110  0.1192 -0.7246  0.3805
  822MPD2    H712156   0.919   4.100  16.211 -2.5965  0.1775  0.3170
  823MPD2     C12157   0.330   0.235  16.780  0.5897  0.3581  0.3676
  823MPD2    C112158   0.397   0.133  16.715  0.3182  0.3487 -0.0737
  823MPD2    C212159   0.441   0.016  16.777  0.8155  0.0965 -0.2112
  823MPD2    C312160   0.421   0.009  16.914  0.1090 -0.6395  0.0824
  823MPD2    C412161   0.357   0.107  16.985  0.4528  0.8324 -0.0892
  823MPD2    C512162   0.315   0.223  16.916  0.4477 -0.0546 -0.1226
  823MPD2     H12163   0.490   4.674  16.721  1.1423  0.6692 -0.7352
  823MPD2    H112164   0.336   0.100  17.091 -2.0889  0.1068 -0.6364
  823MPD2    H212165   0.295   0.323  16.728 -0.2296  0.0945  0.4671
  823MPD2    H312166   0.277   0.308  16.971  0.2447  1.3270 -2.4118
  823MPD2     N12167   0.475   4.642  16.996 -0.9564  0.4137  0.2489
  823MPD2    H512168   0.449   4.639  17.094 -1.5046 -0.4417  0.0724
  823MPD2    N112169   0.426   0.155  16.578  0.2584  0.3460  0.7842
  823MPD2    H712170   0.405   0.243  16.532  0.2042  0.4230  0.9534
  824MPD2     C12171   1.204   3.293  16.106  0.0185  0.2077  0.1132
  824MPD2    C112172   1.191   3.412  16.032 -0.6501  0.4149 -0.2597
  824MPD2    C212173   1.216   3.403  15.897  0.3439 -0.1955 -0.6457
  824MPD2    C312174   1.246   3.284  15.831  0.7429  0.2492  0.0165
  824MPD2    C412175   1.245   3.170  15.899  0.1061  0.7750  0.0750
  824MPD2    C512176   1.222   3.181  16.035 -0.3957  0.4768 -0.2244
  824MPD2     H12177   1.213   3.492  15.836  0.8742 -0.3415 -0.8844
  824MPD2    H112178   1.265   3.073  15.855 -0.0156  0.7380  0.1014
  824MPD2    H212179   1.200   3.279  16.213 -0.3854 -2.3165 -0.2325
  824MPD2    H312180   1.220   3.081  16.077  1.1816  0.3757 -0.3938
  824MPD2     N12181   1.270   3.290  15.692  0.1383  0.1303  0.0320
  824MPD2    H512182   1.244   3.380  15.653 -1.4678  0.5504  2.1188
  824MPD2    N112183   1.157   3.537  16.078  0.4050 -0.0751  0.1751
  824MPD2    H712184   1.150   3.614  16.013  0.4600  0.9216  1.3441
  825MPD2     C12185   1.800   3.496  15.120 -0.5210  0.0473  0.1879
  825MPD2    C112186   1.692   3.538  15.185  0.0660  0.9021  0.0720
  825MPD2    C212187   1.683   3.664  15.239 -0.3035  0.0741 -0.0521
  825MPD2    C312188   1.778   3.762  15.196 -0.0003 -0.3865 -0.6101
  825MPD2    C412189   1.890   3.718  15.129  0.4853  0.3789 -0.6776
  825MPD2    C512190   1.898   3.586  15.086 -0.7958  0.0577  0.1842
  825MPD2     H12191   1.593   3.695  15.291  0.3974  0.0983  1.1569
  825MPD2    H112192   1.979   3.780  15.121  0.1674  0.6097 -2.3253
  825MPD2    H212193   1.812   3.391  15.098 -0.1217 -0.0828  1.0445
  825MPD2    H312194   1.986   3.534  15.049 -1.6630 -2.4980  1.6876
  825MPD2     N12195   1.775   3.900  15.223 -0.0117  0.8895  0.2800
  825MPD2    H512196   1.849   3.957  15.183  1.8266 -1.8503 -0.2463
  825MPD2    N112197   1.592   3.440  15.208  0.2867 -1.0130  0.5368
  825MPD2    H712198   1.624   3.347  15.184 -0.8286 -1.1155 -0.4985
  826MPD2     C12199   1.373   2.904  13.502  0.1467  0.2422 -0.3535
  826MPD2    C112200   1.385   3.036  13.462  0.8917 -0.5442  0.0050
  826MPD2    C212201   1.301   3.134  13.514 -0.4189 -0.1028 -0.6218
  826MPD2    C312202   1.198   3.101  13.605 -0.5440 -0.4747 -0.0959
  826MPD2    C412203   1.183   2.964  13.627  0.7197 -0.1493  0.0286
  826MPD2    C512204   1.269   2.870  13.587  0.3576  0.1217 -0.2628
  826MPD2     H12205   1.312   3.236  13.478  1.0056 -0.4267 -1.1114
  826MPD2    H112206   1.106   2.913  13.684 -0.3072 -0.5743 -1.7090
  826MPD2    H212207   1.439   2.829  13.460  3.4308  2.4132  0.9498
  826MPD2    H312208   1.261   2.765  13.610  0.0639  0.4366  1.0397
  826MPD2     N12209   1.094   3.190  13.646 -0.3104 -0.1395 -0.0615
  826MPD2    H512210   1.021   3.152  13.704 -1.9980  0.1014 -2.0125
  826MPD2    N112211   1.489   3.066  13.374 -0.3502  0.6459  0.4345
  826MPD2    H712212   1.542   2.985  13.345 -2.6875 -1.1950  1.3047
  827MPD2     C12213   2.166   0.772  10.446 -0.4256  0.5031  0.1221
  827MPD2    C112214   2.179   0.640  10.477  0.0662 -0.2862 -0.1760
  827MPD2    C212215   2.129   0.548  10.382  0.1839  0.1561  0.4057
  827MPD2    C312216   2.062   0.589  10.268 -0.4120 -0.1056  0.0425
  827MPD2    C412217   2.046   0.720  10.241  0.6344 -0.2309 -1.4007
  827MPD2    C512218   2.101   0.812  10.328  0.0894  0.0805 -0.3521
  827MPD2     H12219   2.137   0.443  10.406 -1.7510 -0.0397  0.1552
  827MPD2    H112220   1.991   0.749  10.152 -2.5814  0.1692  0.7127
  827MPD2    H212221   2.196   0.848  10.518  3.3464 -0.1580 -0.7778
  827MPD2    H312222   2.088   0.917  10.306 -1.0530  0.2244  1.0072
  827MPD2     N12223   2.022   0.490  10.181 -0.6721 -0.7405  0.4283
  827MPD2    H512224   2.069   0.401  10.191  0.6081  0.0843  1.8801
  827MPD2    N112225   2.256   0.597  10.584 -0.3892 -0.2044  0.3169
  827MPD2    H712226   2.304   0.669  10.637  0.2394 -0.7123  0.4339
  828MPD2     C12227   1.179   4.175  12.594  0.1308  0.4451 -0.2415
  828MPD2    C112228   1.085   4.229  12.507  0.2401 -0.4297  0.4772
  828MPD2    C212229   1.057   4.163  12.387  0.4197 -0.0337  0.0595
  828MPD2    C312230   1.117   4.037  12.354 -0.1302 -0.7990  0.1121
  828MPD2    C412231   1.205   3.987  12.448 -0.7255 -0.2287 -0.3137
  828MPD2    C512232   1.228   4.049  12.569  0.2957 -0.0519  0.2590
  828MPD2     H12233   0.985   4.212  12.322  1.5858  0.7388 -0.6484
  828MPD2    H112234   1.234   3.884  12.435  0.5080  0.5482 -3.6850
  828MPD2    H212235   1.213   4.227  12.683  2.0744  0.6546 -1.1038
  828MPD2    H312236   1.285   3.993  12.642  0.5299 -0.9031 -0.5709
  828MPD2     N12237   1.083   3.973  12.233  0.4348  0.7934 -0.3249
  828MPD2    H512238   1.136   3.890  12.210  2.8477  1.9653  0.9658
  828MPD2    N112239   1.012   4.351  12.528  0.1825 -0.1859  0.2721
  828MPD2    H712240   0.959   4.386  12.449 -0.3563 -0.6484  0.4317
  829MPD2     C12241   0.381   0.202  12.110  0.6790  0.0420  0.0665
  829MPD2    C112242   0.511   0.189  12.078 -0.1554 -0.2744  0.4282
  829MPD2    C212243   0.604   0.140  12.171  0.1611  0.6294  0.0883
  829MPD2    C312244   0.563   0.116  12.296 -0.1918 -0.4602  0.4049
  829MPD2    C412245   0.424   0.126  12.321 -0.0644  0.1577  0.7996
  829MPD2    C512246   0.335   0.172  12.232  0.1180 -0.6175  0.1388
  829MPD2     H12247   0.708   0.129  12.143 -0.0564  1.2526 -0.9485
  829MPD2    H112248   0.388   0.093  12.418  0.3915 -1.9883  0.2300
  829MPD2    H212249   0.306   0.239  12.042  1.2524  0.7424 -0.1901
  829MPD2    H312250   0.233   0.186  12.264 -0.2627  1.8619 -2.1564
  829MPD2     N12251   0.644   0.063  12.397  0.6439  0.3343 -0.0321
  829MPD2    H512252   0.603   0.032  12.485  2.5602  1.4116  1.2529
  829MPD2    N112253   0.543   0.238  11.949 -0.1309  0.1064  0.1030
  829MPD2    H712254   0.466   0.268  11.890 -0.3768 -0.0186  0.3545
  830MPD2     C12255   0.801   2.874  16.133  0.2230  0.2459 -0.0831
  830MPD2    C112256   0.690   2.900  16.054 -0.1450  0.6662  0.6241
  830MPD2    C212257   0.707   2.981  15.950 -0.6604 -0.0797  0.6829
  830MPD2    C312258   0.838   3.003  15.904 -0.3770  0.2145 -0.3737
  830MPD2    C412259   0.944   2.974  15.980 -0.1785 -0.5789  0.5524
  830MPD2    C512260   0.925   2.908  16.097  0.6012 -0.3772  0.3203
  830MPD2     H12261   0.622   3.025  15.898  0.4747 -1.5106 -2.3727
  830MPD2    H112262   1.047   2.999  15.958 -0.3931  0.7475  1.0666
  830MPD2    H212263   0.786   2.821  16.226 -2.9129  0.2673 -0.5966
  830MPD2    H312264   1.013   2.888  16.158 -0.5754 -0.1953  2.0708
  830MPD2     N12265   0.864   3.077  15.785  0.2341 -0.8662 -0.9448
  830MPD2    H512266   0.964   3.085  15.768  0.4540 -1.4663  0.0621
  830MPD2    N112267   0.555   2.884  16.098  0.9787  0.0992 -0.1518
  830MPD2    H712268   0.540   2.852  16.193 -1.5208  0.0238 -0.5773
  831MPD2     C12269   0.951   0.064  16.510 -0.0636 -0.4420 -0.5887
  831MPD2    C112270   0.954   4.693  16.424  0.0263  0.5556  0.3937
  831MPD2    C212271   0.861   4.591  16.450  0.2251 -0.4226  0.1733
  831MPD2    C312272   0.768   4.603  16.549  0.6707  0.3265  0.5577
  831MPD2    C412273   0.775   4.703  16.637  0.1054 -0.4031  0.6587
  831MPD2    C512274   0.872   0.060  16.619  0.3980 -0.5540 -0.6580
  831MPD2     H12275   0.857   4.513  16.374  1.7440  1.5929 -1.9572
  831MPD2    H112276   0.714   4.704  16.726 -0.0737 -0.3737  0.5347
  831MPD2    H212277   1.019   0.146  16.493 -0.7654  0.1790 -0.3955
  831MPD2    H312278   0.876   0.139  16.693 -1.1298 -0.4058 -0.7382
  831MPD2     N12279   0.666   4.501  16.574  0.2370 -0.1710 -0.1377
  831MPD2    H512280   0.639   4.507  16.672  0.3012  0.8591 -0.1785
  831MPD2    N112281   1.041   4.692  16.314  0.1915 -0.3086  1.2284
  831MPD2    H712282   1.089   0.038  16.281 -1.2323  0.0261  0.0313
  832MPD2     C12283   4.016   0.677  16.778  0.4098  0.2419  0.2304
  832MPD2    C112284   3.929   0.767  16.839  0.2744 -0.8198 -0.0235
  832MPD2    C212285   3.796   0.772  16.797 -0.3917 -0.2215  0.0217
  832MPD2    C312286   3.755   0.697  16.690  0.5461  0.5649 -0.0224
  832MPD2    C412287   3.851   0.614  16.629  1.1683 -0.3850  0.1952
  832MPD2    C512288   3.975   0.593  16.679  0.4678  0.1464 -0.4124
  832MPD2     H12289   3.730   0.855  16.817  0.3407  0.3719 -0.0239
  832MPD2    H112290   3.824   0.549  16.547 -3.4745  2.3242 -0.4192
  832MPD2    H212291   4.115   0.656  16.816 -0.8250  0.2436  3.4326
  832MPD2    H312292   4.036   0.514  16.638  1.7040  0.8029  0.1730
  832MPD2     N12293   3.623   0.696  16.640  0.4562 -0.1925 -0.1406
  832MPD2    H512294   3.607   0.646  16.553 -0.5450  0.0753 -0.1142
  832MPD2    N112295   3.983   0.830  16.954  0.2018  0.5359  0.3596
  832MPD2    H712296   4.083   0.826  16.973  0.7406 -1.2435 -2.8820
  833MPD2     C12297   1.015   2.309  12.736  0.0358  0.4244  0.0284
  833MPD2    C112298   1.026   2.381  12.617  0.5044 -0.1530  0.4797
  833MPD2    C212299   1.090   2.324  12.509  0.3727  0.1373 -0.8464
  833MPD2    C312300   1.129   2.189  12.509  0.4132  0.8976  0.5031
  833MPD2    C412301   1.111   2.118  12.622 -0.2120 -0.1721 -0.1600
  833MPD2    C512302   1.047   2.176  12.727  0.0522  0.0875 -0.4503
  833MPD2     H12303   1.086   2.370  12.411  3.2599 -1.0541 -1.5316
  833MPD2    H112304   1.144   2.016  12.634  0.6836  0.1656  0.2756
  833MPD2    H212305   0.968   2.357  12.821 -0.8100  0.4726 -0.4567
  833MPD2    H312306   1.034   2.119  12.818 -1.8221  0.1408 -0.6840
  833MPD2     N12307   1.194   2.133  12.404  0.0477  0.2784 -0.0826
  833MPD2    H512308   1.193   2.031  12.404  1.5023  0.2806 -2.0649
  833MPD2    N112309   0.989   2.517  12.625  0.1573 -0.0411 -0.2526
  833MPD2    H712310   0.945   2.543  12.713 -0.9718  0.4782 -0.9660
  834MPD2     C12311   1.134   1.489  11.634 -0.6226  0.1545  0.4238
  834MPD2    C112312   1.092   1.608  11.583  0.4842 -0.4210 -0.0544
  834MPD2    C212313   1.102   1.726  11.653 -0.2651  0.2603  0.3604
  834MPD2    C312314   1.158   1.729  11.776  0.6749 -0.1308  0.6677
  834MPD2    C412315   1.216   1.612  11.828  0.9627 -0.5690 -0.0162
  834MPD2    C512316   1.198   1.494  11.761 -0.2203 -0.3338 -0.5652
  834MPD2     H12317   1.043   1.814  11.629 -0.6312 -0.3431 -0.9744
  834MPD2    H112318   1.272   1.623  11.921 -2.4183 -0.7569  2.0520
  834MPD2    H212319   1.138   1.398  11.575 -0.3348  1.4924 -1.6216
  834MPD2    H312320   1.242   1.405  11.804 -1.9016 -1.1491 -0.5295
  834MPD2     N12321   1.165   1.855  11.838  0.6349 -0.6063  0.8003
  834MPD2    H512322   1.127   1.935  11.788  0.7436 -0.4042  1.0445
  834MPD2    N112323   1.012   1.595  11.465  0.5228  0.4227  1.0421
  834MPD2    H712324   1.005   1.509  11.413  0.5337  0.9010  0.2477
  835MPD2     C12325   1.520   0.168  10.835  0.1769 -0.0479  0.1830
  835MPD2    C112326   1.419   0.181  10.934 -0.3837  0.5598 -0.5951
  835MPD2    C212327   1.429   0.117  11.055 -0.1404  0.0144  0.3290
  835MPD2    C312328   1.551   0.063  11.094 -0.3874  0.7641  0.1106
  835MPD2    C412329   1.645   0.051  10.996 -0.2042  0.1324  0.1796
  835MPD2    C512330   1.630   0.098  10.867  0.1318  0.0508 -0.2601
  835MPD2     H12331   1.354   0.137  11.131  0.4289  0.3553  0.8063
  835MPD2    H112332   1.738   4.735  11.012  1.0333  1.8609 -1.2864
  835MPD2    H212333   1.506   0.201  10.733  0.4056  3.8174  1.3692
  835MPD2    H312334   1.708   0.107  10.792 -0.6134  1.2442 -0.8916
  835MPD2     N12335   1.587   0.015  11.225  0.3630 -0.2007  0.1579
  835MPD2    H512336   1.686   0.003  11.243  0.3504  0.2638  0.5408
  835MPD2    N112337   1.302   0.256  10.921  0.2988  0.8584  0.2450
  835MPD2    H712338   1.229   0.258  10.992 -0.5214  1.0302 -0.5984
  836MPD2     C12339   1.039   4.534  11.755 -0.1958 -0.7991  0.0727
  836MPD2    C112340   1.161   4.574  11.810 -0.3528  0.7713  0.2423
  836MPD2    C212341   1.168   4.648  11.928  0.1315 -0.4273  0.4015
  836MPD2    C312342   1.045   4.686  11.991  0.0275 -0.4892 -0.0238
  836MPD2    C412343   0.919   4.646  11.935 -0.2915 -0.2171 -0.1175
  836MPD2    C512344   0.921   4.574  11.822  0.1315  0.2340 -0.2123
  836MPD2     H12345   1.254   4.701  11.967  1.0301 -1.8224  0.3086
  836MPD2    H112346   0.829   4.665  11.993 -0.0973  2.1484 -0.5696
  836MPD2    H212347   1.035   4.470  11.668  0.0353 -0.0769 -0.4671
  836MPD2    H312348   0.828   4.541  11.778  1.3008 -0.9425 -1.8435
  836MPD2     N12349   1.041   0.025  12.110  0.0543 -1.3455  0.0494
  836MPD2    H512350   0.951   0.044  12.153 -0.1276 -0.6737 -0.6436
  836MPD2    N112351   1.275   4.559  11.732 -0.6104  0.0194 -0.3968
  836MPD2    H712352   1.274   4.522  11.637 -0.7682  1.1724 -0.8458
  837MPD2     C12353   4.496   4.651  10.606 -0.0842 -0.1089 -0.5712
  837MPD2    C112354   4.437   4.592  10.492  0.8588  0.4505 -0.4419
  837MPD2    C212355   4.432   4.665  10.379 -0.2547  0.1240  0.0257
  837MPD2    C312356   4.466   0.063  10.387  0.2461  0.0279 -0.1284
  837MPD2    C412357   4.548   0.109  10.486  0.1705  0.9928  0.3790
  837MPD2    C512358   4.553   0.034  10.595  0.2275  0.1384  0.6429
  837MPD2     H12359   4.388   4.619  10.292 -0.2071 -0.3398  0.2400
  837MPD2    H112360   4.597   0.204  10.503  1.7751  0.5041 -1.5603
  837MPD2    H212361   4.503   4.611  10.706  0.6727  1.6077  0.0535
  837MPD2    H312362   4.604   0.061  10.687  0.3046 -0.9513  0.9249
  837MPD2     N12363   4.420   0.148  10.287 -0.0805 -0.1745  0.3347
  837MPD2    H512364   4.368   0.108  10.209  0.3127 -0.8828  0.4315
  837MPD2    N112365   4.358   4.476  10.488  0.1678 -0.2870  0.6411
  837MPD2    H712366   4.291   4.471  10.412  0.6715  1.3573  0.0814
  838MPD2     C12367   2.997   3.161  11.620  0.1111  0.0677  0.4999
  838MPD2    C112368   2.943   3.037  11.629 -0.5200 -0.1498 -0.2436
  838MPD2    C212369   2.869   2.994  11.735 -0.4681 -0.0305 -0.3308
  838MPD2    C312370   2.828   3.087  11.829 -0.0930  0.0000  0.0466
  838MPD2    C412371   2.867   3.221  11.813 -0.5259 -0.6884  0.7078
  838MPD2    C512372   2.964   3.255  11.717  0.5487  0.4566  0.0869
  838MPD2     H12373   2.830   2.894  11.722  0.7374 -0.5456 -0.0097
  838MPD2    H112374   2.843   3.302  11.880  0.7498 -0.3224  0.7089
  838MPD2    H212375   3.053   3.193  11.532  3.1962 -0.3671  2.3120
  838MPD2    H312376   3.006   3.354  11.705 -0.0614  0.9004  1.6008
  838MPD2     N12377   2.741   3.045  11.926  0.0466 -0.4154  0.2943
  838MPD2    H512378   2.706   2.950  11.922 -3.0107  0.7556 -0.9181
  838MPD2    N112379   2.960   2.941  11.524 -0.0580 -0.0214  0.5674
  838MPD2    H712380   2.900   2.859  11.527 -0.8937  0.5145 -1.7242
  839MPD2     C12381   2.299   2.726  11.669  0.6168  0.7290  0.2046
  839MPD2    C112382   2.346   2.609  11.605  0.6155  0.0071 -1.1041
  839MPD2    C212383   2.451   2.618  11.512  0.4485  0.8925  0.7316
  839MPD2    C312384   2.518   2.736  11.494  0.3993  0.0559  0.2384
  839MPD2    C412385   2.477   2.855  11.556 -0.2126  0.3913 -0.0915
  839MPD2    C512386   2.365   2.849  11.641  0.2971  0.2599  1.1447
  839MPD2     H12387   2.486   2.531  11.459 -1.0875  0.5175  0.3222
  839MPD2    H112388   2.518   2.954  11.540 -1.9944  1.4267  1.7777
  839MPD2    H212389   2.218   2.729  11.740 -0.9414 -0.9959 -1.5298
  839MPD2    H312390   2.334   2.936  11.697 -1.1554  0.5776 -0.1624
  839MPD2     N12391   2.636   2.748  11.414  0.2507  0.0704 -0.1174
  839MPD2    H512392   2.676   2.841  11.404 -1.9380  1.0570  0.2824
  839MPD2    N112393   2.296   2.480  11.641 -0.7691 -0.5590  0.2764
  839MPD2    H712394   2.338   2.393  11.610 -1.7472 -0.7710 -0.4559
  840MPD2     C12395   2.883   0.693  10.524 -0.0718 -0.4052  0.5300
  840MPD2    C112396   2.849   0.690  10.659 -0.0364 -0.0967 -0.5239
  840MPD2    C212397   2.948   0.733  10.744  0.5543  0.1976  0.7042
  840MPD2    C312398   3.072   0.792  10.705 -0.4588 -0.5353  0.5704
  840MPD2    C412399   3.095   0.790  10.566  0.0324 -0.0304  0.1101
  840MPD2    C512400   3.004   0.735  10.482  0.6004 -0.0508 -0.3358
  840MPD2     H12401   2.928   0.717  10.850  0.3193 -0.6561  0.5334
  840MPD2    H112402   3.189   0.826  10.526  0.0664 -0.7206 -0.4247
  840MPD2    H212403   2.815   0.659  10.447 -0.0577  0.8911 -0.0692
  840MPD2    H312404   3.027   0.730  10.376  1.0938 -1.4213 -0.1558
  840MPD2     N12405   3.168   0.832  10.794 -0.8782 -0.1322  0.1073
  840MPD2    H512406   3.255   0.846  10.743  0.1347  0.5750  2.0210
  840MPD2    N112407   2.731   0.621  10.700 -0.8065  0.2716  0.3035
  840MPD2    H712408   2.668   0.584  10.629 -0.5410 -2.4348  1.4760
  841MPD2     C12409   2.047   0.453  14.689 -0.1577  0.3429  0.5650
  841MPD2    C112410   2.151   0.359  14.663 -0.8169  0.0707 -0.3317
  841MPD2    C212411   2.263   0.371  14.743  0.7468 -0.2744 -0.3538
  841MPD2    C312412   2.262   0.440  14.859 -0.0944  0.0359  0.2174
  841MPD2    C412413   2.150   0.518  14.889  0.3775  0.6109 -0.2312
  841MPD2    C512414   2.051   0.531  14.803 -0.0827 -0.1949 -0.5068
  841MPD2     H12415   2.342   0.298  14.726  1.1648  0.3433 -1.0294
  841MPD2    H112416   2.136   0.571  14.982 -0.4147 -2.0337  1.1668
  841MPD2    H212417   1.964   0.473  14.623 -0.3333  0.3925  0.8029
  841MPD2    H312418   1.971   0.603  14.813  1.9285  1.8742  0.8921
  841MPD2     N12419   2.367   0.447  14.952  0.2330  0.0458  0.1299
  841MPD2    H512420   2.456   0.409  14.922 -0.3119 -0.4112 -0.8865
  841MPD2    N112421   2.146   0.262  14.561  0.2492 -0.0103  0.1783
  841MPD2    H712422   2.234   0.214  14.544  0.1363 -0.5783  1.1927
  842MPD2     C12423   3.181   1.041  16.778 -0.1411  0.3429 -0.6828
  842MPD2    C112424   3.058   1.058  16.718  0.1833  0.3285 -0.1814
  842MPD2    C212425   2.957   0.974  16.758  0.1157 -0.0517  0.1977
  842MPD2    C312426   2.965   0.882  16.867  0.2094 -0.4209  0.5682
  842MPD2    C412427   3.087   0.873  16.930  0.1258 -0.1325  0.0469
  842MPD2    C512428   3.195   0.950  16.881 -0.0104  0.3396  0.0891
  842MPD2     H12429   2.859   1.001  16.721 -0.3031  1.7424  2.5747
  842MPD2    H112430   3.102   0.797  17.006 -0.8757 -0.8927 -0.5291
  842MPD2    H212431   3.266   1.103  16.753  0.4580  0.4142  1.4791
  842MPD2    H312432   3.296   0.933  16.917 -0.9498  1.5787  3.2575
  842MPD2     N12433   2.847   0.812  16.913 -0.5190 -0.7226  1.0564
  842MPD2    H512434   2.839   0.774  17.007  0.2186 -3.2557  0.1147
  842MPD2    N112435   3.040   1.166  16.627  0.6554  0.4323 -0.7842
  842MPD2    H712436   3.124   1.214  16.596 -0.0766  2.9761  1.1524
  843MPD2     C12437   4.623   2.471   0.855 -0.5436  0.0255  0.5222
  843MPD2    C112438   4.736   2.413   0.914  0.3556 -0.1555  0.3030
  843MPD2    C212439   0.130   2.448   0.880  1.1134 -0.4686  0.4855
  843MPD2    C312440   0.150   2.525   0.764  0.7003 -0.6033  0.0198
  843MPD2    C412441   0.039   2.581   0.705  0.1976  0.1606 -1.0518
  843MPD2    C512442   4.649   2.557   0.749 -0.3306  0.0263  0.5871
  843MPD2     H12443   0.210   2.393   0.926 -1.2913 -3.9909  0.4590
  843MPD2    H112444   0.047   2.651   0.622 -2.2730  2.0190  0.2534
  843MPD2    H212445   4.521   2.447   0.885 -0.6314 -0.6258 -0.2912
  843MPD2    H312446   4.565   2.604   0.699  0.5631  1.0234  0.0080
  843MPD2     N12447   0.279   2.552   0.714  0.8790 -0.2584  0.9764
  843MPD2    H512448   0.285   2.621   0.640 -0.1431 -0.5393  0.6329
  843MPD2    N112449   4.704   2.309   1.014  0.3222  0.0460  0.1010
  843MPD2    H712450   4.607   2.290   1.036 -0.4205  2.0238 -1.4367
  844MPD2     C12451   3.665   0.897  16.360 -0.0371 -0.9188  0.5610
  844MPD2    C112452   3.798   0.855  16.341 -0.0925 -0.2678 -0.1953
  844MPD2    C212453   3.900   0.923  16.392 -0.1811  0.6054 -0.3074
  844MPD2    C312454   3.877   1.027  16.479  0.0357  0.1542  0.3676
  844MPD2    C412455   3.750   1.062  16.515 -0.1586 -0.2381  0.7147
  844MPD2    C512456   3.642   0.995  16.457 -0.0929 -0.1032 -0.2900
  844MPD2     H12457   4.001   0.898  16.361 -0.0314 -1.1149  1.5817
  844MPD2    H112458   3.733   1.132  16.596 -1.1244 -1.1128  1.2592
  844MPD2    H212459   3.579   0.849  16.314 -1.3985  1.9446  0.1580
  844MPD2    H312460   3.538   1.019  16.475 -0.1125  0.2332 -0.8467
  844MPD2     N12461   3.992   1.087  16.539  0.2362 -0.3234 -0.6990
  844MPD2    H512462   4.083   1.051  16.511  1.1816  0.6797  1.1051
  844MPD2    N112463   3.828   0.740  16.268 -0.0573 -0.4344 -0.2685
  844MPD2    H712464   3.926   0.728  16.246  0.4588  0.3088  1.6270
  845MPD2     C12465   3.731   1.816  16.973  0.7697 -0.3539  0.2565
  845MPD2    C112466   3.693   1.683  16.975 -0.8187  0.4474  0.4148
  845MPD2    C212467   3.789   1.596  16.948 -0.0956 -0.3353  0.3845
  845MPD2    C312468   3.925   1.628  16.923 -0.0016 -0.1593 -0.0139
  845MPD2    C412469   3.956   1.764  16.914 -0.0729  0.7572 -0.2710
  845MPD2    C512470   3.857   1.859  16.939 -0.7488  0.0780  0.1389
  845MPD2     H12471   3.766   1.491  16.933 -0.2052  0.0757 -2.1997
  845MPD2    H112472   4.056   1.799  16.890 -0.3944 -0.0439 -2.7739
  845MPD2    H212473   3.663   1.899  16.989  1.3410  0.6696 -2.5941
  845MPD2    H312474   3.875   1.965  16.924  1.9664 -0.1950  1.4003
  845MPD2     N12475   4.010   1.519  16.888  0.1881  0.6970 -0.1068
  845MPD2    H512476   3.959   1.430  16.888  1.6222 -0.1208  0.2843
  845MPD2    N112477   3.555   1.648  16.998 -0.3238  0.1241  0.3557
  845MPD2    H712478   3.487   1.722  17.009  1.3837  1.8392 -0.6749
  846MPD2     C12479   0.287   2.220  13.638  0.1551 -0.2267  0.2995
  846MPD2    C112480   0.191   2.313  13.622 -0.2378 -0.2673 -0.7538
  846MPD2    C212481   0.119   2.356  13.731  0.3134  0.4216 -0.9115
  846MPD2    C312482   0.143   2.302  13.860 -0.0051 -0.6295  0.5098
  846MPD2    C412483   0.257   2.214  13.878  0.2231 -0.0800  0.3476
  846MPD2    C512484   0.322   2.174  13.764 -0.5781  0.2364 -0.2323
  846MPD2     H12485   0.048   2.436  13.717 -0.7353 -0.3012  0.3004
  846MPD2    H112486   0.285   2.172  13.974  1.2145 -1.5236 -0.5732
  846MPD2    H212487   0.349   2.194  13.553 -0.9350  1.5659 -1.0429
  846MPD2    H312488   0.402   2.102  13.776  0.6603  1.8496  1.1847
  846MPD2     N12489   0.062   2.335  13.975  0.2219 -0.2304 -0.0291
  846MPD2    H512490   4.705   2.372  13.963  0.9286  1.6187  0.2453
  846MPD2    N112491   0.172   2.382  13.506  0.2727  0.4218 -0.3708
  846MPD2    H712492   0.135   2.476  13.510 -0.7649 -0.0292  0.4461
  847MPD2     C12493   0.620   2.994  14.911  1.0744 -0.0445  0.2619
  847MPD2    C112494   0.686   3.048  14.807  0.3679 -0.6515 -0.6809
  847MPD2    C212495   0.696   2.978  14.691  0.1566  0.0437  0.3414
  847MPD2    C312496   0.635   2.858  14.668  0.6088 -0.5446  0.0523
  847MPD2    C412497   0.559   2.802  14.773 -0.2570 -0.0108  0.0992
  847MPD2    C512498   0.557   2.871  14.897 -0.3910 -0.1824 -0.6365
  847MPD2     H12499   0.759   3.016  14.612  3.0838 -1.6091  1.8911
  847MPD2    H112500   0.506   2.708  14.769 -1.7062  0.8030 -0.0827
  847MPD2    H212501   0.604   3.051  15.002  0.9938  0.8196 -0.2825
  847MPD2    H312502   0.490   2.834  14.973  0.2059  1.4530  0.6822
  847MPD2     N12503   0.662   2.794  14.545 -0.3388  0.4423 -0.2086
  847MPD2    H512504   0.730   2.845  14.489 -0.7862 -0.8799 -1.9391
  847MPD2    N112505   0.749   3.174  14.807  0.3649  1.0004 -0.1053
  847MPD2    H712506   0.793   3.208  14.722  3.1588  0.3962  1.0879
  848MPD2     C12507   3.211   0.767  16.022  0.0806  0.2326 -0.0936
  848MPD2    C112508   3.285   0.827  16.125 -0.2123  0.0488  0.4646
  848MPD2    C212509   3.341   0.956  16.103  0.3558 -0.4188  0.5371
  848MPD2    C312510   3.366   0.996  15.974  0.3916 -0.1147  0.1004
  848MPD2    C412511   3.310   0.930  15.872  0.0358  0.0266  0.6678
  848MPD2    C512512   3.229   0.822  15.901  0.1533 -0.0436  0.0729
  848MPD2     H12513   3.378   1.017  16.185 -0.3297  1.2458 -0.3885
  848MPD2    H112514   3.317   0.960  15.768  2.2045  2.7019  1.6003
  848MPD2    H212515   3.145   0.681  16.031 -1.1725  1.1407 -0.7046
  848MPD2    H312516   3.173   0.778  15.819 -0.2262 -0.1025  0.3663
  848MPD2     N12517   3.430   1.116  15.942 -0.0650 -0.0987 -0.5837
  848MPD2    H512518   3.407   1.167  15.857 -0.5403  1.3004  0.3795
  848MPD2    N112519   3.293   0.782  16.262 -0.0979  0.4217  0.1418
  848MPD2    H712520   3.323   0.854  16.327  1.9114 -0.7135  0.4735
  849MPD2     C12521   1.866   0.893  14.084 -0.1459 -0.1036 -0.3803
  849MPD2    C112522   2.000   0.873  14.051 -0.3800  0.5522  0.2267
  849MPD2    C212523   2.081   0.821  14.153 -0.2752  0.3241  0.3575
  849MPD2    C312524   2.029   0.795  14.279 -0.0584  1.1528  0.4234
  849MPD2    C412525   1.904   0.830  14.310 -0.6848  0.5059 -0.0764
  849MPD2    C512526   1.819   0.868  14.206 -0.5399 -0.0416 -0.0700
  849MPD2     H12527   2.185   0.796  14.133 -0.9274 -0.5092 -1.9695
  849MPD2    H112528   1.850   0.822  14.403  0.3202 -0.9358  0.3819
  849MPD2    H212529   1.795   0.947  14.022  1.9739  2.1708 -0.8076
  849MPD2    H312530   1.712   0.879  14.224 -0.2556  1.1815  0.8444
  849MPD2     N12531   2.120   0.730  14.368  0.6214 -0.3922 -0.4407
  849MPD2    H512532   2.205   0.691  14.329  0.8965 -1.0596  0.8200
  849MPD2    N112533   2.064   0.907  13.932 -0.2056 -0.2598 -0.1218
  849MPD2    H712534   2.163   0.889  13.939 -0.2498 -1.1105 -1.5672
  850MPD2     C12535   0.337   4.027  14.779 -0.2131  0.0062  0.4236
  850MPD2    C112536   0.359   4.081  14.902 -0.5323  0.0124  0.7285
  850MPD2    C212537   0.494   4.097  14.928 -0.6075  0.2511  0.2598
  850MPD2    C312538   0.596   4.073  14.843 -0.7643 -0.1633  0.1342
  850MPD2    C412539   0.564   4.033  14.714  0.3392 -0.1653  0.3053
  850MPD2    C512540   0.435   4.016  14.680  0.6102 -0.4227 -0.2940
  850MPD2     H12541   0.521   4.134  15.026  3.9559 -1.2590 -0.4226
  850MPD2    H112542   0.636   4.014  14.635 -1.8177 -5.0558 -0.4826
  850MPD2    H212543   0.234   4.014  14.747  0.1881 -0.3286 -0.7339
  850MPD2    H312544   0.415   3.995  14.576 -2.7824 -2.0895  0.7032
  850MPD2     N12545   0.731   4.087  14.876 -0.0444 -0.3483  0.3618
  850MPD2    H512546   0.795   4.086  14.798 -0.8208 -0.3557 -0.2729
  850MPD2    N112547   0.254   4.110  14.991  0.1903 -0.8376 -1.0049
  850MPD2    H712548   0.159   4.086  14.964  0.0024 -2.1328  0.8279
  851MPD2     C12549   0.934   3.990  15.565  0.4699  0.6634  0.6357
  851MPD2    C112550   0.819   3.943  15.500 -0.0956 -0.4394 -0.3485
  851MPD2    C212551   0.822   3.809  15.459 -0.3231  0.0931 -0.1897
  851MPD2    C312552   0.918   3.720  15.512  0.0235 -0.3710  0.5153
  851MPD2    C412553   1.025   3.770  15.578  0.4621  0.0245  0.0805
  851MPD2    C512554   1.039   3.905  15.597  0.3390  0.2523  0.2206
  851MPD2     H12555   0.738   3.762  15.409 -1.9867  2.2050  0.5880
  851MPD2    H112556   1.103   3.701  15.606  1.0759  0.6783 -0.0283
  851MPD2    H212557   0.945   4.097  15.571  2.7173  0.6498 -3.3974
  851MPD2    H312558   1.133   3.944  15.633  1.8293 -1.2547 -2.0344
  851MPD2     N12559   0.903   3.581  15.493 -0.1356 -0.2891 -0.1477
  851MPD2    H512560   0.821   3.540  15.449 -1.3246  3.0659 -1.0500
  851MPD2    N112561   0.721   4.032  15.455 -0.4649  0.4223 -0.3513
  851MPD2    H712562   0.733   4.129  15.482  0.5526  0.1034  0.3506
  852MPD2     C12563   0.338   1.834  10.676  0.5525  0.0288 -1.1643
  852MPD2    C112564   0.342   1.744  10.574 -0.3894 -0.2608 -0.6144
  852MPD2    C212565   0.395   1.772  10.447  0.7331 -0.1609 -0.1519
  852MPD2    C312566   0.448   1.895  10.428  0.2625  0.3942 -0.4804
  852MPD2    C412567   0.446   1.983  10.533 -0.5473 -0.8182  0.2289
  852MPD2    C512568   0.391   1.954  10.652  0.0971  0.3252 -0.0148
  852MPD2     H12569   0.383   1.702  10.365  0.5222 -1.5550  1.0541
  852MPD2    H112570   0.489   2.083  10.528 -2.9821  0.2817  0.7459
  852MPD2    H212571   0.298   1.821  10.776  1.5165  2.0433 -0.5222
  852MPD2    H312572   0.378   2.037  10.721  1.5430 -0.4612  1.2155
  852MPD2     N12573   0.506   1.924  10.302  0.0058 -0.1190 -0.1843
  852MPD2    H512574   0.488   1.847  10.237 -0.2836 -0.4086  0.2397
  852MPD2    N112575   0.291   1.615  10.586  0.4073 -0.4137 -0.1422
  852MPD2    H712576   0.287   1.556  10.504 -1.4932  1.6716 -1.5556
  853MPD2     C12577   2.669   1.385  12.343 -0.3602 -0.2755 -0.0456
  853MPD2    C112578   2.540   1.416  12.293 -0.2766 -0.5071 -0.1062
  853MPD2    C212579   2.531   1.475  12.165 -0.2483  0.1294  0.4166
  853MPD2    C312580   2.643   1.489  12.090  0.4329 -0.3018 -0.2052
  853MPD2    C412581   2.765   1.442  12.137 -0.7051  0.8072  0.2872
  853MPD2    C512582   2.778   1.404  12.267  0.2094 -0.0115  0.3284
  853MPD2     H12583   2.434   1.518  12.141  0.1700  2.0839  2.1738
  853MPD2    H112584   2.860   1.438  12.085 -1.5145  0.4371 -1.1521
  853MPD2    H212585   2.680   1.332  12.437 -0.9425  0.3228  0.3582
  853MPD2    H312586   2.875   1.374  12.305 -0.4011  1.8388  3.3547
  853MPD2     N12587   2.645   1.549  11.965  0.4785  0.6830 -0.1634
  853MPD2    H512588   2.734   1.567  11.921  2.0924 -1.6279  2.0941
  853MPD2    N112589   2.425   1.398  12.376 -0.1754 -0.2881  0.0532
  853MPD2    H712590   2.438   1.369  12.472 -3.3241 -2.3474 -0.1483
  854MPD2     C12591   3.507   1.780  13.255  0.0958 -0.1246  0.0131
  854MPD2    C112592   3.596   1.884  13.220  0.4945  0.7347  0.4313
  854MPD2    C212593   3.729   1.857  13.205  0.1956  0.4736  0.2150
  854MPD2    C312594   3.781   1.731  13.227  0.4446 -0.4304  0.2640
  854MPD2    C412595   3.699   1.636  13.280 -0.1647 -0.4921 -0.1872
  854MPD2    C512596   3.563   1.661  13.284  0.0781 -0.5798  0.0100
  854MPD2     H12597   3.792   1.937  13.169 -1.0457  1.3384 -0.0300
  854MPD2    H112598   3.745   1.542  13.306  0.2000  0.5779  2.9951
  854MPD2    H212599   3.399   1.785  13.256  0.0138 -1.8830 -0.8928
  854MPD2    H312600   3.496   1.578  13.304  1.0533 -0.9662  1.7366
  854MPD2     N12601   3.920   1.702  13.205 -0.4268 -0.3570 -0.8015
  854MPD2    H512602   3.959   1.611  13.222  2.5641  1.2576  0.8888
  854MPD2    N112603   3.525   2.005  13.194 -0.3510  0.9608  0.3943
  854MPD2    H712604   3.424   2.007  13.181  0.0346  2.7157 -2.3576
  855MPD2     C12605   4.444   1.617  13.883 -0.0874  0.0394 -0.4120
  855MPD2    C112606   4.442   1.498  13.815 -0.2786 -0.4519 -0.4386
  855MPD2    C212607   4.382   1.500  13.691  0.3645  0.5492 -0.5180
  855MPD2    C312608   4.340   1.623  13.634 -0.7979 -0.1771  0.3132
  855MPD2    C412609   4.343   1.737  13.712  0.0382 -0.5380  0.2781
  855MPD2    C512610   4.393   1.733  13.835  0.9172  0.4831 -0.5460
  855MPD2     H12611   4.368   1.403  13.645  2.5187  0.3946 -0.8543
  855MPD2    H112612   4.294   1.829  13.682  0.1973  0.3260  2.7033
  855MPD2    H212613   4.484   1.621  13.983  0.0764  2.1806 -0.5678
  855MPD2    H312614   4.381   1.819  13.899  1.5548 -1.3517  2.0444
  855MPD2     N12615   4.290   1.629  13.503 -0.5257 -0.2145 -0.1205
  855MPD2    H512616   4.250   1.719  13.480 -2.0417 -0.6481  0.8273
  855MPD2    N112617   4.475   1.375  13.878  0.1997  0.4171  0.6420
  855MPD2    H712618   4.453   1.294  13.821  0.2190  0.7987  0.0913
  856MPD2     C12619   1.638   1.881  14.258 -0.0371  0.1790  0.2145
  856MPD2    C112620   1.681   1.970  14.161  0.1153 -0.1606  0.2943
  856MPD2    C212621   1.589   2.021  14.078 -0.4979  0.4507  0.3126
  856MPD2    C312622   1.454   1.991  14.085  0.0529 -0.1978  0.0055
  856MPD2    C412623   1.410   1.900  14.184 -0.5265  0.6783 -0.0740
  856MPD2    C512624   1.506   1.846  14.267  0.1371  0.3434 -0.6320
  856MPD2     H12625   1.624   2.101  14.013 -2.1901  1.9557  1.2547
  856MPD2    H112626   1.305   1.871  14.189 -0.0530 -1.4055 -2.1628
  856MPD2    H212627   1.702   1.830  14.330  0.7321  1.0385  0.1472
  856MPD2    H312628   1.474   1.768  14.336  1.2001  0.4442 -0.0151
  856MPD2     N12629   1.354   2.047  14.004  0.1116  0.1082  1.5200
  856MPD2    H512630   1.258   2.037  14.036  0.2944 -0.2877  1.9501
  856MPD2    N112631   1.813   2.025  14.164  0.2221 -0.1984  0.4096
  856MPD2    H712632   1.828   2.105  14.103 -0.5933 -0.7335 -0.5037
  857MPD2     C12633   3.100   4.169  13.142 -1.1496  0.0313 -1.4460
  857MPD2    C112634   3.194   4.229  13.064  0.5434 -0.5352  0.6233
  857MPD2    C212635   3.277   4.320  13.122  0.1342 -0.0168 -0.1791
  857MPD2    C312636   3.273   4.361  13.256  0.1463  0.1132 -0.6510
  857MPD2    C412637   3.174   4.297  13.333 -0.6483  0.1863  0.0640
  857MPD2    C512638   3.088   4.207  13.277 -0.1219  0.6310 -0.4409
  857MPD2     H12639   3.360   4.370  13.072 -2.2513  1.1879 -2.9482
  857MPD2    H112640   3.166   4.325  13.437 -0.0586 -0.4224  0.2803
  857MPD2    H212641   3.033   4.101  13.091 -0.5834  0.8861 -3.3057
  857MPD2    H312642   3.010   4.163  13.338  0.3362 -2.0072 -1.7567
  857MPD2     N12643   3.363   4.459  13.297 -0.0657  0.1500  0.6375
  857MPD2    H512644   3.447   4.481  13.245  0.3115 -1.1104  0.7195
  857MPD2    N112645   3.213   4.187  12.928 -0.0015  0.1222 -0.1114
  857MPD2    H712646   3.157   4.111  12.888  1.5763 -1.2157  0.2347
  858MPD2     C12647   4.041   3.621  16.441  0.0972  0.4560 -0.4851
  858MPD2    C112648   4.026   3.485  16.454 -0.0144  0.1623 -0.6522
  858MPD2    C212649   4.005   3.426  16.581 -0.5171 -0.3435  0.4262
  858MPD2    C312650   4.009   3.510  16.692 -0.4095  0.7349 -0.4567
  858MPD2    C412651   4.016   3.645  16.676  0.6966  0.0115 -0.1345
  858MPD2    C512652   4.030   3.700  16.550  0.2813  0.0921  0.5980
  858MPD2     H12653   3.997   3.319  16.597  1.7753 -0.5535  0.2783
  858MPD2    H112654   4.014   3.715  16.759 -0.7242  1.5536 -1.4769
  858MPD2    H212655   4.048   3.671  16.345 -1.7717  1.2960 -0.1799
  858MPD2    H312656   4.044   3.807  16.537  1.3615 -0.0171  0.8773
  858MPD2     N12657   3.997   3.467  16.816 -1.1100 -0.5198  0.2160
  858MPD2    H512658   3.978   3.538  16.885 -2.3816  0.7430 -1.4367
  858MPD2    N112659   4.013   3.409  16.331  0.3545  0.3511 -0.4492
  858MPD2    H712660   4.002   3.475  16.254  3.3314 -0.5012 -1.5991
  859MPD2     C12661   2.259   0.899  15.909  0.0386  0.1467  0.9929
  859MPD2    C112662   2.312   0.807  15.826  0.7884 -0.4805  1.3160
  859MPD2    C212663   2.317   0.673  15.870 -0.0809  0.8698  0.4472
  859MPD2    C312664   2.279   0.640  15.999 -0.4948 -0.9177  0.0028
  859MPD2    C412665   2.212   0.734  16.077  0.4745  0.1455 -0.2446
  859MPD2    C512666   2.205   0.865  16.035 -0.1622 -0.1544 -0.8165
  859MPD2     H12667   2.375   0.601  15.814 -1.6803  0.2348 -0.4040
  859MPD2    H112668   2.166   0.712  16.172  0.7737  1.7858  0.2796
  859MPD2    H212669   2.255   1.003  15.878 -2.1210 -0.5401 -1.0122
  859MPD2    H312670   2.182   0.948  16.101 -1.0654  0.0290 -1.3678
  859MPD2     N12671   2.322   0.511  16.049 -0.6205  0.5550  0.1331
  859MPD2    H512672   2.377   0.443  15.998 -1.8688 -0.4518  0.1212
  859MPD2    N112673   2.378   0.850  15.712  0.0295  0.3592  0.4296
  859MPD2    H712674   2.393   0.950  15.704  1.3392  0.1917  0.7726
  860MPD2     C12675   0.016   1.015  11.946 -0.3679  0.2497  0.2058
  860MPD2    C112676   0.035   1.075  12.070 -0.1806 -0.6256  0.4547
  860MPD2    C212677   4.731   1.015  12.190  0.3882 -1.3431  0.1504
  860MPD2    C312678   4.660   0.900  12.184 -0.0547  0.1309 -0.6450
  860MPD2    C412679   4.641   0.835  12.061  0.2770  0.0944  0.2527
  860MPD2    C512680   4.695   0.885  11.947 -0.0107  0.5076  0.3923
  860MPD2     H12681   0.006   1.076  12.279  2.9849 -1.2916 -0.2303
  860MPD2    H112682   4.563   0.760  12.057 -0.6041  1.1826 -2.7095
  860MPD2    H212683   0.045   1.063  11.854  0.2294  0.4395  0.4933
  860MPD2    H312684   4.672   0.849  11.847  1.2200  2.3369 -0.5618
  860MPD2     N12685   4.601   0.850  12.302 -0.0293  0.3345  0.2414
  860MPD2    H512686   4.617   0.898  12.390 -2.0132 -0.0025  0.7627
  860MPD2    N112687   0.091   1.203  12.080  0.6941  0.5129  0.0338
  860MPD2    H712688   0.103   1.241  12.173  2.6247  1.7699 -0.7349
  861MPD2     C12689   3.473   3.975  11.434  0.5561 -0.1911  0.2092
  861MPD2    C112690   3.553   4.083  11.411 -0.3175  0.3714  0.1377
  861MPD2    C212691   3.516   4.163  11.306  0.2194 -0.6355  0.0295
  861MPD2    C312692   3.403   4.143  11.222  0.1809  0.1379 -0.1928
  861MPD2    C412693   3.332   4.028  11.250  0.7442 -0.1562 -0.7217
  861MPD2    C512694   3.370   3.941  11.351 -0.6449 -0.1918 -0.0393
  861MPD2     H12695   3.582   4.248  11.293  0.3263 -0.8634 -0.8966
  861MPD2    H112696   3.238   4.008  11.200 -0.3457  2.2399  0.3648
  861MPD2    H212697   3.495   3.901  11.510  0.0515  0.8390  1.3575
  861MPD2    H312698   3.303   3.860  11.379 -1.9727  1.4643  1.6084
  861MPD2     N12699   3.357   4.226  11.114  0.1718  0.1551  0.0464
  861MPD2    H512700   3.268   4.203  11.070  0.5131 -0.1663 -0.4722
  861MPD2    N112701   3.663   4.128  11.484  0.0962 -0.6458  0.3574
  861MPD2    H712702   3.712   4.210  11.451 -1.3578  0.5533  1.1904
  862MPD2     C12703   2.773   4.582  10.628 -0.0361 -0.3980 -0.2345
  862MPD2    C112704   2.853   4.480  10.662  0.0303 -0.1766  0.3645
  862MPD2    C212705   2.834   4.362  10.597 -0.5845 -0.8479  0.0195
  862MPD2    C312706   2.722   4.345  10.522  0.9920  0.6445 -0.2599
  862MPD2    C412707   2.632   4.441  10.502 -0.2678  0.0557  0.0682
  862MPD2    C512708   2.665   4.568  10.539 -0.3223  0.4158  0.0170
  862MPD2     H12709   2.903   4.279  10.609 -1.5403 -1.6368  0.0992
  862MPD2    H112710   2.548   4.418  10.437  0.1865  0.3922 -0.6390
  862MPD2    H212711   2.805   4.680  10.660  2.8276 -1.4600  0.1954
  862MPD2    H312712   2.601   4.651  10.512 -2.7330 -1.0566  1.1999
  862MPD2     N12713   2.690   4.216  10.471  0.0796  0.3644 -0.5798
  862MPD2    H512714   2.592   4.207  10.447 -0.0975 -2.3631  1.1859
  862MPD2    N112715   2.963   4.501  10.745 -0.1492 -0.5437  0.0805
  862MPD2    H712716   2.973   4.596  10.781  0.4164  0.2328 -2.1704
  863MPD2     C12717   1.799   2.419  16.571 -0.7424 -0.0174  0.8438
  863MPD2    C112718   1.764   2.438  16.707 -0.5429 -0.3650 -0.2660
  863MPD2    C212719   1.861   2.405  16.802  0.2155  0.2082 -0.0891
  863MPD2    C312720   1.988   2.371  16.775  0.0456 -0.3149 -0.2075
  863MPD2    C412721   2.028   2.377  16.643  0.3537 -0.2315  0.0611
  863MPD2    C512722   1.929   2.398  16.547 -0.3928  0.1039  0.6063
  863MPD2     H12723   1.829   2.420  16.904 -0.6929  0.3614 -0.3953
  863MPD2    H112724   2.133   2.378  16.614  0.3711  0.6368  0.1522
  863MPD2    H212725   1.732   2.438  16.488  0.9915 -0.4105 -0.6576
  863MPD2    H312726   1.963   2.403  16.444  0.2691 -0.1832  0.8072
  863MPD2     N12727   2.086   2.346  16.874 -0.3676  0.7089  0.5447
  863MPD2    H512728   2.183   2.366  16.851 -0.2243  0.5987  1.0607
  863MPD2    N112729   1.629   2.483  16.725 -0.3632  0.2957  0.0499
  863MPD2    H712730   1.583   2.516  16.641 -1.0976  0.7507  0.6303
  864MPD2     C12731   2.651   3.284  17.243  0.5517 -0.0384 -0.1964
  864MPD2    C112732   2.698   3.253  17.113 -0.1274 -0.0530  0.3212
  864MPD2    C212733   2.794   3.339  17.051  0.9923  0.1040 -0.3621
  864MPD2    C312734   2.839   3.453  17.125  0.0440 -0.2724  0.4322
  864MPD2    C412735   2.785   3.485  17.243  0.8439  0.5007  0.3517
  864MPD2    C512736   2.693   3.401  17.301  0.6804  0.5260  0.2976
  864MPD2     H12737   2.833   3.323  16.951 -1.8868 -2.1748 -1.1192
  864MPD2    H112738   2.802   3.583  17.287 -1.6611  0.9488  0.3321
  864MPD2    H212739   2.573   3.226  17.291 -1.6083  1.6429 -1.6945
  864MPD2    H312740   2.643   3.434  17.391 -1.1135  1.6411 -1.1146
  864MPD2     N12741   2.943   3.529  17.079 -0.2850 -0.7028  0.5967
  864MPD2    H512742   2.952   3.624  17.115 -0.9381 -0.5989  0.4945
  864MPD2    N112743   2.650   3.129  17.048 -0.4613  0.1327 -0.9221
  864MPD2    H712744   2.591   3.070  17.104 -0.2641  3.0430  2.3222
  865MPD2     C12745   2.970   3.970  16.288  0.6645 -0.4800  0.4457
  865MPD2    C112746   2.958   3.836  16.322  0.1784 -0.3486 -0.5589
  865MPD2    C212747   2.960   3.800  16.458  0.7013  0.1068 -0.2164
  865MPD2    C312748   2.978   3.891  16.555  0.2267 -0.1080  0.4761
  865MPD2    C412749   2.971   4.026  16.522 -0.0096 -0.0953 -0.6946
  865MPD2    C512750   2.979   4.060  16.389  0.1521  1.0335  0.2053
  865MPD2     H12751   2.960   3.696  16.490 -0.6368  0.0209 -0.4639
  865MPD2    H112752   2.998   4.106  16.589 -2.6897 -0.6747  1.0885
  865MPD2    H212753   2.956   4.008  16.188 -1.9398  1.8572  1.6941
  865MPD2    H312754   2.987   4.161  16.350 -0.3289  1.0705  0.2004
  865MPD2     N12755   3.005   3.835  16.683  0.3398 -0.8556  0.7552
  865MPD2    H512756   2.993   3.734  16.693 -0.6987 -0.6463  1.5230
  865MPD2    N112757   2.947   3.741  16.215  0.0281  0.3619 -0.3018
  865MPD2    H712758   2.972   3.770  16.121  1.5943 -2.0552 -0.6307
  866MPD2     C12759   4.438   0.015  11.571 -0.0511  0.7025 -0.2348
  866MPD2    C112760   4.454   0.021  11.435  0.1255  0.1175  0.0604
  866MPD2    C212761   4.343   0.046  11.355 -0.0759 -0.7725  0.0793
  866MPD2    C312762   4.220   0.066  11.413 -1.0887 -0.0462 -0.5767
  866MPD2    C412763   4.209   0.063  11.551 -0.5668  0.0640 -0.1566
  866MPD2    C512764   4.322   0.043  11.626 -0.1779 -0.1124 -0.0444
  866MPD2     H12765   4.348   0.046  11.247  2.4937  0.0744  0.2071
  866MPD2    H112766   4.114   0.077  11.601 -0.6895 -1.6120  0.0907
  866MPD2    H212767   4.518   0.003  11.644 -1.2493 -0.2306  0.9319
  866MPD2    H312768   4.301   0.051  11.732 -0.4530  1.6620 -0.2445
  866MPD2     N12769   4.101   0.104  11.346 -0.0098  0.5705  0.3052
  866MPD2    H512770   4.016   0.105  11.401  0.0365 -0.6178  0.4188
  866MPD2    N112771   4.585   4.735  11.388 -0.0988  0.2672  0.1050
  866MPD2    H712772   4.644   4.694  11.458  2.1764 -1.5712 -2.8833
  867MPD2     C12773   1.395   3.928  16.191 -1.0103  0.2573  0.1355
  867MPD2    C112774   1.424   3.828  16.279 -0.4282 -0.0613 -0.7138
  867MPD2    C212775   1.458   3.867  16.407 -0.1944  0.9092  0.1597
  867MPD2    C312776   1.460   3.997  16.449 -0.6238  0.5524 -0.2815
  867MPD2    C412777   1.431   4.090  16.355 -0.1999 -0.6961  0.6283
  867MPD2    C512778   1.392   4.054  16.230 -1.0130  0.1019 -0.6248
  867MPD2     H12779   1.488   3.792  16.479  0.3791  1.2217  0.2526
  867MPD2    H112780   1.442   4.197  16.371  0.5707 -0.6734 -0.0299
  867MPD2    H212781   1.382   3.914  16.085 -3.2584 -0.1088  0.4665
  867MPD2    H312782   1.379   4.139  16.163 -2.8841 -2.3609 -3.3606
  867MPD2     N12783   1.496   4.040  16.578  0.2406 -0.1199  0.2348
  867MPD2    H512784   1.469   4.135  16.601  2.6149  0.8437 -0.9760
  867MPD2    N112785   1.437   3.696  16.234 -0.7322  0.2718  0.4549
  867MPD2    H712786   1.418   3.671  16.137  2.3724 -1.6884  0.3449
  868MPD2     C12787   3.337   3.159  13.022 -0.2905  0.4250 -0.0044
  868MPD2    C112788   3.417   3.097  13.111 -0.1735 -0.0293  0.9133
  868MPD2    C212789   3.385   3.094  13.244  0.2302 -0.3480 -0.2192
  868MPD2    C312790   3.267   3.148  13.284 -0.3216  0.5702  1.0900
  868MPD2    C412791   3.183   3.206  13.193  0.8508 -0.6567  0.4668
  868MPD2    C512792   3.220   3.212  13.065 -0.3063  0.0978 -0.0208
  868MPD2     H12793   3.451   3.056  13.321 -1.0496 -0.6619  0.7277
  868MPD2    H112794   3.092   3.255  13.229  0.9011 -0.0458 -0.2493
  868MPD2    H212795   3.365   3.160  12.917 -0.3257  1.2485 -0.0036
  868MPD2    H312796   3.145   3.233  12.990 -0.4787 -1.2782 -0.2334
  868MPD2     N12797   3.236   3.148  13.422 -0.3788  0.4422 -0.4350
  868MPD2    H512798   3.318   3.122  13.477 -1.4941 -0.7191  0.7083
  868MPD2    N112799   3.531   3.035  13.064 -0.0694  0.0226  0.3727
  868MPD2    H712800   3.561   3.039  12.967  3.2833  1.5348  1.4672
  869MPD2     C12801   4.570   0.952   0.197 -0.6997 -0.5971 -0.1546
  869MPD2    C112802   4.474   0.889   0.278  0.2247 -0.4401  0.1462
  869MPD2    C212803   4.497   0.889   0.412  0.2134  0.3171 -0.0421
  869MPD2    C312804   4.614   0.950   0.462 -0.8254  0.2959  0.2390
  869MPD2    C412805   4.695   1.014   0.371  0.0693 -0.0408  0.0467
  869MPD2    C512806   4.675   1.020   0.242 -0.0114 -0.2284 -0.6244
  869MPD2     H12807   4.423   0.858   0.485 -0.9243 -1.3259 -1.8610
  869MPD2    H112808   0.044   1.074   0.398 -1.0302  1.7006 -0.3349
  869MPD2    H212809   4.558   0.960   0.090  1.8287 -1.6992 -0.5450
  869MPD2    H312810   4.735   1.079   0.175  0.8595 -0.8708 -0.4079
  869MPD2     N12811   4.642   0.962   0.606 -0.0896  0.1734  0.1406
  869MPD2    H512812   4.707   1.034   0.636 -0.7355  0.8276 -0.0280
  869MPD2    N112813   4.354   0.845   0.215 -0.5989 -0.4230  0.2268
  869MPD2    H712814   4.344   0.848   0.114  0.0803  0.2116  0.1811
  870MPD2     C12815   4.117   4.113   1.751 -0.0346 -0.1794  0.5374
  870MPD2    C112816   4.227   4.176   1.695  1.0745 -0.1934 -0.1694
  870MPD2    C212817   4.212   4.314   1.674  0.0472  0.2231  0.0991
  870MPD2    C312818   4.096   4.381   1.706 -0.5523 -0.0099  0.3730
  870MPD2    C412819   3.989   4.312   1.762  0.3234 -0.4386 -0.1341
  870MPD2    C512820   4.002   4.175   1.784  0.2275  0.1911 -0.1049
  870MPD2     H12821   4.277   4.363   1.602  0.4279 -0.9625 -0.3669
  870MPD2    H112822   3.890   4.353   1.779  0.6038 -0.0841  0.6550
  870MPD2    H212823   4.124   4.007   1.773 -1.2446 -0.4304 -0.2702
  870MPD2    H312824   3.922   4.119   1.832 -0.3543  2.8871  2.1026
  870MPD2     N12825   4.088   4.518   1.675  0.0557  0.0428  0.5290
  870MPD2    H512826   4.152   4.559   1.607 -1.6577 -0.8840 -1.6580
  870MPD2    N112827   4.343   4.102   1.667  0.3002  0.0040 -0.0429
  870MPD2    H712828   4.350   4.001   1.675  0.6417  0.1018  0.8333
  871MPD2     C12829   0.779   4.126  16.593 -0.4174 -0.3914  0.0707
  871MPD2    C112830   0.745   4.051  16.708  0.0160  0.1255  0.1406
  871MPD2    C212831   0.723   3.915  16.692  0.4156  0.4569  0.5936
  871MPD2    C312832   0.734   3.855  16.572  0.4182 -0.8368 -0.2055
  871MPD2    C412833   0.755   3.933  16.461 -0.2693  0.0448 -0.2615
  871MPD2    C512834   0.786   4.066  16.473  0.2059 -0.7012 -0.0929
  871MPD2     H12835   0.702   3.854  16.779 -1.9909 -0.1309 -0.4006
  871MPD2    H112836   0.780   3.885  16.368  0.7539 -0.0531  0.0609
  871MPD2    H212837   0.794   4.233  16.599 -1.1563 -0.4007  2.1065
  871MPD2    H312838   0.818   4.118  16.384 -1.1552 -1.3050 -0.9256
  871MPD2     N12839   0.710   3.715  16.573 -0.1435 -0.0331  0.2117
  871MPD2    H512840   0.687   3.671  16.662  2.9250 -2.3992 -0.1526
  871MPD2    N112841   0.727   4.127  16.825 -0.3059 -0.1295 -0.4166
  871MPD2    H712842   0.746   4.226  16.828  0.6796 -0.3290  0.0448
  872MPD2     C12843   1.174   1.856  13.588 -0.1161  0.1524  0.4339
  872MPD2    C112844   1.244   1.834  13.706  0.5395  0.4136 -0.5682
  872MPD2    C212845   1.177   1.807  13.822 -0.5702  0.5530 -0.6209
  872MPD2    C312846   1.042   1.792  13.828  0.7881  0.4880 -0.8015
  872MPD2    C412847   0.967   1.817  13.711  0.4741  0.0552  1.1811
  872MPD2    C512848   1.042   1.851  13.597 -0.3583 -0.4423 -0.4204
  872MPD2     H12849   1.229   1.786  13.914 -0.2091 -1.0355 -1.1774
  872MPD2    H112850   0.860   1.807  13.696  0.5323 -0.1561  0.9041
  872MPD2    H212851   1.220   1.874  13.492 -0.5489  0.3389  0.2623
  872MPD2    H312852   0.993   1.866  13.501  2.3007  0.5220 -1.6256
  872MPD2     N12853   0.978   1.744  13.945 -0.0715  0.7839 -0.4670
  872MPD2    H512854   0.876   1.750  13.943 -0.1227  1.1155  2.6414
  872MPD2    N112855   1.390   1.839  13.712  0.1212  0.0799 -0.0020
  872MPD2    H712856   1.431   1.839  13.805  1.7581  0.4774 -0.7260
  873MPD2     C12857   2.428   1.589   0.312 -0.4470 -0.3407  0.0251
  873MPD2    C112858   2.530   1.534   0.387 -0.2788  0.2538 -0.0189
  873MPD2    C212859   2.557   1.396   0.373  0.7771 -0.0959 -0.1084
  873MPD2    C312860   2.484   1.311   0.282 -0.0112 -0.7362  0.0884
  873MPD2    C412861   2.387   1.373   0.206 -0.5245  0.0962  0.4783
  873MPD2    C512862   2.362   1.512   0.221  0.0960  0.0297 -0.0816
  873MPD2     H12863   2.628   1.350   0.441  1.2637 -0.3747 -0.8071
  873MPD2    H112864   2.311   1.316   0.154 -1.0130  0.5209  0.7211
  873MPD2    H212865   2.408   1.695   0.322 -0.6166 -0.4725  1.0534
  873MPD2    H312866   2.282   1.542   0.153  0.1494 -0.3620 -0.3187
  873MPD2     N12867   2.496   1.170   0.255  0.2989  0.3093 -0.6950
  873MPD2    H512868   2.438   1.133   0.181 -0.7206 -0.0553  0.2702
  873MPD2    N112869   2.603   1.619   0.469 -0.7348 -0.4905 -0.4579
  873MPD2    H712870   2.577   1.716   0.456  0.7135 -0.0610 -0.1428
  874MPD2     C12871   3.117   1.770  16.047 -0.4218 -0.1277  0.5548
  874MPD2    C112872   3.110   1.630  16.057 -0.1550 -0.3148 -0.1419
  874MPD2    C212873   3.178   1.554  15.961 -0.1249 -0.2489  0.1209
  874MPD2    C312874   3.249   1.616  15.861  0.6606  0.5789 -0.0111
  874MPD2    C412875   3.249   1.754  15.850 -0.4957 -0.6271 -0.5890
  874MPD2    C512876   3.188   1.830  15.947  0.0365  0.1753 -0.0624
  874MPD2     H12877   3.191   1.447  15.972  0.1314 -0.2651 -0.3367
  874MPD2    H112878   3.320   1.795  15.780  1.3278 -0.5939  1.2995
  874MPD2    H212879   3.084   1.832  16.130 -0.2929 -1.5528  1.6601
  874MPD2    H312880   3.213   1.936  15.947  1.8357 -0.2531  0.6702
  874MPD2     N12881   3.336   1.537  15.788  0.8004  0.5486 -0.4932
  874MPD2    H512882   3.324   1.439  15.810  0.7342  0.8213  0.6917
  874MPD2    N112883   3.034   1.576  16.156 -0.1112 -0.2199 -0.3625
  874MPD2    H712884   2.981   1.636  16.219 -1.4048 -1.0509 -0.6568
  875MPD2     C12885   3.989   4.509  14.651 -0.6006  0.5575  0.5412
  875MPD2    C112886   3.874   4.583  14.673 -0.5095 -0.1805  0.4546
  875MPD2    C212887   3.870   4.680  14.771  0.3481 -0.2281 -0.1947
  875MPD2    C312888   3.970   4.676  14.867  0.5002 -0.6337  0.4140
  875MPD2    C412889   4.074   4.593  14.854 -0.2960  0.1954 -0.3814
  875MPD2    C512890   4.088   4.522  14.742 -0.1536 -0.0943  0.4508
  875MPD2     H12891   3.781   0.002  14.789 -0.9222 -3.1755  3.0400
  875MPD2    H112892   4.160   4.603  14.919  0.1141  0.3326 -0.9440
  875MPD2    H212893   4.002   4.433  14.575  1.5380  1.5525 -0.1098
  875MPD2    H312894   4.182   4.469  14.733 -0.1371 -0.5945  3.5853
  875MPD2     N12895   3.967   0.021  14.983  0.2569 -0.2108 -0.0482
  875MPD2    H512896   4.025   4.735  15.063  0.4971  2.0767  0.4277
  875MPD2    N112897   3.754   4.555  14.599  0.1276 -0.4881 -0.2420
  875MPD2    H712898   3.671   4.595  14.641  0.9000  0.5152  0.3383
  876MPD2     C12899   2.572   0.906  16.133  0.0645 -0.0011 -0.0355
  876MPD2    C112900   2.703   0.900  16.083  0.5359  0.1648  0.6105
  876MPD2    C212901   2.783   0.794  16.109 -0.4315  0.3758  0.3593
  876MPD2    C312902   2.751   0.697  16.202 -0.4141  0.2318  0.0506
  876MPD2    C412903   2.625   0.708  16.252 -0.3745  0.2686 -0.5099
  876MPD2    C512904   2.538   0.810  16.220  0.5291  0.1994  0.0278
  876MPD2     H12905   2.883   0.790  16.067  0.0506 -0.6124  1.5962
  876MPD2    H112906   2.588   0.630  16.319  0.4904 -0.8894 -1.3800
  876MPD2    H212907   2.517   0.995  16.107  0.3642  0.2424  0.1619
  876MPD2    H312908   2.442   0.806  16.270  0.6103 -0.3206  0.1407
  876MPD2     N12909   2.841   0.594  16.250 -0.0726  0.0775 -0.0111
  876MPD2    H512910   2.937   0.613  16.225 -0.3024  1.0264 -0.1873
  876MPD2    N112911   2.742   1.000  15.999  0.0127  0.0856  0.0318
  876MPD2    H712912   2.691   1.088  15.997  0.1327  0.1343 -0.9229
  877MPD2     C12913   2.539   1.509  15.442 -0.4372 -0.4052  0.3642
  877MPD2    C112914   2.671   1.484  15.418 -0.0121  0.2542 -0.3238
  877MPD2    C212915   2.725   1.514  15.297 -0.2050  0.0837 -0.3969
  877MPD2    C312916   2.646   1.565  15.189  0.7138  0.3085 -0.7395
  877MPD2    C412917   2.510   1.595  15.215  0.3846  0.0661  0.3546
  877MPD2    C512918   2.467   1.569  15.340  0.1810  0.1792  0.0493
  877MPD2     H12919   2.828   1.482  15.286 -0.0591 -0.1294  1.5886
  877MPD2    H112920   2.456   1.652  15.140  1.2344  1.3850  0.7374
  877MPD2    H212921   2.491   1.485  15.536 -0.4779  3.8867  1.4479
  877MPD2    H312922   2.365   1.601  15.360 -0.4773 -1.3719 -0.8438
  877MPD2     N12923   2.695   1.590  15.055  0.2953  0.0514  0.1319
  877MPD2    H512924   2.625   1.609  14.984 -0.3371 -0.4135  0.6264
  877MPD2    N112925   2.752   1.426  15.520  0.2105 -0.3202 -0.2516
  877MPD2    H712926   2.852   1.435  15.505  0.4626 -3.6724 -0.4614
  878MPD2     C12927   2.547   0.679  13.050  0.7036  0.2301 -0.0837
  878MPD2    C112928   2.586   0.807  13.071 -0.3905  0.2808 -0.3128
  878MPD2    C212929   2.528   0.875  13.178  0.2900  0.6463 -0.1657
  878MPD2    C312930   2.424   0.827  13.250  0.5269 -0.9025 -0.2468
  878MPD2    C412931   2.371   0.704  13.212 -0.5406  0.0260 -0.7284
  878MPD2    C512932   2.435   0.624  13.120  0.1768  0.3276 -0.0022
  878MPD2     H12933   2.555   0.977  13.200 -1.5203  0.7072  1.8213
  878MPD2    H112934   2.307   0.647  13.278 -0.0063 -0.8517 -0.9735
  878MPD2    H212935   2.589   0.610  12.978 -3.7513  0.8572 -3.2849
  878MPD2    H312936   2.407   0.520  13.113  1.6478 -0.0115 -0.8413
  878MPD2     N12937   2.381   0.902  13.361  0.4189 -0.2486  0.5412
  878MPD2    H512938   2.444   0.972  13.399  0.6103  0.3376 -0.8598
  878MPD2    N112939   2.676   0.864  12.981 -0.5195 -0.2701  0.2121
  878MPD2    H712940   2.688   0.800  12.902 -0.2850  0.7317 -0.5645
  879MPD2     C12941   3.116   1.672  17.309  0.1352 -0.5363  0.1024
  879MPD2    C112942   3.159   1.739  17.203  0.0035  0.0293  0.1814
  879MPD2    C212943   3.092   1.743  17.079 -0.2634 -0.3927  0.4041
  879MPD2    C312944   2.978   1.666  17.072  0.8352  0.2677  0.2161
  879MPD2    C412945   2.939   1.584  17.176  0.0249 -0.7521  0.1345
  879MPD2    C512946   3.007   1.581  17.291 -0.0738 -0.0891 -0.0015
  879MPD2     H12947   3.137   1.801  17.000  1.4550 -0.4403  1.3407
  879MPD2    H112948   2.866   1.503  17.169 -1.8720  1.1360 -2.1963
  879MPD2    H212949   3.162   1.676  17.406 -2.3588 -0.6941  1.2856
  879MPD2    H312950   2.972   1.519  17.372 -0.8688  0.9605  0.4674
  879MPD2     N12951   2.899   1.658  16.950  0.0059 -0.0355 -0.1902
  879MPD2    H512952   2.818   1.599  16.965 -2.7978  3.4832 -1.5792
  879MPD2    N112953   3.278   1.808  17.226 -0.6747 -0.9191  0.1692
  879MPD2    H712954   3.308   1.805  17.322 -0.4234  0.1333  0.1175
  880MPD2     C12955   4.077   4.365   0.310  0.2869 -0.2996 -0.2811
  880MPD2    C112956   4.140   4.401   0.426 -0.0648 -0.3147 -0.4575
  880MPD2    C212957   4.179   4.299   0.513 -0.2615  0.0021  0.0566
  880MPD2    C312958   4.171   4.166   0.486 -0.8411  0.1194  0.1174
  880MPD2    C412959   4.117   4.134   0.363  0.4352  0.2669  0.0434
  880MPD2    C512960   4.073   4.233   0.282 -0.2443 -0.0862 -0.3501
  880MPD2     H12961   4.226   4.327   0.607  0.0598  1.2060 -0.4673
  880MPD2    H112962   4.115   4.032   0.327 -1.4756  0.5763 -0.7124
  880MPD2    H212963   4.029   4.435   0.243  0.2882 -0.9631 -0.9815
  880MPD2    H312964   4.035   4.209   0.183  0.4419 -0.0204 -0.6244
  880MPD2     N12965   4.213   4.065   0.575  0.3133 -0.0655 -0.0002
  880MPD2    H512966   4.235   4.104   0.666  2.0597 -0.9317 -0.0527
  880MPD2    N112967   4.163   4.539   0.450  0.0395 -0.0182  0.6934
  880MPD2    H712968   4.166   4.601   0.370 -0.7588  0.1087  0.7688
  881MPD2     C12969   0.036   0.538   0.206  0.8155 -0.1668 -0.1474
  881MPD2    C112970   0.024   0.405   0.173  0.2550 -0.5303 -0.2600
  881MPD2    C212971   4.687   0.323   0.258  0.2692  0.0400 -1.0677
  881MPD2    C312972   4.630   0.375   0.374  0.5683  0.5804  0.5968
  881MPD2    C412973   4.655   0.506   0.408 -0.4899  0.0531 -0.0357
  881MPD2    C512974   4.715   0.582   0.319 -0.8086 -0.8736  0.2199
  881MPD2     H12975   4.662   0.222   0.226  1.5238 -0.9439  1.0789
  881MPD2    H112976   4.600   0.550   0.491  1.0912  1.4750  0.2526
  881MPD2    H212977   0.063   0.612   0.132 -0.2918  0.8023  0.4142
  881MPD2    H312978   4.722   0.689   0.340  0.4524 -1.5071  3.0469
  881MPD2     N12979   4.533   0.306   0.456  0.1354 -0.2187  0.4646
  881MPD2    H512980   4.503   0.360   0.536  3.6049  0.3266  1.4033
  881MPD2    N112981   0.037   0.384   0.030  0.4928 -0.1514  0.2427
  881MPD2    H712982   0.089   0.455  17.726  0.4786 -0.7833 -0.6912
  882MPD2     C12983   2.487   1.502  14.311 -0.4562  0.6467  0.2171
  882MPD2    C112984   2.488   1.578  14.424 -0.1828  0.0819 -0.2493
  882MPD2    C212985   2.368   1.626  14.473  0.2067 -0.0769  0.1419
  882MPD2    C312986   2.254   1.622  14.398 -0.0849 -1.1543 -0.1493
  882MPD2    C412987   2.258   1.543  14.287  0.2583 -0.0192 -0.6767
  882MPD2    C512988   2.374   1.486  14.240  0.3253  0.3942 -1.1224
  882MPD2     H12989   2.367   1.675  14.569 -0.7894 -1.4598  0.8376
  882MPD2    H112990   2.169   1.516  14.231  0.4451 -4.3810  1.1059
  882MPD2    H212991   2.574   1.448  14.274 -0.2654  1.0074  0.1408
  882MPD2    H312992   2.370   1.419  14.154  0.3829 -0.3704 -0.5294
  882MPD2     N12993   2.126   1.667  14.440  0.0042 -0.4198  0.0565
  882MPD2    H512994   2.059   1.633  14.372  0.2349 -3.5449  1.3851
  882MPD2    N112995   2.612   1.590  14.493 -0.4161 -0.4756 -0.1705
  882MPD2    H712996   2.685   1.529  14.458  1.0829  1.5694 -0.5661
  883MPD2     C12997   0.054   1.017  15.838  0.6520  0.8244  0.6150
  883MPD2    C112998   4.717   1.130  15.803  0.0912  0.0696 -0.4913
  883MPD2    C212999   4.683   1.235  15.891  0.7366 -0.0755  0.4454
  883MPD2    C313000   4.723   1.228  16.024  0.2045  0.0983  0.3958
  883MPD2    C413001   0.053   1.109  16.060 -0.3978  0.6201 -0.2853
  883MPD2    C513002   0.083   1.008  15.976 -0.8048 -0.2303  0.3013
  883MPD2     H13003   4.632   1.318  15.842 -2.4798 -1.0424  2.1638
  883MPD2    H113004   0.081   1.096  16.164 -1.7150  0.4588  0.0485
  883MPD2    H213005   0.078   0.928  15.781 -0.1696  1.1489 -0.2286
  883MPD2    H313006   0.130   0.917  16.012  2.5531  0.8673 -1.3311
  883MPD2     N13007   4.707   1.344  16.099  0.2098 -0.0559 -0.1778
  883MPD2    H513008   4.657   1.422  16.059 -0.6783 -0.8428 -0.6222
  883MPD2    N113009   4.685   1.163  15.664  0.4530  0.1836  0.0002
  883MPD2    H713010   4.633   1.250  15.655  1.5369  0.9499  1.1504
  884MPD2     C13011   1.393   2.493  15.491 -0.8200 -0.0383  0.6739
  884MPD2    C113012   1.406   2.488  15.352 -0.1018  0.3806 -0.3010
  884MPD2    C213013   1.323   2.555  15.273 -0.3692  0.4049 -0.2138
  884MPD2    C313014   1.231   2.641  15.333 -0.0961  0.3453  0.3946
  884MPD2    C413015   1.228   2.651  15.471  0.3095 -0.4630  0.2958
  884MPD2    C513016   1.316   2.582  15.554  0.5522 -0.1084 -0.4303
  884MPD2     H13017   1.320   2.544  15.165 -1.2735 -2.0856  0.0654
  884MPD2    H113018   1.152   2.717  15.513  0.7948  0.2191  0.0949
  884MPD2    H213019   1.454   2.430  15.555 -0.1452 -0.2528 -0.1729
  884MPD2    H313020   1.303   2.582  15.662 -1.2916 -1.0318 -0.6431
  884MPD2     N13021   1.136   2.710  15.251 -0.2199  0.1944 -0.4766
  884MPD2    H513022   1.141   2.699  15.150 -1.7107  1.8326 -0.7335
  884MPD2    N113023   1.484   2.398  15.284 -0.1109  0.6111  0.5786
  884MPD2    H713024   1.485   2.412  15.183  1.0060  0.0933  0.5101
  885MPD2     C13025   0.488   3.114   0.608  0.3032  0.6176 -0.4257
  885MPD2    C113026   0.385   3.031   0.578  0.3300  0.2218 -0.0419
  885MPD2    C213027   0.363   2.998   0.447  0.4857 -0.1174 -0.2819
  885MPD2    C313028   0.461   3.021   0.352  0.1660 -0.6378  0.3473
  885MPD2    C413029   0.581   3.086   0.388 -0.2238 -0.4529 -0.4241
  885MPD2    C513030   0.587   3.132   0.518  0.1567 -0.2952  0.0248
  885MPD2     H13031   0.282   2.932   0.419 -0.1160 -0.3869  2.0333
  885MPD2    H113032   0.669   3.097   0.324  0.0087  2.8106  0.4470
  885MPD2    H213033   0.494   3.151   0.710  0.5047 -4.2987  1.3510
  885MPD2    H313034   0.675   3.184   0.554  0.8087 -0.7165 -0.9435
  885MPD2     N13035   0.434   2.984   0.213  0.0619 -0.3967  0.0929
  885MPD2    H513036   0.335   2.965   0.198  0.0924  2.9635 -4.3598
  885MPD2    N113037   0.313   2.995   0.691 -0.1585 -0.2879  0.0231
  885MPD2    H713038   0.347   3.021   0.783 -1.0532  0.1119  0.2408
  886MPD2     C13039   1.459   0.751  15.540 -0.4919 -0.0413 -0.1900
  886MPD2    C113040   1.532   0.840  15.612 -0.3404 -0.6042 -0.3571
  886MPD2    C213041   1.530   0.977  15.575  0.2409  0.1153  1.2357
  886MPD2    C313042   1.457   1.024  15.462 -0.4438  0.2322  0.3552
  886MPD2    C413043   1.386   0.937  15.397  0.0575  0.2575 -0.2860
  886MPD2    C513044   1.386   0.808  15.432  0.9184  0.0314 -0.1644
  886MPD2     H13045   1.580   1.048  15.639  0.4205  0.2115  0.9852
  886MPD2    H113046   1.316   0.956  15.316  0.6758 -0.1679 -0.9180
  886MPD2    H213047   1.471   0.644  15.537 -0.8903 -0.0488 -1.5252
  886MPD2    H313048   1.339   0.739  15.363 -2.1130  1.6221  0.3275
  886MPD2     N13049   1.454   1.159  15.421 -0.3755 -0.5782  0.4022
  886MPD2    H513050   1.402   1.183  15.338 -0.3535  0.8225  0.7946
  886MPD2    N113051   1.624   0.788  15.705 -0.3127 -0.6117 -0.2439
  886MPD2    H713052   1.697   0.848  15.741  0.1614  0.0159 -2.2450
  887MPD2     C13053   1.895   0.990  16.371  0.6364 -0.6510  0.0178
  887MPD2    C113054   1.899   1.012  16.235  0.4731 -0.3705  0.4755
  887MPD2    C213055   1.943   1.137  16.197 -0.1904 -0.4149  0.5149
  887MPD2    C313056   2.001   1.231  16.279  0.2233 -0.2849 -0.0614
  887MPD2    C413057   1.996   1.204  16.417 -0.6656  0.0208  0.1436
  887MPD2    C513058   1.948   1.081  16.455 -0.3578 -0.7235  0.0182
  887MPD2     H13059   1.953   1.159  16.092  1.2501 -1.6049  0.4013
  887MPD2    H113060   2.038   1.274  16.488 -1.5486 -0.0119  0.7095
  887MPD2    H213061   1.857   0.897  16.410  1.5858 -0.5372  1.2022
  887MPD2    H313062   1.961   1.057  16.560 -1.3137 -2.4346 -0.2556
  887MPD2     N13063   2.046   1.354  16.226  0.4688 -0.1184 -0.6511
  887MPD2    H513064   2.023   1.384  16.132 -1.0729  1.5397  0.2493
  887MPD2    N113065   1.872   0.917  16.131 -0.0263 -0.1496 -0.0008
  887MPD2    H713066   1.898   0.946  16.037 -2.5784 -0.4681 -0.8132
  888MPD2     C13067   3.550   1.144  14.682 -0.1344 -0.0832 -0.0230
  888MPD2    C113068   3.628   1.154  14.795  0.2061 -0.0861  0.5548
  888MPD2    C213069   3.692   1.268  14.825 -0.4648 -0.2634 -0.5621
  888MPD2    C313070   3.684   1.382  14.746  0.1670 -0.0068  0.2750
  888MPD2    C413071   3.595   1.374  14.635 -0.1711 -0.3440 -0.3875
  888MPD2    C513072   3.524   1.259  14.613  0.7967 -0.6308  0.2109
  888MPD2     H13073   3.760   1.257  14.909 -2.2528  2.4064  1.2611
  888MPD2    H113074   3.580   1.460  14.569 -1.3544  0.0264  0.3602
  888MPD2    H213075   3.483   1.059  14.673 -1.4259  1.1164 -1.7265
  888MPD2    H313076   3.457   1.253  14.528  2.0687  2.3175 -0.9948
  888MPD2     N13077   3.751   1.499  14.793  0.3764 -0.1074  0.5353
  888MPD2    H513078   3.802   1.501  14.880 -1.7725 -1.9717  1.8461
  888MPD2    N113079   3.658   1.039  14.873  0.1572  0.3843 -0.1886
  888MPD2    H713080   3.740   1.043  14.932  0.5096  2.0509 -0.7923
  889MPD2     C13081   3.164   0.299  13.137  0.6547  0.3877 -0.1369
  889MPD2    C113082   3.259   0.353  13.218  0.0277 -0.0032  0.5099
  889MPD2    C213083   3.256   0.488  13.254  0.7204 -0.3695 -0.4409
  889MPD2    C313084   3.170   0.574  13.186 -0.6540  0.6614 -0.2859
  889MPD2    C413085   3.080   0.520  13.097  0.2066 -0.0417 -0.1139
  889MPD2    C513086   3.076   0.386  13.077  0.0443  0.5564 -0.0695
  889MPD2     H13087   3.316   0.512  13.341  0.4314 -2.3349  0.3141
  889MPD2    H113088   3.003   0.580  13.052 -0.9352 -0.7317  0.9201
  889MPD2    H213089   3.165   0.194  13.110 -2.8105  0.0794  0.9586
  889MPD2    H313090   2.991   0.348  13.021  0.9001 -0.7880 -0.4874
  889MPD2     N13091   3.172   0.713  13.210  0.2873  0.1187  0.5538
  889MPD2    H513092   3.246   0.735  13.276  1.6942  0.4251 -1.1253
  889MPD2    N113093   3.326   0.247  13.291 -0.2010 -0.0800 -0.3826
  889MPD2    H713094   3.299   0.151  13.272  0.1237 -0.4973  1.2077
  890MPD2     C13095   2.795   2.202  14.502  0.2117  0.0127 -0.9941
  890MPD2    C113096   2.861   2.281  14.597  1.1198 -0.0380  0.6662
  890MPD2    C213097   2.833   2.249  14.728 -0.0329  0.0705 -0.7199
  890MPD2    C313098   2.760   2.137  14.764  0.7475 -0.2171 -0.5914
  890MPD2    C413099   2.695   2.059  14.668  0.1466  0.1790 -0.0804
  890MPD2    C513100   2.720   2.092  14.537  0.6168 -0.0053 -0.6877
  890MPD2     H13101   2.890   2.311  14.797 -0.1155 -0.2981 -0.3191
  890MPD2    H113102   2.651   1.964  14.694  0.4070  1.3359  4.7387
  890MPD2    H213103   2.814   2.238  14.402  3.0959 -0.3686 -0.6020
  890MPD2    H313104   2.668   2.029  14.466 -1.7213  0.0934  0.9130
  890MPD2     N13105   2.762   2.113  14.903  0.0883  0.2020  0.2600
  890MPD2    H513106   2.817   2.182  14.953 -2.0770  1.9092  0.2954
  890MPD2    N113107   2.954   2.373  14.550  0.4486 -0.1542  0.3811
  890MPD2    H713108   2.962   2.388  14.450  2.6442 -0.6481  0.4836
  891MPD2     C13109   0.942   0.560  16.851  0.4679  0.7868 -0.5060
  891MPD2    C113110   0.958   0.697  16.869 -0.0153  0.7185  0.1499
  891MPD2    C213111   1.049   0.747  16.961 -0.4535 -0.7389 -0.8204
  891MPD2    C313112   1.123   0.663  17.036  0.5892  0.1122 -1.0329
  891MPD2    C413113   1.126   0.530  17.005 -0.5321 -0.1931  0.0263
  891MPD2    C513114   1.031   0.483  16.917 -0.2810 -0.2962  0.7715
  891MPD2     H13115   1.054   0.855  16.965  0.0811 -0.7631 -0.8216
  891MPD2    H113116   1.187   0.459  17.059  0.6742 -0.6284 -1.8772
  891MPD2    H213117   0.866   0.521  16.786  0.4731 -1.2937  0.7409
  891MPD2    H313118   1.033   0.376  16.900  2.5945  0.0438 -1.0498
  891MPD2     N13119   1.194   0.726  17.145 -0.0209 -0.1470 -0.9438
  891MPD2    H513120   1.184   0.827  17.146  2.0265  0.0493  0.5855
  891MPD2    N113121   0.874   0.773  16.790  0.4599 -0.4710 -0.4105
  891MPD2    H713122   0.817   0.730  16.718  0.4378  0.5565 -1.0146
  892MPD2     C13123   1.752   1.741  15.380  0.1725 -0.4155 -0.0180
  892MPD2    C113124   1.656   1.777  15.289  0.0690  0.8637  0.6308
  892MPD2    C213125   1.678   1.735  15.163 -0.8092  0.0469  0.5302
  892MPD2    C313126   1.787   1.660  15.117 -0.6167 -0.7206 -0.5522
  892MPD2    C413127   1.887   1.630  15.215 -0.6175 -0.2000  0.4049
  892MPD2    C513128   1.867   1.669  15.344 -0.2211  0.4212 -0.6043
  892MPD2     H13129   1.598   1.752  15.091  0.3453 -1.6555 -1.1435
  892MPD2    H113130   1.973   1.567  15.199 -0.6495  0.0299 -0.6647
  892MPD2    H213131   1.732   1.742  15.487  1.4757  0.8990  0.2041
  892MPD2    H313132   1.938   1.641  15.421  1.0991  2.8574 -0.9240
  892MPD2     N13133   1.810   1.620  14.978  0.1491 -0.3013 -0.1973
  892MPD2    H513134   1.892   1.564  14.956  0.6870  0.1706  0.5679
  892MPD2    N113135   1.544   1.858  15.321  0.1022  0.2040  0.7916
  892MPD2    H713136   1.476   1.881  15.249 -0.1736 -0.2098  0.9166
  893MPD2     C13137   3.699   4.716   1.584  0.2459  0.0264 -1.0072
  893MPD2    C113138   3.700   4.691   1.451  0.0904 -0.2064 -0.2413
  893MPD2    C213139   3.720   4.562   1.412 -0.1746 -0.3124 -0.0809
  893MPD2    C313140   3.701   4.460   1.504 -0.0116  0.2154  0.4630
  893MPD2    C413141   3.676   4.482   1.638  0.1767  0.6462  0.9949
  893MPD2    C513142   3.678   4.616   1.675 -0.1213 -0.1656 -0.4455
  893MPD2     H13143   3.747   4.545   1.308  1.3943 -1.1151  0.4512
  893MPD2    H113144   3.661   4.411   1.718  0.8673 -0.8093 -0.1855
  893MPD2    H213145   3.701   0.077   1.631 -2.6029 -0.1837 -0.4517
  893MPD2    H313146   3.676   4.643   1.780 -2.3189 -1.1674 -0.2373
  893MPD2     N13147   3.708   4.319   1.464  0.4522 -0.1713  0.2207
  893MPD2    H513148   3.684   4.245   1.529 -2.0622 -0.4122 -0.9752
  893MPD2    N113149   3.715   0.064   1.360  0.2940  0.5984  0.1494
  893MPD2    H713150   3.717   0.156   1.401 -1.1005  1.6310 -2.0940
  894MPD2     C13151   1.716   2.539   1.180  0.2460 -0.0426  0.3903
  894MPD2    C113152   1.691   2.657   1.254  0.0555  0.2082  0.0355
  894MPD2    C213153   1.750   2.773   1.213  0.7267 -0.7030 -0.3661
  894MPD2    C313154   1.844   2.778   1.118 -0.2723  0.4014  0.2311
  894MPD2    C413155   1.879   2.665   1.049 -0.7056 -0.4210  0.0630
  894MPD2    C513156   1.816   2.545   1.081 -1.0705 -0.0913  0.1835
  894MPD2     H13157   1.723   2.858   1.274  0.5443  0.2538 -1.7735
  894MPD2    H113158   1.955   2.658   0.972  1.4740  0.1315  2.1501
  894MPD2    H213159   1.688   2.439   1.211 -0.2751 -0.8276 -2.5781
  894MPD2    H313160   1.842   2.451   1.034 -0.3469 -0.4292  1.2499
  894MPD2     N13161   1.893   2.910   1.083 -0.0022 -0.0613 -0.6161
  894MPD2    H513162   1.847   2.988   1.128  1.2793  0.1287  0.3833
  894MPD2    N113163   1.605   2.677   1.361 -0.7764  0.2641  0.5303
  894MPD2    H713164   1.606   2.772   1.397  1.5436  0.0544  1.0160
  895MPD2     C13165   0.929   0.778  13.752 -0.9851 -0.7313 -0.6071
  895MPD2    C113166   0.855   0.799  13.643  0.1808 -0.0639 -0.2763
  895MPD2    C213167   0.903   0.759  13.520 -0.5634 -0.2897  0.1045
  895MPD2    C313168   1.020   0.690  13.498 -0.7771  0.5867 -0.3233
  895MPD2    C413169   1.091   0.657  13.613  0.6911 -0.6155  0.0701
  895MPD2    C513170   1.041   0.694  13.742  0.0277 -0.1903 -0.8076
  895MPD2     H13171   0.839   0.766  13.432 -3.6833 -0.1105  2.3778
  895MPD2    H113172   1.179   0.595  13.600  0.0343 -1.2900 -1.0817
  895MPD2    H213173   0.891   0.821  13.844  0.1088 -2.0185  0.4560
  895MPD2    H313174   1.097   0.673  13.833  1.7593  1.2916 -1.5190
  895MPD2     N13175   1.063   0.640  13.374  0.3704  0.6760  0.2464
  895MPD2    H513176   1.146   0.581  13.373 -1.4389 -1.8577 -0.5859
  895MPD2    N113177   0.735   0.873  13.645 -0.0558 -0.0509  0.3500
  895MPD2    H713178   0.686   0.872  13.556  0.1273  0.0571  0.2478
  896MPD2     C13179   3.554   3.693   1.438 -0.0001 -0.3137  0.8164
  896MPD2    C113180   3.529   3.650   1.313 -0.4836  0.0416 -0.6951
  896MPD2    C213181   3.400   3.612   1.282 -0.4268  0.2830  0.1173
  896MPD2    C313182   3.296   3.628   1.378 -0.5078 -1.2564  0.3324
  896MPD2    C413183   3.322   3.675   1.509 -0.2711 -0.4000 -0.0001
  896MPD2    C513184   3.453   3.706   1.535  0.2429 -0.2882  0.3324
  896MPD2     H13185   3.377   3.587   1.179 -1.2620  3.2577 -0.4209
  896MPD2    H113186   3.250   3.694   1.588  0.4024 -1.7285  0.9274
  896MPD2    H213187   3.655   3.716   1.469 -0.2657  2.4964 -0.3833
  896MPD2    H313188   3.477   3.732   1.638 -0.5093 -1.8451  0.9015
  896MPD2     N13189   3.165   3.594   1.340  0.2894 -0.3365  0.0069
  896MPD2    H513190   3.152   3.566   1.243  0.0115 -0.8300  0.1878
  896MPD2    N113191   3.639   3.634   1.225  0.0358  0.7570  0.7455
  896MPD2    H713192   3.724   3.676   1.261  2.2672 -2.8988 -0.3210
  897MPD2     C13193   0.023   0.629  10.402  0.2577  0.1574  0.3338
  897MPD2    C113194   4.632   0.676  10.426 -0.4770  0.3902  0.8412
  897MPD2    C213195   4.564   0.632  10.533  0.3419 -0.7546 -0.4792
  897MPD2    C313196   4.606   0.527  10.611  0.6451 -0.1203  0.1887
  897MPD2    C413197   4.735   0.482  10.588  0.0191 -0.4530  0.3629
  897MPD2    C513198   0.069   0.526  10.478 -0.2535 -0.3778  0.2593
  897MPD2     H13199   4.459   0.657  10.540  0.5186 -0.3668  0.9117
  897MPD2    H113200   0.054   0.405  10.639 -0.6505 -1.2811 -0.1590
  897MPD2    H213201   0.080   0.664  10.316  0.2810 -2.8727 -0.8669
  897MPD2    H313202   0.165   0.481  10.455 -0.3935 -1.0480  1.0058
  897MPD2     N13203   4.521   0.481  10.714 -0.7025 -0.1054  0.0394
  897MPD2    H513204   4.434   0.532  10.725  0.9012  2.9062 -1.1955
  897MPD2    N113205   4.573   0.765  10.338 -0.0222  0.1322 -0.2735
  897MPD2    H713206   4.487   0.810  10.369 -0.8059 -0.9853 -0.8100
  898MPD2     C13207   1.049   1.136   0.200 -0.4912  0.3925 -0.6218
  898MPD2    C113208   1.162   1.124   0.286  0.1573 -0.1170 -0.0800
  898MPD2    C213209   1.227   1.240   0.316  0.0980  0.4093  0.2702
  898MPD2    C313210   1.182   1.369   0.293 -0.0806  0.6741 -0.1255
  898MPD2    C413211   1.064   1.377   0.220  0.0954 -0.2959 -0.4229
  898MPD2    C513212   1.007   1.259   0.170 -0.1586  0.5703 -0.1074
  898MPD2     H13213   1.317   1.236   0.376 -0.7462  0.2209  1.5221
  898MPD2    H113214   1.028   1.474   0.189  1.3789 -0.1759 -1.5903
  898MPD2    H213215   0.984   1.060   0.158 -0.0461 -0.4800  0.2470
  898MPD2    H313216   0.926   1.270   0.099  0.3159  0.3826 -0.6778
  898MPD2     N13217   1.250   1.477   0.357 -0.4063  0.5647  0.4660
  898MPD2    H513218   1.335   1.459   0.409 -1.4339  0.2591  2.0433
  898MPD2    N113219   1.210   1.010   0.345 -0.3080  0.0184 -0.3720
  898MPD2    H713220   1.300   1.025   0.389 -0.6958  0.3861  0.2895
  899MPD2     C13221   2.038   2.087  17.670 -0.9452 -0.0276  0.0601
  899MPD2    C113222   2.072   2.214  17.631  0.3838 -0.3219 -0.0499
  899MPD2    C213223   2.079   2.311  17.729  0.2204 -0.1641  0.6144
  899MPD2    C313224   2.060   2.281   0.118 -0.1072  0.5938  0.1825
  899MPD2    C413225   2.044   2.152   0.159  0.8772 -0.1688 -0.1027
  899MPD2    C513226   2.040   2.057   0.055 -0.1915 -0.1058 -0.0467
  899MPD2     H13227   2.106   2.415  17.710 -3.2365  0.4680 -0.9972
  899MPD2    H113228   2.058   2.115   0.259  0.0889  0.0568  0.0902
  899MPD2    H213229   2.029   2.006  17.598  0.0377  1.1861 -1.4373
  899MPD2    H313230   2.026   1.953   0.082 -1.4053 -0.1168 -0.7564
  899MPD2     N13231   2.075   2.383   0.214  0.4166  0.0853 -0.2519
  899MPD2    H513232   2.114   2.370   0.306  0.5098  0.6363 -0.2091
  899MPD2    N113233   2.099   2.233  17.491 -0.1284  0.5738  0.2520
  899MPD2    H713234   2.096   2.156  17.425 -0.4099  0.9232 -0.1443
  900MPD2     C13235   2.313   3.764  12.397  0.1862  0.1754 -0.6290
  900MPD2    C113236   2.255   3.647  12.366 -0.4104  0.0963 -0.3115
  900MPD2    C213237   2.141   3.650  12.297 -0.6215  0.1108 -0.4844
  900MPD2    C313238   2.063   3.763  12.275 -0.4291 -0.4435 -0.7986
  900MPD2    C413239   2.113   3.887  12.316  0.0048  0.7707  0.6142
  900MPD2    C513240   2.244   3.883  12.361 -0.3472 -0.1164  0.9110
  900MPD2     H13241   2.085   3.562  12.269  1.2162 -0.5587 -2.0331
  900MPD2    H113242   2.064   3.984  12.309 -1.5812 -0.0386  0.5581
  900MPD2    H213243   2.412   3.769  12.441 -0.3499  3.1259  0.2437
  900MPD2    H313244   2.296   3.972  12.394  1.8147 -1.3470  0.8233
  900MPD2     N13245   1.942   3.750  12.206 -0.0613  0.6893 -0.9682
  900MPD2    H513246   1.915   3.656  12.181  0.8127  0.1356  0.1683
  900MPD2    N113247   2.321   3.528  12.415 -0.1834 -0.1006  0.3910
  900MPD2    H713248   2.412   3.531  12.460  0.7648 -0.7903 -1.4897
  901MPD2     C13249   1.995   2.518  12.410  0.1838 -0.1239 -0.3734
  901MPD2    C113250   2.115   2.513  12.468 -0.0106  0.0923 -0.3805
  901MPD2    C213251   2.183   2.623  12.503 -0.2192  0.4672  0.1698
  901MPD2    C313252   2.123   2.748  12.482  0.0492 -0.0165  0.4842
  901MPD2    C413253   2.000   2.760  12.416 -0.2074  0.2484  0.1580
  901MPD2    C513254   1.944   2.644  12.378 -0.1800  0.0538 -0.0737
  901MPD2     H13255   2.271   2.612  12.565 -1.7264 -0.6823  2.1593
  901MPD2    H113256   1.954   2.854  12.389 -1.4247  0.0728  1.6364
  901MPD2    H213257   1.929   2.436  12.384 -1.4295  1.3062 -0.8212
  901MPD2    H313258   1.854   2.651  12.319 -0.2014 -2.9940 -0.4074
  901MPD2     N13259   2.203   2.854  12.526  0.3283 -0.5580 -0.9549
  901MPD2    H513260   2.279   2.837  12.591 -0.5877 -1.8350 -0.2008
  901MPD2    N113261   2.178   2.385  12.488  0.9903  0.3397  0.1403
  901MPD2    H713262   2.275   2.395  12.517  0.3765 -0.3570  2.4230
  902MPD2     C13263   1.107   1.270  13.197 -0.0422  0.7182  0.4284
  902MPD2    C113264   1.152   1.338  13.089 -0.2682  0.6868  0.2742
  902MPD2    C213265   1.185   1.264  12.967  0.2602  0.4725  0.7433
  902MPD2    C313266   1.141   1.140  12.947  0.7435  0.5802  0.3369
  902MPD2    C413267   1.070   1.088  13.051 -0.1676 -0.3241  0.2142
  902MPD2    C513268   1.060   1.146  13.171  0.4086 -0.1288 -0.0195
  902MPD2     H13269   1.237   1.310  12.883 -0.4570 -1.3478 -0.6829
  902MPD2    H113270   1.019   0.992  13.054  1.4355 -1.2364 -1.9920
  902MPD2    H213271   1.088   1.312  13.295  1.1121 -0.1635  1.0301
  902MPD2    H313272   0.998   1.088  13.238 -1.4115  1.9462  0.0953
  902MPD2     N13273   1.136   1.075  12.818 -0.0294  0.0387 -0.0192
  902MPD2    H513274   1.060   1.008  12.804 -0.5157  0.6475 -0.2716
  902MPD2    N113275   1.172   1.476  13.104  0.3890  0.5179  0.9009
  902MPD2    H713276   1.160   1.523  13.194 -2.5226  0.8705  0.3361
  903MPD2     C13277   0.967   1.349  12.002  0.1979 -0.0109  0.5425
  903MPD2    C113278   0.914   1.331  12.124  0.1445  0.0034  0.0401
  903MPD2    C213279   0.788   1.378  12.149  0.2916 -0.1454  0.8618
  903MPD2    C313280   0.707   1.429  12.039  0.5612 -0.5020  0.0843
  903MPD2    C413281   0.773   1.451  11.914  0.6802  0.2461 -0.0423
  903MPD2    C513282   0.900   1.408  11.897  0.2031 -0.0206 -0.4518
  903MPD2     H13283   0.748   1.362  12.249  3.2703  0.6490  2.1737
  903MPD2    H113284   0.735   1.499  11.825 -3.4092 -1.4911  0.7693
  903MPD2    H213285   1.066   1.313  11.976  0.4159 -0.5919  2.2183
  903MPD2    H313286   0.935   1.404  11.795  1.4962  2.2468 -0.0948
  903MPD2     N13287   0.571   1.465  12.060  0.4020  0.5373 -0.2156
  903MPD2    H513288   0.524   1.444  12.148  2.9845 -1.0945  0.7971
  903MPD2    N113289   0.990   1.251  12.215  0.1489  0.2153  0.2403
  903MPD2    H713290   1.068   1.209  12.165 -0.6276 -1.3621  0.3653
  904MPD2     C13291   1.226   0.184  13.795  0.1299  0.2299 -0.2638
  904MPD2    C113292   1.200   0.285  13.884  0.1834 -0.1173  1.0516
  904MPD2    C213293   1.292   0.297  13.988 -0.0786  0.1524  0.7275
  904MPD2    C313294   1.413   0.230  13.980 -0.1492 -0.0273  0.4594
  904MPD2    C413295   1.444   0.134  13.886 -0.3284 -0.1762 -0.4617
  904MPD2    C513296   1.340   0.110  13.799  0.0779 -0.0113 -0.0920
  904MPD2     H13297   1.272   0.373  14.063 -3.4011 -0.9869  1.0184
  904MPD2    H113298   1.529   0.067  13.892 -1.0889 -1.2560 -1.6175
  904MPD2    H213299   1.147   0.151  13.728 -0.5847 -0.8030  1.0812
  904MPD2    H313300   1.353   0.027  13.731  0.4500  0.6718 -0.8492
  904MPD2     N13301   1.502   0.261  14.086  0.9043 -0.4513 -0.1189
  904MPD2    H513302   1.479   0.334  14.153  0.5824 -2.3394  1.8479
  904MPD2    N113303   1.076   0.350  13.892 -0.4122 -0.2285 -1.0560
  904MPD2    H713304   1.067   0.407  13.975 -0.9675  0.1167 -1.3537
  905MPD2     C13305   0.422   0.593  13.411  0.4074  0.1639  0.8375
  905MPD2    C113306   0.528   0.507  13.441 -0.0126 -0.7282  1.0300
  905MPD2    C213307   0.602   0.459  13.339  0.0259 -0.1545 -0.6878
  905MPD2    C313308   0.590   0.502  13.209  0.0171 -0.0397 -0.0884
  905MPD2    C413309   0.485   0.583  13.179  0.0984 -0.3206 -1.3646
  905MPD2    C513310   0.403   0.633  13.280  0.7335  0.1736 -0.4360
  905MPD2     H13311   0.682   0.391  13.367 -1.8503 -0.7328  3.4170
  905MPD2    H113312   0.480   0.632  13.083  1.5804  1.5377 -0.5020
  905MPD2    H213313   0.354   0.613  13.493 -2.1681  0.5596 -1.4022
  905MPD2    H313314   0.311   0.686  13.259  2.0089  2.5073 -0.1796
  905MPD2     N13315   0.685   0.458  13.105 -0.0907  0.2645  0.5791
  905MPD2    H513316   0.703   0.530  13.035 -2.2884  1.0421  0.8052
  905MPD2    N113317   0.572   0.467  13.564  0.2996 -0.0829  0.7898
  905MPD2    H713318   0.647   0.400  13.579  0.7321  0.4700  1.1151
  906MPD2     C13319   3.299   1.179  11.563  0.2613  0.0515  0.2584
  906MPD2    C113320   3.225   1.072  11.508 -0.0511 -0.3115 -0.3265
  906MPD2    C213321   3.119   1.015  11.571 -0.4819 -0.0324  0.0806
  906MPD2    C313322   3.070   1.060  11.691 -0.1810  0.3602  0.1911
  906MPD2    C413323   3.141   1.162  11.746  0.3748  0.6427  0.3603
  906MPD2    C513324   3.254   1.220  11.686 -0.3447 -0.1806 -0.6619
  906MPD2     H13325   3.081   0.930  11.514  2.3636 -0.4037 -1.2550
  906MPD2    H113326   3.110   1.217  11.835  2.5977  2.6086 -0.0774
  906MPD2    H213327   3.384   1.234  11.524 -0.0700  0.5488  0.2313
  906MPD2    H313328   3.303   1.304  11.733 -0.0346 -0.0391 -1.2385
  906MPD2     N13329   2.963   0.999  11.761  0.0585 -0.6209 -0.2020
  906MPD2    H513330   2.944   1.022  11.857  2.0702  2.3457 -0.5226
  906MPD2    N113331   3.267   1.004  11.388  0.1490 -0.0085 -0.5810
  906MPD2    H713332   3.199   0.936  11.358 -0.1157 -0.8453  1.8787
  907MPD2     C13333   1.644   4.553  15.731  0.2191 -0.2796  0.6963
  907MPD2    C113334   1.708   4.432  15.699 -0.2983  0.3012  0.2480
  907MPD2    C213335   1.802   4.377  15.781 -0.2228  0.5024 -0.3480
  907MPD2    C313336   1.839   4.443  15.898 -0.3069 -0.5349  0.0401
  907MPD2    C413337   1.780   4.560  15.931  0.5334 -0.3221 -0.2347
  907MPD2    C513338   1.680   4.616  15.846 -0.0737 -0.2224  0.1539
  907MPD2     H13339   1.840   4.279  15.754 -0.1724  0.7467 -1.1596
  907MPD2    H113340   1.805   4.616  16.021 -3.2515  1.5263 -0.3130
  907MPD2    H213341   1.563   4.592  15.671  0.0792 -1.6526 -0.0161
  907MPD2    H313342   1.635   4.707  15.884 -0.4095 -0.3006 -0.0561
  907MPD2     N13343   1.945   4.391  15.980  0.5337  0.4153 -0.1298
  907MPD2    H513344   1.958   4.430  16.073 -0.9543  2.0013 -0.5888
  907MPD2    N113345   1.673   4.360  15.576  0.4247 -0.6133  0.3718
  907MPD2    H713346   1.722   4.272  15.563 -0.6465 -1.3112  1.0529
  908MPD2     C13347   3.972   0.638   9.643 -0.0386  0.1320 -1.0350
  908MPD2    C113348   4.062   0.559   9.718  0.5339  0.7985 -1.2704
  908MPD2    C213349   4.171   0.631   9.773  0.4961 -0.2076 -0.2920
  908MPD2    C313350   4.204   0.760   9.752  0.0203  0.3649  0.8168
  908MPD2    C413351   4.110   0.832   9.674 -0.4005  0.1411 -0.4073
  908MPD2    C513352   3.995   0.774   9.628 -0.5118  0.2302 -0.3588
  908MPD2     H13353   4.242   0.590   9.844  0.7181 -0.0060 -0.3988
  908MPD2    H113354   4.118   0.940   9.661 -0.4993  0.0363 -1.3347
  908MPD2    H213355   3.887   0.596   9.591  0.0986 -0.7104 -0.5610
  908MPD2    H313356   3.928   0.842   9.576 -0.4227  0.2100 -0.4995
  908MPD2     N13357   4.314   0.814   9.822  0.4041 -0.6046 -0.1878
  908MPD2    H513358   4.373   0.744   9.865  0.0007 -0.9256 -0.1547
  908MPD2    N113359   4.047   0.418   9.729 -0.5519  0.2058  0.3964
  908MPD2    H713360   3.960   0.382   9.691 -0.1483  0.6013 -0.9029
  909MPD2     C13361   0.446   3.011  11.197  0.0920 -0.9861 -0.0747
  909MPD2    C113362   0.459   3.147  11.223  0.4553 -0.5495 -0.6289
  909MPD2    C213363   0.373   3.210  11.300  0.4147  0.0701 -0.8315
  909MPD2    C313364   0.272   3.147  11.371  0.0153  0.5969  0.1989
  909MPD2    C413365   0.269   3.006  11.351 -0.2981  0.2962 -0.2845
  909MPD2    C513366   0.357   2.948  11.263 -0.2466  0.6144  0.2795
  909MPD2     H13367   0.386   3.317  11.314  0.5347 -0.1264  0.5388
  909MPD2    H113368   0.195   2.944  11.400 -1.5461  1.1595 -1.0701
  909MPD2    H213369   0.511   2.955  11.131 -1.0467 -1.0415 -1.1513
  909MPD2    H313370   0.356   2.839  11.259  0.0608  0.6324 -0.3147
  909MPD2     N13371   0.192   3.225  11.455 -0.1300  0.2099 -0.2400
  909MPD2    H513372   0.226   3.311  11.497 -1.3012  0.2316  0.6592
  909MPD2    N113373   0.558   3.231  11.173 -0.6849  0.1773 -0.9536
  909MPD2    H713374   0.546   3.330  11.190  0.6613  0.4164 -1.3668
  910MPD2     C13375   1.691   0.340  16.380 -0.4460 -0.0773  0.8193
  910MPD2    C113376   1.639   0.227  16.322  0.0261 -0.7739  0.1336
  910MPD2    C213377   1.573   0.248  16.203  0.0854 -0.0990 -1.1264
  910MPD2    C313378   1.555   0.373  16.149 -0.0992 -0.2384 -0.1827
  910MPD2    C413379   1.605   0.482  16.210  0.3708  0.0250 -0.2998
  910MPD2    C513380   1.667   0.465  16.331  0.0588 -0.2626  0.4783
  910MPD2     H13381   1.527   0.159  16.161 -0.9855  0.0282 -0.2181
  910MPD2    H113382   1.581   0.582  16.177 -0.7133  0.2094  1.0762
  910MPD2    H213383   1.763   0.333  16.461  0.9450  2.5558 -0.1659
  910MPD2    H313384   1.713   0.550  16.380  0.9869 -0.6964  0.3639
  910MPD2     N13385   1.492   0.398  16.025  0.4921  0.1729 -0.2432
  910MPD2    H513386   1.460   0.489  15.994  0.7307  0.1206 -0.6465
  910MPD2    N113387   1.658   0.094  16.366  0.3202  0.0260 -0.0265
  910MPD2    H713388   1.628   0.017  16.308 -0.0111  0.3098 -0.2322
  911MPD2     C13389   4.179   0.704  16.101 -0.2390  0.3292  0.0214
  911MPD2    C113390   4.191   0.807  16.191 -0.3662 -0.2704  0.8038
  911MPD2    C213391   4.152   0.933  16.147 -0.1833 -0.4084  0.3481
  911MPD2    C313392   4.090   0.961  16.025 -0.4852  0.7415 -0.0901
  911MPD2    C413393   4.071   0.854  15.937  0.2990 -0.5217 -0.5041
  911MPD2    C513394   4.121   0.729  15.977 -0.3642 -0.0901  0.1977
  911MPD2     H13395   4.156   1.014  16.219 -1.2222 -0.1511  0.1281
  911MPD2    H113396   4.039   0.863  15.834  2.0563  1.2168 -0.8995
  911MPD2    H213397   4.208   0.601  16.117  1.3445  1.0484  1.6995
  911MPD2    H313398   4.118   0.649  15.904  1.5346  0.7871 -0.8517
  911MPD2     N13399   4.051   1.088  15.983 -0.1209  0.4622  0.8243
  911MPD2    H513400   3.999   1.094  15.896 -0.9165 -4.3799  0.9775
  911MPD2    N113401   4.265   0.775  16.305 -0.5732  0.3318 -0.0826
  911MPD2    H713402   4.283   0.677  16.321  0.9362  0.8733  1.5104
  912MPD2     C13403   3.951   0.938  15.496 -0.1240 -0.0272  0.4048
  912MPD2    C113404   3.879   0.992  15.600  0.4136 -0.0530  0.4045
  912MPD2    C213405   3.831   0.898  15.690 -0.1791  0.0427  0.1672
  912MPD2    C313406   3.848   0.754  15.681 -0.0185  0.2071 -0.6947
  912MPD2    C413407   3.912   0.709  15.570  0.7853 -0.5959 -0.2127
  912MPD2    C513408   3.966   0.798  15.477  0.4266  0.5412 -0.6170
  912MPD2     H13409   3.789   0.935  15.782  2.4267 -1.8834  2.1138
  912MPD2    H113410   3.923   0.603  15.549  0.1653 -0.6510 -0.2574
  912MPD2    H213411   4.001   1.000  15.422 -2.0263 -0.2722 -1.0708
  912MPD2    H313412   4.029   0.766  15.395  1.4099 -0.1218  0.3937
  912MPD2     N13413   3.817   0.674  15.789 -0.2868  0.2540 -0.5885
  912MPD2    H513414   3.771   0.724  15.864  0.1786 -0.9224  0.4960
  912MPD2    N113415   3.874   1.135  15.627  0.4832  0.2713 -0.3397
  912MPD2    H713416   3.944   1.188  15.576  0.7390 -1.6206 -1.9534
  913MPD2     C13417   4.301   1.633  11.312  0.6094 -0.1391  0.5830
  913MPD2    C113418   4.285   1.554  11.196  0.8155 -0.1416  0.2207
  913MPD2    C213419   4.299   1.609  11.065 -0.2977 -0.3886  0.2114
  913MPD2    C313420   4.318   1.744  11.053  0.0480  0.2182 -0.1950
  913MPD2    C413421   4.331   1.821  11.168 -0.2199 -0.1116 -0.4220
  913MPD2    C513422   4.322   1.766  11.293  0.5514 -0.5918  0.1317
  913MPD2     H13423   4.288   1.546  10.978  0.3033 -0.6013  0.2904
  913MPD2    H113424   4.334   1.930  11.168 -0.2924 -0.1162  1.5530
  913MPD2    H213425   4.292   1.576  11.404 -0.2424 -1.7309 -0.4829
  913MPD2    H313426   4.312   1.842  11.369 -1.7843 -2.3146  1.5376
  913MPD2     N13427   4.302   1.826  10.938 -0.0449 -0.0505  0.1663
  913MPD2    H513428   4.328   1.924  10.944 -0.6774  0.2704 -2.3947
  913MPD2    N113429   4.262   1.417  11.218 -0.0906 -0.2681  0.0328
  913MPD2    H713430   4.240   1.391  11.314 -1.0381 -0.3621 -0.2037
  914MPD2     C13431   2.756   2.620  12.407  0.2014  0.3164 -0.6969
  914MPD2    C113432   2.634   2.610  12.345 -0.6248 -0.3731  0.2323
  914MPD2    C213433   2.588   2.487  12.313 -0.5033  0.1171 -0.0013
  914MPD2    C313434   2.636   2.374  12.368 -0.0119  0.0695  0.7065
  914MPD2    C413435   2.753   2.384  12.443 -0.6176  0.2214  0.2598
  914MPD2    C513436   2.809   2.508  12.466 -0.2207 -0.4965  0.5005
  914MPD2     H13437   2.496   2.487  12.255  0.2317  0.3972 -1.1874
  914MPD2    H113438   2.801   2.293  12.476  2.6063  1.7287 -0.2488
  914MPD2    H213439   2.793   2.721  12.419  0.1156  0.2414  0.1999
  914MPD2    H313440   2.903   2.507  12.519 -0.5218 -0.8692  1.0261
  914MPD2     N13441   2.565   2.245  12.361  0.0497  0.1007 -0.8623
  914MPD2    H513442   2.486   2.241  12.297 -1.1383 -1.2866  0.6687
  914MPD2    N113443   2.578   2.735  12.302  0.0568  0.4107  0.1129
  914MPD2    H713444   2.629   2.822  12.312 -2.5647  1.9379  0.2253
  915MPD2     C13445   0.234   2.755  15.264 -0.4603 -0.0338 -0.6283
  915MPD2    C113446   0.232   2.621  15.293  0.3236  0.2481 -0.3835
  915MPD2    C213447   0.194   2.582  15.423 -0.5218 -0.4037 -0.2250
  915MPD2    C313448   0.173   2.678  15.520 -0.3373  0.0228  1.1257
  915MPD2    C413449   0.177   2.811  15.481  0.5408 -0.6882  0.4757
  915MPD2    C513450   0.209   2.855  15.355  0.0687  0.3948 -0.4495
  915MPD2     H13451   0.184   2.480  15.458 -0.4475 -0.3691 -0.1014
  915MPD2    H113452   0.167   2.888  15.557 -0.2026  1.7182 -2.0451
  915MPD2    H213453   0.249   2.785  15.161 -3.5598 -2.1304 -1.6841
  915MPD2    H313454   0.218   2.958  15.323  0.8771 -0.2541 -2.3435
  915MPD2     N13455   0.123   2.652  15.650 -0.1181  0.2214 -0.4943
  915MPD2    H513456   0.102   2.739  15.697 -1.1995  1.0279 -2.4515
  915MPD2    N113457   0.242   2.536  15.190 -0.0046 -0.2666  0.0623
  915MPD2    H713458   0.256   2.577  15.098 -0.8488  0.8465  0.4337
  916MPD2     C13459   3.364   0.445  16.014  0.0958 -0.1202  0.3956
  916MPD2    C113460   3.303   0.317  16.026 -0.6899 -0.0738  0.3558
  916MPD2    C213461   3.341   0.203  15.957 -0.0733  0.1374 -0.0650
  916MPD2    C313462   3.429   0.222  15.848 -0.0385 -0.6011  0.0622
  916MPD2    C413463   3.481   0.351  15.830  0.0452 -0.2606 -0.0624
  916MPD2    C513464   3.451   0.459  15.913 -1.0707 -0.9617  0.6252
  916MPD2     H13465   3.288   0.109  15.968  1.2243 -0.5874 -0.0616
  916MPD2    H113466   3.533   0.384  15.740 -0.7910 -0.7361 -0.7269
  916MPD2    H213467   3.350   0.527  16.083  2.8496  0.0364  0.7683
  916MPD2    H313468   3.492   0.559  15.902 -0.4118 -1.2732  0.2187
  916MPD2     N13469   3.455   0.108  15.766  0.3504  0.0297 -0.4096
  916MPD2    H513470   3.421   0.021  15.807  0.7915  0.3827  0.7141
  916MPD2    N113471   3.208   0.305  16.128 -0.1825  0.0479  0.1244
  916MPD2    H713472   3.187   0.392  16.176 -0.1196  0.2098 -0.1413
  917MPD2     C13473   3.071   2.483  11.123  0.2936 -0.3441  0.0461
  917MPD2    C113474   3.153   2.570  11.179  0.4326 -0.7764 -0.2402
  917MPD2    C213475   3.197   2.679  11.104 -0.3707  0.5571 -0.6591
  917MPD2    C313476   3.167   2.698  10.970 -0.8009 -0.1980 -0.2698
  917MPD2    C413477   3.077   2.607  10.910 -0.1445  0.2324 -0.4067
  917MPD2    C513478   3.026   2.502  10.990 -0.0696 -0.3889  0.5545
  917MPD2     H13479   3.269   2.745  11.151 -0.3315 -0.5133  0.7840
  917MPD2    H113480   3.061   2.604  10.803 -1.1504 -1.0892 -0.2166
  917MPD2    H213481   3.028   2.402  11.180  2.1374 -0.1726  1.6801
  917MPD2    H313482   2.955   2.437  10.941 -0.7215 -0.3528  1.4490
  917MPD2     N13483   3.211   2.811  10.899  0.4296 -0.3218  0.1443
  917MPD2    H513484   3.209   2.805  10.798 -0.9473 -1.8518  0.2630
  917MPD2    N113485   3.176   2.557  11.320 -0.1062  0.3076 -0.1309
  917MPD2    H713486   3.170   2.463  11.358  1.1159  0.1720 -0.2765
  918MPD2     C13487   3.436   3.261  11.970 -0.0209  0.3586 -0.1188
  918MPD2    C113488   3.548   3.196  11.932 -0.1357  0.8387  0.3923
  918MPD2    C213489   3.531   3.075  11.859 -0.1551 -0.0942 -0.0961
  918MPD2    C313490   3.406   3.017  11.860  0.2195 -0.0189 -0.4567
  918MPD2    C413491   3.296   3.089  11.905 -0.5456 -0.2465  0.4362
  918MPD2    C513492   3.315   3.203  11.968  0.2400  0.2146  0.3162
  918MPD2     H13493   3.616   3.013  11.832 -0.2013 -0.5337  0.7838
  918MPD2    H113494   3.195   3.052  11.886 -0.9710  2.4349 -2.5971
  918MPD2    H213495   3.453   3.355  12.021 -0.0150  1.0393 -1.3713
  918MPD2    H313496   3.229   3.258  12.006  1.9530  1.3206  2.6323
  918MPD2     N13497   3.387   2.890  11.796  0.1466  0.0277  0.6833
  918MPD2    H513498   3.461   2.851  11.738 -0.6478 -1.2067  0.5116
  918MPD2    N113499   3.683   3.247  11.944 -0.6835 -0.5487  0.5357
  918MPD2    H713500   3.760   3.186  11.920  0.0520  0.5846  0.0119
  919MPD2     C13501   4.238   1.963  11.755 -0.1836 -0.6654 -0.7760
  919MPD2    C113502   4.188   1.834  11.748 -0.4078 -0.6725  0.7864
  919MPD2    C213503   4.125   1.792  11.634  0.2605 -0.0341  0.0817
  919MPD2    C313504   4.087   1.881  11.538  0.7325  1.0413 -0.1920
  919MPD2    C413505   4.142   2.005  11.543 -0.1509 -0.1401 -0.6920
  919MPD2    C513506   4.225   2.035  11.644 -1.0758 -0.0275 -0.4175
  919MPD2     H13507   4.105   1.686  11.621  1.0328 -0.1821  0.1296
  919MPD2    H113508   4.128   2.078  11.464 -0.2435 -0.1513 -0.6861
  919MPD2    H213509   4.302   1.994  11.837  0.0006  1.4841 -1.7400
  919MPD2    H313510   4.276   2.130  11.638 -0.2636 -0.5396 -1.6126
  919MPD2     N13511   4.027   1.842  11.413  0.0539 -0.0313 -0.1858
  919MPD2    H513512   4.029   1.911  11.338 -1.1100  1.2814  0.9835
  919MPD2    N113513   4.207   1.744  11.853 -0.2555  0.1448  0.3024
  919MPD2    H713514   4.174   1.648  11.841  1.1137 -0.2913 -0.0114
  920MPD2     C13515   3.511   2.042  10.639 -0.6407 -0.3170  0.0241
  920MPD2    C113516   3.501   1.904  10.653  0.2572 -0.2941  0.1743
  920MPD2    C213517   3.607   1.834  10.712 -1.1074 -0.0812 -0.6234
  920MPD2    C313518   3.715   1.906  10.765 -0.2902  0.6292  0.3075
  920MPD2    C413519   3.727   2.043  10.747 -0.4162  0.2561 -0.5700
  920MPD2    C513520   3.627   2.107  10.678  0.1648 -0.2101  0.2698
  920MPD2     H13521   3.613   1.727  10.731  0.9259  0.1466  0.0276
  920MPD2    H113522   3.816   2.096  10.780  1.3748 -0.6340 -3.8707
  920MPD2    H213523   3.434   2.100  10.589 -2.7426 -1.5102  1.8367
  920MPD2    H313524   3.633   2.215  10.671  0.0839 -0.2419 -0.2880
  920MPD2     N13525   3.798   1.832  10.852  0.0814  0.4599  0.4031
  920MPD2    H513526   3.789   1.731  10.862  1.8894  0.2272 -0.2055
  920MPD2    N113527   3.395   1.828  10.602 -0.3973 -0.4927 -0.4702
  920MPD2    H713528   3.407   1.728  10.597 -0.4172 -0.3638 -2.7566
  921MPD2     C13529   0.178   1.230  16.858  0.6725 -0.6138 -0.2575
  921MPD2    C113530   0.222   1.122  16.793 -0.1655  0.5169  0.4326
  921MPD2    C213531   0.120   1.029  16.772 -0.1068  0.5604  0.2129
  921MPD2    C313532   4.722   1.048  16.795 -0.5782  0.4961  0.1682
  921MPD2    C413533   4.687   1.166  16.851  0.4910  0.1793 -0.6133
  921MPD2    C513534   0.047   1.256  16.890  0.2627 -0.1315  0.4846
  921MPD2     H13535   0.144   0.933  16.727 -0.6596 -0.5208  2.2525
  921MPD2    H113536   4.585   1.197  16.871  0.4135  0.3489 -1.2768
  921MPD2    H213537   0.250   1.310  16.871 -1.5424  1.3046  0.1235
  921MPD2    H313538   0.025   1.352  16.937 -1.0408 -0.4214  0.4417
  921MPD2     N13539   4.614   0.956  16.758  0.1265  0.1691 -0.6728
  921MPD2    H513540   4.519   0.991  16.767 -0.0074 -0.3847  0.0343
  921MPD2    N113541   0.356   1.114  16.766 -0.4020 -0.1119 -0.8934
  921MPD2    H713542   0.424   1.187  16.786 -1.1044  0.5753 -1.0076
  922MPD2     C13543   0.796   3.968  17.395  0.4264 -0.8070 -0.0063
  922MPD2    C113544   0.714   3.979  17.506 -0.1298 -0.0698 -0.3129
  922MPD2    C213545   0.647   3.867  17.553 -0.1068  0.4730  0.4681
  922MPD2    C313546   0.667   3.740  17.491 -0.2527 -0.4883  0.5030
  922MPD2    C413547   0.762   3.728  17.388 -0.0764  0.3853  0.5156
  922MPD2    C513548   0.823   3.839  17.340  0.1126 -0.6307  0.1785
  922MPD2     H13549   0.585   3.871  17.642 -0.6215  2.2826  0.0300
  922MPD2    H113550   0.792   3.634  17.344 -2.8372 -0.1904 -0.1155
  922MPD2    H213551   0.852   4.044  17.341  1.9416 -0.7805  1.5868
  922MPD2    H313552   0.888   3.830  17.253 -0.2845  0.1546 -0.2044
  922MPD2     N13553   0.592   3.635  17.541 -0.3851  0.6028  0.1726
  922MPD2    H513554   0.521   3.652  17.612  0.1689  0.4932  0.7559
  922MPD2    N113555   0.699   4.103  17.570 -0.1888 -0.5949 -0.1431
  922MPD2    H713556   0.635   4.104  17.649  2.0737 -2.3172  1.7045
  923MPD2     C13557   1.679   0.717   8.948 -0.4866  0.6337 -0.0294
  923MPD2    C113558   1.712   0.827   9.024 -0.0570 -0.8209  0.4401
  923MPD2    C213559   1.778   0.801   9.146 -0.7358 -0.2847 -0.7535
  923MPD2    C313560   1.806   0.668   9.189  1.0390 -0.1777  0.7833
  923MPD2    C413561   1.765   0.563   9.108  1.0407  0.3706  0.1926
  923MPD2    C513562   1.703   0.587   8.985 -0.3845  0.5013 -0.4105
  923MPD2     H13563   1.806   0.880   9.215  0.9693 -2.4157  0.9836
  923MPD2    H113564   1.790   0.460   9.127 -0.0473  0.4829  2.2191
  923MPD2    H213565   1.622   0.721   8.856 -4.3699 -2.3195  2.2303
  923MPD2    H313566   1.683   0.501   8.921 -0.4509 -0.3719  0.7824
  923MPD2     N13567   1.858   0.635   9.317 -0.0681 -0.7838  0.3388
  923MPD2    H513568   1.852   0.538   9.346 -0.5891 -1.0844 -0.7718
  923MPD2    N113569   1.668   0.952   8.976  0.3246 -0.3839 -0.1736
  923MPD2    H713570   1.608   0.943   8.895 -1.5134  0.8664  1.0542
  924MPD2     C13571   2.201   3.503  16.025  0.3150 -0.0805  0.5116
  924MPD2    C113572   2.224   3.556  16.150 -0.3105 -0.9547 -0.4190
  924MPD2    C213573   2.245   3.690  16.154 -0.3366 -0.0457  0.3258
  924MPD2    C313574   2.267   3.765  16.039 -0.0515  0.3934 -0.5543
  924MPD2    C413575   2.259   3.705  15.918 -0.0278  0.0314 -0.1737
  924MPD2    C513576   2.228   3.572  15.913  0.1208 -0.0197 -0.3794
  924MPD2     H13577   2.250   3.744  16.247 -0.9400 -1.1518  1.0052
  924MPD2    H113578   2.275   3.758  15.825  1.0819  0.4077  0.2309
  924MPD2    H213579   2.185   3.397  16.009  0.6847  0.0295 -0.5658
  924MPD2    H313580   2.209   3.527  15.816 -3.2294 -2.4484  1.4093
  924MPD2     N13581   2.298   3.909  16.043 -0.2366 -0.1617 -0.7345
  924MPD2    H513582   2.300   3.954  15.952  2.1349  0.6640 -0.2732
  924MPD2    N113583   2.203   3.485  16.274 -0.1005 -0.1123  0.1691
  924MPD2    H713584   2.211   3.544  16.356  1.2665  0.7117 -0.5661
  925MPD2     C13585   1.018   1.246  14.655 -0.4087  0.0062 -0.6951
  925MPD2    C113586   0.967   1.368  14.681 -0.0093  0.0629 -0.6729
  925MPD2    C213587   0.965   1.409  14.812 -0.2600 -0.0307  0.4451
  925MPD2    C313588   1.021   1.330  14.911 -0.8015 -0.6334 -0.7261
  925MPD2    C413589   1.057   1.198  14.887  0.4308  0.7135 -0.1352
  925MPD2    C513590   1.046   1.157  14.759  0.3646 -0.0331  0.6590
  925MPD2     H13591   0.937   1.512  14.829  0.6353  0.3280 -0.2201
  925MPD2    H113592   1.097   1.136  14.966  1.2239  2.5621  0.9015
  925MPD2    H213593   1.022   1.209  14.553 -3.5291  0.0708 -0.8376
  925MPD2    H313594   1.074   1.059  14.722  0.7072  0.1323  0.4829
  925MPD2     N13595   1.030   1.374  15.046 -0.5634 -0.0879 -0.0454
  925MPD2    H513596   1.068   1.315  15.119 -1.9433 -0.6391  0.2208
  925MPD2    N113597   0.924   1.459  14.581  0.4419 -0.2949  0.3201
  925MPD2    H713598   0.899   1.552  14.615 -2.5761 -1.4253  1.1737
  926MPD2     C13599   0.225   0.136  13.417 -0.1492 -0.1998  0.1811
  926MPD2    C113600   0.111   0.163  13.345  0.4367  0.1720  0.6883
  926MPD2    C213601   0.121   0.220  13.222 -0.4516  0.7318  0.5079
  926MPD2    C313602   0.241   0.241  13.159  0.1465  0.1169  0.0948
  926MPD2    C413603   0.354   0.217  13.237 -1.0769 -0.2635 -0.7271
  926MPD2    C513604   0.344   0.169  13.359 -0.6982 -0.6847  0.1191
  926MPD2     H13605   0.027   0.247  13.176 -0.4082 -1.0737 -0.6193
  926MPD2    H113606   0.452   0.226  13.192 -1.4385  1.1352 -1.2357
  926MPD2    H213607   0.229   0.099  13.518 -3.0031 -1.9985 -0.3706
  926MPD2    H313608   0.436   0.137  13.407 -0.6771 -0.9881 -0.1218
  926MPD2     N13609   0.253   0.303  13.032  0.3465  0.3077  0.2013
  926MPD2    H513610   0.339   0.345  13.000  0.5003  0.8056  1.2802
  926MPD2    N113611   4.718   0.151  13.397  0.0446 -0.2123 -0.7795
  926MPD2    H713612   4.639   0.177  13.339 -2.4344 -1.6827  2.0037
  927MPD2     C13613   3.895   2.302  17.507 -0.7913 -0.3850 -0.4234
  927MPD2    C113614   3.849   2.170  17.485 -0.4656 -0.7677 -0.5547
  927MPD2    C213615   3.905   2.103  17.369  0.0427  0.7878 -0.6218
  927MPD2    C313616   4.001   2.170  17.293 -0.1862 -1.0073  0.0297
  927MPD2    C413617   4.041   2.298  17.329  0.4214 -0.0519 -0.0997
  927MPD2    C513618   3.987   2.368  17.434 -0.2438  1.3064 -0.5556
  927MPD2     H13619   3.860   2.007  17.350  1.6180 -0.4750  1.9742
  927MPD2    H113620   4.116   2.353  17.272  1.2152 -0.8650  0.1693
  927MPD2    H213621   3.845   2.365  17.580  1.5242 -0.4766  1.2369
  927MPD2    H313622   4.012   2.473  17.448  2.6917  0.7774 -1.7335
  927MPD2     N13623   4.060   2.090  17.190  0.1506  0.1741  0.5162
  927MPD2    H513624   4.030   1.995  17.173  1.4876 -0.0450 -0.6260
  927MPD2    N113625   3.761   2.102  17.579  0.1410 -0.0802 -0.2942
  927MPD2    H713626   3.724   2.160  17.653  0.3838 -2.2722  1.5795
  928MPD2     C13627   2.144   0.304   1.086  0.2311 -0.0617  0.3279
  928MPD2    C113628   2.188   0.432   1.060 -0.8025 -0.2716 -0.1333
  928MPD2    C213629   2.204   0.475   0.927  0.5438 -0.1933 -0.0456
  928MPD2    C313630   2.188   0.386   0.821 -0.5678 -0.3143  0.2305
  928MPD2    C413631   2.156   0.253   0.850  0.1176 -0.2499  0.0593
  928MPD2    C513632   2.130   0.218   0.980 -0.2890  0.2630 -0.0112
  928MPD2     H13633   2.237   0.578   0.920  0.0398  0.0563  1.1246
  928MPD2    H113634   2.149   0.180   0.770  1.4155 -0.8770  0.5218
  928MPD2    H213635   2.112   0.272   1.184 -0.2666  0.5341  0.3555
  928MPD2    H313636   2.092   0.117   0.987 -0.7279  0.1583 -3.7805
  928MPD2     N13637   2.215   0.423   0.683 -0.1755  0.2736 -0.6555
  928MPD2    H513638   2.185   0.355   0.613 -0.6582 -0.4417  0.2521
  928MPD2    N113639   2.186   0.520   1.174  0.2148 -0.0319 -0.5073
  928MPD2    H713640   2.189   0.475   1.265 -0.5105 -0.7194 -0.8282
  929MPD2     C13641   1.659   1.101   9.580 -0.1867 -0.6585 -0.0551
  929MPD2    C113642   1.657   0.991   9.657  0.5547 -0.6214  0.1108
  929MPD2    C213643   1.636   0.863   9.609 -0.1591 -0.0499  0.2889
  929MPD2    C313644   1.582   0.849   9.484 -0.6426  0.6185  0.1593
  929MPD2    C413645   1.586   0.961   9.401  0.5337 -0.1366  0.0540
  929MPD2    C513646   1.628   1.081   9.446 -0.1295  0.0556 -0.3809
  929MPD2     H13647   1.630   0.775   9.671 -3.5996 -0.0309 -0.0059
  929MPD2    H113648   1.558   0.942   9.298 -1.0427 -0.9160  0.6166
  929MPD2    H213649   1.678   1.199   9.620 -2.7079 -0.9887  1.9823
  929MPD2    H313650   1.607   1.171   9.390  3.0744  1.2801  0.4007
  929MPD2     N13651   1.539   0.726   9.429 -0.0486  0.7283 -0.8077
  929MPD2    H513652   1.553   0.720   9.328  0.3009  1.7345 -0.8249
  929MPD2    N113653   1.646   1.009   9.798  0.2956  0.0958 -0.2125
  929MPD2    H713654   1.630   1.102   9.837  0.3859 -0.6835  1.6791
  930MPD2     C13655   3.669   2.678  14.011  0.4537 -0.7778  0.1226
  930MPD2    C113656   3.808   2.679  14.023  0.2342  0.7200  0.3192
  930MPD2    C213657   3.887   2.693  13.913  0.2479  0.4303 -0.4600
  930MPD2    C313658   3.827   2.681  13.791 -0.5983 -0.0564  0.7400
  930MPD2    C413659   3.688   2.676  13.779 -0.0790  0.7659  0.0620
  930MPD2    C513660   3.609   2.663  13.893  0.1304 -0.1571 -0.7437
  930MPD2     H13661   3.993   2.717  13.914  0.3034  0.1211  0.3913
  930MPD2    H113662   3.648   2.682  13.679  2.8423  0.0417 -1.1586
  930MPD2    H213663   3.603   2.678  14.097 -1.9462 -0.6660 -1.7077
  930MPD2    H313664   3.501   2.661  13.878 -0.1197 -0.6015  1.0447
  930MPD2     N13665   3.899   2.703  13.671 -0.3813  0.2504 -0.2741
  930MPD2    H513666   3.851   2.693  13.582  0.2426 -3.6813 -0.1661
  930MPD2    N113667   3.869   2.701  14.153  0.0993 -0.2134 -0.7271
  930MPD2    H713668   3.801   2.726  14.224 -1.0454 -0.7906 -1.6080
  931MPD2     C13669   3.765   1.334  17.737  0.1391 -0.0547  0.0276
  931MPD2    C113670   3.689   1.400   0.081 -0.2695 -0.1104  0.0575
  931MPD2    C213671   3.641   1.321   0.189 -0.2898  0.6852 -0.9019
  931MPD2    C313672   3.700   1.203   0.228  0.7928  0.7710  0.1193
  931MPD2    C413673   3.797   1.152   0.142  0.7963  0.1319 -0.3105
  931MPD2    C513674   3.814   1.213   0.020 -1.0990 -0.8370 -0.7374
  931MPD2     H13675   3.574   1.358   0.266  0.0651  0.0266 -0.2812
  931MPD2    H113676   3.855   1.066   0.174 -0.0894 -0.8689 -1.3558
  931MPD2    H213677   3.783   1.381  17.642 -0.4934  0.5507  0.2050
  931MPD2    H313678   3.887   1.179  17.693 -0.6465  2.0915 -1.6818
  931MPD2     N13679   3.672   1.124   0.338 -0.4995 -0.0766 -0.3460
  931MPD2    H513680   3.724   1.037   0.344 -1.1192 -0.3060  1.7364
  931MPD2    N113681   3.640   1.528   0.053 -0.4633 -0.8655 -0.2984
  931MPD2    H713682   3.672   1.552  17.705 -0.0546  2.8334  0.8049
  932MPD2     C13683   0.676   1.080  11.160  0.5279 -0.2090  0.5875
  932MPD2    C113684   0.779   1.143  11.222 -0.0919  0.8757 -0.6300
  932MPD2    C213685   0.895   1.080  11.266 -1.0802  0.3226  0.4724
  932MPD2    C313686   0.909   0.945  11.227 -0.1543 -0.3205 -0.2806
  932MPD2    C413687   0.801   0.882  11.157 -0.8821 -0.0120 -0.3990
  932MPD2    C513688   0.692   0.953  11.128 -0.0698  0.0276  0.2188
  932MPD2     H13689   0.963   1.141  11.325 -0.8041  0.2562  0.2226
  932MPD2    H113690   0.799   0.775  11.143 -0.9592 -0.1931  1.0202
  932MPD2    H213691   0.581   1.129  11.140  1.3955  1.0661 -0.4626
  932MPD2    H313692   0.611   0.892  11.091  0.0808  1.2940 -2.2171
  932MPD2     N13693   1.018   0.874  11.289  0.5686 -0.3301  0.3104
  932MPD2    H513694   1.065   0.922  11.365  0.1173  1.6233 -0.6590
  932MPD2    N113695   0.784   1.284  11.235  0.6493 -0.2057  0.1047
  932MPD2    H713696   0.865   1.316  11.288  0.0323  1.4512  0.0701
  933MPD2     C13697   2.235   1.232   1.768  0.4956  0.2482 -0.9850
  933MPD2    C113698   2.187   1.208   1.638 -0.2691 -0.2728 -0.0719
  933MPD2    C213699   2.102   1.301   1.584 -0.3596 -0.3918  0.4000
  933MPD2    C313700   2.063   1.410   1.660  0.2774  0.0261 -0.5707
  933MPD2    C413701   2.108   1.433   1.787 -0.1343 -0.7757 -0.5345
  933MPD2    C513702   2.190   1.342   1.842 -0.3017  0.2844 -0.1187
  933MPD2     H13703   2.053   1.279   1.490 -0.7151 -0.8507  0.6906
  933MPD2    H113704   2.084   1.521   1.846  0.7786 -0.6908 -0.2958
  933MPD2    H213705   2.314   1.166   1.801  0.9610  1.5277  0.4901
  933MPD2    H313706   2.223   1.364   1.942  0.5306  0.9050 -0.5304
  933MPD2     N13707   1.973   1.498   1.597 -0.6170 -0.3249  0.6612
  933MPD2    H513708   1.951   1.475   1.501 -1.5007  0.9861  0.5509
  933MPD2    N113709   2.220   1.085   1.574 -0.4995 -0.7965 -0.8925
  933MPD2    H713710   2.273   1.021   1.632 -1.7925 -0.2182  0.8910
  934MPD2     C13711   3.542   3.369   1.572  0.1639  0.4710 -0.3017
  934MPD2    C113712   3.598   3.323   1.451 -0.2032  0.6042 -0.3122
  934MPD2    C213713   3.523   3.243   1.369 -0.3962  0.1870  0.1400
  934MPD2    C313714   3.392   3.216   1.399 -0.3560  0.0853 -0.2721
  934MPD2    C413715   3.331   3.281   1.505  0.0715 -0.4269 -0.7623
  934MPD2    C513716   3.407   3.355   1.589 -0.1776 -0.0993  0.1152
  934MPD2     H13717   3.552   3.223   1.266 -0.6053  0.4479  0.0306
  934MPD2    H113718   3.227   3.267   1.531  0.1407  1.3320  0.4569
  934MPD2    H213719   3.592   3.439   1.638 -0.6041 -0.1820  0.9622
  934MPD2    H313720   3.367   3.399   1.680  0.6997 -0.8338  0.8466
  934MPD2     N13721   3.313   3.128   1.324  0.4107 -0.2518  0.3811
  934MPD2    H513722   3.218   3.106   1.352  0.2184  0.5402  0.3685
  934MPD2    N113723   3.736   3.347   1.410  0.7447  0.0965  0.1946
  934MPD2    H713724   3.765   3.321   1.316  0.5030 -0.3414  0.2427
  935MPD2     C13725   3.494   2.349   0.728  0.1550 -0.2372 -0.4256
  935MPD2    C113726   3.365   2.335   0.775  0.4899  0.4734 -0.1419
  935MPD2    C213727   3.305   2.422   0.855  0.3860  0.0122  0.0817
  935MPD2    C313728   3.389   2.521   0.900  0.8153 -0.0219 -0.3524
  935MPD2    C413729   3.519   2.540   0.850 -0.3997 -0.6755  0.0544
  935MPD2    C513730   3.563   2.462   0.750  0.4343  0.4939 -0.1753
  935MPD2     H13731   3.209   2.396   0.899 -0.3436  2.3226 -0.1687
  935MPD2    H113732   3.581   2.627   0.866 -3.6721  1.1541  2.7428
  935MPD2    H213733   3.526   2.289   0.644 -0.4318 -1.4249  0.2044
  935MPD2    H313734   3.654   2.493   0.699 -0.8404  1.4255 -1.8579
  935MPD2     N13735   3.334   2.621   0.979  0.4845  0.0885  0.2842
  935MPD2    H513736   3.399   2.672   1.038 -1.3269  1.4650  1.0907
  935MPD2    N113737   3.285   2.219   0.735  0.5005 -0.4421 -0.1352
  935MPD2    H713738   3.195   2.212   0.781  0.8304 -1.9022  0.2620
  936MPD2     C13739   1.782   4.177  12.672 -0.1574 -0.2614  0.1462
  936MPD2    C113740   1.870   4.218  12.772 -0.5883 -0.3898  0.9954
  936MPD2    C213741   1.934   4.337  12.760  0.0973  0.2133  0.0049
  936MPD2    C313742   1.895   4.429  12.667 -0.3175  0.1748  0.2237
  936MPD2    C413743   1.810   4.386  12.563  0.6104 -0.4113 -0.7983
  936MPD2    C513744   1.767   4.253  12.566  0.1858 -0.5030 -0.1468
  936MPD2     H13745   1.999   4.372  12.839  0.5227  1.1213 -0.7532
  936MPD2    H113746   1.767   4.452  12.489 -0.9307  0.6402  1.0246
  936MPD2    H213747   1.748   4.074  12.667 -2.2548  0.4251  0.3398
  936MPD2    H313748   1.703   4.223  12.484 -0.5159 -0.6531  0.4529
  936MPD2     N13749   1.949   4.560  12.678  0.3663  0.1783 -0.5857
  936MPD2    H513750   2.001   4.581  12.763  0.6181 -2.1951 -0.1487
  936MPD2    N113751   1.907   4.134  12.876 -1.4093 -0.1326  0.0112
  936MPD2    H713752   1.964   4.180  12.947 -0.3753  1.0413 -1.5630
  937MPD2     C13753   4.450   1.117  11.689  0.2452  0.0310  0.5374
  937MPD2    C113754   4.476   1.255  11.704 -0.2300 -0.5444  0.2195
  937MPD2    C213755   4.515   1.320  11.588 -0.4803 -0.3503  0.0679
  937MPD2    C313756   4.550   1.251  11.474  0.7019 -0.4608  0.0321
  937MPD2    C413757   4.527   1.117  11.468  0.3206 -0.0158 -0.4380
  937MPD2    C513758   4.482   1.050  11.580  0.1129 -0.4402 -0.3711
  937MPD2     H13759   4.521   1.428  11.588  1.5220 -0.4668 -0.0630
  937MPD2    H113760   4.529   1.061  11.375 -2.7235 -0.4635 -0.2544
  937MPD2    H213761   4.408   1.065  11.774 -1.1169 -1.2068 -0.9100
  937MPD2    H313762   4.455   0.945  11.571 -3.1898  0.4876 -1.0552
  937MPD2     N13763   4.588   1.322  11.359  0.6654  0.1216  0.2042
  937MPD2    H513764   4.604   1.422  11.368  2.3652 -0.2216  1.1484
  937MPD2    N113765   4.413   1.335  11.806  0.3213  0.0969 -0.1567
  937MPD2    H713766   4.412   1.434  11.785  2.3538 -0.4096 -2.6699
  938MPD2     C13767   2.021   2.435   0.665 -1.0997  0.2509  0.0521
  938MPD2    C113768   2.085   2.519   0.751 -0.1191  0.1552 -0.5079
  938MPD2    C213769   2.123   2.478   0.878 -0.4831  0.0605  0.4041
  938MPD2    C313770   2.088   2.354   0.921 -0.7272  0.5453  0.2469
  938MPD2    C413771   2.016   2.270   0.837  0.5834 -0.2458  0.5455
  938MPD2    C513772   1.997   2.307   0.707  0.4930  0.0672  0.1485
  938MPD2     H13773   2.192   2.535   0.939 -0.0895 -0.9497  0.9195
  938MPD2    H113774   1.987   2.169   0.862 -1.1975  0.8332  2.8422
  938MPD2    H213775   1.999   2.452   0.561 -0.1480  2.3306  0.1795
  938MPD2    H313776   1.946   2.237   0.642 -2.9787  1.8701  0.9201
  938MPD2     N13777   2.107   2.310   1.057 -0.1617 -0.8449 -0.0119
  938MPD2    H513778   2.074   2.215   1.070  1.2898 -1.0381  2.3632
  938MPD2    N113779   2.099   2.660   0.721  0.1000 -0.0622  0.1383
  938MPD2    H713780   2.163   2.710   0.782 -0.6995  0.2383  0.7261
  939MPD2     C13781   3.474   3.853   0.378 -0.1315 -0.2068 -0.5548
  939MPD2    C113782   3.351   3.813   0.440  0.4676  0.4216 -0.0248
  939MPD2    C213783   3.285   3.698   0.395  0.7902 -0.3040 -0.1834
  939MPD2    C313784   3.339   3.634   0.285 -0.0625  0.1332 -0.8083
  939MPD2    C413785   3.450   3.685   0.217 -0.4705  0.3374  0.2646
  939MPD2    C513786   3.523   3.792   0.267 -0.2058  0.3916 -0.0803
  939MPD2     H13787   3.201   3.658   0.451  0.4493  0.4915 -0.1302
  939MPD2    H113788   3.481   3.639   0.124 -3.3583  0.9481 -1.0229
  939MPD2    H213789   3.544   3.923   0.422 -0.9621  0.9658 -1.0951
  939MPD2    H313790   3.601   3.842   0.212  0.1257  0.0103  0.0453
  939MPD2     N13791   3.252   3.530   0.236 -0.4762  0.2658  0.1716
  939MPD2    H513792   3.180   3.496   0.298  0.2332 -2.3038 -0.4261
  939MPD2    N113793   3.305   3.901   0.546 -0.9874 -0.2315 -0.4829
  939MPD2    H713794   3.355   3.987   0.568 -0.9206  0.4154 -3.0838
  940MPD2     C13795   2.752   4.171  13.105  0.1935 -1.2432 -1.1125
  940MPD2    C113796   2.747   4.307  13.082 -0.4686  0.4955  0.3797
  940MPD2    C213797   2.744   4.353  12.953 -0.3583  0.1805 -0.1809
  940MPD2    C313798   2.721   4.260  12.847  0.0514  0.1799 -0.2653
  940MPD2    C413799   2.725   4.123  12.874  0.2738  0.4933  0.1159
  940MPD2    C513800   2.734   4.081  13.003 -0.8752 -0.6185  0.4405
  940MPD2     H13801   2.732   4.458  12.925  0.9682 -0.4075 -2.9566
  940MPD2    H113802   2.715   4.047  12.798 -0.8359  3.3227 -2.5941
  940MPD2    H213803   2.751   4.125  13.203 -0.4849  0.0545 -0.5176
  940MPD2    H313804   2.727   3.974  13.022 -1.3834 -0.9288 -1.4708
  940MPD2     N13805   2.687   4.294  12.714  0.2502  0.4357  0.0639
  940MPD2    H513806   2.694   4.214  12.651  1.0052 -0.1727  0.9228
  940MPD2    N113807   2.750   4.400  13.187  0.7463  0.1203  0.6776
  940MPD2    H713808   2.732   4.493  13.150 -2.0503 -0.6893 -0.0035
  941MPD2     C13809   0.789   4.045  10.007  0.6733  0.7756  0.2646
  941MPD2    C113810   0.888   3.946  10.024 -0.2185  0.4232 -0.6085
  941MPD2    C213811   0.877   3.843  10.119  0.3912 -0.0708 -0.1050
  941MPD2    C313812   0.775   3.835  10.206  0.3592 -0.1617 -0.0502
  941MPD2    C413813   0.671   3.925  10.181 -0.2204  0.1356 -0.6620
  941MPD2    C513814   0.682   4.032  10.095 -0.4856  0.1857  0.7176
  941MPD2     H13815   0.959   3.775  10.137 -1.4330 -1.5037  2.6823
  941MPD2    H113816   0.574   3.923  10.230  0.3471 -1.3332  0.3822
  941MPD2    H213817   0.782   4.126   9.936  0.1167  0.7551  0.2986
  941MPD2    H313818   0.602   4.104  10.083  2.4557  3.1301 -1.3724
  941MPD2     N13819   0.768   3.746  10.315 -0.3633  0.0991 -0.2126
  941MPD2    H513820   0.680   3.746  10.365 -0.0916  0.6927  0.2631
  941MPD2    N113821   0.998   3.937   9.939 -0.6385 -0.6028  0.0239
  941MPD2    H713822   1.079   3.882   9.968  1.0020 -0.2521 -3.9319
  942MPD2     C13823   1.318   4.402   9.105  0.5010  0.5185  0.4103
  942MPD2    C113824   1.237   4.506   9.070  0.2936  0.4394 -0.8310
  942MPD2    C213825   1.197   4.530   8.937 -0.0430  0.0200 -0.2179
  942MPD2    C313826   1.233   4.444   8.833 -0.6333 -0.4191 -1.3024
  942MPD2    C413827   1.318   4.339   8.874 -0.0034  0.3410  0.1524
  942MPD2    C513828   1.362   4.319   9.006  0.5388  0.4794  0.3218
  942MPD2     H13829   1.124   4.605   8.911 -0.5443 -0.6392 -0.7264
  942MPD2    H113830   1.357   4.270   8.801 -2.1149 -0.4009 -0.2823
  942MPD2    H213831   1.348   4.374   9.205 -0.4574 -0.7050  0.3523
  942MPD2    H313832   1.433   4.240   9.028  2.4132  1.8978 -0.6359
  942MPD2     N13833   1.217   4.466   8.693  0.1356  0.5337  0.5107
  942MPD2    H513834   1.256   4.397   8.629  1.6119  2.4186 -0.6259
  942MPD2    N113835   1.189   4.603   9.165  0.4042 -0.3255  0.0564
  942MPD2    H713836   1.141   4.685   9.129 -0.0701 -0.2746  0.8213
  943MPD2     C13837   0.074   3.406  10.137 -0.1359 -0.0299 -0.9744
  943MPD2    C113838   0.043   3.326  10.242 -0.6753  0.7968 -0.1466
  943MPD2    C213839   0.020   3.383  10.369  0.6947  0.1985 -0.7417
  943MPD2    C313840   0.047   3.514  10.389 -0.2181 -0.5896 -0.3472
  943MPD2    C413841   0.080   3.594  10.279  0.7544  0.3420 -0.7841
  943MPD2    C513842   0.088   3.543  10.151 -0.8999 -0.2162  0.4824
  943MPD2     H13843   4.715   3.315  10.441 -1.0098  1.4174 -0.5902
  943MPD2    H113844   0.082   3.702  10.288 -2.1091  0.4507 -1.3103
  943MPD2    H213845   0.087   3.363  10.038  0.0190 -1.9684 -0.1085
  943MPD2    H313846   0.118   3.602  10.066 -0.1976  1.1005  1.6497
  943MPD2     N13847   0.029   3.583  10.514  0.3522  0.8185 -0.0680
  943MPD2    H513848   0.052   3.680  10.496  2.0835  0.4461  0.0891
  943MPD2    N113849   0.016   3.189  10.215 -0.3128  0.2814  0.3564
  943MPD2    H713850   0.036   3.149  10.123 -0.5522  1.3136 -0.1379
  944MPD2     C13851   0.243   3.530  10.944 -0.0095  0.4262  0.2625
  944MPD2    C113852   0.176   3.470  11.046  0.1559 -0.5528 -0.2565
  944MPD2    C213853   0.109   3.550  11.137  0.4439 -0.3840 -0.8566
  944MPD2    C313854   0.086   3.680  11.111 -0.3252  0.3614 -0.5922
  944MPD2    C413855   0.154   3.742  11.012 -0.1240 -0.4714 -0.3272
  944MPD2    C513856   0.228   3.664  10.929 -0.6288  0.2373  0.3509
  944MPD2     H13857   0.065   3.491  11.217  2.4608 -0.1540  0.4206
  944MPD2    H113858   0.140   3.844  10.980 -1.4148  0.2464  2.4700
  944MPD2    H213859   0.303   3.475  10.872  1.8889 -0.2191  2.3437
  944MPD2    H313860   0.276   3.722  10.851 -2.1863 -1.2626 -1.7225
  944MPD2     N13861   4.730   3.751  11.195 -0.0520  0.6605  0.6788
  944MPD2    H513862   4.706   3.704  11.282 -0.7808 -0.4811 -0.1390
  944MPD2    N113863   0.150   3.328  11.042  0.2233 -0.2557 -1.0483
  944MPD2    H713864   0.219   3.272  10.992  0.4406  0.3734 -1.4470
    1TMC1    C113865   2.337   4.340  14.083  0.0684  0.5374 -0.0057
    1TMC1    C213866   2.403   4.376  13.968  0.0137 -0.2067  0.1560
    1TMC1    C313867   2.342   4.340  13.849 -0.1827 -0.1193  0.7917
    1TMC1    C413868   2.208   4.288  14.083  0.2663  0.3403  0.2293
    1TMC1    C513869   2.148   4.266  13.961  0.0607 -0.1890 -0.2342
    1TMC1    C613870   2.219   4.284  13.846  0.2045 -0.0321 -0.0233
    1TMC1     C13871   2.409   4.360  14.206 -1.0935  0.5855  0.4677
    1TMC1     O13872   2.343   4.351  14.310 -0.0164  0.2811 -0.2234
    1TMC1     H13873   2.498   4.427  13.963 -0.9095  1.3095 -2.3016
    1TMC1    H113874   2.158   4.279  14.178  1.4154  0.1094  0.8107
    1TMC1    H213875   2.169   4.282  13.750 -1.4196  2.1088  0.7624
    1TMC1    C713876   2.009   4.293  13.944 -0.7135 -0.1953  0.1753
    1TMC1    C813877   2.424   4.344  13.731 -0.1083 -0.0882 -0.0447
    1TMC1    O113878   1.968   4.369  13.858  0.2987  0.6604 -0.0270
    1TMC1    O213879   2.493   4.248  13.696 -0.2496  0.5164 -1.0382
    1TMC1    O313880   1.956   4.277  14.062  0.4567  0.0377 -0.0420
    1TMC1    H313881   1.981   4.194  14.107  2.0537 -0.1339 -1.2557
    1TMC1    O513882   2.380   4.447  13.659  0.5274  0.9505 -0.4758
    1TMC1    H513883   2.319   4.504  13.711 -0.6446  0.7285 -1.6031
    2MPD2     C13884   2.844   4.457  14.456 -0.2695  0.1954  0.1494
    2MPD2    C113885   2.872   4.429  14.326  0.5623  0.5840  0.1856
    2MPD2    C213886   2.773   4.379  14.244 -0.8010 -0.9351 -0.2236
    2MPD2    C313887   2.644   4.378  14.285 -0.2334 -0.2492  0.4812
    2MPD2    C413888   2.615   4.412  14.413 -0.6137  0.2430  0.3990
    2MPD2    C513889   2.712   4.451  14.494 -0.0358 -0.0337 -0.3836
    2MPD2     H13890   2.796   4.342  14.144  1.5754  1.5499 -0.6213
    2MPD2    H113891   2.514   4.428  14.447 -0.0997  1.3446  1.3981
    2MPD2    H213892   2.926   4.493  14.517  0.8551 -0.8491 -0.7565
    2MPD2    H313893   2.691   4.470  14.599 -0.6932  0.6802 -0.6411
    2MPD2     N13894   2.544   4.351  14.189  0.3641  0.0232 -0.1537
    2MPD2    H513895   2.578   4.327  14.096 -2.9613 -1.5150 -0.9504
    2MPD2    N113896   3.005   4.449  14.278 -0.3798 -0.1030  0.1067
    2MPD2    H713897   3.071   4.482  14.348  0.3028  0.8260 -0.9709
    3TMC2    C113898   3.185   4.468  14.130 -0.1471 -0.4468  1.2546
    3TMC2    C213899   3.280   4.399  14.058  0.1022  0.0410  0.6409
    3TMC2    C313900   3.404   4.460  14.051 -0.4654  0.3307 -0.4180
    3TMC2    C413901   3.209   4.592  14.178  0.6362  0.0520  0.1852
    3TMC2    C513902   3.334   4.651  14.158  0.9611 -0.6481 -1.1193
    3TMC2    C613903   3.437   4.581  14.099  0.1487 -0.9576  0.2200
    3TMC2     C13904   3.048   4.420  14.146  0.1341 -0.3074 -0.2330
    3TMC2     O13905   3.004   4.337  14.066  0.3512 -0.3077  1.4173
    3TMC2     H13906   3.267   4.300  14.015 -0.4812  0.2707  0.2938
    3TMC2    H113907   3.130   4.642  14.233 -0.2907  0.3300 -1.4162
    3TMC2    H213908   3.535   4.628  14.089 -0.5466  0.4280 -0.1472
    3TMC2    C713909   3.332   0.058  14.144  0.2007  0.2440 -0.2441
    3TMC2    C813910   3.515   4.375  14.023  0.5450 -0.1878  0.2398
    3TMC2    O113911   3.443   0.113  14.149 -0.0246  0.8400 -0.2786
    3TMC2    O213912   3.504   4.262  13.975  0.1855  0.0538 -0.1596
    3TMC2    O513913   3.624   4.433  14.088  0.5693 -0.5696  0.2464
    3TMC2    H513914   3.627   4.519  14.136 -1.7008  0.7037 -1.9357
    4TMC2    C113915   2.466   0.293  13.764  0.2039  0.3271  0.0638
    4TMC2    C213916   2.475   0.370  13.656  0.0109 -0.3543 -0.0137
    4TMC2    C313917   2.580   0.460  13.639 -0.1345  0.4608  0.1637
    4TMC2    C413918   2.567   0.290  13.856 -0.6523  0.2377 -1.1272
    4TMC2    C513919   2.672   0.373  13.830  0.1193  0.5208 -0.0172
    4TMC2    C613920   2.687   0.457  13.726 -0.1313  0.0614 -0.2422
    4TMC2     C13921   2.340   0.235  13.805 -0.1622 -0.4132 -0.7952
    4TMC2     O13922   2.320   0.218  13.925  0.1727 -0.4194  0.8769
    4TMC2     H13923   2.390   0.386  13.591 -1.4337 -2.5055  1.3382
    4TMC2    H113924   2.570   0.228  13.945 -0.2566  0.8091 -0.7403
    4TMC2    H213925   2.766   0.530  13.713  0.2776 -0.2568  0.4985
    4TMC2    C713926   2.788   0.344  13.924 -0.7577 -0.5572  0.2160
    4TMC2    C813927   2.577   0.582  13.560  0.3025  0.2720 -0.6610
    4TMC2    O113928   2.768   0.260  14.008 -0.2418 -0.7560  0.3609
    4TMC2    O213929   2.623   0.685  13.605  0.1406  0.0153  0.0397
    4TMC2    O513930   2.471   0.581  13.472 -0.1785 -0.1670  0.3553
    4TMC2    H513931   2.454   0.490  13.438 -0.4350  1.0025 -2.6189
    5MPD2     C13932   1.846   0.158  13.692 -0.3793 -0.3348  0.5148
    5MPD2    C113933   1.907   0.192  13.573  0.6011  0.5088  0.1063
    5MPD2    C213934   2.045   0.210  13.575 -0.5287  0.7637  0.1186
    5MPD2    C313935   2.119   0.193  13.692 -0.4636  0.3972  0.5004
    5MPD2    C413936   2.057   0.143  13.805 -0.2234 -0.3295 -0.0884
    5MPD2    C513937   1.921   0.127  13.798  0.3198  0.0283 -1.2472
    5MPD2     H13938   2.102   0.249  13.491 -0.7520  1.4616  0.2940
    5MPD2    H113939   2.109   0.126  13.898 -1.5530  3.4847  1.3284
    5MPD2    H213940   1.740   0.150  13.712 -0.1137 -0.8573  1.7023
    5MPD2    H313941   1.871   0.082  13.883 -0.4979  0.5958 -1.4253
    5MPD2     N13942   2.261   0.222  13.692  0.7503 -0.0194  0.6002
    5MPD2    H513943   2.300   0.246  13.602 -3.2242  1.4269 -0.7154
    5MPD2    N113944   1.825   0.210  13.460 -0.4534  0.2838 -0.1807
    5MPD2    H713945   1.726   0.189  13.472 -0.3310 -2.3580 -3.7315
    6MPD1     C13946   1.653   2.049  13.090  0.1951  0.3073  0.5905
    6MPD1    C113947   1.598   1.977  13.198  0.0326  0.1955  0.5793
    6MPD1    C213948   1.602   1.840  13.193 -0.2517  0.6851 -0.2826
    6MPD1    C313949   1.632   1.772  13.071 -0.3105  0.7299 -1.1165
    6MPD1    C413950   1.683   1.846  12.968  0.4525  0.3812  0.1272
    6MPD1    C513951   1.695   1.980  12.978 -0.7056 -0.2209 -0.2281
    6MPD1     H13952   1.561   1.783  13.275 -0.7922  1.9024  0.2838
    6MPD1    H113953   1.706   1.797  12.874 -0.2714 -0.7244  0.5181
    6MPD1    H213954   1.659   2.157  13.093  0.2608  0.3729 -2.4276
    6MPD1    H313955   1.728   2.043  12.896  1.9375  0.8404  1.6498
    6MPD1     N13956   1.595   1.633  13.051 -0.2186  0.1475  0.2945
    6MPD1    H513957   1.594   1.602  12.954 -3.1685 -0.3216  0.4472
    6MPD1    N113958   1.557   2.037  13.315  0.0121  0.1964 -0.1376
    6MPD1    H613959   1.503   2.121  13.296  1.1387  1.0588  0.4639
    6MPD1    H713960   1.496   1.975  13.368 -1.9244 -0.3211 -2.9926
    7MPD2     C13961   1.399   0.912  13.511  0.9189 -0.2527 -0.2985
    7MPD2    C113962   1.396   0.889  13.372 -0.2479 -0.4714 -0.0436
    7MPD2    C213963   1.411   0.759  13.325  0.6759  0.1642  0.6203
    7MPD2    C313964   1.439   0.651  13.408  0.5911  0.4466 -0.9585
    7MPD2    C413965   1.434   0.670  13.546 -0.1602  0.0325 -0.8158
    7MPD2    C513966   1.416   0.799  13.590 -0.8439 -0.7647 -0.5206
    7MPD2     H13967   1.397   0.755  13.217 -2.6529  1.4159  1.0211
    7MPD2    H113968   1.440   0.591  13.619 -2.3701  0.2308 -0.4059
    7MPD2    H213969   1.393   1.002  13.571 -0.3637  0.4010 -1.4075
    7MPD2    H313970   1.421   0.816  13.697  1.7098 -0.4246 -0.6944
    7MPD2     N13971   1.468   0.525  13.352 -0.2679  0.0896  0.2931
    7MPD2    H513972   1.471   0.450  13.421  1.2060 -1.8592 -1.8649
    7MPD2    N113973   1.396   0.990  13.276 -0.5250  0.1349 -0.6020
    7MPD2    H713974   1.410   0.962  13.180 -0.5799 -0.3089 -0.4776
    8TMC3    C113975   1.559   0.371  13.197  0.2100  0.1784  0.2562
    8TMC3    C213976   1.646   0.339  13.293 -0.5054 -0.5053  0.3232
    8TMC3    C313977   1.765   0.302  13.244 -0.3160 -0.2801  0.8020
    8TMC3    C413978   1.579   0.361  13.066  0.1681 -0.2408 -0.2237
    8TMC3    C513979   1.701   0.316  13.023  0.1676  0.1661 -0.1602
    8TMC3    C613980   1.798   0.289  13.107 -1.3554 -0.4792 -0.3501
    8TMC3     C13981   1.497   0.499  13.219 -0.2633 -0.2660 -0.1917
    8TMC3     O13982   1.508   0.579  13.128  0.1144  0.2022 -0.3987
    8TMC3     H13983   1.646   0.348  13.401  0.0575 -1.5252  0.4068
    8TMC3    H113984   1.503   0.386  12.993 -1.3276 -3.1400  0.3406
    8TMC3    H213985   1.900   0.288  13.070 -0.4549  0.3152  2.1387
    8TMC3    C713986   1.751   0.395  12.913 -0.4679 -0.5675  0.3305
    8TMC3    C813987   1.868   0.252  13.338 -1.1089  0.0060 -0.3349
    8TMC3    O113988   1.829   0.352  12.828 -0.0464 -0.0732 -0.2091
    8TMC3    O213989   1.980   0.271  13.292  0.0658  0.1705 -0.4707
    9TMC3    C113990   1.524   1.407  13.101 -0.4851  0.2898 -0.0672
    9TMC3    C213991   1.599   1.339  13.005 -0.2238 -0.1703  0.8370
    9TMC3    C313992   1.604   1.200  13.009 -0.1992 -0.1845  0.6358
    9TMC3    C413993   1.459   1.332  13.201  0.0148 -0.1137  0.7126
    9TMC3    C513994   1.469   1.198  13.202  0.7111  0.0542 -0.2071
    9TMC3    C613995   1.543   1.130  13.104  0.2458 -0.8278  0.8027
    9TMC3     C13996   1.548   1.543  13.147 -0.8827  0.9212 -0.1851
    9TMC3     O13997   1.526   1.569  13.263 -0.6300  0.6475  0.3088
    9TMC3     H13998   1.659   1.395  12.935 -1.4382  1.6489  1.2375
    9TMC3    H113999   1.403   1.377  13.282  1.0889 -0.2227  1.5169
    9TMC3    H214000   1.572   1.027  13.123  1.6552 -0.6458 -0.3785
    9TMC3    C714001   1.401   1.125  13.301 -0.5616  0.4648 -0.2606
    9TMC3    C814002   1.665   1.128  12.897 -0.4461  0.7571 -0.2655
    9TMC3    O114003   1.370   1.181  13.406 -0.4406 -0.1832  0.3899
    9TMC3    O214004   1.749   1.176  12.822  0.3647  0.2769 -0.6229
   10MPD2     C14005   1.836   0.652  12.765 -0.2992 -0.9844  0.4773
   10MPD2    C114006   1.729   0.641  12.855 -0.7080  0.3291 -0.3491
   10MPD2    C214007   1.663   0.759  12.887 -0.1835 -0.0478 -0.4868
   10MPD2    C314008   1.704   0.882  12.847  0.3351  0.3927  0.5630
   10MPD2    C414009   1.810   0.893  12.760 -0.1721  0.7938  0.1471
   10MPD2    C514010   1.877   0.774  12.721  0.2128 -0.8769  0.4841
   10MPD2     H14011   1.582   0.762  12.958  1.0037 -1.1817  0.9145
   10MPD2    H114012   1.844   0.985  12.714  0.3577  0.4595 -0.1231
   10MPD2    H214013   1.901   0.570  12.734 -0.3043 -2.0481  3.3254
   10MPD2    H314014   1.958   0.788  12.650 -0.4671 -2.9685 -0.6962
   10MPD2     N14015   1.637   0.992  12.909  0.1364 -0.1344 -0.4086
   10MPD2    H514016   1.551   0.970  12.959 -0.4972  2.4495 -0.3738
   10MPD2    N114017   1.695   0.522  12.925  0.9294  0.3660 -0.3711
   10MPD2    H714018   1.627   0.527  13.000  0.1122 -1.6083 -0.9779
   11MPD2     C14019   3.276   0.340  14.061 -0.4935 -0.2297 -0.7162
   11MPD2    C114020   3.180   0.239  14.064  0.0202 -0.9232  0.1968
   11MPD2    C214021   3.057   0.272  14.014  0.0309 -0.7305 -0.1170
   11MPD2    C314022   3.025   0.388  13.958 -0.2628  0.3778  0.1794
   11MPD2    C414023   3.117   0.487  13.957  0.0580  0.3858 -0.4390
   11MPD2    C514024   3.240   0.468  14.013  0.0670 -0.0228  0.6668
   11MPD2     H14025   2.992   0.186  14.005 -0.3554 -0.4964  0.3717
   11MPD2    H114026   3.108   0.582  13.906  1.0519  0.0503 -1.2469
   11MPD2    H214027   3.376   0.316  14.095  0.0255  0.7405 -1.5607
   11MPD2    H314028   3.316   0.545  14.013 -0.4387  0.4833 -0.5275
   11MPD2     N14029   2.903   0.409  13.897  0.5845 -0.3024  0.9624
   11MPD2    H514030   2.901   0.477  13.821 -0.6169 -1.2157  0.1968
   11MPD2    N114031   3.214   0.106  14.106 -0.5080 -0.0675 -0.2258
   11MPD2    H714032   3.146   0.035  14.082 -1.6966  1.4299 -1.2637
    1MPD1     C14033   1.037   2.018  17.216 -0.5802 -0.4274  0.7737
    1MPD1    C114034   0.953   1.958  17.313  0.6266  0.4155  1.0429
    1MPD1    C214035   0.919   1.824  17.284 -0.1350 -0.8401 -0.0702
    1MPD1    C314036   0.977   1.750  17.184  0.0270  0.0186 -0.1001
    1MPD1    C414037   1.069   1.813  17.104 -0.1949 -0.4345 -0.2904
    1MPD1    C514038   1.103   1.943  17.124  0.9670 -0.5298 -0.3462
    1MPD1     H14039   0.851   1.781  17.356 -0.5399 -0.3340 -0.1524
    1MPD1    H114040   1.116   1.765  17.019 -0.0989 -0.9777  0.0742
    1MPD1    H214041   1.058   2.124  17.228  1.5154 -0.7655  0.1125
    1MPD1    H314042   1.184   1.980  17.062  0.4165 -1.4508 -1.6324
    1MPD1     N14043   0.959   1.612  17.150  0.2544  0.7441 -0.3496
    1MPD1    H514044   1.013   1.569  17.076  0.5823  0.9348 -0.2209
    1MPD1    N114045   0.883   2.033  17.407 -0.8387  0.2228  0.3220
    1MPD1    H614046   0.944   2.105  17.444 -0.9622 -0.0555  1.0631
    1MPD1    H714047   0.852   1.973  17.483  3.1487 -1.1514  0.8964
    2MPD1     C14048   1.686   1.169  17.243  1.1623  0.2623 -0.4371
    2MPD1    C114049   1.637   1.303  17.235 -1.0498 -0.2341 -0.5487
    2MPD1    C214050   1.499   1.318  17.218 -0.8164  0.2177  0.0421
    2MPD1    C314051   1.416   1.211  17.176 -0.2613 -0.3885  0.4018
    2MPD1    C414052   1.478   1.093  17.151 -0.0747  0.0983  0.1363
    2MPD1    C514053   1.600   1.069  17.206  0.0702 -0.2245 -0.7012
    2MPD1     H14054   1.443   1.411  17.226 -0.5257  0.3384  0.6490
    2MPD1    H114055   1.415   1.012  17.114  2.1539 -0.4806 -2.3066
    2MPD1    H214056   1.790   1.151  17.270  0.9812  0.3239  0.3020
    2MPD1    H314057   1.636   0.966  17.207  1.5630  0.3035 -0.6424
    2MPD1     N14058   1.278   1.240  17.160 -0.1103 -0.4066 -1.0851
    2MPD1    H514059   1.256   1.338  17.174 -2.3039 -1.4357  2.5921
    2MPD1    N114060   1.723   1.397  17.284  0.7151 -0.5805  0.1507
    2MPD1    H614061   1.823   1.377  17.276  1.1969  1.5004  0.9503
    2MPD1    H714062   1.701   1.492  17.256 -2.5518 -1.4143 -0.0923
    3TMC3    C114063   1.044   1.214  17.159 -0.3134 -0.2021  0.3631
    3TMC3    C214064   0.945   1.125  17.194  0.6389 -0.0538  0.0288
    3TMC3    C314065   0.832   1.174  17.247 -0.1785  0.6974 -0.4036
    3TMC3    C414066   1.035   1.352  17.188  0.3265  0.4112 -0.3056
    3TMC3    C514067   0.906   1.394  17.207  0.5799 -0.6015 -0.4253
    3TMC3    C614068   0.812   1.313  17.249  0.3463  0.3204 -0.2136
    3TMC3     C14069   1.176   1.152  17.136  0.2755 -0.3599  0.4448
    3TMC3     O14070   1.181   1.028  17.122 -0.3225 -0.3264 -0.1204
    3TMC3     H14071   0.964   1.019  17.186 -1.3904 -0.3346 -1.0639
    3TMC3    H114072   1.107   1.426  17.157  0.9513 -1.5431 -3.4553
    3TMC3    H214073   0.710   1.341  17.270  0.9883  2.8863 -0.5993
    3TMC3    C714074   0.880   1.532  17.228 -0.4039 -0.3219  0.5613
    3TMC3    C814075   0.706   1.100  17.224  0.0835  0.7795  0.1453
    3TMC3    O114076   0.794   1.562  17.311 -0.0876  0.6062  0.0519
    3TMC3    O214077   0.599   1.164  17.200 -0.4126  0.3287  0.0054
    4MPD1     C14078   0.529   0.654  17.063  0.0520  0.0625  0.1121
    4MPD1    C114079   0.661   0.637  17.094  0.4593  0.0508  0.8759
    4MPD1    C214080   0.729   0.745  17.150  0.4473  0.2962  0.1881
    4MPD1    C314081   0.660   0.864  17.172  0.0007 -1.6539 -0.5869
    4MPD1    C414082   0.529   0.884  17.119  0.0259 -0.7741  0.1695
    4MPD1    C514083   0.465   0.778  17.060  0.3028 -0.7010  0.4602
    4MPD1     H14084   0.825   0.725  17.196  0.0822 -2.3543 -0.1892
    4MPD1    H114085   0.476   0.978  17.132  0.3511 -0.5195 -0.3702
    4MPD1    H214086   0.478   0.570  17.016  3.0613 -0.9289 -1.3246
    4MPD1    H314087   0.362   0.787  17.025  0.2693  0.6232  0.8730
    4MPD1     N14088   0.736   0.972  17.226  0.3494  0.1118  0.5053
    4MPD1    H514089   0.827   0.943  17.261  0.1835 -1.2901 -0.2578
    4MPD1    N114090   0.723   0.510  17.089 -0.1365 -0.3257 -0.2576
    4MPD1    H614091   0.670   0.450  17.025  1.0713  0.9425 -2.4581
    4MPD1    H714092   0.816   0.523  17.050 -1.0969 -0.0018 -2.4684
    1TCq1    O114093   1.764   0.858  11.502 -0.2540 -0.3143  0.3744
    1TCq1    C114094   1.626   0.891  11.491  0.0257 -1.2066 -0.6343
    1TCq1    O214095   1.547   0.824  11.427 -0.0879  0.4146  0.4033
    1TCq1    C214096   1.593   0.934  11.630 -0.2336  0.3598  0.5383
    1TCq1    C314097   1.474   0.987  11.652 -0.1833 -0.0162  0.3001
    1TCq1    C414098   1.453   1.061  11.759 -0.6404  0.2992  0.1835
    1TCq1    C514099   1.529   1.044  11.868  0.9598 -0.3662 -0.1593
    1TCq1    C614100   1.644   0.978  11.860  0.3891 -0.6596  0.3369
    1TCq1    C714101   1.682   0.928  11.737 -0.1701 -0.1185  0.0191
    1TCq1    C814102   1.744   0.992  11.961  0.5358 -0.5157  0.2911
    1TCq1    O414103   1.857   0.970  11.938 -0.7494 -0.4256 -0.2386
    1TCq1    C914104   1.326   1.121  11.774  1.0770 -0.0597  0.5002
    1TCq1    O514105   1.285   1.140  11.893  0.1641 -0.0679  0.5203
    1TCq1    O614106   1.275   1.168  11.667  0.5049 -0.7803 -0.5366
    1TCq1    H114107   1.815   0.924  11.553  0.9797 -1.3490  0.4646
    1TCq1    H214108   1.415   1.005  11.562 -3.1162  1.4514  2.5252
    1TCq1    H314109   1.501   1.092  11.961  1.6451  1.6063 -0.9806
    1TCq1    H414110   1.770   0.865  11.737 -1.4744 -1.9239  0.4865
    2MPD1     C14111   1.880   1.128  12.442 -0.8704 -0.0971  0.7052
    2MPD1    C114112   1.748   1.139  12.434 -0.3480 -0.5749  0.2004
    2MPD1    C214113   1.699   1.122  12.309  0.1735 -0.0516  0.3013
    2MPD1    C314114   1.772   1.073  12.195 -0.2391  0.1171  0.5285
    2MPD1    C414115   1.905   1.046  12.214  0.0538 -0.9113 -0.6713
    2MPD1    C514116   1.952   1.068  12.345 -0.1640  0.1388 -0.1272
    2MPD1     H14117   1.595   1.135  12.282  0.0173 -0.5703  0.6569
    2MPD1    H114118   1.975   1.009  12.139 -1.6914 -0.3624 -2.5937
    2MPD1    H214119   1.928   1.143  12.538  1.4490 -1.7365 -0.1921
    2MPD1    H314120   2.059   1.051  12.355 -0.7113 -0.8276  3.9313
    2MPD1     N14121   1.698   1.049  12.078  0.1609  0.6271 -0.3114
    2MPD1    H514122   1.598   1.064  12.089 -0.2017 -0.3959 -2.2923
    2MPD1    N114123   1.672   1.190  12.539  0.3688  0.2602  0.0319
    2MPD1    H614124   1.576   1.157  12.530 -0.6448  2.7852  1.5186
    2MPD1    H714125   1.708   1.179  12.634  1.9099 -0.3482 -0.6141
    1TMC1    C114126   4.476   2.366   0.148  0.3976  0.0669 -0.1525
    1TMC1    C214127   4.414   2.328   0.264  0.1856  0.7655  0.3909
    1TMC1    C314128   4.467   2.365   0.381  0.1403  0.3832 -0.0405
    1TMC1    C414129   4.597   2.436   0.145 -0.4190  0.2120 -1.1619
    1TMC1    C514130   4.638   2.479   0.266  0.3108 -0.0585 -0.0784
    1TMC1    C614131   4.575   2.442   0.381  0.8911 -0.0484  0.0409
    1TMC1     C14132   4.428   2.303   0.025 -0.3801  0.5553  0.6706
    1TMC1     O14133   4.415   2.375  17.674 -0.0623 -0.4114  0.4131
    1TMC1     H14134   4.340   2.249   0.261  0.3410  0.6931 -1.2736
    1TMC1    H114135   4.642   2.474   0.054 -1.7755  0.7666 -1.6013
    1TMC1    H214136   4.622   2.476   0.472  1.4937 -1.4790  0.2614
    1TMC1    C714137   4.732   2.592   0.268 -0.0619  0.1400 -0.1562
    1TMC1    C814138   4.376   2.398   0.487 -0.1232 -0.1690  0.5345
    1TMC1    O114139   0.017   2.647   0.373 -0.1437  0.1284  0.8147
    1TMC1    O214140   4.255   2.410   0.463  0.1627 -0.2431  0.5489
    1TMC1    O314141   0.093   2.545   0.192  0.1621 -0.0978 -0.4800
    1TMC1    H314142   0.077   2.467   0.134 -0.1040 -0.9266  0.7125
    1TMC1    O514143   4.430   2.366   0.609  0.2954 -0.3098  0.5673
    1TMC1    H514144   4.524   2.339   0.602  0.6177  1.0077 -0.1300
    2MPD1     C14145   4.323   1.886  17.481  0.0666 -0.1009 -0.1905
    2MPD1    C114146   4.374   1.841  17.603  0.0535  0.1694 -0.2979
    2MPD1    C214147   4.410   1.934  17.705  1.3084 -0.4444  0.1271
    2MPD1    C314148   4.390   2.068  17.690 -0.0712 -0.4618  0.0210
    2MPD1    C414149   4.329   2.114  17.568 -0.3069 -0.0250  0.5300
    2MPD1    C514150   4.296   2.015  17.472 -0.2774 -0.2696 -0.3786
    2MPD1     H14151   4.457   1.899   0.051  0.8403  1.7081  1.2078
    2MPD1    H114152   4.298   2.214  17.538 -1.2143 -1.2797 -2.6547
    2MPD1    H214153   4.286   1.812  17.410  0.5317 -1.9341  1.4657
    2MPD1    H314154   4.258   2.051  17.377 -0.9705 -0.5003 -0.1890
    2MPD1     N14155   4.436   2.164   0.039 -0.3168  0.4109  0.1859
    2MPD1    H514156   4.489   2.136   0.122  0.9792 -0.9849 -1.1207
    2MPD1    N114157   4.374   1.696  17.637  0.2334  1.0095 -0.1438
    2MPD1    H614158   4.428   1.689  17.723 -0.7296  0.3911  0.4172
    2MPD1    H714159   4.422   1.641  17.566 -2.4436 -0.8996 -0.4909
    1MPD1     C14160   3.193   0.245  12.641 -0.5820 -0.6711  0.3369
    1MPD1    C114161   3.146   0.377  12.640  1.3926 -0.3143 -0.7570
    1MPD1    C214162   3.204   0.461  12.550  0.1459  0.3187 -0.0920
    1MPD1    C314163   3.299   0.426  12.456  0.0266 -0.2925 -0.2164
    1MPD1    C414164   3.338   0.293  12.452 -0.4321 -0.4202 -0.3375
    1MPD1    C514165   3.289   0.207  12.554 -0.0694  0.1435  0.5099
    1MPD1     H14166   3.180   0.566  12.559  0.0682  0.4321 -1.6398
    1MPD1    H114167   3.429   0.264  12.401  0.6499 -0.0730  1.3932
    1MPD1    H214168   3.148   0.174  12.708 -3.6157  0.6766 -0.2755
    1MPD1    H314169   3.326   0.108  12.576  2.4613  1.4546  2.2169
    1MPD1     N14170   3.357   0.523  12.381 -0.6489  0.2613 -0.5556
    1MPD1    H514171   3.335   0.620  12.400 -0.2813 -0.0378  1.3742
    1MPD1    N114172   3.050   0.413  12.742 -0.0471  0.6061  0.0479
    1MPD1    H614173   2.970   0.472  12.719 -0.0107 -0.4821 -2.8915
    1MPD1    H714174   3.016   0.327  12.786 -0.9082  0.8206 -0.1946
    2MPD1     C14175   2.626   1.983  11.357 -0.6600  0.2084 -0.2333
    2MPD1    C114176   2.537   1.904  11.288 -0.1414  0.1127  0.2666
    2MPD1    C214177   2.578   1.781  11.241 -0.2732  0.1644  0.1027
    2MPD1    C314178   2.701   1.734  11.267 -0.5530 -0.2433 -0.5354
    2MPD1    C414179   2.789   1.814  11.338  0.0020  0.3316 -0.2859
    2MPD1    C514180   2.752   1.935  11.383 -1.1430 -0.8372 -0.6792
    2MPD1     H14181   2.512   1.720  11.181 -0.3069  1.0913 -0.8080
    2MPD1    H114182   2.886   1.781  11.372  0.4344  0.4168 -1.4696
    2MPD1    H214183   2.597   2.082  11.390 -1.3086 -0.1971  0.3991
    2MPD1    H314184   2.825   1.993  11.437 -1.1284 -0.3712 -1.1988
    2MPD1     N14185   2.745   1.607  11.221  0.1425  0.4448 -0.7179
    2MPD1    H514186   2.840   1.585  11.249  0.1815  1.2032 -0.2805
    2MPD1    N114187   2.414   1.955  11.242  0.4233 -0.2289  0.2120
    2MPD1    H614188   2.345   1.881  11.227 -1.5347  1.8518 -1.1377
    2MPD1    H714189   2.380   2.036  11.293  1.1941 -1.3016  2.4209
    3MPD1     C14190   2.334   0.868  10.819 -0.0578 -0.3719  0.2472
    3MPD1    C114191   2.444   0.907  10.746  1.2879  0.6409  0.4751
    3MPD1    C214192   2.550   0.955  10.815  0.2767 -0.0624 -0.6164
    3MPD1    C314193   2.549   0.992  10.945 -0.3994 -0.1524  0.1394
    3MPD1    C414194   2.432   0.956  11.011  0.0414 -0.9538  0.3554
    3MPD1    C514195   2.326   0.887  10.955  1.0898 -0.4693  0.0237
    3MPD1     H14196   2.642   0.967  10.759 -0.2329 -0.5447 -1.5660
    3MPD1    H114197   2.419   1.001  11.108  0.1611 -3.1277  1.3806
    3MPD1    H214198   2.250   0.826  10.763  0.1895 -0.9160  0.2841
    3MPD1    H314199   2.237   0.867  11.015  0.3336  0.9724 -0.6277
    3MPD1     N14200   2.652   1.049  11.018 -1.0031  0.2181 -0.0916
    3MPD1    H514201   2.624   1.076  11.111  2.8272  1.5304  0.6794
    3MPD1    N114202   2.467   0.862  10.614  0.5583  0.0504 -0.0449
    3MPD1    H614203   2.382   0.867  10.558  0.2511 -0.6194  0.3550
    3MPD1    H714204   2.543   0.909  10.566  0.6472 -1.3894 -1.3138
    4MPD2     C14205   3.539   1.243  12.170  0.4542  0.7247 -0.0868
    4MPD2    C114206   3.622   1.144  12.117 -0.1651 -0.2499 -0.1718
    4MPD2    C214207   3.687   1.163  11.993 -0.3894  1.1927  0.6931
    4MPD2    C314208   3.684   1.286  11.939 -0.1398 -0.3350 -0.5769
    4MPD2    C414209   3.611   1.387  11.995  0.1942  0.6910 -0.5527
    4MPD2    C514210   3.552   1.362  12.115  0.0787 -0.0743 -0.2317
    4MPD2     H14211   3.742   1.085  11.942 -1.4851  1.7693 -1.3959
    4MPD2    H114212   3.602   1.487  11.955 -0.4574  1.3293  1.1672
    4MPD2    H214213   3.487   1.232  12.264 -0.4289 -0.7998 -0.7539
    4MPD2    H314214   3.503   1.450  12.154 -0.7624  0.0302 -1.5123
    4MPD2     N14215   3.749   1.301  11.812  0.0357 -0.1062 -0.6567
    4MPD2    H514216   3.810   1.229  11.776 -1.6081 -2.0019  0.3195
    4MPD2    N114217   3.632   1.012  12.169 -0.7602  0.2218  0.3026
    4MPD2    H714218   3.684   0.949  12.109  1.1188  0.8361  1.3040
    5TMC3    C114219   3.600   0.815  12.290  0.0289  0.2240  0.9685
    5TMC3    C214220   3.497   0.732  12.295  0.5152 -0.5691 -0.2264
    5TMC3    C314221   3.487   0.624  12.209 -0.6604 -0.3442  0.0319
    5TMC3    C414222   3.715   0.773  12.219  0.1030  0.9326 -0.3408
    5TMC3    C514223   3.709   0.667  12.127  0.3625  0.3049  0.7134
    5TMC3    C614224   3.591   0.591  12.126  0.6635 -0.3791  0.5350
    5TMC3     C14225   3.565   0.953  12.280 -0.2328  0.1837 -0.2811
    5TMC3     O14226   3.489   1.008  12.365 -0.0793 -0.5162  0.0636
    5TMC3     H14227   3.404   0.767  12.340 -0.1325 -1.8491 -0.5659
    5TMC3    H114228   3.805   0.833  12.214  1.9259 -1.9725 -2.4365
    5TMC3    H214229   3.584   0.513  12.051  0.1586  0.9197 -0.7709
    5TMC3    C714230   3.740   0.721  11.994  0.1466 -0.5393 -0.0511
    5TMC3    C814231   3.423   0.501  12.261 -0.5251 -0.0162 -0.5460
    5TMC3    O114232   3.733   0.846  11.983 -0.3596  0.6647  0.6759
    5TMC3    O214233   3.439   0.400  12.197 -0.2146 -0.0342 -0.1218
    6TMC3    C114234   2.783   1.415  11.095 -0.0944 -0.0951  0.1260
    6TMC3    C214235   2.732   1.289  11.078 -0.2435  0.1292 -0.2619
    6TMC3    C314236   2.819   1.198  11.032  0.2075 -0.1624 -0.1052
    6TMC3    C414237   2.909   1.444  11.068 -0.2013  0.0298 -0.2061
    6TMC3    C514238   2.996   1.347  11.024  0.3658 -0.1006 -0.3977
    6TMC3    C614239   2.945   1.227  10.992 -0.2085  0.4983 -0.3233
    6TMC3     C14240   2.689   1.520  11.129  0.8720 -0.6288  0.2921
    6TMC3     O14241   2.574   1.502  11.094  0.1878  0.5735  0.0381
    6TMC3     H14242   2.628   1.270  11.101 -0.3425 -0.0339 -0.8374
    6TMC3    H114243   2.929   1.551  11.073 -0.3712  0.1435 -1.7862
    6TMC3    H214244   2.998   1.148  10.941  0.0602 -1.6249  3.3324
    6TMC3    C714245   3.137   1.370  11.018 -1.3145 -0.0106 -0.2838
    6TMC3    C814246   2.766   1.086  10.961  0.0365  0.4943 -0.2346
    6TMC3    O114247   3.181   1.454  11.098  0.3239  0.3327  0.0794
    6TMC3    O214248   2.830   1.046  10.860  0.5573  0.8094 -0.5354
    7MPD2     C14249   3.803   0.687  11.492  0.4309  0.7367 -0.1318
    7MPD2    C114250   3.815   0.795  11.570 -0.0114 -0.2545  0.5257
    7MPD2    C214251   3.795   0.774  11.707  0.1359 -0.5499 -0.0011
    7MPD2    C314252   3.790   0.651  11.760 -0.1490 -0.5228  0.3672
    7MPD2    C414253   3.790   0.541  11.677 -0.0631  0.2245 -0.4084
    7MPD2    C514254   3.784   0.563  11.541  0.1757 -0.6751 -0.5160
    7MPD2     H14255   3.809   0.861  11.770 -0.7863 -1.2811  1.1972
    7MPD2    H114256   3.771   0.442  11.718 -2.2921  1.2629  1.0642
    7MPD2    H214257   3.807   0.683  11.384  2.2794  2.0011 -0.0962
    7MPD2    H314258   3.761   0.482  11.473  0.3912 -1.8378  0.7899
    7MPD2     N14259   3.763   0.623  11.896  1.1027 -0.0171 -0.5773
    7MPD2    H514260   3.751   0.527  11.926 -0.7165 -0.2358 -2.0237
    7MPD2    N114261   3.817   0.923  11.509  0.4676  0.0736 -0.4915
    7MPD2    H714262   3.837   0.919  11.409 -1.1843  0.9465 -0.8636
    8TMC3    C114263   3.857   1.165  11.493  0.0220 -0.0977 -0.2626
    8TMC3    C214264   3.767   1.179  11.393 -0.7698 -0.4208 -0.1475
    8TMC3    C314265   3.703   1.299  11.385  0.0668  0.5834  0.1030
    8TMC3    C414266   3.879   1.270  11.581 -0.2299  0.3046  0.2923
    8TMC3    C514267   3.796   1.378  11.586  0.1169  0.4687  0.1488
    8TMC3    C614268   3.711   1.396  11.482 -0.4957 -0.4140  0.5017
    8TMC3     C14269   3.837   1.043  11.573  0.3421  0.7270  0.0500
    8TMC3     O14270   3.836   1.068  11.692  0.0045 -0.0534  0.2313
    8TMC3     H14271   3.727   1.086  11.354 -0.7995 -0.8075  0.8138
    8TMC3    H114272   3.957   1.255  11.655 -0.8383 -2.4305  0.4143
    8TMC3    H214273   3.633   1.471  11.485  1.3468  1.4995  0.4927
    8TMC3    C714274   3.746   1.413  11.723  0.2931  0.0380 -0.6337
    8TMC3    C814275   3.601   1.315  11.288  0.6812  0.2158 -0.2788
    8TMC3    O114276   3.695   1.525  11.735  0.0373 -0.0592 -0.0746
    8TMC3    O214277   3.497   1.362  11.329 -0.2563  0.8369  0.1944
    9MPD2     C14278   3.598   1.153  10.949 -0.1014 -0.2990  0.1806
    9MPD2    C114279   3.551   1.231  11.054 -0.5351 -0.2980 -0.1610
    9MPD2    C214280   3.418   1.280  11.049 -0.3758 -0.1143  0.3188
    9MPD2    C314281   3.339   1.245  10.943 -0.1798 -0.3054  0.1396
    9MPD2    C414282   3.386   1.164  10.840  0.0193  0.1946  0.0627
    9MPD2    C514283   3.519   1.124  10.840 -0.4379 -1.0518 -0.1838
    9MPD2     H14284   3.370   1.336  11.128  2.3656  0.2387  1.7531
    9MPD2    H114285   3.319   1.117  10.769  2.3968 -0.9800 -1.4016
    9MPD2    H214286   3.696   1.107  10.954  0.6800  1.3859  0.4852
    9MPD2    H314287   3.552   1.049  10.770 -0.8029  0.5934 -2.1476
    9MPD2     N14288   3.206   1.277  10.940  0.2424 -0.3473  0.2706
    9MPD2    H514289   3.150   1.237  10.865 -1.2727  0.8381  0.7746
    9MPD2    N114290   3.634   1.240  11.172  0.1554  0.1656 -0.4275
    9MPD2    H714291   3.722   1.190  11.174 -0.5316 -0.9751  0.9163
    1MPD1     C14292   3.416   0.341  16.579  0.1664 -0.3292  0.3320
    1MPD1    C114293   3.365   0.232  16.642 -0.3516  0.1924 -0.2622
    1MPD1    C214294   3.361   0.116  16.575  0.2146 -0.4941 -0.4006
    1MPD1    C314295   3.404   0.111  16.438  0.6949  0.4379  0.1219
    1MPD1    C414296   3.458   0.222  16.382  0.0748  0.5133  0.0222
    1MPD1    C514297   3.463   0.333  16.455 -0.2599  0.8274 -0.6110
    1MPD1     H14298   3.313   0.026  16.612  0.5767 -0.8301 -0.7576
    1MPD1    H114299   3.493   0.217  16.279  1.7768 -1.5716  0.7149
    1MPD1    H214300   3.419   0.435  16.634  0.1047 -1.3632  2.0990
    1MPD1    H314301   3.503   0.418  16.402 -1.9933  2.5224  0.7912
    1MPD1     N14302   3.393   0.006  16.352 -0.0581 -0.8528  0.7244
    1MPD1    H514303   3.422   0.023  16.256 -2.1550 -1.5025 -0.0216
    1MPD1    N114304   3.319   0.230  16.777  0.2003 -0.1644  0.4443
    1MPD1    H614305   3.252   0.154  16.783  2.0945 -1.9339 -0.6040
    1MPD1    H714306   3.275   0.318  16.804 -1.5710 -0.9545  0.0816
    2TMC2    C114307   3.345   4.445  16.055  0.2224 -0.0452  0.5061
    2TMC2    C214308   3.352   4.314  16.091  0.6743  0.0876  0.1989
    2TMC2    C314309   3.331   4.286  16.226 -0.4355 -0.3949 -0.0588
    2TMC2    C414310   3.346   4.549  16.145  0.1686  0.3605  0.0833
    2TMC2    C514311   3.336   4.518  16.279  0.2324  0.2300 -0.5679
    2TMC2    C614312   3.320   4.386  16.317  0.1162 -0.5158 -1.0494
    2TMC2     C14313   3.328   4.483  15.915  0.6618 -0.0138  0.5871
    2TMC2     O14314   3.360   4.596  15.884 -0.9886 -0.1301  0.8667
    2TMC2     H14315   3.363   4.236  16.016 -0.4673 -0.7719  0.9286
    2TMC2    H114316   3.337   4.652  16.112  2.4900  0.2327 -0.9443
    2TMC2    H214317   3.321   4.359  16.422  2.7940 -2.7239 -1.6616
    2TMC2    C714318   3.345   4.617  16.386  0.1957 -0.4646 -0.9273
    2TMC2    C814319   3.365   4.149  16.276 -0.6747  0.1618  0.1395
    2TMC2    O114320   3.313   4.577  16.502  0.3996 -0.1153 -0.3150
    2TMC2    O214321   3.383   4.138  16.394 -0.0313 -0.2476 -0.6013
    2TMC2    O514322   3.321   4.052  16.192  0.4250 -0.6600  0.2854
    2TMC2    H514323   3.290   4.089  16.107  0.1960 -0.9025  0.2661
    3MPD1     C14324   3.155   4.382  15.442 -0.7047  0.0161 -0.1136
    3MPD1    C114325   3.112   4.282  15.529 -0.5242  0.3321  0.7549
    3MPD1    C214326   3.145   4.283  15.659  0.2446  0.6355  0.0258
    3MPD1    C314327   3.225   4.387  15.713  0.0842 -0.5530  0.1262
    3MPD1    C414328   3.267   4.488  15.623  0.1610  0.4083 -0.3607
    3MPD1    C514329   3.230   4.488  15.492  0.2125  0.3201  0.6191
    3MPD1     H14330   3.111   4.199  15.718 -1.1796  0.5072 -0.9744
    3MPD1    H114331   3.332   4.567  15.658  0.9594 -0.3334 -0.1595
    3MPD1    H214332   3.130   4.395  15.337 -1.9342  2.8143  0.5225
    3MPD1    H314333   3.262   4.569  15.428  0.0491  0.6283  0.9247
    3MPD1     N14334   3.259   4.383  15.849 -0.6440  0.5026  0.8123
    3MPD1    H514335   3.236   4.294  15.892  0.3920  0.0205  0.3623
    3MPD1    N114336   3.041   4.172  15.473  0.2977  0.1359 -0.7289
    3MPD1    H614337   2.987   4.115  15.538  0.1351  2.9515  1.5888
    3MPD1    H714338   2.966   4.212  15.416  1.1649  2.5202 -0.1862
    1TMC1    C114339   1.149   3.539  13.031 -0.2866  0.7351  0.1094
    1TMC1    C214340   1.127   3.629  13.133 -0.1306 -0.5560  0.1934
    1TMC1    C314341   0.999   3.627  13.187 -0.3139  0.3483  0.8314
    1TMC1    C414342   1.053   3.457  12.976 -0.8778 -0.3461 -0.8174
    1TMC1    C514343   0.931   3.439  13.045  0.1646 -0.6484  0.6191
    1TMC1    C614344   0.905   3.533  13.140 -0.6202 -0.0785 -0.1905
    1TMC1     C14345   1.282   3.531  12.975 -0.2306  0.5746  0.0533
    1TMC1     O14346   1.300   3.510  12.855 -0.3976 -0.2113 -0.0597
    1TMC1     H14347   1.206   3.689  13.178 -1.2841 -0.3423  1.9039
    1TMC1    H114348   1.086   3.394  12.894  2.5519  0.4162 -0.0181
    1TMC1    H214349   0.806   3.529  13.184 -0.8717  0.5578 -0.6993
    1TMC1    C714350   0.841   3.337  13.003 -0.1282 -0.5712  0.1976
    1TMC1    C814351   0.960   3.684  13.316 -0.5147 -0.5834 -0.2062
    1TMC1    O114352   0.724   3.347  13.031  0.3704 -0.8799  0.0360
    1TMC1    O214353   0.886   3.618  13.391 -0.0671 -0.0511  0.8386
    1TMC1    O314354   0.909   3.222  12.975  0.9489  0.2937  0.2668
    1TMC1    H314355   0.998   3.230  13.015  2.0239  1.2998 -2.3331
    1TMC1    O514356   0.962   3.816  13.320 -0.5980 -0.5137 -0.3463
    1TMC1    H514357   1.002   3.857  13.240  0.6455 -1.8048 -0.4063
    2MPD2     C14358   1.571   3.595  12.935 -0.3776 -0.6455  0.4711
    2MPD2    C114359   1.511   3.568  13.061 -0.1068 -0.0659 -0.2785
    2MPD2    C214360   1.594   3.584  13.177  0.4993  0.4068  0.0690
    2MPD2    C314361   1.729   3.612  13.165  0.2268  0.0295  0.1437
    2MPD2    C414362   1.784   3.631  13.039  0.2965 -0.0577  0.3110
    2MPD2    C514363   1.702   3.631  12.930 -0.3168  0.2568 -0.2741
    2MPD2     H14364   1.552   3.561  13.274  2.0372 -0.3558  0.5519
    2MPD2    H114365   1.890   3.652  13.026 -0.4979  3.3679 -0.5920
    2MPD2    H214366   1.510   3.594  12.846 -0.8534 -2.6098  0.8163
    2MPD2    H314367   1.743   3.668  12.836  1.5464  0.4796  0.6402
    2MPD2     N14368   1.803   3.608  13.283  0.3312 -0.2719  0.1989
    2MPD2    H514369   1.768   3.581  13.374 -1.3449 -1.1060 -0.7120
    2MPD2    N114370   1.374   3.545  13.079  0.1897  1.1943  0.4048
    2MPD2    H714371   1.346   3.534  13.175  0.7934 -0.6743  0.3738
    3TCq1    O114372   2.386   3.646  13.642  0.2956 -0.0214  0.1646
    3TCq1    C114373   2.278   3.723  13.621 -0.0344 -0.5746  0.1851
    3TCq1    O214374   2.282   3.845  13.617 -0.8084  1.0577 -0.1601
    3TCq1    C214375   2.168   3.638  13.577 -0.8019 -0.1602  0.3172
    3TCq1    C314376   2.142   3.520  13.638  0.1411 -0.0481  0.1792
    3TCq1    C414377   2.032   3.448  13.591 -0.7969 -0.7443 -0.5627
    3TCq1    C514378   1.945   3.498  13.498  0.7214 -0.3636  0.0332
    3TCq1    C614379   1.982   3.615  13.437 -0.8197 -0.1127 -0.5231
    3TCq1    C714380   2.094   3.683  13.471  0.0885  0.1850 -0.2125
    3TCq1    C814381   1.938   3.637  13.294  0.4918 -0.4164  0.0606
    3TCq1    O414382   2.016   3.675  13.210 -0.2531 -0.0632 -0.1306
    3TCq1    C914383   1.993   3.328  13.665 -0.0992 -0.1513 -1.5309
    3TCq1    O514384   2.091   3.284  13.729  0.4849  0.5311  0.3131
    3TCq1    O614385   1.884   3.272  13.633 -0.3251 -0.4228 -0.5576
    3TCq1    H114386   2.364   3.556  13.612  0.2784 -0.0575  0.2865
    3TCq1    H214387   2.193   3.490  13.729  0.1766 -2.1618 -0.5207
    3TCq1    H314388   1.859   3.437  13.475  0.4466  0.3717 -0.9012
    3TCq1    H414389   2.125   3.765  13.408 -0.0340  1.2134  1.0709
    1MPD2     C14390   0.981   0.275  15.207 -0.5994 -0.6518  0.5206
    1MPD2    C114391   0.876   0.194  15.198 -0.3864  0.6182  0.8143
    1MPD2    C214392   0.879   0.083  15.113  0.0722  0.6879 -0.2500
    1MPD2    C314393   0.998   0.049  15.049  0.6489  0.7260  0.0725
    1MPD2    C414394   1.111   0.134  15.057 -0.0384  0.9968  0.2278
    1MPD2    C514395   1.103   0.241  15.149  0.5499  0.4187 -0.2971
    1MPD2     H14396   0.792   0.023  15.094  0.1337  0.8351 -0.9968
    1MPD2    H114397   1.206   0.119  15.007 -0.9852  0.5452 -1.4295
    1MPD2    H214398   0.984   0.362  15.271 -0.0552 -0.2740 -0.0196
    1MPD2    H314399   1.193   0.301  15.163  1.7467 -0.7344 -3.0059
    1MPD2     N14400   1.000   4.672  14.961 -0.0329  0.6584  0.5910
    1MPD2    H514401   0.916   4.617  14.976  1.2001 -0.6710  2.4640
    1MPD2    N114402   0.757   0.234  15.270  0.0367 -0.1884 -1.0540
    1MPD2    H714403   0.757   0.326  15.314 -1.0594 -1.7369  2.1979
    2TMC3    C114404   0.536   0.221  15.355 -0.4696  0.5389  0.1455
    2TMC3    C214405   0.431   0.125  15.375  0.1351  0.7861  0.2643
    2TMC3    C314406   0.300   0.149  15.332  0.5197 -0.1580 -0.1700
    2TMC3    C414407   0.501   0.343  15.299 -0.6457  0.2705 -0.6886
    2TMC3    C514408   0.372   0.368  15.276  0.7260  0.6144 -0.0664
    2TMC3    C614409   0.272   0.276  15.291  0.2006  0.7108  0.0543
    2TMC3     C14410   0.651   0.149  15.297 -0.2190  0.0837 -0.2552
    2TMC3     O14411   0.634   0.030  15.273 -0.0512 -0.4445 -0.2896
    2TMC3     H14412   0.455   0.031  15.422 -0.3720  0.2341 -0.6037
    2TMC3    H114413   0.568   0.412  15.247  0.5103 -0.2909  0.0633
    2TMC3    H214414   0.182   0.297  15.235 -0.4853 -0.1449  0.8497
    2TMC3    C714415   0.346   0.438  15.155  0.9526  0.6015 -0.7326
    2TMC3    C814416   0.254   0.060  15.231 -0.0785 -0.0262 -0.9148
    2TMC3    O114417   0.281   0.380  15.063 -0.0251  1.0285 -0.0350
    2TMC3    O214418   0.139   0.061  15.190  0.0193 -0.5205  0.2002
    3TCq1    O114419   0.658   1.588  14.908 -0.6532 -0.0005 -0.3253
    3TCq1    C114420   0.562   1.502  14.882  0.5558 -0.3559  0.6127
    3TCq1    O214421   0.501   1.506  14.781 -0.7736 -0.2507 -0.1800
    3TCq1    C214422   0.631   1.386  14.929 -0.0838  0.2542  0.4147
    3TCq1    C314423   0.639   1.376  15.068  0.0040  0.0349 -0.0467
    3TCq1    C414424   0.687   1.259  15.128  0.1002 -0.1166 -0.8658
    3TCq1    C514425   0.715   1.157  15.042  0.1352 -0.8392  0.2091
    3TCq1    C614426   0.698   1.161  14.911  0.5758  0.3652 -0.3246
    3TCq1    C714427   0.651   1.278  14.852 -0.1813  0.4070  0.6952
    3TCq1    C814428   0.635   1.043  14.853 -0.2388  0.6418 -0.0403
    3TCq1    O414429   0.611   1.045  14.734  0.0428  0.0666  0.1238
    3TCq1    C914430   0.694   1.243  15.262  0.2914 -0.1247 -0.0087
    3TCq1    O514431   0.614   1.321  15.323 -0.2984  0.3244  0.5513
    3TCq1    O614432   0.756   1.143  15.313  0.1576 -0.4059  0.2214
    3TCq1    H114433   0.725   1.549  14.969  1.5463  0.0946 -2.7070
    3TCq1    H214434   0.608   1.458  15.131  2.4641  1.2122 -0.3650
    3TCq1    H314435   0.761   1.066  15.081  1.8174 -0.2338 -0.3591
    3TCq1    H414436   0.615   1.288  14.750 -0.3109 -0.9649  0.6073
    4MPD2     C14437   0.487   0.784  14.800 -0.1416  0.0850 -0.0161
    4MPD2    C114438   0.534   0.828  14.920  0.1957 -0.6119 -0.6067
    4MPD2    C214439   0.501   0.753  15.027  0.5529  0.2810  0.1992
    4MPD2    C314440   0.431   0.630  15.021 -0.0799  0.3512 -0.6880
    4MPD2    C414441   0.406   0.582  14.901 -0.3709  0.2684  0.0964
    4MPD2    C514442   0.424   0.667  14.790  0.0258  0.4329  0.0031
    4MPD2     H14443   0.524   0.793  15.126 -0.3106 -1.6176  1.1700
    4MPD2    H114444   0.370   0.482  14.878  0.1502  0.8201 -3.1668
    4MPD2    H214445   0.509   0.847  14.714 -2.0957 -1.2908 -1.5299
    4MPD2    H314446   0.399   0.629  14.692 -0.5279  3.0866 -0.9029
    4MPD2     N14447   0.416   0.554  15.142  0.5454 -0.3050 -0.4459
    4MPD2    H514448   0.466   0.590  15.223 -0.0548 -3.4510  1.3001
    4MPD2    N114449   0.580   0.964  14.944 -0.6320  0.1726  0.0559
    4MPD2    H714450   0.588   0.997  15.040  1.0492  0.4143 -0.1719
    5TMC2    C114451   0.824   4.430  14.825  0.3889  0.0060  0.8175
    5TMC2    C214452   0.792   4.473  14.699  0.3373 -0.0865  0.1429
    5TMC2    C314453   0.894   4.528  14.629 -0.3323 -0.3086 -0.2246
    5TMC2    C414454   0.951   4.460  14.874 -0.1611 -0.4950 -0.2471
    5TMC2    C514455   1.045   4.520  14.799  0.5423 -0.7672  0.0027
    5TMC2    C614456   1.011   4.556  14.676 -0.6699  0.2185  0.4062
    5TMC2     C14457   0.715   4.451  14.916 -0.4701  0.2839  0.2175
    5TMC2     O14458   0.751   4.503  15.023 -0.1384  0.4635 -0.2191
    5TMC2     H14459   0.698   4.465  14.645 -0.0718 -0.6452  0.9498
    5TMC2    H114460   0.978   4.425  14.973 -1.0412 -2.3777 -0.6651
    5TMC2    H214461   1.084   4.610  14.617 -0.0142  0.8289  1.7900
    5TMC2    C714462   1.094   4.633  14.865  0.6983 -0.8158 -0.6006
    5TMC2    C814463   0.874   4.566  14.489  0.7111  0.0051 -0.6321
    5TMC2    O114464   1.187   4.699  14.819 -0.0384 -0.4743 -0.0404
    5TMC2    O214465   0.793   4.647  14.450  0.6042 -0.4451  0.1579
    5TMC2    O514466   0.987   4.538  14.426 -0.1832  0.0545  0.3217
    5TMC2    H514467   1.042   4.465  14.462 -2.1159 -0.4143  2.2587
    6MPD2     C14468   0.232   4.572  15.040  0.5201  0.0954 -0.0998
    6MPD2    C114469   0.353   4.622  15.086 -0.4535  0.3494  0.3792
    6MPD2    C214470   0.474   4.578  15.035 -0.1715  0.9278 -0.4474
    6MPD2    C314471   0.474   4.482  14.933  0.7236 -0.5351  0.5266
    6MPD2    C414472   0.358   4.433  14.883  0.1554 -0.1095 -0.5612
    6MPD2    C514473   0.235   4.483  14.934 -0.1941  0.2208 -0.1235
    6MPD2     H14474   0.567   4.625  15.065 -0.4383 -0.6868  2.9814
    6MPD2    H114475   0.350   4.352  14.811  1.0175 -1.9126  1.3736
    6MPD2    H214476   0.140   4.591  15.093  0.5569 -0.9290  0.3305
    6MPD2    H314477   0.144   4.438  14.897  1.1838 -2.3320 -0.4066
    6MPD2     N14478   0.592   4.432  14.865  0.4776 -0.4694 -0.0767
    6MPD2    H514479   0.576   4.391  14.774 -2.8579  0.3948  0.1181
    6MPD2    N114480   0.363   4.729  15.178 -0.4757  0.6750 -0.0397
    6MPD2    H714481   0.460   0.007  15.206 -0.8531 -0.6918  1.9276
  945NH4     N114482   1.229   0.442  10.272  0.2801 -0.0026 -0.2471
  945NH4     H214483   1.320   0.457  10.319 -0.0618 -0.3531  0.5371
  945NH4     H314484   1.154   0.471  10.339  0.1654  1.3522 -0.9627
  945NH4     H414485   1.214   0.340  10.256  1.4274 -0.1838 -0.1940
  945NH4     H514486   1.208   0.492  10.184  2.1071 -1.0632 -1.2739
  946SOD     NA14487   0.503   1.376  15.490  0.1221 -0.2907 -0.6595
  947SOD     NA14488   4.728   0.156  15.066  0.2766 -0.0201 -0.0342
  948SOD     NA14489   3.650   0.743  13.669 -0.0690 -0.1441  0.3534
  949SOD     NA14490   1.524   4.710  15.387  0.6131 -0.0118  0.0028
  950SOD     NA14491   0.234   0.891   8.776 -0.7430 -0.2788  0.2505
  951SOD     NA14492   3.596   2.367   8.654 -0.5284 -0.0704  0.2505
  952SOD     NA14493   1.768   4.010  11.584  0.2421 -0.0664  0.2450
  953SOL     OW14494   1.246   0.363  13.551  0.0003  0.2773  0.5095
  953SOL    HW114495   1.243   0.308  13.473  0.6044  2.3395 -0.9502
  953SOL    HW214496   1.162   0.347  13.593  0.0660  0.3571  0.6706
  954SOL     OW14497   3.265   4.160   8.557  0.5026 -0.1364 -0.2904
  954SOL    HW114498   3.284   4.118   8.640 -1.7212  0.0940  0.3440
  954SOL    HW214499   3.208   4.094   8.518  0.9748 -1.5554  1.4325
  955SOL     OW14500   1.373   1.868  14.793 -0.0310  0.2513 -0.0424
  955SOL    HW114501   1.436   1.917  14.740  0.0476 -0.7525 -0.8588
  955SOL    HW214502   1.431   1.820  14.852 -1.8479 -0.9277  0.7877
  956SOL     OW14503   4.287   1.933   7.860  0.8921 -0.0261 -0.5225
  956SOL    HW114504   4.322   1.854   7.819 -0.6332 -0.1747 -1.5208
  956SOL    HW214505   4.305   1.996   7.791  1.9224  1.9130  1.4849
  957SOL     OW14506   2.856   3.806  13.268  0.0192  0.7008 -0.1322
  957SOL    HW114507   2.904   3.728  13.297 -1.6254  0.2436  1.3733
  957SOL    HW214508   2.766   3.797  13.301  0.1116 -0.4837 -0.1865
  958SOL     OW14509   0.416   1.078  11.715  0.3780  0.1907  0.0405
  958SOL    HW114510   0.455   1.011  11.770  0.3656 -0.5832 -0.8857
  958SOL    HW214511   0.326   1.049  11.706  0.4915 -0.4060  0.8959
  959SOL     OW14512   4.350   4.280   5.089  0.3114  0.6343 -0.7283
  959SOL    HW114513   4.392   4.287   5.174 -0.8725  0.9555 -0.1672
  959SOL    HW214514   4.375   4.366   5.054 -0.0150  1.1293  0.2576
  960SOL     OW14515   0.093   2.491  11.212 -0.1659 -0.1198 -0.3783
  960SOL    HW114516   0.080   2.508  11.305 -1.9929 -4.2900  0.1307
  960SOL    HW214517   0.183   2.522  11.215 -0.0783 -0.5272  1.0388
  961SOL     OW14518   3.617   0.208   4.139 -0.2999  0.1220 -0.5449
  961SOL    HW114519   3.532   0.198   4.096 -0.7395  0.9121  0.1357
  961SOL    HW214520   3.599   0.250   4.223  2.2144  3.0051 -1.4337
  962SOL     OW14521   1.779   1.571   0.442  0.0003  0.5030 -0.5855
  962SOL    HW114522   1.832   1.651   0.445  1.9210 -0.7941 -0.1040
  962SOL    HW214523   1.765   1.553   0.350  0.0184  2.1838 -0.9115
  963SOL     OW14524   0.944   2.813  11.594 -0.3364 -0.5221  0.1967
  963SOL    HW114525   1.017   2.871  11.616 -0.0874 -0.9768  0.5718
  963SOL    HW214526   0.934   2.832  11.501  0.7466 -0.3482  0.1159
  964SOL     OW14527   1.112   1.620   5.622 -0.1078 -0.0430 -0.2329
  964SOL    HW114528   1.073   1.535   5.603  1.0824 -1.1544  2.2998
  964SOL    HW214529   1.034   1.668   5.595 -0.7898 -1.0711 -0.0625
  965SOL     OW14530   4.666   1.707   3.983 -0.1654 -0.3572 -0.6495
  965SOL    HW114531   4.616   1.762   3.923  0.0865 -0.1533 -0.6709
  965SOL    HW214532   4.659   1.622   3.939  1.2128  0.0571 -1.6874
  966SOL     OW14533   2.500   3.248   7.600  0.1176 -0.1410 -0.0019
  966SOL    HW114534   2.432   3.189   7.633  0.8271 -1.6826 -1.2824
  966SOL    HW214535   2.504   3.223   7.507  0.1919  1.9387 -0.5406
  967SOL     OW14536   2.179   1.859   4.029  0.3518  0.1849 -0.5391
  967SOL    HW114537   2.126   1.881   3.952  0.0650  1.4116  0.0202
  967SOL    HW214538   2.122   1.856   4.106  0.9603  0.9968 -0.0583
  968SOL     OW14539   4.016   3.772   9.435  0.0986  0.2893 -0.4748
  968SOL    HW114540   3.929   3.732   9.433  1.6744 -3.2324  0.4763
  968SOL    HW214541   4.008   3.804   9.525  1.2822  1.9715 -0.9767
  969SOL     OW14542   4.188   4.339   0.884  0.1163  0.3915 -0.4203
  969SOL    HW114543   4.149   4.410   0.833  2.8605  1.9709 -0.3279
  969SOL    HW214544   4.125   4.271   0.859 -0.3959  0.7226 -0.0307
  970SOL     OW14545   3.239   3.648   3.536  0.1105  0.2115  0.1482
  970SOL    HW114546   3.288   3.580   3.582 -0.9621 -0.0519  0.8938
  970SOL    HW214547   3.243   3.625   3.443  2.3329 -1.0564  0.5664
  971SOL     OW14548   2.554   1.376  14.780 -0.0488 -0.0495 -0.4787
  971SOL    HW114549   2.634   1.331  14.753 -0.5204 -0.2578 -1.5257
  971SOL    HW214550   2.511   1.305  14.829  0.5542 -0.2200 -0.2007
  972SOL     OW14551   1.490   3.223   4.312  0.3014  0.0182 -0.1133
  972SOL    HW114552   1.515   3.196   4.401 -0.5212  1.0917  0.4450
  972SOL    HW214553   1.517   3.314   4.329 -3.7100  1.3366 -0.7054
  973SOL     OW14554   3.819   4.120   9.595 -0.4809 -0.0329  0.0425
  973SOL    HW114555   3.830   4.049   9.659 -0.6261 -0.7646 -0.7429
  973SOL    HW214556   3.843   4.065   9.520 -1.9610  0.9491 -1.1496
  974SOL     OW14557   3.649   4.262   8.200  0.1343  0.3954 -0.9730
  974SOL    HW114558   3.568   4.308   8.180 -0.6681 -0.6276 -0.0598
  974SOL    HW214559   3.625   4.233   8.287 -0.8427  1.5780 -0.8540
  975SOL     OW14560   4.670   0.371  15.069  0.3070 -0.2022  0.0841
  975SOL    HW114561   4.663   0.422  15.150 -0.6696  1.1353 -0.8393
  975SOL    HW214562   4.607   0.423  15.019  1.6505 -0.9669 -2.3678
  976SOL     OW14563   2.674   3.933   0.347 -0.5244  0.3484  0.5325
  976SOL    HW114564   2.672   4.023   0.313  0.6415  0.4013  0.6103
  976SOL    HW214565   2.767   3.913   0.348 -0.7745 -0.8432 -0.7431
  977SOL     OW14566   3.218   0.398   7.398  0.2718  0.5673  0.1641
  977SOL    HW114567   3.124   0.384   7.414  0.8727 -2.7644  0.7945
  977SOL    HW214568   3.251   0.311   7.421 -2.5809 -0.4060  0.6335
  978SOL     OW14569   4.435   2.425   1.426 -0.1351 -0.1963 -0.0390
  978SOL    HW114570   4.463   2.425   1.517 -0.4113 -0.9552  0.0465
  978SOL    HW214571   4.508   2.477   1.391  0.4136  1.0114  2.8825
  979SOL     OW14572   1.890   1.589  14.087  0.5420 -0.0258 -0.3753
  979SOL    HW114573   1.815   1.544  14.125  1.1785 -1.5761 -0.9589
  979SOL    HW214574   1.943   1.513  14.063 -0.7695 -0.6444 -1.2994
  980SOL     OW14575   0.878   2.847   3.117 -0.5759  0.2093  0.5101
  980SOL    HW114576   0.910   2.904   3.188 -0.1650  2.0091 -1.1249
  980SOL    HW214577   0.869   2.763   3.161 -0.8681 -0.3822 -0.6805
  981SOL     OW14578   1.820   1.764   4.745  0.1898  0.1950 -0.3015
  981SOL    HW114579   1.728   1.788   4.751  0.9496  3.2948 -1.3010
  981SOL    HW214580   1.821   1.687   4.802 -2.8949  1.5089  1.5074
  982SOL     OW14581   3.567   2.316   6.609  0.4786 -0.1702 -0.6640
  982SOL    HW114582   3.621   2.365   6.672 -0.2390  0.3260 -0.4321
  982SOL    HW214583   3.544   2.387   6.550  1.9332  0.0428 -0.9736
  983SOL     OW14584   1.975   2.116   2.162  0.4263 -0.5175  0.2962
  983SOL    HW114585   2.066   2.092   2.146  0.5480  0.1286  0.0122
  983SOL    HW214586   1.938   2.031   2.187 -1.5267  0.1586 -0.2693
  984SOL     OW14587   4.736   0.246   4.914 -0.3600 -0.5217  0.1811
  984SOL    HW114588   0.090   0.228   4.887  0.2357 -1.1619  2.5813
  984SOL    HW214589   4.704   0.156   4.917  0.8764 -0.9339  1.5540
  985SOL     OW14590   0.530   1.579   0.424  0.1483  0.4791 -0.1734
  985SOL    HW114591   0.625   1.576   0.435  0.3498  2.3418 -1.3808
  985SOL    HW214592   0.512   1.669   0.452  0.8826 -0.1068  2.1507
  986SOL     OW14593   3.651   2.551   6.696 -0.0524  0.1208 -0.7986
  986SOL    HW114594   3.616   2.606   6.765 -1.2899 -0.2759 -1.1210
  986SOL    HW214595   3.647   2.618   6.627 -0.9968  0.3652 -0.4999
  987SOL     OW14596   4.002   3.745   7.066 -0.2146 -0.4718  0.1083
  987SOL    HW114597   3.934   3.683   7.038 -1.9338  2.2705 -1.7404
  987SOL    HW214598   4.074   3.722   7.007 -0.8447 -0.5711 -0.6278
  988SOL     OW14599   3.750   2.143   2.286  0.2028  0.3324 -0.2498
  988SOL    HW114600   3.809   2.123   2.214  1.6607 -0.1095  1.0872
  988SOL    HW214601   3.716   2.061   2.322 -0.6274  0.9204  0.3076
  989SOL     OW14602   0.651   1.771   2.970  0.3439  0.3022 -0.2152
  989SOL    HW114603   0.701   1.766   3.051  0.6470 -1.7104 -0.5232
  989SOL    HW214604   0.640   1.866   2.966  0.8669  0.3288 -1.0563
  990SOL     OW14605   4.209   2.486   6.936 -0.1627  0.1466 -0.0722
  990SOL    HW114606   4.124   2.455   6.967 -1.2861  1.9110 -1.3707
  990SOL    HW214607   4.181   2.577   6.926 -2.4582 -0.7185 -1.3377
  991SOL     OW14608   4.211   2.933   9.871  0.3234  0.3335  0.2255
  991SOL    HW114609   4.160   2.979   9.804 -0.2914  0.1319  0.5609
  991SOL    HW214610   4.286   2.898   9.822  0.1153  1.0966 -0.6341
  992SOL     OW14611   3.330   0.777   9.153  0.3196 -0.3557  0.0567
  992SOL    HW114612   3.236   0.757   9.159  0.1648  0.6366  0.8854
  992SOL    HW214613   3.333   0.837   9.078 -2.2820  0.0722  0.2736
  993SOL     OW14614   4.355   1.329   2.631 -0.6647 -0.1706  0.0096
  993SOL    HW114615   4.411   1.278   2.689 -0.6332 -0.9980 -0.7512
  993SOL    HW214616   4.418   1.380   2.579  0.5352 -0.8971  0.7659
  994SOL     OW14617   2.377   2.859   2.583 -0.0383  0.2967 -0.2575
  994SOL    HW114618   2.290   2.866   2.623  0.9483  4.3127  1.1497
  994SOL    HW214619   2.421   2.938   2.615 -2.8248  1.3128  1.0940
  995SOL     OW14620   3.329   1.150   5.332 -0.2208 -0.4311  0.2211
  995SOL    HW114621   3.404   1.093   5.347  0.0824  0.8346  3.6274
  995SOL    HW214622   3.286   1.126   5.414 -2.0249  1.6207 -0.1206
  996SOL     OW14623   4.165   3.965   2.249  0.2112 -0.7408  0.1186
  996SOL    HW114624   4.211   4.044   2.278 -1.6551  0.1617  0.6255
  996SOL    HW214625   4.169   3.910   2.327 -3.4361 -0.6529  0.3711
  997SOL     OW14626   0.761   4.098   7.770  0.1251 -0.3628  0.3096
  997SOL    HW114627   0.693   4.103   7.702  0.2872  1.3190  0.2548
  997SOL    HW214628   0.764   4.186   7.809  1.6640 -0.0913 -0.4350
  998SOL     OW14629   3.976   3.963  16.955 -0.3632  0.3573  0.4660
  998SOL    HW114630   4.014   3.878  16.976  1.6381  1.6378  2.0836
  998SOL    HW214631   4.013   4.023  17.020 -0.1271 -0.4089  1.0319
  999SOL     OW14632   3.445   4.177   6.375  0.4133 -0.1508 -0.1196
  999SOL    HW114633   3.388   4.194   6.300  0.6914  3.0414  0.3668
  999SOL    HW214634   3.516   4.127   6.337  0.0465 -0.4666 -0.3869
 1000SOL     OW14635   3.055   0.419   2.268 -0.4478  0.3839 -0.1373
 1000SOL    HW114636   3.049   0.374   2.184  4.0223 -0.2383 -0.1504
 1000SOL    HW214637   2.983   0.393   2.325  0.2303 -0.7310  0.2052
 1001SOL     OW14638   2.080   0.737  17.245  0.5449  0.0774  0.0135
 1001SOL    HW114639   2.126   0.688  17.177 -0.5099 -1.4690  0.3969
 1001SOL    HW214640   2.067   0.677  17.319 -0.9431  0.1331 -0.2066
 1002SOL     OW14641   1.127   1.692   5.904 -0.2295 -0.4170 -0.0119
 1002SOL    HW114642   1.073   1.615   5.919  0.0714 -0.3572  1.3529
 1002SOL    HW214643   1.141   1.668   5.813 -2.7125 -1.6914 -0.0524
 1003SOL     OW14644   2.413   3.471  14.711  0.1279  0.9814 -0.5373
 1003SOL    HW114645   2.494   3.420  14.715  0.0664  1.1474  3.0630
 1003SOL    HW214646   2.354   3.407  14.752  1.3492 -0.7793 -1.5189
 1004SOL     OW14647   4.045   0.530   8.241  0.0920 -0.1408 -0.0916
 1004SOL    HW114648   4.003   0.559   8.321 -1.1914  1.9271 -1.4988
 1004SOL    HW214649   4.119   0.591   8.232  0.1031  0.0111  1.0923
 1005SOL     OW14650   0.796   3.338   2.733 -0.2476  0.0578 -0.8057
 1005SOL    HW114651   0.853   3.398   2.686 -1.0521  0.7421 -0.9051
 1005SOL    HW214652   0.806   3.355   2.827 -0.4405 -0.1430 -0.7467
 1006SOL     OW14653   3.138   0.880   2.017 -0.1409 -0.1228 -0.5896
 1006SOL    HW114654   3.121   0.923   1.932 -0.4166 -1.7733 -1.3600
 1006SOL    HW214655   3.061   0.910   2.066 -0.0823  0.6649 -0.9647
 1007SOL     OW14656   2.025   4.208   2.923  0.0603 -0.1912 -0.2830
 1007SOL    HW114657   2.025   4.121   2.964  0.8867  0.1524  0.4308
 1007SOL    HW214658   2.065   4.176   2.842  2.0677  0.7903  0.3222
 1008SOL     OW14659   3.837   2.435   4.285 -0.3336 -0.1315 -0.3731
 1008SOL    HW114660   3.747   2.436   4.318 -0.1099  0.4677  0.2192
 1008SOL    HW214661   3.830   2.360   4.226 -1.0834  0.5249 -1.1183
 1009SOL     OW14662   4.070   4.098  12.011 -0.0098  0.8601 -0.1461
 1009SOL    HW114663   4.099   4.188  11.998 -0.5188  1.5014  2.9963
 1009SOL    HW214664   3.981   4.113  12.043 -0.4164  1.2464 -1.4870
 1010SOL     OW14665   2.627   1.954   6.215  0.0508 -0.5258  0.1302
 1010SOL    HW114666   2.699   1.906   6.174  0.1740 -0.9927  0.9017
 1010SOL    HW214667   2.602   1.902   6.291 -1.0836  1.5589  1.1845
 1011SOL     OW14668   1.221   3.775   4.735  0.3786 -0.4671  0.1146
 1011SOL    HW114669   1.161   3.737   4.799 -0.8004  1.4835  0.1807
 1011SOL    HW214670   1.235   3.860   4.776 -0.8853  0.4490 -1.3643
 1012SOL     OW14671   2.631   2.305   1.473  0.3605  0.8608  0.5483
 1012SOL    HW114672   2.699   2.252   1.514  1.5276 -0.4527 -3.0958
 1012SOL    HW214673   2.631   2.391   1.516  0.4588  0.9296  0.4121
 1013SOL     OW14674   1.154   1.864   6.695 -0.1633  0.3397 -0.6801
 1013SOL    HW114675   1.067   1.896   6.719  0.5629  1.6584  0.1909
 1013SOL    HW214676   1.130   1.790   6.639  1.9215 -0.4824 -0.4607
 1014SOL     OW14677   2.230   2.844   2.114 -0.0660  0.4253 -0.1065
 1014SOL    HW114678   2.269   2.792   2.045  0.2242 -0.7357  0.9352
 1014SOL    HW214679   2.155   2.787   2.133 -0.8500  0.5091 -2.9787
 1015SOL     OW14680   0.084   2.218   5.231  0.3932  0.6681  0.0442
 1015SOL    HW114681   0.151   2.284   5.251 -0.8496  1.2885  2.1434
 1015SOL    HW214682   0.010   2.273   5.205  0.7321  0.5487 -1.1790
 1016SOL     OW14683   3.875   1.034  15.068 -0.7844 -0.3747  0.5483
 1016SOL    HW114684   3.886   1.127  15.086 -0.2589  0.0113 -1.6654
 1016SOL    HW214685   3.834   0.999  15.147 -0.4223 -2.6386 -0.2614
 1017SOL     OW14686   1.238   4.327  14.267 -0.2813  0.3504 -0.0775
 1017SOL    HW114687   1.317   4.370  14.299 -0.5211 -1.7639  3.2917
 1017SOL    HW214688   1.225   4.368  14.181  0.7508 -0.6842 -0.7273
 1018SOL     OW14689   1.734   0.214   5.773  0.1586 -0.2323 -0.1045
 1018SOL    HW114690   1.769   0.158   5.704  0.6981 -0.8652  0.6854
 1018SOL    HW214691   1.810   0.272   5.781 -1.0450  1.2432  0.6390
 1019SOL     OW14692   2.145   3.075   3.086  0.1813  0.1076  0.2676
 1019SOL    HW114693   2.063   3.076   3.136 -0.2395  2.2589 -0.4799
 1019SOL    HW214694   2.202   3.016   3.134  2.4157  3.8764  2.1704
 1020SOL     OW14695   0.586   2.286   4.951 -0.4958  0.2019  0.5639
 1020SOL    HW114696   0.646   2.351   4.915 -0.2116 -1.6437 -2.2984
 1020SOL    HW214697   0.510   2.343   4.961 -0.5833 -0.1480  1.9461
 1021SOL     OW14698   3.920   4.715   8.323  0.1731 -0.5887  0.5290
 1021SOL    HW114699   3.908   4.621   8.306 -2.1431 -0.2898  0.5787
 1021SOL    HW214700   3.836   0.014   8.350  0.4280  1.5987 -1.6538
 1022SOL     OW14701   3.296   0.758  17.331 -0.1544 -0.1329 -0.2705
 1022SOL    HW114702   3.356   0.813  17.280 -1.6784  2.0957  0.3277
 1022SOL    HW214703   3.259   0.706  17.260 -0.6087  0.4922 -0.4967
 1023SOL     OW14704   2.129   3.362   5.246 -0.1285 -0.2474 -0.3399
 1023SOL    HW114705   2.064   3.308   5.290 -2.7712  1.6718 -1.8623
 1023SOL    HW214706   2.205   3.340   5.301  0.3246  2.1321  0.0024
 1024SOL     OW14707   2.013   3.545  17.048  0.0896  0.6513 -0.5317
 1024SOL    HW114708   1.955   3.548  17.124 -2.1237  0.2979 -2.2300
 1024SOL    HW214709   2.092   3.594  17.074  0.5923 -0.1842 -0.4868
 1025SOL     OW14710   4.491   3.792   4.680  0.0473  0.7837 -0.3220
 1025SOL    HW114711   4.492   3.888   4.678  1.4407  0.7956  1.1843
 1025SOL    HW214712   4.399   3.776   4.662 -0.0677  2.1421 -0.9595
 1026SOL     OW14713   4.609   2.891   2.375  0.1159  0.2757  0.0843
 1026SOL    HW114714   4.607   2.955   2.304 -0.9586 -2.0321 -1.9473
 1026SOL    HW214715   4.683   2.914   2.431 -0.5936 -1.0533  1.5814
 1027SOL     OW14716   0.183   4.628   9.240 -0.8581  0.2565  0.1385
 1027SOL    HW114717   0.128   4.554   9.265  0.5308 -0.7735  0.1529
 1027SOL    HW214718   0.190   4.617   9.146  0.4405  0.0654  0.2555
 1028SOL     OW14719   0.092   4.515   5.110 -0.2744 -0.1061 -0.2697
 1028SOL    HW114720   0.183   4.537   5.128 -0.1459  0.6076 -1.7668
 1028SOL    HW214721   0.057   4.456   5.177  0.1397  0.3366  0.3324
 1029SOL     OW14722   3.803   1.709   1.764  0.6675  0.3729 -0.2915
 1029SOL    HW114723   3.712   1.714   1.733  0.4764 -1.2231 -0.0125
 1029SOL    HW214724   3.838   1.656   1.692 -2.9143  1.0262 -2.5589
 1030SOL     OW14725   1.915   0.263   8.747 -0.5786 -0.1536 -0.2920
 1030SOL    HW114726   1.948   0.210   8.675 -2.6455  1.3086 -2.3219
 1030SOL    HW214727   1.822   0.242   8.741 -0.7581  0.2187  1.2458
 1031SOL     OW14728   2.798   0.785  11.091  0.0306 -0.4686  0.1613
 1031SOL    HW114729   2.779   0.735  11.011 -1.0404  1.2309 -0.6469
 1031SOL    HW214730   2.866   0.850  11.073  0.9393 -0.6850  2.8318
 1032SOL     OW14731   1.104   4.250  11.320 -0.0220 -0.2778 -0.1169
 1032SOL    HW114732   1.043   4.232  11.249 -1.3181  1.1580  0.6352
 1032SOL    HW214733   1.180   4.222  11.268 -0.0999  0.9694 -0.9119
 1033SOL     OW14734   4.446   2.411   1.681  0.3484  0.0463 -0.3474
 1033SOL    HW114735   4.445   2.416   1.777 -0.2083 -0.1654 -0.3456
 1033SOL    HW214736   4.383   2.341   1.668  0.3899  0.1780 -1.2299
 1034SOL     OW14737   1.671   0.980   8.091  0.4502  0.7235 -0.4376
 1034SOL    HW114738   1.633   0.903   8.132 -1.2610  0.0962 -3.1761
 1034SOL    HW214739   1.752   0.983   8.142 -0.1435  0.1010  0.5456
 1035SOL     OW14740   4.346   3.242   9.473  0.4310 -0.4244 -0.1524
 1035SOL    HW114741   4.370   3.249   9.566  1.0815  0.4234 -0.3797
 1035SOL    HW214742   4.402   3.307   9.430  1.4569 -1.4926 -0.4086
 1036SOL     OW14743   3.806   2.667   6.959 -0.0784  0.5004  0.0153
 1036SOL    HW114744   3.732   2.717   6.924 -0.4554  0.3135  0.5502
 1036SOL    HW214745   3.748   2.595   6.980  1.9919 -1.0349  0.4181
 1037SOL     OW14746   0.204   3.626   3.350  0.1649 -0.5406  0.1641
 1037SOL    HW114747   0.198   3.563   3.421 -0.1177  0.1340  0.7377
 1037SOL    HW214748   0.296   3.625   3.325 -0.1254  2.6743 -1.0678
 1038SOL     OW14749   0.501   3.551   2.015 -0.2346 -0.2355 -0.2831
 1038SOL    HW114750   0.493   3.623   1.952  1.9855  1.5593  1.4724
 1038SOL    HW214751   0.512   3.477   1.955 -3.1016 -1.2914  0.4679
 1039SOL     OW14752   2.658   1.196  11.766 -0.3885  0.0040  0.4521
 1039SOL    HW114753   2.666   1.122  11.827  2.7531 -0.9924 -1.1632
 1039SOL    HW214754   2.588   1.160  11.712  0.5079 -0.4063 -0.4487
 1040SOL     OW14755   0.483   0.763   2.623 -0.4851  0.0809  0.5459
 1040SOL    HW114756   0.461   0.848   2.662  0.0441  0.3302  0.3020
 1040SOL    HW214757   0.568   0.739   2.659 -0.9971 -0.6126  1.3036
 1041SOL     OW14758   2.914   2.608   7.358  0.5205  0.5858 -0.3274
 1041SOL    HW114759   2.968   2.540   7.398 -0.0728 -0.7791 -1.8178
 1041SOL    HW214760   2.855   2.562   7.298  0.4731 -0.0411  0.1976
 1042SOL     OW14761   3.010   3.771  17.236 -0.9142 -0.1988  0.6115
 1042SOL    HW114762   3.097   3.802  17.212 -1.1750 -1.4583 -1.9778
 1042SOL    HW214763   2.995   3.815  17.320  0.0365 -0.8623  1.1368
 1043SOL     OW14764   0.434   1.880   9.045  0.2132  0.1331 -0.1550
 1043SOL    HW114765   0.420   1.785   9.045  0.7961  0.0483 -0.2528
 1043SOL    HW214766   0.365   1.897   8.980 -0.6384  0.4659  0.8437
 1044SOL     OW14767   1.397   0.035  15.194  0.1328 -0.9170  0.1226
 1044SOL    HW114768   1.410   0.104  15.130  3.6078 -2.8218 -1.2192
 1044SOL    HW214769   1.333   4.716  15.149 -2.2085  1.3252  0.6748
 1045SOL     OW14770   1.958   1.119   9.286  0.1305  0.0062  0.1443
 1045SOL    HW114771   1.943   1.048   9.348  0.4612 -0.5568 -0.4287
 1045SOL    HW214772   1.888   1.119   9.221  0.5064  0.5901 -0.2672
 1046SOL     OW14773   2.473   1.898   3.965 -0.6404 -0.6329  0.1360
 1046SOL    HW114774   2.378   1.904   3.972 -0.5543  0.2854  0.5312
 1046SOL    HW214775   2.486   1.830   4.030  0.2314  1.2855  1.9648
 1047SOL     OW14776   2.385   3.885   3.632  0.2128 -0.2895 -0.5986
 1047SOL    HW114777   2.406   3.947   3.561 -4.4168 -0.5169 -2.1223
 1047SOL    HW214778   2.309   3.929   3.669  1.6555  1.6731  0.0961
 1048SOL     OW14779   3.859   0.462  17.565 -0.5120 -0.5102 -0.0792
 1048SOL    HW114780   3.852   0.388  17.626  1.4931 -2.0040 -1.6871
 1048SOL    HW214781   3.769   0.464  17.533 -0.8310 -0.6338  0.7998
 1049SOL     OW14782   3.419   4.227   2.937  0.1777  0.3901  0.4613
 1049SOL    HW114783   3.423   4.142   2.895 -0.6490  1.3839 -1.6006
 1049SOL    HW214784   3.511   4.250   2.950 -0.5582  1.3474  4.0825
 1050SOL     OW14785   0.764   1.864   5.280  0.4436 -0.0926 -0.3896
 1050SOL    HW114786   0.797   1.786   5.236  1.2540 -0.9849  1.8084
 1050SOL    HW214787   0.840   1.921   5.285  1.3034 -1.2396 -0.3546
 1051SOL     OW14788   1.780   0.323   7.264  0.0226  0.2940  0.1027
 1051SOL    HW114789   1.727   0.278   7.330  0.4137 -3.4991 -2.1374
 1051SOL    HW214790   1.845   0.364   7.320  1.2938  0.4929 -1.5304
 1052SOL     OW14791   3.140   2.633  16.499 -0.0301  0.2506  0.6002
 1052SOL    HW114792   3.162   2.675  16.416 -1.6880  0.7764  0.4307
 1052SOL    HW214793   3.048   2.615  16.477 -0.1358  1.0444  0.3781
 1053SOL     OW14794   4.508   1.900  15.751  0.1569 -0.1540  0.2018
 1053SOL    HW114795   4.594   1.930  15.723 -0.4201  1.8193  0.5325
 1053SOL    HW214796   4.472   1.973  15.801 -2.1411 -1.8374  1.0025
 1054SOL     OW14797   1.912   4.178  14.756  0.4837  0.2586 -0.0177
 1054SOL    HW114798   1.867   4.224  14.827  1.4177  0.0573  0.7062
 1054SOL    HW214799   1.942   4.099  14.800  0.2087 -0.1652 -0.5900
 1055SOL     OW14800   3.207   3.509   2.886 -0.0989  0.3181  0.3475
 1055SOL    HW114801   3.111   3.500   2.890 -0.1723 -0.5229 -3.4552
 1055SOL    HW214802   3.224   3.598   2.856  1.6677 -0.6852 -1.6124
 1056SOL     OW14803   2.665   2.828   8.136  0.3846 -0.2083 -0.0937
 1056SOL    HW114804   2.653   2.733   8.125  2.6052 -0.7723  2.2009
 1056SOL    HW214805   2.623   2.879   8.067  0.1190 -1.1205 -0.6032
 1057SOL     OW14806   3.073   3.129   4.204  0.7042  0.4503 -0.0733
 1057SOL    HW114807   3.008   3.159   4.267 -0.7292 -1.9640 -0.3850
 1057SOL    HW214808   3.153   3.154   4.249  1.7414 -1.8738 -0.5970
 1058SOL     OW14809   1.994   2.231   1.882 -0.2024 -0.0752  0.8976
 1058SOL    HW114810   1.957   2.146   1.856 -0.4886 -0.2595  1.9101
 1058SOL    HW214811   2.004   2.224   1.977  0.3033  0.8665  0.9096
 1059SOL     OW14812   2.387   3.195  11.431 -0.2059  0.5337  0.2971
 1059SOL    HW114813   2.444   3.198  11.354  2.1455 -0.6267  1.9613
 1059SOL    HW214814   2.448   3.163  11.498 -0.6357  0.4189  0.6298
 1060SOL     OW14815   1.973   3.273   2.625 -0.4096 -0.7851  0.4444
 1060SOL    HW114816   1.878   3.268   2.622 -0.6223  1.6002  2.9392
 1060SOL    HW214817   1.989   3.334   2.553 -1.0042  0.3077  1.2588
 1061SOL     OW14818   0.059   2.621  11.852 -0.3477  0.5538  0.3870
 1061SOL    HW114819   4.716   2.674  11.849 -0.1664  0.8323  0.4468
 1061SOL    HW214820   0.115   2.665  11.788 -0.2007 -3.9191 -2.5558
 1062SOL     OW14821   1.042   0.273   2.749 -0.0965  0.3021 -0.4068
 1062SOL    HW114822   1.005   0.194   2.789  2.8270 -1.1736 -0.6003
 1062SOL    HW214823   1.130   0.238   2.735  0.4604  1.4766  0.0918
 1063SOL     OW14824   4.300   3.173  16.159 -0.3858 -1.1967  0.1841
 1063SOL    HW114825   4.344   3.227  16.225 -1.0323 -0.1350 -0.2571
 1063SOL    HW214826   4.282   3.093  16.208 -0.3687 -0.6203  1.1194
 1064SOL     OW14827   4.067   2.211   2.419 -0.0164  0.1885  0.1149
 1064SOL    HW114828   4.009   2.195   2.344 -0.1270 -0.5045  0.3441
 1064SOL    HW214829   4.104   2.125   2.441 -0.9442  0.0780  1.2503
 1065SOL     OW14830   1.068   2.244   5.975 -0.2116  0.0738 -0.1728
 1065SOL    HW114831   1.074   2.148   5.975  3.6119  0.3480 -0.9274
 1065SOL    HW214832   1.056   2.272   5.885  2.1777  2.1093  0.1718
 1066SOL     OW14833   3.170   0.952   5.167 -0.0356  0.2075 -0.4304
 1066SOL    HW114834   3.249   0.897   5.164  1.3429  2.2152 -1.1733
 1066SOL    HW214835   3.219   1.021   5.212  0.6793 -1.0829  0.7718
 1067SOL     OW14836   3.807   2.216   6.438 -0.1018  0.0960 -0.2142
 1067SOL    HW114837   3.850   2.170   6.510  0.9714 -0.8792 -1.4833
 1067SOL    HW214838   3.734   2.264   6.476 -1.5660 -1.4124 -1.1361
 1068SOL     OW14839   3.396   2.775   8.188  0.5266 -0.1383  0.2012
 1068SOL    HW114840   3.327   2.710   8.188  1.2274 -0.8807 -1.0670
 1068SOL    HW214841   3.338   2.847   8.161 -1.1611 -2.1473 -1.4608
 1069SOL     OW14842   0.779   0.927   1.655 -0.0939  0.1733  0.7112
 1069SOL    HW114843   0.686   0.933   1.635 -0.0108 -0.0569  0.2418
 1069SOL    HW214844   0.821   1.000   1.610 -2.1508  1.0799  0.2709
 1070SOL     OW14845   0.875   3.665   6.496 -0.2919 -0.6308 -0.2307
 1070SOL    HW114846   0.939   3.657   6.424 -0.2295  0.2024 -0.2742
 1070SOL    HW214847   0.887   3.574   6.522  0.5897 -0.2604  0.6672
 1071SOL     OW14848   4.501   3.350  12.704 -0.3171 -0.4561 -0.1194
 1071SOL    HW114849   4.421   3.400  12.690 -0.3546 -0.7149 -0.8325
 1071SOL    HW214850   4.479   3.258  12.686  1.3362 -0.5930 -1.5413
 1072SOL     OW14851   0.910   1.654   1.226  0.1541 -0.0776 -0.1463
 1072SOL    HW114852   0.996   1.691   1.246  0.6067 -1.1284 -0.1547
 1072SOL    HW214853   0.858   1.732   1.206  1.3431 -0.0978 -3.3953
 1073SOL     OW14854   0.747   2.570   6.576  0.0277  0.4204 -0.0124
 1073SOL    HW114855   0.680   2.512   6.539 -0.4091  0.5105  0.6311
 1073SOL    HW214856   0.822   2.546   6.521  0.4782 -0.4037  0.9441
 1074SOL     OW14857   3.575   1.533   8.303 -0.1816 -0.6558 -0.3219
 1074SOL    HW114858   3.626   1.504   8.227  1.5731  3.0601 -0.5816
 1074SOL    HW214859   3.532   1.452   8.329 -1.1407  0.3208  1.1086
 1075SOL     OW14860   0.573   1.222   4.924 -0.0521  0.3250  0.2491
 1075SOL    HW114861   0.480   1.211   4.903 -0.2682  1.1191  0.7894
 1075SOL    HW214862   0.562   1.195   5.016 -2.4762  2.2731  0.5210
 1076SOL     OW14863   3.161   4.522  15.112 -0.0404  0.2797  0.1032
 1076SOL    HW114864   3.194   4.566  15.190 -0.6345  0.8696  0.0144
 1076SOL    HW214865   3.237   4.469  15.086 -0.4616 -0.3333  0.1029
 1077SOL     OW14866   3.742   2.455  10.050 -0.0214  0.1052  0.2598
 1077SOL    HW114867   3.659   2.502  10.049  0.4370  0.9850  2.4833
 1077SOL    HW214868   3.769   2.484  10.138 -0.9508  0.7734  0.3305
 1078SOL     OW14869   1.724   3.270  10.310 -0.3740  0.6749 -0.0808
 1078SOL    HW114870   1.761   3.277  10.397  2.4174  1.3696 -1.3550
 1078SOL    HW214871   1.670   3.190  10.312  1.5266 -0.5588  1.5806
 1079SOL     OW14872   3.020   3.685   8.218  0.1412  0.4830  0.2489
 1079SOL    HW114873   3.008   3.760   8.160  1.6097  0.9703  0.5749
 1079SOL    HW214874   3.090   3.638   8.173 -1.5385 -1.2017 -0.5892
 1080SOL     OW14875   4.291   1.562   4.392  0.1220  0.4461  0.4437
 1080SOL    HW114876   4.308   1.509   4.469 -0.5291 -0.4344 -0.0242
 1080SOL    HW214877   4.284   1.647   4.435 -0.1650  0.3756  0.5351
 1081SOL     OW14878   2.424   1.324  17.624 -0.1590 -0.1476 -0.0535
 1081SOL    HW114879   2.507   1.371  17.628 -0.2143  0.0150 -0.9155
 1081SOL    HW214880   2.376   1.393  17.579  0.1593 -0.3310 -0.6708
 1082SOL     OW14881   0.486   1.838   9.574 -0.5331 -0.5254 -0.0766
 1082SOL    HW114882   0.488   1.831   9.478 -3.4690  0.6872 -0.2424
 1082SOL    HW214883   0.575   1.811   9.594 -0.4558 -0.4943 -0.3704
 1083SOL     OW14884   3.171   4.120   3.291 -0.2162  0.9030 -0.2862
 1083SOL    HW114885   3.100   4.089   3.235  1.5122 -4.0466  0.3110
 1083SOL    HW214886   3.124   4.157   3.366  0.5000 -0.2635  0.7373
 1084SOL     OW14887   3.504   2.930   9.429 -0.0277  0.1057  0.0725
 1084SOL    HW114888   3.419   2.974   9.441 -0.5767 -1.0364  0.4367
 1084SOL    HW214889   3.571   2.966   9.487  1.3439 -2.5344  0.0999
 1085SOL     OW14890   4.421   1.445   1.442 -0.7226  0.5874  0.4130
 1085SOL    HW114891   4.350   1.467   1.382 -1.2964  0.3393  1.0012
 1085SOL    HW214892   4.434   1.353   1.418  1.4862  1.0056  0.0094
 1086SOL     OW14893   1.272   4.184   2.926  0.3033 -0.0349 -0.4306
 1086SOL    HW114894   1.352   4.224   2.893  0.4154 -0.0409 -0.1673
 1086SOL    HW214895   1.248   4.241   2.999 -1.4325 -3.1401  1.4269
 1087SOL     OW14896   0.341   1.967  13.122  0.0841  0.4743  0.3263
 1087SOL    HW114897   0.295   1.902  13.175  2.7259 -1.2325  0.5118
 1087SOL    HW214898   0.280   2.040  13.132  0.8127  1.3933 -1.9421
 1088SOL     OW14899   2.916   2.825  15.793 -0.3403 -0.2715  0.0818
 1088SOL    HW114900   2.878   2.849  15.709  1.0346  1.1186 -0.1561
 1088SOL    HW214901   3.007   2.853  15.787 -0.1393 -0.5527  1.6087
 1089SOL     OW14902   4.164   2.273  10.013  0.6953 -0.0896 -0.4474
 1089SOL    HW114903   4.084   2.244  10.058  0.2711  1.0812 -0.4469
 1089SOL    HW214904   4.210   2.293  10.095 -0.8545 -0.9550  0.6474
 1090SOL     OW14905   0.488   1.977  13.370 -0.0839  0.2198 -0.3099
 1090SOL    HW114906   0.406   1.929  13.381 -0.9062  2.2054  2.1310
 1090SOL    HW214907   0.488   1.966  13.274 -1.4622 -2.4114 -0.0135
 1091SOL     OW14908   1.286   4.314  14.874  0.4841 -0.7674 -0.4159
 1091SOL    HW114909   1.289   4.326  14.780  0.6252 -0.2676 -0.3471
 1091SOL    HW214910   1.355   4.248  14.880 -0.6677 -1.8100  1.5071
 1092SOL     OW14911   0.253   1.978   6.113 -0.4159 -0.4647  0.2479
 1092SOL    HW114912   0.236   2.022   6.030  0.3399 -0.5878  0.0331
 1092SOL    HW214913   0.326   1.922   6.087  0.3462  0.6461  0.0177
 1093SOL     OW14914   0.749   3.073   2.698  0.2726 -0.2775  0.2273
 1093SOL    HW114915   0.773   3.164   2.710  0.3291  0.0166 -2.0825
 1093SOL    HW214916   0.759   3.057   2.604 -0.0364 -0.1469  0.1711
 1094SOL     OW14917   2.464   4.107   2.264  0.2799 -0.5993  0.4425
 1094SOL    HW114918   2.391   4.169   2.258  1.9606  1.1272 -2.0345
 1094SOL    HW214919   2.421   4.030   2.301 -1.7238  0.4622  0.3591
 1095SOL     OW14920   1.809   0.919   5.837 -0.3580 -0.0404  0.0662
 1095SOL    HW114921   1.779   0.860   5.768 -0.8466 -0.3743  0.5650
 1095SOL    HW214922   1.754   0.889   5.910 -0.1600  1.5884  0.8803
 1096SOL     OW14923   2.538   4.517   5.763  0.1480  0.4959 -0.2890
 1096SOL    HW114924   2.548   4.423   5.779 -1.0110  0.0625 -2.1910
 1096SOL    HW214925   2.459   4.515   5.710 -0.5402  0.8721  0.7269
 1097SOL     OW14926   0.803   0.519   2.974  0.2157 -0.2528  0.0107
 1097SOL    HW114927   0.807   0.445   3.035 -1.6169 -0.7641 -0.4938
 1097SOL    HW214928   0.858   0.588   3.011  1.6984 -1.5717  0.2870
 1098SOL     OW14929   0.450   2.117   9.611  0.4248 -0.2176 -0.1267
 1098SOL    HW114930   0.510   2.108   9.685 -1.2531  1.6635  1.4797
 1098SOL    HW214931   0.446   2.027   9.580 -1.6935  0.2839 -1.3214
 1099SOL     OW14932   2.865   0.502   4.394  0.1817  0.0338  0.0324
 1099SOL    HW114933   2.923   0.462   4.330 -0.9246 -0.8995 -0.3854
 1099SOL    HW214934   2.918   0.577   4.420  0.2401  0.3317 -0.9735
 1100SOL     OW14935   1.836   2.586  17.605 -0.2809 -0.3566  0.0584
 1100SOL    HW114936   1.895   2.543  17.666  1.7393  0.4476 -1.3213
 1100SOL    HW214937   1.905   2.642  17.570 -1.1793  0.3012 -0.7039
 1101SOL     OW14938   4.511   4.021   4.137  0.3762  0.4046  0.0750
 1101SOL    HW114939   4.499   4.094   4.076  1.5833 -0.3093 -1.0065
 1101SOL    HW214940   4.559   4.074   4.201  1.1064 -1.8708  1.3981
 1102SOL     OW14941   1.694   3.824  11.477  0.3652 -0.0259 -0.3705
 1102SOL    HW114942   1.744   3.753  11.516 -0.5406 -0.5631 -0.2161
 1102SOL    HW214943   1.645   3.782  11.406 -0.3954  0.0005  0.1411
 1103SOL     OW14944   3.256   1.456   7.876 -0.3276  0.6514 -0.3887
 1103SOL    HW114945   3.225   1.470   7.786 -0.7026 -1.9626 -0.6535
 1103SOL    HW214946   3.190   1.402   7.918 -0.5159  1.5105  0.4198
 1104SOL     OW14947   1.821   0.168   9.086 -0.2816  0.0759  0.7267
 1104SOL    HW114948   1.729   0.184   9.105  0.0173 -0.0670  2.2320
 1104SOL    HW214949   1.818   0.072   9.083 -0.5501  0.0738  1.1138
 1105SOL     OW14950   0.586   1.546  16.628  0.3191  0.1880  0.2547
 1105SOL    HW114951   0.578   1.617  16.563 -2.3337 -0.4688 -0.1312
 1105SOL    HW214952   0.579   1.597  16.709  1.7530  0.2514  0.3526
 1106SOL     OW14953   0.152   4.621  14.139  0.1469 -0.2085 -0.1569
 1106SOL    HW114954   0.149   4.526  14.140 -1.0039 -0.1429  1.9445
 1106SOL    HW214955   0.232   4.640  14.188 -0.3586 -0.1247  0.6367
 1107SOL     OW14956   2.623   3.437   6.879  0.6312 -0.0544 -0.2286
 1107SOL    HW114957   2.531   3.409   6.876  0.5623 -0.4631  5.2678
 1107SOL    HW214958   2.610   3.530   6.897 -1.6749 -0.5722  0.7887
 1108SOL     OW14959   1.007   0.298   8.828 -0.1734 -0.0231  0.0689
 1108SOL    HW114960   0.926   0.284   8.779 -2.0895 -0.3081  3.3642
 1108SOL    HW214961   0.970   0.263   8.908  1.7428  0.1302  1.0193
 1109SOL     OW14962   3.652   1.153   2.061  0.6564  0.1040  0.4354
 1109SOL    HW114963   3.601   1.174   1.983 -0.9668 -1.3854  1.1155
 1109SOL    HW214964   3.662   1.058   2.066 -1.5611  0.0573  3.4786
 1110SOL     OW14965   1.190   3.993   4.915  0.2663 -0.0661 -0.7985
 1110SOL    HW114966   1.095   3.988   4.915  0.1958  1.5304  1.4643
 1110SOL    HW214967   1.206   4.086   4.931 -1.7991 -0.2063  2.0669
 1111SOL     OW14968   4.077   4.370   9.594 -0.0551 -0.2422  0.2427
 1111SOL    HW114969   4.079   4.276   9.574  1.6107 -0.1384 -0.0716
 1111SOL    HW214970   4.021   4.402   9.523 -1.0882 -0.1601  1.0816
 1112SOL     OW14971   3.719   2.997  13.996 -0.3751 -0.1166 -0.3284
 1112SOL    HW114972   3.717   2.912  13.953  0.4454 -0.4232  0.2320
 1112SOL    HW214973   3.812   3.020  14.004  0.0108 -1.9366  0.3607
 1113SOL     OW14974   1.957   2.793   3.396  0.3473  0.4962  0.2055
 1113SOL    HW114975   1.945   2.741   3.476 -2.0209  0.0611 -0.4409
 1113SOL    HW214976   2.029   2.743   3.360  0.0240 -0.8815  1.4452
 1114SOL     OW14977   3.985   0.282   3.840  0.0005 -0.5388  0.1510
 1114SOL    HW114978   4.030   0.367   3.849  1.0020 -0.9115 -1.3213
 1114SOL    HW214979   4.050   0.216   3.815 -0.1537 -0.7454  0.2944
 1115SOL     OW14980   1.583   1.694  16.774  0.5257 -0.6414 -0.2031
 1115SOL    HW114981   1.634   1.634  16.828 -0.9630 -3.6796 -2.1475
 1115SOL    HW214982   1.615   1.782  16.791 -2.1278  0.0537  1.1148
 1116SOL     OW14983   3.499   2.417   3.852 -0.0696 -0.5234 -0.0231
 1116SOL    HW114984   3.437   2.412   3.925  0.2842  0.0428  0.3243
 1116SOL    HW214985   3.449   2.367   3.788  0.4234 -0.9647 -0.0650
 1117SOL     OW14986   0.811   4.270   3.492  0.2912  0.8270 -0.5147
 1117SOL    HW114987   0.739   4.281   3.554  0.3455 -0.2621 -0.2616
 1117SOL    HW214988   0.759   4.254   3.413 -0.4380 -0.9002  0.3182
 1118SOL     OW14989   4.281   2.583   2.421 -0.1369 -0.0910 -0.3290
 1118SOL    HW114990   4.287   2.676   2.398 -0.5167  0.0993  0.3558
 1118SOL    HW214991   4.279   2.539   2.336  0.5827 -1.7897  0.5330
 1119SOL     OW14992   2.270   4.186   9.473  0.3059 -0.5142  0.0554
 1119SOL    HW114993   2.287   4.237   9.552 -0.0778  0.5542 -0.5530
 1119SOL    HW214994   2.326   4.108   9.473 -1.7994 -2.0541 -3.4676
 1120SOL     OW14995   2.307   0.488   7.833  0.7532 -0.3879 -0.1670
 1120SOL    HW114996   2.305   0.438   7.751  2.2445 -0.8253  0.0537
 1120SOL    HW214997   2.345   0.570   7.801  0.2142 -0.4432 -0.9530
 1121SOL     OW14998   4.700   4.057   8.657  0.5799  0.0832 -0.1782
 1121SOL    HW114999   4.722   3.964   8.654  2.0084  0.4526 -1.0356
 1121SOL    HW215000   0.046   4.105   8.659  0.2758  0.5943  0.2916
 1122SOL     OW15001   3.239   1.891   6.689 -0.4203  0.1612 -0.3361
 1122SOL    HW115002   3.293   1.814   6.706  1.6968  1.6214 -0.4563
 1122SOL    HW215003   3.298   1.952   6.733 -0.0479 -0.3115 -0.1717
 1123SOL     OW15004   2.194   0.330  13.181  1.0104  0.9375 -0.1783
 1123SOL    HW115005   2.154   0.401  13.131  3.5549  2.4926  0.0151
 1123SOL    HW215006   2.117   0.306  13.233 -0.0274 -0.6567 -2.4530
 1124SOL     OW15007   3.919   3.730   2.496  0.3087 -0.2069  0.1928
 1124SOL    HW115008   3.860   3.679   2.552  0.3667 -1.3199 -0.7802
 1124SOL    HW215009   3.858   3.789   2.452  0.6124 -1.3070 -1.6609
 1125SOL     OW15010   1.129   4.267  17.436 -0.5780 -0.2402  0.2278
 1125SOL    HW115011   1.087   4.195  17.482 -1.4224  1.8921  2.7899
 1125SOL    HW215012   1.091   4.261  17.348  1.5351  1.2602 -0.7989
 1126SOL     OW15013   0.988   2.086   7.349 -0.2298 -0.1710  0.0898
 1126SOL    HW115014   1.011   2.126   7.265 -1.2934  0.2825  0.0176
 1126SOL    HW215015   0.904   2.047   7.325 -0.2451  0.4612 -0.8936
 1127SOL     OW15016   0.205   2.412   5.951  0.1348 -0.0702 -0.0814
 1127SOL    HW115017   0.266   2.340   5.933 -1.9030 -1.1175 -2.7243
 1127SOL    HW215018   0.164   2.428   5.866 -0.2255  1.0625  0.3122
 1128SOL     OW15019   1.514   1.270   2.641  0.8457 -0.3601  0.0380
 1128SOL    HW115020   1.493   1.349   2.591 -3.7776 -2.0788 -0.7452
 1128SOL    HW215021   1.435   1.222   2.614 -0.0266  0.4566  1.1890
 1129SOL     OW15022   4.192   2.958   8.775 -0.0308 -0.4309  0.7541
 1129SOL    HW115023   4.210   3.048   8.746  0.3690 -1.4501 -2.1639
 1129SOL    HW215024   4.107   2.947   8.733 -0.3081 -2.0195  1.7426
 1130SOL     OW15025   1.182   3.292   1.179 -0.2457 -0.4689  0.3639
 1130SOL    HW115026   1.145   3.347   1.248 -0.2652 -0.3354  0.2472
 1130SOL    HW215027   1.268   3.276   1.219  0.0182 -2.5244 -1.0490
 1131SOL     OW15028   3.413   3.527  10.076 -0.1124 -0.0326  0.3870
 1131SOL    HW115029   3.321   3.518  10.050 -0.5761 -0.2354  2.1221
 1131SOL    HW215030   3.435   3.449  10.128  2.2300 -1.0262 -2.0501
 1132SOL     OW15031   0.298   1.198  11.285 -0.4143  0.0513  0.6022
 1132SOL    HW115032   0.246   1.131  11.331 -1.1085 -0.0877 -0.3719
 1132SOL    HW215033   0.373   1.211  11.343 -1.5700 -0.6602  2.2779
 1133SOL     OW15034   3.396   1.139   7.718 -0.0954 -0.5777  0.0710
 1133SOL    HW115035   3.345   1.159   7.639 -0.0047  1.4843  0.5452
 1133SOL    HW215036   3.323   1.153   7.777  0.7463 -0.9438  1.1975
 1134SOL     OW15037   3.098   2.020   3.926  0.3107 -0.1173 -0.2294
 1134SOL    HW115038   3.178   2.058   3.963 -0.1940  1.2673 -0.5435
 1134SOL    HW215039   3.091   2.063   3.841 -0.7896  1.2324  0.5478
 1135SOL     OW15040   2.944   4.424   8.352 -0.3886  0.3451 -0.2142
 1135SOL    HW115041   2.916   4.365   8.422 -1.9075  0.3078 -0.8508
 1135SOL    HW215042   2.945   4.509   8.396 -1.8529 -0.2780  1.0341
 1136SOL     OW15043   0.461   0.578  11.038  0.2513  0.0573 -0.4641
 1136SOL    HW115044   0.444   0.606  10.948  1.7437  2.4256 -0.0017
 1136SOL    HW215045   0.552   0.551  11.029  0.1157  0.2905 -2.5969
 1137SOL     OW15046   1.132   2.240   8.760 -0.1655 -0.4046 -0.2613
 1137SOL    HW115047   1.060   2.275   8.708 -1.4291 -2.0452  0.3823
 1137SOL    HW215048   1.158   2.305   8.825 -1.4857 -1.4139  1.3077
 1138SOL     OW15049   3.863   0.545   4.190 -0.4105  0.5378 -0.4928
 1138SOL    HW115050   3.826   0.583   4.110  2.2264  0.5134 -1.7085
 1138SOL    HW215051   3.911   0.471   4.154  0.7286  0.2068  1.7452
 1139SOL     OW15052   2.345   4.000   5.879  0.1570  0.8643 -0.0448
 1139SOL    HW115053   2.256   3.967   5.869  0.7619 -0.3671 -1.4009
 1139SOL    HW215054   2.382   3.912   5.872 -1.4178  0.2035 -0.1003
 1140SOL     OW15055   2.244   2.569   5.038 -0.1165  0.3783 -0.2306
 1140SOL    HW115056   2.246   2.642   4.976 -0.3232  1.6626  1.2816
 1140SOL    HW215057   2.283   2.608   5.116  0.8218 -3.5042  1.2007
 1141SOL     OW15058   1.326   1.708  17.746  0.1853 -0.2005 -0.0815
 1141SOL    HW115059   1.267   1.767  17.698 -0.8513 -1.0625  0.1440
 1141SOL    HW215060   1.257   1.682   0.061 -0.5380 -0.1183 -0.8676
 1142SOL     OW15061   2.633   1.410   1.384  0.0985  0.3286  0.3182
 1142SOL    HW115062   2.674   1.385   1.467 -0.1908 -0.8294  0.1102
 1142SOL    HW215063   2.703   1.381   1.326 -0.5416 -0.6966  0.0631
 1143SOL     OW15064   2.147   3.346   2.839  0.0490  0.1895  0.5197
 1143SOL    HW115065   2.107   3.414   2.893 -1.3112  0.7842 -1.2122
 1143SOL    HW215066   2.081   3.337   2.769 -0.9794 -0.2028  1.5417
 1144SOL     OW15067   0.188   0.164  14.331  0.6451  0.3521  0.5668
 1144SOL    HW115068   0.228   0.175  14.245 -2.8712 -0.4319 -1.2038
 1144SOL    HW215069   0.271   0.142  14.374 -0.1016 -1.9365  0.8636
 1145SOL     OW15070   1.065   0.896   1.113  0.2648  0.8040  0.4200
 1145SOL    HW115071   0.975   0.883   1.142 -0.2558 -0.0742 -1.5950
 1145SOL    HW215072   1.116   0.843   1.175  0.8063  1.7033  0.7504
 1146SOL     OW15073   0.078   0.569   6.986 -0.5760  0.0457 -0.2108
 1146SOL    HW115074   0.053   0.492   6.934  0.3780  0.6679 -1.5859
 1146SOL    HW215075   0.072   0.634   6.916  1.7120  0.6208  0.1453
 1147SOL     OW15076   4.177   1.854   3.186  0.2140 -0.0099  0.4519
 1147SOL    HW115077   4.155   1.831   3.276  1.7977  0.0616  0.8526
 1147SOL    HW215078   4.270   1.833   3.187  0.4559  1.0572  0.4255
 1148SOL     OW15079   3.275   0.224   8.856  0.2769 -0.2683 -0.5479
 1148SOL    HW115080   3.234   0.213   8.943 -0.7562  0.8577 -0.8879
 1148SOL    HW215081   3.315   0.140   8.833  2.3150  0.2154  1.1817
 1149SOL     OW15082   1.345   0.475   3.357 -0.5307 -0.6217 -0.3478
 1149SOL    HW115083   1.361   0.406   3.293  0.5143  0.5304 -1.3382
 1149SOL    HW215084   1.435   0.492   3.387 -0.7678  0.6431 -0.3492
 1150SOL     OW15085   1.722   1.881   6.795 -0.2752  0.0193  0.3286
 1150SOL    HW115086   1.681   1.810   6.845  0.7517 -1.4218 -0.8740
 1150SOL    HW215087   1.788   1.909   6.859 -1.5776  3.6807  0.1049
 1151SOL     OW15088   0.070   3.097   1.950 -0.3473  0.4296  0.2133
 1151SOL    HW115089   0.123   3.025   1.915  0.4471  1.5940 -0.9879
 1151SOL    HW215090   0.136   3.160   1.982  0.1907  0.3227 -0.6906
 1152SOL     OW15091   4.634   0.728   2.264  0.5405 -0.5976 -1.2583
 1152SOL    HW115092   4.582   0.808   2.255  0.5304 -0.5573 -0.8808
 1152SOL    HW215093   4.607   0.684   2.184  1.5940 -3.0057 -0.2957
 1153SOL     OW15094   3.656   1.575   8.612  0.2389 -0.2586 -0.1456
 1153SOL    HW115095   3.690   1.629   8.683 -0.4333  1.0850 -0.8640
 1153SOL    HW215096   3.737   1.542   8.573  0.0901 -0.5001 -0.2538
 1154SOL     OW15097   1.511   4.598  14.044 -0.3023  0.5293 -0.3479
 1154SOL    HW115098   1.562   4.518  14.052 -0.7897  0.1110 -1.4052
 1154SOL    HW215099   1.578   4.663  14.066 -0.9351  0.7511  0.9259
 1155SOL     OW15100   0.630   3.095  10.782  0.4170 -0.2380  0.2742
 1155SOL    HW115101   0.722   3.113  10.798  0.4307  0.7435 -0.8149
 1155SOL    HW215102   0.638   3.055  10.695  0.6310  3.8112 -1.5823
 1156SOL     OW15103   0.111   2.200   0.355  0.0520 -0.2660 -0.6876
 1156SOL    HW115104   0.184   2.262   0.356  0.8748 -1.2426  0.2240
 1156SOL    HW215105   0.163   2.129   0.317 -1.4203 -0.3285 -2.6459
 1157SOL     OW15106   0.092   2.091   4.199  0.2083 -0.3780 -0.1585
 1157SOL    HW115107   0.135   2.130   4.275 -0.5590  1.8858 -0.8579
 1157SOL    HW215108   0.002   2.125   4.204  1.5563  3.3224 -0.5790
 1158SOL     OW15109   1.819   3.086   8.530  0.2292  0.1951 -0.0664
 1158SOL    HW115110   1.739   3.119   8.489  1.0103  0.5303 -1.3196
 1158SOL    HW215111   1.880   3.149   8.491 -1.6039  1.3777 -0.9911
 1159SOL     OW15112   1.058   2.631   5.406 -0.3786  0.6326  0.4965
 1159SOL    HW115113   0.977   2.623   5.354  0.6753  1.5528 -1.2835
 1159SOL    HW215114   1.103   2.699   5.356 -1.4305  0.8563 -0.1610
 1160SOL     OW15115   2.067   3.902   8.756 -0.3811 -0.2821  0.3600
 1160SOL    HW115116   1.989   3.879   8.705 -1.7553  0.8233  1.9654
 1160SOL    HW215117   2.096   3.957   8.683 -1.0232 -3.1266 -2.0438
 1161SOL     OW15118   3.726   3.316   8.481  0.0273  0.3715 -0.2043
 1161SOL    HW115119   3.801   3.373   8.465  1.3704 -0.3844  3.3085
 1161SOL    HW215120   3.743   3.286   8.570 -1.6617  0.8806  0.2970
 1162SOL     OW15121   2.098   4.643   3.332 -0.2433 -0.2923  0.3091
 1162SOL    HW115122   2.127   4.707   3.398  0.1121 -1.9045  1.7088
 1162SOL    HW215123   2.165   4.667   3.268  0.1366  0.3062  0.9321
 1163SOL     OW15124   3.882   3.480  11.499  0.9101 -0.1439  0.2511
 1163SOL    HW115125   3.819   3.418  11.537  1.0100  1.4319  3.0244
 1163SOL    HW215126   3.824   3.530  11.441  0.9654 -0.2741  0.0855
 1164SOL     OW15127   3.370   0.939   9.858 -0.4017  0.0026 -0.0258
 1164SOL    HW115128   3.288   0.898   9.830 -1.3475  2.6736 -1.1601
 1164SOL    HW215129   3.389   0.997   9.784  0.5984  0.8447  0.8998
 1165SOL     OW15130   2.553   2.550   2.114 -0.4031 -0.0775 -0.0736
 1165SOL    HW115131   2.569   2.629   2.167  1.9217  0.6488 -1.8467
 1165SOL    HW215132   2.627   2.495   2.139  0.2018  0.5437 -0.4766
 1166SOL     OW15133   3.382   3.186   6.142 -0.2249  0.0407  0.7673
 1166SOL    HW115134   3.405   3.093   6.143  2.4244  0.6310 -2.5075
 1166SOL    HW215135   3.295   3.182   6.180 -0.3074 -0.3934  0.5250
 1167SOL     OW15136   3.808   4.476   2.022 -0.2740  0.3778 -0.0600
 1167SOL    HW115137   3.875   4.519   1.968  1.3880  1.3512  2.7809
 1167SOL    HW215138   3.744   4.437   1.962  2.0783 -0.4092 -2.0625
 1168SOL     OW15139   0.105   0.501   4.280 -0.0720 -0.7887  0.2896
 1168SOL    HW115140   0.015   0.525   4.301 -0.0848 -1.2059  0.7107
 1168SOL    HW215141   0.156   0.580   4.295 -0.9747  0.1788 -1.8338
 1169SOL     OW15142   1.696   2.935   4.168 -1.0789 -0.0200  0.1477
 1169SOL    HW115143   1.784   2.901   4.184 -0.4970  1.0488 -0.8225
 1169SOL    HW215144   1.649   2.878   4.230  1.6322 -2.3873  0.0257
 1170SOL     OW15145   2.431   3.839   6.703 -0.4089 -0.1413 -0.1610
 1170SOL    HW115146   2.389   3.785   6.637 -0.8242 -0.6647  0.5339
 1170SOL    HW215147   2.357   3.866   6.757  0.2584  1.7030 -0.1435
 1171SOL     OW15148   0.554   1.843   0.505  0.3471  0.1045  0.3066
 1171SOL    HW115149   0.587   1.930   0.483  0.2389  0.5646  1.9183
 1171SOL    HW215150   0.482   1.858   0.567 -0.8046  0.4829 -1.1129
 1172SOL     OW15151   3.590   1.286   5.795  0.3855  0.1196  0.4486
 1172SOL    HW115152   3.648   1.252   5.727 -1.3190 -0.9179 -0.5050
 1172SOL    HW215153   3.536   1.209   5.809  0.1042  0.3804  0.7999
 1173SOL     OW15154   2.969   3.146   5.002 -0.8861  0.0629  0.3442
 1173SOL    HW115155   2.904   3.163   5.070 -1.9048 -0.3844 -0.5315
 1173SOL    HW215156   2.987   3.053   4.990  2.2452  0.8122 -0.9149
 1174SOL     OW15157   1.715   3.120   7.056  0.0205 -0.0753  0.1786
 1174SOL    HW115158   1.700   3.096   6.964  2.6839 -0.4104 -0.1695
 1174SOL    HW215159   1.633   3.163   7.080 -1.5697 -2.5477 -0.7868
 1175SOL     OW15160   2.449   4.522  15.069  0.0226 -0.0664 -0.7398
 1175SOL    HW115161   2.461   4.444  15.122 -0.8037 -1.2299 -2.2460
 1175SOL    HW215162   2.395   4.578  15.125  1.7219 -0.3201  1.1437
 1176SOL     OW15163   0.677   3.622  16.884 -0.1208  0.4816  0.1178
 1176SOL    HW115164   0.708   3.681  16.953 -1.2609  0.6018  0.5161
 1176SOL    HW215165   0.643   3.553  16.940  0.8777  0.4928  0.7390
 1177SOL     OW15166   2.636   0.004   4.609  0.2358 -0.2153  0.0186
 1177SOL    HW115167   2.605   4.650   4.609 -1.0857  0.2282 -1.5324
 1177SOL    HW215168   2.724   4.715   4.636 -0.0250 -0.3641  0.7378
 1178SOL     OW15169   0.649   4.399   4.424 -0.2716 -0.3445 -0.2600
 1178SOL    HW115170   0.608   4.485   4.411 -1.0528 -0.5000  1.0950
 1178SOL    HW215171   0.567   4.350   4.417  0.2888 -1.1565 -1.0283
 1179SOL     OW15172   4.098   2.345   3.940  0.3777 -0.4436  0.1625
 1179SOL    HW115173   4.111   2.278   3.872 -0.7897  0.0964 -0.5946
 1179SOL    HW215174   4.143   2.419   3.899 -0.7711  1.1843  1.8449
 1180SOL     OW15175   2.625   2.177   2.362 -0.3719  0.2237  0.2968
 1180SOL    HW115176   2.673   2.231   2.298  0.1028 -0.1989  0.2999
 1180SOL    HW215177   2.700   2.152   2.415  0.2758 -2.2005 -1.7584
 1181SOL     OW15178   2.235   1.395   5.675  0.0080 -0.1948  0.1938
 1181SOL    HW115179   2.260   1.340   5.601  1.5116  1.4023 -0.4880
 1181SOL    HW215180   2.193   1.332   5.734 -0.9239 -0.5020 -0.7918
 1182SOL     OW15181   0.695   1.367   6.808  0.6820 -0.2195 -1.0402
 1182SOL    HW115182   0.619   1.318   6.837  0.5265  2.0808  2.3527
 1182SOL    HW215183   0.691   1.443   6.865 -0.0975 -0.6210 -0.5688
 1183SOL     OW15184   2.199   3.659   8.836 -0.0981  0.5033 -0.1154
 1183SOL    HW115185   2.147   3.733   8.805 -0.5914 -0.4617 -1.5914
 1183SOL    HW215186   2.130   3.594   8.846  0.5441 -0.5805 -2.5713
 1184SOL     OW15187   1.778   4.416   3.861 -0.3047 -0.7452 -0.3369
 1184SOL    HW115188   1.725   4.351   3.907 -3.2876  0.8242 -1.6011
 1184SOL    HW215189   1.714   4.487   3.867  0.3505  0.0238 -2.5345
 1185SOL     OW15190   2.686   4.351   3.990  0.2444 -0.0687 -0.6113
 1185SOL    HW115191   2.772   4.312   3.981 -0.2506 -1.7296  1.8753
 1185SOL    HW215192   2.639   4.282   3.942 -0.3729 -1.0101  1.3796
 1186SOL     OW15193   1.676   2.399   7.362 -0.4648  0.3710  0.7797
 1186SOL    HW115194   1.631   2.448   7.293  2.8021  0.1934 -1.5149
 1186SOL    HW215195   1.606   2.384   7.425  0.0801 -2.8114  0.6346
 1187SOL     OW15196   4.687   1.264   5.505 -0.1237  0.3677 -0.1369
 1187SOL    HW115197   4.595   1.248   5.484 -0.4271  0.6163  1.0251
 1187SOL    HW215198   4.719   1.282   5.417  3.7693 -0.0967  1.1991
 1188SOL     OW15199   1.931   1.758   9.025  0.1273  0.4829  0.1664
 1188SOL    HW115200   1.970   1.699   9.089  2.9376 -0.0024 -2.0143
 1188SOL    HW215201   1.877   1.704   8.968  0.5868 -0.8578  1.0167
 1189SOL     OW15202   3.897   1.670  11.961  0.0598 -0.1126  0.0698
 1189SOL    HW115203   3.856   1.686  12.046  1.0146  1.7468  0.1818
 1189SOL    HW215204   3.859   1.748  11.919  1.6479 -0.4662 -2.0677
 1190SOL     OW15205   2.435   2.542  17.630  0.0859  0.0952 -0.0710
 1190SOL    HW115206   2.505   2.478  17.621  0.0706  0.2065 -0.9269
 1190SOL    HW215207   2.354   2.491  17.621 -0.7675  1.2810  0.8651
 1191SOL     OW15208   4.610   1.903  11.483 -0.0928  0.3731  0.4741
 1191SOL    HW115209   4.622   1.940  11.570 -0.2819 -1.4814  1.2931
 1191SOL    HW215210   4.678   1.954  11.439  1.4199 -0.6303  1.6528
 1192SOL     OW15211   0.511   0.613  10.468  0.4165 -0.3252 -0.0367
 1192SOL    HW115212   0.560   0.655  10.538 -0.2367  0.5759 -0.1174
 1192SOL    HW215213   0.436   0.671  10.451 -0.9511 -2.5480 -1.5544
 1193SOL     OW15214   3.451   3.508   7.115  0.0850  0.2689 -0.3412
 1193SOL    HW115215   3.398   3.497   7.036 -1.2180 -0.6188  0.6485
 1193SOL    HW215216   3.529   3.454   7.099 -1.3673 -1.4956 -1.5165
 1194SOL     OW15217   4.041   1.877  15.227  0.1012 -0.5316 -0.4403
 1194SOL    HW115218   4.085   1.852  15.308 -1.0293  0.1583  0.3850
 1194SOL    HW215219   4.028   1.972  15.236 -0.5279 -0.5507 -1.1622
 1195SOL     OW15220   2.589   2.526   4.217  0.3427  0.3363 -0.3346
 1195SOL    HW115221   2.610   2.514   4.310 -0.1218  0.2385 -0.2420
 1195SOL    HW215222   2.553   2.438   4.202  0.5188  0.2178 -0.0749
 1196SOL     OW15223   0.613   2.384   2.234 -0.0251  0.7065  0.1225
 1196SOL    HW115224   0.559   2.394   2.156 -0.5021 -1.1039  0.2385
 1196SOL    HW215225   0.555   2.412   2.305  0.7503  1.4130  0.4792
 1197SOL     OW15226   0.259   1.436   1.666 -0.2419 -0.4687  0.5421
 1197SOL    HW115227   0.274   1.369   1.733  0.2478 -2.3583 -1.4796
 1197SOL    HW215228   0.277   1.521   1.707  0.0350  0.4972 -1.5695
 1198SOL     OW15229   2.083   2.038   0.525  0.0443 -0.2966 -0.1824
 1198SOL    HW115230   2.155   2.006   0.579  1.0639  0.4071 -1.1053
 1198SOL    HW215231   2.030   1.959   0.514 -1.5473  0.3113  3.1894
 1199SOL     OW15232   0.359   3.715  15.598 -0.1615  0.1794 -0.5256
 1199SOL    HW115233   0.325   3.661  15.670  0.7351  0.1420 -0.1330
 1199SOL    HW215234   0.426   3.654  15.567 -0.6187 -0.8070  0.4036
 1200SOL     OW15235   1.956   3.150   9.762 -0.2014  0.1040  0.2494
 1200SOL    HW115236   2.051   3.161   9.754 -0.3030  0.8159  0.0530
 1200SOL    HW215237   1.927   3.108   9.681  5.4625 -0.4755 -1.5280
 1201SOL     OW15238   1.211   3.042   9.510  0.2338  0.1985  0.2772
 1201SOL    HW115239   1.229   3.074   9.599 -1.3143 -1.8199  1.3415
 1201SOL    HW215240   1.117   3.031   9.524  0.6304 -1.2550  1.8098
 1202SOL     OW15241   4.075   2.115   7.714  0.3734  0.6315 -0.1236
 1202SOL    HW115242   4.050   2.030   7.680  2.8062 -0.2853  0.4068
 1202SOL    HW215243   4.004   2.128   7.777 -0.4662 -1.3934 -0.6640
 1203SOL     OW15244   3.827   1.040   7.362  0.7877 -0.7365  0.1460
 1203SOL    HW115245   3.794   1.101   7.296  0.7285 -2.5605 -1.5095
 1203SOL    HW215246   3.759   1.040   7.430  0.8213 -1.3109  0.1866
 1204SOL     OW15247   2.874   3.072  12.938  0.6323  0.2769 -0.0549
 1204SOL    HW115248   2.803   3.038  12.991  0.5750 -1.3996 -1.2115
 1204SOL    HW215249   2.941   3.016  12.977  0.7298 -0.1517 -0.8276
 1205SOL     OW15250   2.772   1.678   4.213  0.3413 -0.2082  0.0761
 1205SOL    HW115251   2.678   1.691   4.228 -0.3639 -3.4339 -1.6920
 1205SOL    HW215252   2.797   1.756   4.163 -0.9993 -0.3872 -0.9044
 1206SOL     OW15253   4.091   2.323   4.264  0.1335  0.1327  0.3898
 1206SOL    HW115254   4.102   2.300   4.356  0.6435 -2.0953 -0.2121
 1206SOL    HW215255   4.009   2.373   4.264 -1.0166 -1.7279  1.5919
 1207SOL     OW15256   2.808   1.635   8.725  0.4811  0.6602  0.0094
 1207SOL    HW115257   2.851   1.719   8.708  0.4316  0.8519  0.8453
 1207SOL    HW215258   2.717   1.664   8.729  0.2375 -0.0035 -0.7956
 1208SOL     OW15259   3.603   3.178  14.407  0.0078  0.1328  0.2207
 1208SOL    HW115260   3.622   3.138  14.492  0.6828 -0.3235 -0.1449
 1208SOL    HW215261   3.679   3.233  14.388 -0.1679 -0.2092 -1.5058
 1209SOL     OW15262   1.379   2.421   6.440 -0.7552  0.1087  0.2075
 1209SOL    HW115263   1.308   2.424   6.504 -0.8740 -1.5594  0.1416
 1209SOL    HW215264   1.366   2.500   6.386  1.3792 -0.1155 -0.6300
 1210SOL     OW15265   3.270   4.109   4.281  0.1788 -0.5507  0.1441
 1210SOL    HW115266   3.220   4.056   4.219 -0.8959 -0.7847  1.2171
 1210SOL    HW215267   3.357   4.071   4.289  0.5311  0.8834  3.1347
 1211SOL     OW15268   4.567   3.663  12.916  0.2762 -0.6188 -0.1437
 1211SOL    HW115269   4.622   3.672  12.994  0.7591 -1.4121 -0.4005
 1211SOL    HW215270   4.484   3.650  12.963 -0.2372 -0.9639 -1.1546
 1212SOL     OW15271   3.122   0.566   8.343  0.2346 -0.0138 -0.3670
 1212SOL    HW115272   3.132   0.566   8.438 -3.5109  2.3278  0.0378
 1212SOL    HW215273   3.064   0.491   8.327 -0.0034  0.1707 -0.3732
 1213SOL     OW15274   3.251   2.676   6.225 -0.2900  0.5306  0.1175
 1213SOL    HW115275   3.214   2.690   6.138  0.2154 -0.2284 -0.2177
 1213SOL    HW215276   3.182   2.621   6.262 -0.2818 -1.5649 -2.9408
 1214SOL     OW15277   1.510   4.037   8.653 -0.0979 -0.6740  0.2096
 1214SOL    HW115278   1.515   3.954   8.605  2.5792 -0.8915  0.8555
 1214SOL    HW215279   1.416   4.044   8.664  0.2278 -0.3165  2.6849
 1215SOL     OW15280   4.387   1.203   0.426  0.2984 -0.6811  0.5525
 1215SOL    HW115281   4.322   1.147   0.383  0.5355  0.1863 -0.9082
 1215SOL    HW215282   4.414   1.146   0.499 -1.5421 -1.5621  0.5347
 1216SOL     OW15283   2.293   1.553   5.112 -0.0449 -0.0938  0.2573
 1216SOL    HW115284   2.265   1.463   5.097 -0.2632 -0.4670  2.8316
 1216SOL    HW215285   2.348   1.570   5.036 -1.5188  1.2185 -0.5280
 1217SOL     OW15286   2.865   1.025   2.409 -0.4079  0.1983  1.1607
 1217SOL    HW115287   2.908   1.110   2.399 -0.4029  0.1535  0.7976
 1217SOL    HW215288   2.901   0.997   2.493  0.0557  2.9193  1.8627
 1218SOL     OW15289   0.245   2.768   9.528  0.0792 -0.1680 -0.3434
 1218SOL    HW115290   0.232   2.851   9.573 -1.4915 -1.0141  0.7870
 1218SOL    HW215291   0.338   2.763   9.506  0.1581 -1.9093  0.3017
 1219SOL     OW15292   0.036   2.642  16.380  0.0305  0.4119 -1.0785
 1219SOL    HW115293   0.110   2.703  16.381  0.5917 -0.2605 -1.3335
 1219SOL    HW215294   0.087   2.560  16.383 -0.2938  0.2895  1.4521
 1220SOL     OW15295   3.059   2.139   6.785 -0.5807 -0.3490 -0.0778
 1220SOL    HW115296   3.109   2.116   6.863 -0.7417 -0.6615 -0.0663
 1220SOL    HW215297   3.042   2.049   6.755  0.2126  0.2155 -2.2084
 1221SOL     OW15298   2.431   3.476   5.702  0.3956  0.3501  0.2432
 1221SOL    HW115299   2.494   3.545   5.724  1.4813 -0.7251  0.5186
 1221SOL    HW215300   2.460   3.410   5.766 -3.0049 -1.3616  0.0291
 1222SOL     OW15301   1.426   3.492   1.314 -0.7304  0.5962 -0.2244
 1222SOL    HW115302   1.495   3.549   1.280  0.4295 -0.6333  0.0569
 1222SOL    HW215303   1.362   3.563   1.309 -0.6863  0.6846  0.4226
 1223SOL     OW15304   2.832   4.451  15.795  0.2074 -0.4943  0.5131
 1223SOL    HW115305   2.784   4.534  15.802  1.4911  0.2441  0.5291
 1223SOL    HW215306   2.766   4.401  15.746  1.5508 -1.6253 -0.1330
 1224SOL     OW15307   1.047   4.689  11.460 -0.2180 -0.3187  0.8115
 1224SOL    HW115308   0.952   4.703  11.464 -0.2703 -0.7292  0.9889
 1224SOL    HW215309   1.076   0.040  11.484  1.7462 -0.7391 -0.0357
 1225SOL     OW15310   4.544   2.146   4.198  0.2997 -0.5853  0.1263
 1225SOL    HW115311   4.465   2.095   4.213 -0.9353  1.3058  0.0809
 1225SOL    HW215312   4.507   2.235   4.198  2.6592  0.4210 -1.4793
 1226SOL     OW15313   0.482   0.282   5.782  0.3916  0.4836  0.3605
 1226SOL    HW115314   0.478   0.372   5.813 -0.6478 -0.0948  1.8749
 1226SOL    HW215315   0.533   0.246   5.855 -0.9844 -0.0422  1.0649
 1227SOL     OW15316   2.003   3.121   5.643 -0.2279 -0.0246  0.3312
 1227SOL    HW115317   2.067   3.056   5.674 -0.3742  0.5992  1.8969
 1227SOL    HW215318   1.931   3.080   5.690 -0.1788 -0.0757  0.3629
 1228SOL     OW15319   4.686   1.297   4.726  0.5132 -0.6351  0.3926
 1228SOL    HW115320   4.729   1.238   4.787  2.7773  1.0735  0.4493
 1228SOL    HW215321   4.689   1.380   4.773  0.4478 -0.4207  0.0204
 1229SOL     OW15322   2.096   3.937   7.555  0.5421  0.2189 -0.1920
 1229SOL    HW115323   2.046   4.016   7.534  1.6358  0.0814 -3.3099
 1229SOL    HW215324   2.104   3.946   7.650  2.6493  0.1884 -0.3801
 1230SOL     OW15325   2.737   4.276   5.149 -0.6337 -0.1054 -0.3714
 1230SOL    HW115326   2.756   4.277   5.055 -1.3482  0.2398 -0.5135
 1230SOL    HW215327   2.641   4.275   5.148 -0.6255 -2.1901  1.7090
 1231SOL     OW15328   2.282   1.429  15.057 -0.9685  0.4028 -0.2285
 1231SOL    HW115329   2.314   1.380  15.132 -1.8391 -0.3513 -0.3520
 1231SOL    HW215330   2.365   1.452  15.016 -0.5296 -0.0948  0.3837
 1232SOL     OW15331   4.051   4.395   3.558  0.3572  0.1245  0.4375
 1232SOL    HW115332   4.082   4.305   3.567 -1.6371 -0.6074  0.0415
 1232SOL    HW215333   3.986   4.375   3.491 -0.6665 -1.6579  1.9466
 1233SOL     OW15334   3.710   2.347   0.395  0.7347 -0.1948  0.3986
 1233SOL    HW115335   3.736   2.345   0.487 -1.3647  3.1913  1.0980
 1233SOL    HW215336   3.636   2.408   0.387 -0.8959 -2.3195 -0.6081
 1234SOL     OW15337   2.468   0.137   2.273 -0.6301 -0.3665  0.1490
 1234SOL    HW115338   2.459   0.077   2.347 -0.8763 -1.9330 -1.1738
 1234SOL    HW215339   2.383   0.180   2.280  0.7255  2.3535 -0.0242
 1235SOL     OW15340   0.368   0.207  12.668  0.3050  0.2716 -0.5145
 1235SOL    HW115341   0.417   0.252  12.599  1.0246  1.0951  0.5180
 1235SOL    HW215342   0.437   0.193  12.733 -0.4451 -0.9163  0.0206
 1236SOL     OW15343   3.329   4.257   6.130  0.3545 -0.0428 -0.0053
 1236SOL    HW115344   3.323   4.169   6.094 -0.1807  0.0019 -0.0350
 1236SOL    HW215345   3.238   4.280   6.111  0.4123  0.1226 -0.0759
 1237SOL     OW15346   1.396   4.166   3.894 -0.0468  0.4040  0.1735
 1237SOL    HW115347   1.333   4.234   3.916  1.1807  1.1930  1.3302
 1237SOL    HW215348   1.347   4.084   3.897 -0.6741  0.8037  0.5297
 1238SOL     OW15349   2.276   2.632   6.775  0.2151  0.2213  0.1013
 1238SOL    HW115350   2.355   2.599   6.734  0.2268  0.4820 -0.0829
 1238SOL    HW215351   2.275   2.725   6.751 -0.5863  0.0751 -0.4302
 1239SOL     OW15352   3.422   3.418   7.913 -0.0399 -0.3896  0.0265
 1239SOL    HW115353   3.408   3.346   7.853 -1.5488  1.2988 -1.6468
 1239SOL    HW215354   3.456   3.480   7.848 -2.4021 -0.3924 -1.1879
 1240SOL     OW15355   3.394   0.814   5.216  0.6505 -0.6380  0.2244
 1240SOL    HW115356   3.450   0.771   5.280 -1.0832 -0.8401  1.6118
 1240SOL    HW215357   3.387   0.761   5.136  1.3134  1.6946 -1.4046
 1241SOL     OW15358   3.544   2.053   8.430 -0.0105  0.1374  0.5127
 1241SOL    HW115359   3.503   1.967   8.433 -0.1083  0.0512 -2.9640
 1241SOL    HW215360   3.635   2.025   8.417 -0.8328 -1.0733 -2.5512
 1242SOL     OW15361   3.060   4.387   5.515 -0.5605 -0.2849  0.2735
 1242SOL    HW115362   2.980   4.370   5.463 -0.1657  0.8792 -0.7271
 1242SOL    HW215363   3.126   4.346   5.459 -0.6198 -0.2534  0.1781
 1243SOL     OW15364   3.828   3.633   4.125  0.5784 -0.3201  0.5806
 1243SOL    HW115365   3.893   3.688   4.081 -1.8275  0.3843 -2.0715
 1243SOL    HW215366   3.881   3.591   4.192  0.8689  0.9662  1.1515
 1244SOL     OW15367   3.646   1.250  10.553 -0.0480  0.5177  0.1427
 1244SOL    HW115368   3.713   1.256  10.485  0.4695 -0.4705  0.5679
 1244SOL    HW215369   3.685   1.310  10.617 -1.2483  0.8938  0.5224
 1245SOL     OW15370   2.544   0.543   6.125  0.6340  0.0468 -0.2861
 1245SOL    HW115371   2.493   0.558   6.205 -0.9984 -0.0208 -1.3134
 1245SOL    HW215372   2.607   0.481   6.163 -0.4956  0.3532  2.1053
 1246SOL     OW15373   2.755   3.958   8.555  0.2100 -0.0641  0.1571
 1246SOL    HW115374   2.823   3.898   8.587  0.7453  0.5623  0.1818
 1246SOL    HW215375   2.680   3.931   8.608  0.7848 -2.6994 -0.3318
 1247SOL     OW15376   4.371   2.309  15.702 -0.0004 -0.3676 -0.1959
 1247SOL    HW115377   4.298   2.372  15.701  0.1545 -0.2007 -0.8654
 1247SOL    HW215378   4.407   2.296  15.790  1.1913 -1.7261 -0.9006
 1248SOL     OW15379   2.681   4.709   6.380 -0.6164  0.2619 -0.2217
 1248SOL    HW115380   2.672   4.620   6.415 -0.0956  0.5386  0.6123
 1248SOL    HW215381   2.647   0.025   6.452  3.5794 -1.8723  3.3389
 1249SOL     OW15382   1.994   3.360  15.662 -0.0856 -0.6219  0.5932
 1249SOL    HW115383   1.917   3.417  15.669  0.2676 -0.3060  2.0099
 1249SOL    HW215384   1.998   3.306  15.741 -2.1917 -1.1085  0.3628
 1250SOL     OW15385   4.366   0.448   4.341 -0.0819  0.5379 -0.0085
 1250SOL    HW115386   4.302   0.378   4.350  1.1716 -0.5675  0.1672
 1250SOL    HW215387   4.331   0.499   4.268 -0.4850 -1.0143 -0.8943
 1251SOL     OW15388   4.682   2.116   8.736 -0.2847 -0.4971 -0.5978
 1251SOL    HW115389   4.713   2.174   8.805  0.0068 -0.5006 -0.7268
 1251SOL    HW215390   0.026   2.067   8.720 -0.2048 -1.2194  2.0975
 1252SOL     OW15391   2.848   1.045  10.597 -0.4103  0.7390  0.4119
 1252SOL    HW115392   2.859   0.952  10.615 -1.2475  0.5870  0.1606
 1252SOL    HW215393   2.829   1.081  10.684  1.9394  3.4323 -0.1884
 1253SOL     OW15394   0.560   3.818  12.227 -0.5540 -0.4468 -0.1909
 1253SOL    HW115395   0.633   3.840  12.285 -2.2451  0.8930  1.4471
 1253SOL    HW215396   0.538   3.729  12.252  0.1581 -0.0071  1.9667
 1254SOL     OW15397   0.973   3.058   6.331  0.1799  0.2989  0.7183
 1254SOL    HW115398   0.967   3.091   6.241  0.6607  1.7313  1.2296
 1254SOL    HW215399   0.881   3.048   6.357 -0.7136  1.8664 -1.8440
 1255SOL     OW15400   1.628   3.477   8.110  0.0722  0.2297 -0.2593
 1255SOL    HW115401   1.577   3.549   8.149  2.5486  1.3723  0.9020
 1255SOL    HW215402   1.702   3.518   8.065 -0.4630  0.6333 -0.7828
 1256SOL     OW15403   2.199   1.242  17.164  0.0954  0.2241  0.0781
 1256SOL    HW115404   2.143   1.209  17.234 -0.3189  1.0070  0.1143
 1256SOL    HW215405   2.260   1.170  17.150 -1.0374 -0.6480 -0.3375
 1257SOL     OW15406   1.108   2.744   3.814  0.2766  0.0087  0.0372
 1257SOL    HW115407   1.085   2.740   3.906  0.6614  0.9681  0.1749
 1257SOL    HW215408   1.193   2.787   3.801  0.1543  1.0316  2.6990
 1258SOL     OW15409   0.763   2.868   4.739  0.4010  0.2727  0.3669
 1258SOL    HW115410   0.809   2.843   4.660 -0.0103  0.7603 -0.0292
 1258SOL    HW215411   0.673   2.855   4.711  0.8582 -1.2601 -0.3872
 1259SOL     OW15412   1.361   1.549  16.746 -0.0279 -0.4698  0.1797
 1259SOL    HW115413   1.438   1.604  16.765 -0.2181 -0.4441  0.8507
 1259SOL    HW215414   1.314   1.546  16.829  0.2162 -1.1742  0.2874
 1260SOL     OW15415   4.395   2.843   9.651  0.3466 -0.2433 -0.0349
 1260SOL    HW115416   4.480   2.862   9.612 -0.3596 -1.5282 -2.1902
 1260SOL    HW215417   4.338   2.870   9.579  1.9666  1.2364 -0.7529
 1261SOL     OW15418   3.666   0.852  15.996  0.1882 -0.4619 -0.1681
 1261SOL    HW115419   3.596   0.900  15.951  0.2906  0.2829  0.4721
 1261SOL    HW215420   3.653   0.879  16.087  3.2805 -1.5362  0.5676
 1262SOL     OW15421   3.980   4.161   2.807  0.0613 -0.4613 -0.6701
 1262SOL    HW115422   4.069   4.153   2.840  0.5210 -1.0734 -2.0233
 1262SOL    HW215423   3.992   4.102   2.732  0.1340  0.1964 -1.1720
 1263SOL     OW15424   0.653   1.139  16.194  0.0692  0.1890  0.8040
 1263SOL    HW115425   0.715   1.183  16.252 -0.0022  0.0005  1.0179
 1263SOL    HW215426   0.581   1.203  16.189 -1.9445 -2.0990  0.3954
 1264SOL     OW15427   1.113   2.299   4.597  0.2207 -0.2483  0.2085
 1264SOL    HW115428   1.174   2.368   4.568 -0.3191 -0.4987 -1.5380
 1264SOL    HW215429   1.154   2.278   4.681 -0.9313 -0.0819  0.8177
 1265SOL     OW15430   3.088   4.334  13.814 -0.2805  0.6856 -0.6153
 1265SOL    HW115431   3.022   4.387  13.858  0.9107  2.2762 -0.7360
 1265SOL    HW215432   3.101   4.263  13.878  1.7013  1.3981 -0.2282
 1266SOL     OW15433   3.180   0.167  17.094  0.2797 -0.2662 -0.1419
 1266SOL    HW115434   3.238   0.215  17.036  0.0963 -0.6898 -0.6768
 1266SOL    HW215435   3.204   0.075  17.081 -4.2554 -1.1305 -2.5868
 1267SOL     OW15436   4.321   2.690   1.703  0.2297 -0.1502  0.4298
 1267SOL    HW115437   4.272   2.624   1.653  0.5423  0.1825 -0.3110
 1267SOL    HW215438   4.257   2.719   1.768  1.2904 -0.3729  1.5678
 1268SOL     OW15439   1.163   0.161  10.291 -0.5381 -0.9066 -0.0252
 1268SOL    HW115440   1.156   0.095  10.361  2.3131  0.9162  1.9505
 1268SOL    HW215441   1.083   0.141  10.242 -1.2215  0.0258  0.7269
 1269SOL     OW15442   3.890   0.779   8.165 -0.0076 -0.0096  0.3213
 1269SOL    HW115443   3.952   0.761   8.236 -0.2490 -2.9305 -0.2092
 1269SOL    HW215444   3.850   0.862   8.193 -0.2239  0.0191 -0.0735
 1270SOL     OW15445   0.201   3.339   6.885 -0.7968  0.3246 -0.3868
 1270SOL    HW115446   0.116   3.296   6.895 -1.2780  0.9442 -1.8863
 1270SOL    HW215447   0.169   3.429   6.896 -0.4353  0.0574  2.8529
 1271SOL     OW15448   0.599   2.369  10.043 -0.1891  0.3121  0.5541
 1271SOL    HW115449   0.598   2.366  10.139  0.7766 -1.1964  0.5296
 1271SOL    HW215450   0.645   2.451  10.023 -0.4368  0.3631  0.1931
 1272SOL     OW15451   1.048   0.831  14.837  0.0922 -0.6791 -0.3135
 1272SOL    HW115452   0.979   0.848  14.773 -0.8253  0.7467  1.0770
 1272SOL    HW215453   1.016   0.743  14.857  0.6313 -1.2788 -2.1128
 1273SOL     OW15454   2.097   2.220   7.105 -0.3013 -0.2834  0.0097
 1273SOL    HW115455   2.081   2.220   7.200  0.3249 -0.4098  0.1195
 1273SOL    HW215456   2.170   2.159   7.088 -0.3467 -0.0166 -1.1075
 1274SOL     OW15457   0.732   2.506   2.953  0.5592 -0.1083 -0.7094
 1274SOL    HW115458   0.791   2.580   2.940 -1.1832  1.0981 -1.7608
 1274SOL    HW215459   0.661   2.531   2.893 -2.7506 -3.9528  1.5967
 1275SOL     OW15460   3.502   4.187   7.733  0.1052  0.2710  0.3300
 1275SOL    HW115461   3.553   4.166   7.810  1.7705 -1.1073 -1.1429
 1275SOL    HW215462   3.505   4.281   7.746 -0.5395  0.4059 -0.4677
 1276SOL     OW15463   0.039   2.768   4.257 -0.5004  0.5023  0.2417
 1276SOL    HW115464   4.704   2.816   4.298 -1.6328 -2.6600  1.9787
 1276SOL    HW215465   0.048   2.828   4.183  1.7459 -0.6082 -0.4163
 1277SOL     OW15466   2.785   2.441   6.266  0.1695  0.4822 -0.1810
 1277SOL    HW115467   2.812   2.378   6.199 -0.6945 -1.2195  1.0994
 1277SOL    HW215468   2.730   2.388   6.323  0.9814  0.2427  0.3760
 1278SOL     OW15469   3.539   2.156   0.975 -0.1323  0.3236  0.5600
 1278SOL    HW115470   3.493   2.122   0.898  3.1732 -1.6107 -0.5612
 1278SOL    HW215471   3.628   2.180   0.948 -0.0339  1.3476  1.7782
 1279SOL     OW15472   0.222   4.541  16.384 -0.1051 -0.5772 -0.2619
 1279SOL    HW115473   0.199   4.589  16.464  2.9397 -0.4975  0.5709
 1279SOL    HW215474   0.316   4.562  16.388 -0.5888  1.2344  1.5137
 1280SOL     OW15475   4.141   0.418   6.869  0.0876  0.3717  0.0454
 1280SOL    HW115476   4.185   0.498   6.895  2.3897 -1.2184  1.0889
 1280SOL    HW215477   4.124   0.438   6.777  0.0282  0.1358  0.0025
 1281SOL     OW15478   0.650   2.490   9.296 -0.0329 -0.9868 -1.3466
 1281SOL    HW115479   0.668   2.418   9.236 -1.7510 -1.5394 -1.2149
 1281SOL    HW215480   0.731   2.495   9.346 -0.2154 -0.6342 -1.0829
 1282SOL     OW15481   1.014   0.271   2.383 -0.1403  0.1489 -0.8827
 1282SOL    HW115482   0.936   0.308   2.341 -0.0051  3.2705  1.6327
 1282SOL    HW215483   0.975   0.198   2.431  0.6147  0.2696 -0.0831
 1283SOL     OW15484   0.356   1.142  16.114  0.3390  0.1467  0.0207
 1283SOL    HW115485   0.296   1.100  16.175 -0.1072 -1.3760 -1.4896
 1283SOL    HW215486   0.403   1.061  16.095 -1.7689 -0.6706 -1.6377
 1284SOL     OW15487   4.156   4.036  12.407 -0.4370 -0.4214  0.3838
 1284SOL    HW115488   4.219   3.966  12.396 -0.7665 -0.4166 -1.4903
 1284SOL    HW215489   4.214   4.109  12.385 -2.9071  1.7866  1.0319
 1285SOL     OW15490   3.087   2.586  13.557 -0.0568 -0.1888 -0.0966
 1285SOL    HW115491   3.117   2.676  13.566 -0.9261  0.3046 -2.0151
 1285SOL    HW215492   3.109   2.547  13.642  0.0600 -1.7206 -0.8167
 1286SOL     OW15493   4.082   3.923   9.209 -0.1810  0.3330  0.0116
 1286SOL    HW115494   4.160   3.944   9.261  0.3066 -2.4321  0.3648
 1286SOL    HW215495   4.048   3.850   9.261  0.7242 -0.1560 -0.0880
 1287SOL     OW15496   1.138   2.407   3.088 -0.1683  0.2667 -0.6968
 1287SOL    HW115497   1.174   2.380   3.172  1.2776 -0.6389 -1.6137
 1287SOL    HW215498   1.196   2.475   3.052 -0.6546  0.9252 -0.2410
 1288SOL     OW15499   2.227   3.284  14.824  0.1763  0.0224  0.0608
 1288SOL    HW115500   2.186   3.211  14.777 -0.0020  0.5618 -0.6139
 1288SOL    HW215501   2.185   3.360  14.784  1.1223  0.0020 -0.9852
 1289SOL     OW15502   0.926   3.969   0.030  0.2986 -0.0905 -0.6290
 1289SOL    HW115503   0.983   4.029  17.727 -0.2557  0.4309 -0.6354
 1289SOL    HW215504   0.968   3.884   0.016 -2.6437 -1.7862  0.9410
 1290SOL     OW15505   4.387   2.954   7.620 -0.1060  0.4370  0.4073
 1290SOL    HW115506   4.292   2.946   7.632  0.0559  0.3704  1.6120
 1290SOL    HW215507   4.374   2.984   7.530 -0.9923 -3.7062 -0.8455
 1291SOL     OW15508   3.350   3.607   4.989  0.1219 -0.5375 -0.3448
 1291SOL    HW115509   3.369   3.527   4.940  1.2186  1.2104 -2.7995
 1291SOL    HW215510   3.325   3.652   4.908  0.4110  0.2929  0.0329
 1292SOL     OW15511   0.063   2.755   4.895  0.5879 -0.0213 -0.2547
 1292SOL    HW115512   0.031   2.839   4.927 -1.0679  0.4534 -3.1154
 1292SOL    HW215513   0.128   2.787   4.833  1.3000  0.6737  0.8535
 1293SOL     OW15514   3.805   0.553   3.651 -0.2318 -0.0685  0.5046
 1293SOL    HW115515   3.872   0.493   3.618 -0.2624 -0.5911  1.3891
 1293SOL    HW215516   3.812   0.626   3.590 -2.4069  1.1623  1.7044
 1294SOL     OW15517   3.195   0.115   5.355  0.0007 -0.1878  0.1168
 1294SOL    HW115518   3.163   0.190   5.405  1.0320  0.2721  0.0916
 1294SOL    HW215519   3.182   0.042   5.416 -0.7883 -0.1716 -0.0320
 1295SOL     OW15520   1.250   0.729  14.102 -0.4892  0.0324 -0.2866
 1295SOL    HW115521   1.316   0.783  14.060  1.8433 -0.4046  2.8350
 1295SOL    HW215522   1.212   0.802  14.151  0.9744  0.8690 -0.4171
 1296SOL     OW15523   2.523   3.169   3.603 -0.6366  0.1189  0.8962
 1296SOL    HW115524   2.526   3.074   3.612 -0.2113 -0.1861 -2.4111
 1296SOL    HW215525   2.461   3.184   3.674 -2.2397  1.3730 -0.7426
 1297SOL     OW15526   4.400   4.276   0.043  0.4856 -0.3738  0.2298
 1297SOL    HW115527   4.341   4.202   0.051 -1.9947  1.4327 -1.4703
 1297SOL    HW215528   4.342   4.342   0.006  0.3811  0.3321  1.6762
 1298SOL     OW15529   1.815   4.261   5.640 -0.3209 -0.0610 -0.1808
 1298SOL    HW115530   1.822   4.291   5.550 -2.6231  1.6928  0.2443
 1298SOL    HW215531   1.804   4.344   5.686  0.7216 -1.1248  1.9968
 1299SOL     OW15532   1.395   0.973   3.346  0.2314 -0.1169  0.0118
 1299SOL    HW115533   1.431   1.056   3.378 -0.5016 -0.4660  1.7257
 1299SOL    HW215534   1.392   0.980   3.250  1.5872  0.5845  0.0161
 1300SOL     OW15535   4.181   1.282  13.846 -0.4341  0.6162 -0.1707
 1300SOL    HW115536   4.192   1.232  13.928 -0.5606 -0.3964 -0.7746
 1300SOL    HW215537   4.146   1.368  13.869 -0.7971  0.6360 -0.8193
 1301SOL     OW15538   0.413   0.562  12.088  0.3229  0.0666 -0.1567
 1301SOL    HW115539   0.506   0.555  12.066  0.5921  0.6926  0.7867
 1301SOL    HW215540   0.382   0.636  12.035 -2.2840 -0.0454  1.1891
 1302SOL     OW15541   1.740   3.191   9.928 -0.7835 -0.2762 -0.3014
 1302SOL    HW115542   1.817   3.169   9.876  0.6529  1.4875  1.0896
 1302SOL    HW215543   1.679   3.219   9.859 -0.9354  0.1404  0.0011
 1303SOL     OW15544   3.957   2.664   1.277 -0.4693 -0.1827 -0.0900
 1303SOL    HW115545   3.992   2.590   1.328 -2.1047 -0.4665  0.6229
 1303SOL    HW215546   4.006   2.728   1.328 -1.1628  1.1831 -1.1479
 1304SOL     OW15547   0.003   3.957  17.137  0.1099 -0.4933  0.0249
 1304SOL    HW115548   0.093   3.952  17.107  0.0049  2.7864 -0.8523
 1304SOL    HW215549   4.714   3.870  17.167 -2.8290 -0.3178 -1.9134
 1305SOL     OW15550   3.076   0.417   6.212  0.2609 -0.3290  0.0058
 1305SOL    HW115551   3.162   0.374   6.221  0.3877 -0.2724 -0.9697
 1305SOL    HW215552   3.017   0.343   6.202  0.1298 -0.2778  0.3803
 1306SOL     OW15553   3.408   1.610   5.431 -0.2142  0.0570 -0.2535
 1306SOL    HW115554   3.471   1.551   5.390 -0.2686  0.6875 -1.2588
 1306SOL    HW215555   3.421   1.586   5.522  0.9152 -1.2515 -0.7647
 1307SOL     OW15556   0.011   1.611  14.229 -0.3028 -0.1460 -0.3088
 1307SOL    HW115557   4.685   1.591  14.160  0.2473  0.2244 -0.9119
 1307SOL    HW215558   4.702   1.684  14.271  1.5293 -0.2238  1.7964
 1308SOL     OW15559   0.424   2.142   6.478  0.1268 -0.4038  0.2507
 1308SOL    HW115560   0.485   2.125   6.407 -1.0986  2.4518 -1.4781
 1308SOL    HW215561   0.342   2.137   6.429 -0.4175  1.1366  1.0243
 1309SOL     OW15562   0.424   2.821   2.030 -0.3696  0.3287 -0.3562
 1309SOL    HW115563   0.517   2.846   2.032 -0.4549  0.5601  0.5008
 1309SOL    HW215564   0.395   2.877   2.102 -0.1531  1.1442 -0.9005
 1310SOL     OW15565   3.364   1.721  13.586 -0.1323 -0.7109 -0.1653
 1310SOL    HW115566   3.359   1.685  13.675  1.1920 -1.3318 -0.3425
 1310SOL    HW215567   3.276   1.699  13.555  0.3977 -3.0283 -0.0449
 1311SOL     OW15568   3.839   4.151  10.022 -0.3445 -0.1563  0.2128
 1311SOL    HW115569   3.911   4.192   9.975 -0.3009 -0.8300 -0.2865
 1311SOL    HW215570   3.772   4.210   9.987 -0.2431  0.1195  0.4775
 1312SOL     OW15571   4.109   3.318   7.277  0.4142 -0.0366 -0.3388
 1312SOL    HW115572   4.171   3.306   7.206  1.5997  1.3453  0.4748
 1312SOL    HW215573   4.070   3.231   7.264 -0.2732 -0.0236  1.6188
 1313SOL     OW15574   3.138   1.480   5.396 -0.3612  0.3871  0.3570
 1313SOL    HW115575   3.200   1.550   5.415 -1.1975  0.5695  2.3404
 1313SOL    HW215576   3.187   1.398   5.400  0.5541  0.8313 -1.5699
 1314SOL     OW15577   4.579   4.498   1.748  0.0850 -0.2032  0.7098
 1314SOL    HW115578   4.530   4.425   1.710  0.1397 -0.2305  0.6933
 1314SOL    HW215579   4.505   4.559   1.752 -0.4764 -0.8911  0.8575
 1315SOL     OW15580   2.739   0.921   4.317  0.5201  0.7877 -0.1703
 1315SOL    HW115581   2.813   0.891   4.265 -0.5743 -0.8963 -0.7463
 1315SOL    HW215582   2.738   1.015   4.296  0.7967  0.7013 -0.5761
 1316SOL     OW15583   0.838   0.924   3.840  0.0518  0.4723  0.1033
 1316SOL    HW115584   0.773   0.868   3.797 -0.2307  0.9571 -0.0947
 1316SOL    HW215585   0.909   0.907   3.778  0.8181  0.3604  1.0197
 1317SOL     OW15586   0.418   1.899   6.634 -0.3227  0.2645 -0.2676
 1317SOL    HW115587   0.401   1.970   6.571 -0.4160  1.2982  0.9140
 1317SOL    HW215588   0.512   1.908   6.646 -0.3504 -0.9774  0.8183
 1318SOL     OW15589   2.440   3.874   9.175  0.0097  0.2381 -0.5037
 1318SOL    HW115590   2.436   3.898   9.268 -0.9605  0.9446 -0.7254
 1318SOL    HW215591   2.444   3.967   9.150 -1.0712 -0.1538 -2.1719
 1319SOL     OW15592   1.231   2.001   7.420 -0.2308  0.4013  0.0698
 1319SOL    HW115593   1.255   2.054   7.496 -1.5107  0.7885  0.2096
 1319SOL    HW215594   1.146   2.040   7.397 -3.0457 -4.7326  1.7594
 1320SOL     OW15595   0.081   4.183  12.983 -0.0026 -0.3019 -0.6401
 1320SOL    HW115596   0.019   4.227  12.925 -1.5337 -1.6500 -0.0435
 1320SOL    HW215597   0.048   4.093  12.980  0.9732 -0.7396  1.7012
 1321SOL     OW15598   2.129   4.703  14.679  0.8193  0.0445  0.2188
 1321SOL    HW115599   2.107   4.610  14.671 -1.6408  0.5206  1.3579
 1321SOL    HW215600   2.224   4.694  14.688  0.8020  0.6514  1.0084
 1322SOL     OW15601   0.453   1.967   1.156  0.1204  0.1720 -0.3825
 1322SOL    HW115602   0.546   1.948   1.149  0.2513 -0.3569  2.9233
 1322SOL    HW215603   0.427   2.022   1.082 -0.4984 -1.7293 -1.5695
 1323SOL     OW15604   2.583   3.117  14.771  0.2172  0.0502 -0.0179
 1323SOL    HW115605   2.651   3.088  14.709  0.3488  1.9476 -0.7606
 1323SOL    HW215606   2.516   3.142  14.708  0.4793 -1.3111 -0.8563
 1324SOL     OW15607   2.061   0.383   6.946 -0.2309  0.0367  0.0119
 1324SOL    HW115608   1.969   0.380   6.920  0.2798 -0.7477 -1.6881
 1324SOL    HW215609   2.094   0.416   6.863  0.9840  2.7883  1.6006
 1325SOL     OW15610   2.137   0.146  15.715  0.5676  0.2551 -0.0174
 1325SOL    HW115611   2.061   0.187  15.755  0.5589  0.4473 -0.2301
 1325SOL    HW215612   2.170   0.191  15.637  3.3591  0.1372  1.0999
 1326SOL     OW15613   1.153   2.715  14.719  0.9138 -0.3910 -0.1159
 1326SOL    HW115614   1.158   2.694  14.625 -1.0986  0.4131 -0.4033
 1326SOL    HW215615   1.081   2.657  14.743  0.1822  1.9524  3.3110
 1327SOL     OW15616   1.024   2.857   6.977 -0.3926  0.7059  0.1787
 1327SOL    HW115617   1.095   2.834   6.917  0.4648  1.4959  0.8831
 1327SOL    HW215618   1.072   2.871   7.059 -2.1321 -1.8733  1.6339
 1328SOL     OW15619   1.447   0.197   3.819 -0.0616 -0.4281  0.1777
 1328SOL    HW115620   1.468   0.284   3.782  1.3010 -0.0053  1.9355
 1328SOL    HW215621   1.493   0.144   3.753 -0.1774 -0.6008  0.2372
 1329SOL     OW15622   3.629   0.041   2.602 -0.2196 -0.0873 -0.0633
 1329SOL    HW115623   3.682   4.718   2.549 -1.0425 -0.1165 -0.8510
 1329SOL    HW215624   3.550   0.053   2.551 -0.1202  0.2754 -0.1337
 1330SOL     OW15625   1.999   4.541  15.534 -0.4624 -0.0734  0.2405
 1330SOL    HW115626   1.943   4.547  15.611 -0.8005 -1.4695  0.1023
 1330SOL    HW215627   2.080   4.516  15.578 -1.5786  1.1405  2.9968
 1331SOL     OW15628   0.458   0.325   7.682 -0.3659 -0.2586  0.0639
 1331SOL    HW115629   0.493   0.325   7.771  4.8533 -4.4663 -1.9968
 1331SOL    HW215630   0.422   0.236   7.674 -0.5162 -0.3840  2.0605
 1332SOL     OW15631   1.681   0.328   4.167 -0.3421 -0.0377 -0.3980
 1332SOL    HW115632   1.684   0.402   4.107  0.1378 -0.4697 -0.8989
 1332SOL    HW215633   1.585   0.336   4.175 -0.1950  1.8619 -0.4964
 1333SOL     OW15634   1.673   3.309   5.604  0.0098 -0.5243 -0.0144
 1333SOL    HW115635   1.614   3.303   5.529 -1.2219 -3.4049  1.2125
 1333SOL    HW215636   1.678   3.404   5.611  1.0207 -0.8037  3.2632
 1334SOL     OW15637   4.141   2.140   5.557 -0.6250  0.5249  0.6452
 1334SOL    HW115638   4.058   2.097   5.536 -0.0030  0.0023 -0.7558
 1334SOL    HW215639   4.146   2.117   5.650 -0.6371  1.3242  0.8403
 1335SOL     OW15640   1.586   0.123   6.312  0.3082 -0.3987  0.3165
 1335SOL    HW115641   1.648   0.191   6.286  0.6367 -0.0032  2.2062
 1335SOL    HW215642   1.609   0.050   6.254 -1.5675 -1.6690  1.1693
 1336SOL     OW15643   0.263   3.156   5.030  0.2500  0.2310 -0.1606
 1336SOL    HW115644   0.216   3.158   5.113  1.0487  1.5838  0.2704
 1336SOL    HW215645   0.340   3.102   5.048  1.3978  2.2313  0.9686
 1337SOL     OW15646   4.136   1.583   9.608 -0.2928 -0.3523  0.0677
 1337SOL    HW115647   4.046   1.576   9.579  0.0120  0.9280 -1.1797
 1337SOL    HW215648   4.122   1.665   9.656  0.6132 -1.8954  2.9974
 1338SOL     OW15649   4.596   2.188   3.421 -0.1191  0.2737  0.3918
 1338SOL    HW115650   4.587   2.139   3.339 -0.3907  0.5147  0.2768
 1338SOL    HW215651   4.595   2.120   3.488 -1.0459  1.3077  1.4187
 1339SOL     OW15652   0.143   4.549   8.998  0.1971  0.0200 -0.0916
 1339SOL    HW115653   0.191   4.538   8.916  1.6138  1.5937  0.5516
 1339SOL    HW215654   0.090   4.471   8.980 -2.3141  1.3247  1.6356
 1340SOL     OW15655   0.921   0.756  14.208 -0.1587 -0.0285  0.4148
 1340SOL    HW115656   0.887   0.792  14.290 -0.4560  4.2525 -1.5893
 1340SOL    HW215657   1.009   0.794  14.213  0.4691 -1.4691  0.3386
 1341SOL     OW15658   4.550   1.662   1.484  0.1343  0.3340 -0.3664
 1341SOL    HW115659   4.504   1.578   1.479 -0.0303  0.4469 -0.8027
 1341SOL    HW215660   4.604   1.656   1.405 -0.1266 -1.6364 -0.3980
 1342SOL     OW15661   0.974   3.204   4.980 -0.1758 -0.1805 -0.0898
 1342SOL    HW115662   0.883   3.182   4.962 -0.5442 -0.0294  1.6110
 1342SOL    HW215663   1.012   3.116   4.969  1.2307  0.2010  1.6056
 1343SOL     OW15664   0.524   2.890  10.155 -0.0874 -0.4702 -0.1560
 1343SOL    HW115665   0.610   2.892  10.115 -0.0039  1.6719  0.1039
 1343SOL    HW215666   0.520   2.802  10.193 -2.7001  0.1137  0.9648
 1344SOL     OW15667   1.776   3.154   1.563 -0.4550  0.3649 -0.0700
 1344SOL    HW115668   1.739   3.066   1.556  0.5982 -0.0184 -0.7367
 1344SOL    HW215669   1.696   3.206   1.569 -0.7275  0.1589 -2.0500
 1345SOL     OW15670   4.292   0.415   0.275  0.2671 -0.3525  0.3038
 1345SOL    HW115671   4.387   0.412   0.279  0.4601  1.3642 -3.0292
 1345SOL    HW215672   4.287   0.463   0.192  0.2646  0.2398  0.6467
 1346SOL     OW15673   3.245   4.258   5.351  0.2931 -0.0751  0.4313
 1346SOL    HW115674   3.312   4.326   5.353 -1.8803  2.0425  0.2027
 1346SOL    HW215675   3.217   4.249   5.260 -2.3770 -1.9000  1.4284
 1347SOL     OW15676   3.962   4.464  12.252  0.2606  0.1797  0.6216
 1347SOL    HW115677   3.920   4.383  12.281 -0.3534  0.3527  0.2198
 1347SOL    HW215678   3.986   4.440  12.163 -2.9577  2.3149 -0.8350
 1348SOL     OW15679   1.474   0.036   5.454 -0.0279  0.2468  0.5922
 1348SOL    HW115680   1.482   0.042   5.550  1.2632 -1.7059  0.6188
 1348SOL    HW215681   1.552   4.722   5.433 -1.7234 -2.2051  0.2050
 1349SOL     OW15682   2.997   3.328   2.382 -0.0700  0.6242 -0.0504
 1349SOL    HW115683   3.031   3.364   2.300 -0.0042 -1.0914 -0.7778
 1349SOL    HW215684   3.005   3.402   2.441 -0.0669 -0.2544  1.0451
 1350SOL     OW15685   1.041   0.467   9.570  0.3883  0.0696  0.1928
 1350SOL    HW115686   1.067   0.455   9.661 -0.7361 -0.5093  0.4395
 1350SOL    HW215687   0.962   0.416   9.588  1.7479 -1.7705  0.9531
 1351SOL     OW15688   0.529   1.480   9.667 -0.1694 -0.1441 -0.3744
 1351SOL    HW115689   0.565   1.489   9.756 -0.8342 -0.2512 -0.0977
 1351SOL    HW215690   0.450   1.426   9.675 -0.2853  0.0196 -0.4144
 1352SOL     OW15691   3.361   2.754  16.620 -0.3993  0.1960 -0.4145
 1352SOL    HW115692   3.330   2.700  16.547  0.7683 -0.6307 -0.3076
 1352SOL    HW215693   3.279   2.789  16.656 -1.2181 -0.1131 -1.9689
 1353SOL     OW15694   4.348   0.709  10.760  0.2121 -0.0170 -0.4393
 1353SOL    HW115695   4.295   0.749  10.691  0.9889  0.1580 -0.9468
 1353SOL    HW215696   4.337   0.763  10.838  0.0377  0.6221 -0.9061
 1354SOL     OW15697   2.609   1.213   3.971 -0.1547  0.3163 -1.1085
 1354SOL    HW115698   2.615   1.257   4.056 -0.6459 -1.8630  0.0545
 1354SOL    HW215699   2.682   1.153   3.980 -1.1144 -0.2428  2.7015
 1355SOL     OW15700   4.524   4.469  17.002  0.2448 -0.0136  0.0340
 1355SOL    HW115701   4.485   4.480  17.089 -0.6051 -1.4496 -0.1727
 1355SOL    HW215702   4.496   4.380  16.983  1.3300  0.0771 -2.0273
 1356SOL     OW15703   2.466   1.876   6.407 -0.0899  0.0706 -0.6074
 1356SOL    HW115704   2.450   1.825   6.487  1.0072  1.0459  0.2303
 1356SOL    HW215705   2.379   1.866   6.368 -1.2964  1.8060  1.6093
 1357SOL     OW15706   2.652   0.800   8.385  0.0158 -0.3614  0.1051
 1357SOL    HW115707   2.616   0.879   8.425  0.1508  0.1813 -0.8438
 1357SOL    HW215708   2.696   0.837   8.308  0.5226 -1.0002  0.0879
 1358SOL     OW15709   2.435   2.608   5.506 -0.1582  0.0433 -0.2605
 1358SOL    HW115710   2.453   2.514   5.501 -1.5951 -0.2424  0.1070
 1358SOL    HW215711   2.523   2.645   5.515  0.6478 -2.1775  0.8876
 1359SOL     OW15712   2.779   3.135   9.803  0.1168 -0.3443  0.1026
 1359SOL    HW115713   2.779   3.080   9.881  0.2421 -0.0229  0.3286
 1359SOL    HW215714   2.685   3.154   9.798 -0.1603 -1.6933  0.2977
 1360SOL     OW15715   1.441   0.449   0.067 -0.5851  0.5244 -0.6630
 1360SOL    HW115716   1.486   0.484   0.143 -0.9955  1.8223 -1.0258
 1360SOL    HW215717   1.446   0.353   0.070  2.2065  0.7719  1.7680
 1361SOL     OW15718   4.083   1.437   0.225  0.1179  0.3753 -0.0126
 1361SOL    HW115719   4.117   1.454   0.137  0.7416  1.4503  0.4465
 1361SOL    HW215720   4.027   1.513   0.238 -0.4340 -0.1090  0.4420
 1362SOL     OW15721   0.118   3.281   9.416  0.0790  0.0806  0.0365
 1362SOL    HW115722   0.058   3.213   9.387 -0.3516  1.2941 -1.9624
 1362SOL    HW215723   0.188   3.290   9.351  0.8066 -1.1637  0.6634
 1363SOL     OW15724   1.083   0.038   3.165  0.6835  0.2229  0.3583
 1363SOL    HW115725   1.093   0.041   3.260 -1.4252 -1.9771  0.6478
 1363SOL    HW215726   1.155   4.722   3.132  1.5856  2.4828 -1.3466
 1364SOL     OW15727   2.390   3.781  14.200  0.0974 -0.0280 -0.4646
 1364SOL    HW115728   2.473   3.733  14.198  0.1518  0.0008  0.9223
 1364SOL    HW215729   2.407   3.857  14.144  1.2045 -0.9883 -1.4558
 1365SOL     OW15730   2.727   4.036  15.979  0.4176  0.0908  0.1974
 1365SOL    HW115731   2.731   4.100  16.050 -0.0952  1.2653 -0.8527
 1365SOL    HW215732   2.708   3.954  16.025  0.3756  1.4769  2.6737
 1366SOL     OW15733   2.851   3.995   8.291  0.0784 -0.7776 -0.1049
 1366SOL    HW115734   2.889   4.083   8.293 -0.3719 -0.5904  0.1299
 1366SOL    HW215735   2.815   3.995   8.380  1.1358 -0.3613  0.3327
 1367SOL     OW15736   0.246   4.187   2.309  0.4543 -0.0759  0.6179
 1367SOL    HW115737   0.261   4.279   2.333  0.8893 -0.2383  0.9713
 1367SOL    HW215738   0.161   4.196   2.265 -1.3177 -2.9706  3.4476
 1368SOL     OW15739   0.409   0.823   5.717  0.5302 -0.2566 -0.0487
 1368SOL    HW115740   0.478   0.778   5.669 -1.7964 -1.6698 -2.0561
 1368SOL    HW215741   0.433   0.914   5.697 -0.7553  0.5316  2.0263
 1369SOL     OW15742   3.878   1.071   3.566 -0.1230  0.0940 -0.2465
 1369SOL    HW115743   3.839   1.140   3.513 -2.0674 -1.3994 -0.7857
 1369SOL    HW215744   3.967   1.105   3.576  0.9519 -1.9240 -2.9657
 1370SOL     OW15745   2.360   4.453  12.465 -0.5059 -0.1710  0.5169
 1370SOL    HW115746   2.337   4.534  12.510  0.0031 -0.0893  0.6281
 1370SOL    HW215747   2.301   4.464  12.390  1.7969  1.8095 -1.0161
 1371SOL     OW15748   2.357   3.785   7.519  0.2913  0.2618  0.3030
 1371SOL    HW115749   2.410   3.705   7.512  1.3100  0.8542  1.2638
 1371SOL    HW215750   2.278   3.760   7.567 -0.2578  0.6065 -0.4119
 1372SOL     OW15751   3.080   1.075   3.279 -0.0778  0.4128  0.1933
 1372SOL    HW115752   3.082   1.161   3.237  2.1020  0.6542  0.7792
 1372SOL    HW215753   3.046   1.107   3.363  0.7661  0.4967  0.5038
 1373SOL     OW15754   1.121   1.460  12.637  0.1862 -0.5394  0.8655
 1373SOL    HW115755   1.136   1.477  12.730  0.1275 -0.1915  0.8125
 1373SOL    HW215756   1.209   1.432  12.610  0.8628  2.0517  0.3983
 1374SOL     OW15757   2.631   2.105  11.739  0.3296  0.4795 -0.0464
 1374SOL    HW115758   2.551   2.089  11.789  0.7358 -0.9735  0.1434
 1374SOL    HW215759   2.696   2.072  11.800  1.7509  0.6952 -1.4377
 1375SOL     OW15760   3.972   0.159   6.253 -0.1803 -0.8893 -0.2809
 1375SOL    HW115761   3.966   0.153   6.349 -0.2362  0.8195 -0.1820
 1375SOL    HW215762   3.936   0.246   6.236 -0.8587 -1.0217  0.4549
 1376SOL     OW15763   4.177   3.690   8.644  0.5137  0.1856 -0.3357
 1376SOL    HW115764   4.171   3.603   8.604 -0.9590  0.7869 -1.4442
 1376SOL    HW215765   4.105   3.688   8.708  0.3671  2.9696 -0.4333
 1377SOL     OW15766   2.684   0.408   5.903  0.5484 -0.4345  0.3338
 1377SOL    HW115767   2.623   0.401   5.977  0.5667  3.2993  0.7008
 1377SOL    HW215768   2.624   0.404   5.828 -0.1455  1.2232  0.7799
 1378SOL     OW15769   3.887   0.414   6.162  0.1352 -0.1388 -0.3408
 1378SOL    HW115770   3.878   0.389   6.070 -1.1094 -3.0668  0.5535
 1378SOL    HW215771   3.819   0.478   6.184 -0.2212 -0.2186 -1.2096
 1379SOL     OW15772   2.255   2.196   8.169 -0.1977 -0.4944  0.1294
 1379SOL    HW115773   2.168   2.209   8.131 -0.8539 -0.4942  1.6534
 1379SOL    HW215774   2.304   2.166   8.092 -0.1873  1.5938 -0.6888
 1380SOL     OW15775   1.572   1.803  10.777  0.3632  0.3028 -0.2544
 1380SOL    HW115776   1.538   1.891  10.761  1.1044  0.5640 -0.3538
 1380SOL    HW215777   1.553   1.798  10.871 -0.8251  1.1078 -0.4461
 1381SOL     OW15778   0.294   1.520   6.827  0.4262  0.0321 -0.1426
 1381SOL    HW115779   0.284   1.611   6.799  1.4857 -0.0568 -0.8170
 1381SOL    HW215780   0.250   1.517   6.912  1.3671 -2.3933  0.2652
 1382SOL     OW15781   0.737   0.159   4.069 -0.2865 -0.0588 -0.1019
 1382SOL    HW115782   0.772   0.105   4.140  0.6910  0.2900 -0.3072
 1382SOL    HW215783   0.738   0.095   3.997  0.5313 -0.3740  0.1828
 1383SOL     OW15784   3.544   0.863   7.295  0.5212  0.0834 -0.1644
 1383SOL    HW115785   3.600   0.826   7.363 -1.0951  1.8738  2.1344
 1383SOL    HW215786   3.528   0.948   7.334 -0.2180  0.1993 -0.7089
 1384SOL     OW15787   1.502   3.180   7.226 -0.2987 -0.3180 -0.0998
 1384SOL    HW115788   1.435   3.210   7.287 -1.4678 -0.6166 -1.2488
 1384SOL    HW215789   1.570   3.144   7.283 -0.6313 -1.0517 -0.1722
 1385SOL     OW15790   3.968   1.863   7.135  0.0740  0.0572  0.3515
 1385SOL    HW115791   3.971   1.957   7.151  0.8794 -0.1991  1.7279
 1385SOL    HW215792   3.965   1.821   7.221  2.6276 -2.0579 -0.5983
 1386SOL     OW15793   1.201   1.442   2.445  0.6180  0.9059 -0.0040
 1386SOL    HW115794   1.130   1.496   2.479  0.0833 -1.1432  2.2299
 1386SOL    HW215795   1.268   1.507   2.468  0.5242  0.9633  0.1092
 1387SOL     OW15796   2.402   4.425   4.330  0.6995  0.1001 -0.4435
 1387SOL    HW115797   2.372   4.509   4.296 -0.3885 -0.7298 -1.5149
 1387SOL    HW215798   2.400   4.375   4.249 -2.0450  0.6835 -0.7403
 1388SOL     OW15799   2.020   2.135   5.102 -0.9188 -0.9175  0.3715
 1388SOL    HW115800   2.020   2.228   5.082  0.0885 -0.8835  0.5280
 1388SOL    HW215801   2.029   2.133   5.198  1.5146  0.6651  0.1848
 1389SOL     OW15802   4.317   2.316   5.297  0.0550  0.2870  0.0189
 1389SOL    HW115803   4.267   2.367   5.233 -0.4479  0.0099  0.1862
 1389SOL    HW215804   4.287   2.364   5.374 -0.0335  0.6702 -0.2548
 1390SOL     OW15805   4.061   4.473  11.127  0.0816 -0.0877 -0.1832
 1390SOL    HW115806   3.968   4.494  11.121 -0.3219 -1.2563  1.9963
 1390SOL    HW215807   4.069   4.466  11.222 -1.7919 -1.3842 -0.1147
 1391SOL     OW15808   3.656   0.197   7.210 -0.5639  0.1943 -0.2797
 1391SOL    HW115809   3.687   0.115   7.246 -0.2023 -0.3242 -1.7835
 1391SOL    HW215810   3.593   0.164   7.147  0.2541 -1.4295 -0.2258
 1392SOL     OW15811   1.732   0.880  15.337 -0.2705  0.6511  0.3680
 1392SOL    HW115812   1.773   0.947  15.393  0.5129  0.0706  0.4985
 1392SOL    HW215813   1.641   0.880  15.366  0.0074  3.3982  1.2923
 1393SOL     OW15814   4.260   0.535   8.988 -0.2428  0.0018  0.3631
 1393SOL    HW115815   4.348   0.504   8.967 -0.7740 -1.8472  0.8776
 1393SOL    HW215816   4.202   0.475   8.942  2.0653 -1.1730 -1.0295
 1394SOL     OW15817   1.699   4.506   6.480  0.1274 -0.4056 -0.3838
 1394SOL    HW115818   1.750   4.428   6.459 -0.2357 -1.0160  1.0086
 1394SOL    HW215819   1.750   4.538   6.554  0.2631 -0.0121 -0.6476
 1395SOL     OW15820   2.015   3.973  10.186  0.3334 -0.0349  0.0227
 1395SOL    HW115821   1.935   3.997  10.232 -0.0140 -1.3832  0.1161
 1395SOL    HW215822   2.010   3.879  10.204  0.9023 -0.5012 -2.2756
 1396SOL     OW15823   2.205   0.517   3.301  0.1250 -0.4578  0.0629
 1396SOL    HW115824   2.133   0.579   3.296  0.6511  0.0923 -0.6688
 1396SOL    HW215825   2.285   0.564   3.278 -1.1154  1.2711 -0.7304
 1397SOL     OW15826   2.037   4.515   4.111  0.0004  0.1354 -0.1949
 1397SOL    HW115827   1.955   4.553   4.143 -0.2735 -2.5511  2.3560
 1397SOL    HW215828   2.031   4.424   4.142 -1.8178  0.5224  0.6057
 1398SOL     OW15829   2.852   3.396   5.207 -0.2907 -0.8634 -0.2553
 1398SOL    HW115830   2.945   3.402   5.184  0.1208 -1.1717  1.3498
 1398SOL    HW215831   2.850   3.445   5.289  0.1715 -0.8719 -0.2353
 1399SOL     OW15832   1.515   4.618   4.293 -0.6224 -0.6218  0.6067
 1399SOL    HW115833   1.531   4.690   4.354 -1.7887  0.7976 -0.7635
 1399SOL    HW215834   1.484   4.674   4.222 -0.5794 -0.4420  0.7297
 1400SOL     OW15835   0.745   4.196  14.447 -0.7544  0.8369  0.0165
 1400SOL    HW115836   0.777   4.241  14.369  1.4702 -0.4514  0.1948
 1400SOL    HW215837   0.682   4.259  14.483 -1.7465 -0.9087  1.3658
 1401SOL     OW15838   3.965   0.909  14.051 -0.4435 -0.1547  0.3070
 1401SOL    HW115839   4.044   0.895  14.103 -0.4934 -1.0631  0.1414
 1401SOL    HW215840   3.972   0.842  13.982 -1.0478 -2.2433  2.2918
 1402SOL     OW15841   0.753   0.375   8.727 -0.2258 -0.3478 -0.7417
 1402SOL    HW115842   0.659   0.392   8.729 -0.5552 -2.2605  0.6025
 1402SOL    HW215843   0.752   0.335   8.640 -1.2408  0.5620 -1.1481
 1403SOL     OW15844   0.085   0.007   5.278  0.6677  0.3899  0.2022
 1403SOL    HW115845   0.053   0.095   5.298  1.8466  0.7164  0.6726
 1403SOL    HW215846   0.151   0.033   5.214  0.7864 -0.4582 -0.0178
 1404SOL     OW15847   0.118   2.010   2.506 -0.5738  0.0767 -0.0453
 1404SOL    HW115848   0.095   1.930   2.553 -0.2556 -0.0089 -0.0302
 1404SOL    HW215849   0.159   1.966   2.432  0.8379  1.9718 -0.3933
 1405SOL     OW15850   3.899   2.187   4.447  0.1161  0.0928 -0.3130
 1405SOL    HW115851   3.832   2.225   4.503  1.6787 -0.5878  2.0143
 1405SOL    HW215852   3.851   2.165   4.367 -0.6207 -1.7038  0.6104
 1406SOL     OW15853   2.658   1.477  13.664 -0.3292  0.2341 -0.6204
 1406SOL    HW115854   2.678   1.567  13.639  0.0200  0.7491  1.5076
 1406SOL    HW215855   2.656   1.476  13.759  3.4076  1.8709 -0.5304
 1407SOL     OW15856   0.193   1.877   7.737  0.7688 -0.0944  0.1772
 1407SOL    HW115857   0.244   1.954   7.711  0.5331 -0.7675 -2.3100
 1407SOL    HW215858   0.252   1.837   7.801  0.6725  1.1998  1.0817
 1408SOL     OW15859   0.583   1.400   6.567  0.2094 -0.6953  0.0431
 1408SOL    HW115860   0.607   1.308   6.553  1.5755 -0.0693 -1.7716
 1408SOL    HW215861   0.611   1.415   6.658 -0.2530 -1.5585  0.3323
 1409SOL     OW15862   4.067   0.435   8.800  0.0500  0.1901 -0.8201
 1409SOL    HW115863   4.062   0.349   8.759 -0.1721 -0.3620  0.3936
 1409SOL    HW215864   4.124   0.478   8.735 -1.4576 -1.2987 -3.1316
 1410SOL     OW15865   1.984   0.334   7.600 -0.3704  0.1381  0.1571
 1410SOL    HW115866   2.055   0.274   7.578  0.5130  1.0859  0.4385
 1410SOL    HW215867   1.964   0.299   7.687  2.2724 -0.6689  0.4323
 1411SOL     OW15868   3.702   3.142   6.332 -0.0640  1.0945  0.5679
 1411SOL    HW115869   3.776   3.145   6.393  0.6899 -1.9449 -0.2063
 1411SOL    HW215870   3.633   3.182   6.386  0.3763  0.8708  1.3040
 1412SOL     OW15871   2.481   0.961  17.440  0.0580  0.3772  0.2183
 1412SOL    HW115872   2.540   0.942  17.512 -0.4706 -0.0296  0.5400
 1412SOL    HW215873   2.545   0.973  17.370 -0.4452 -1.3620 -0.5327
 1413SOL     OW15874   4.305   3.600  17.320  0.0721 -0.0093  0.0320
 1413SOL    HW115875   4.224   3.581  17.368  1.7442 -1.2574  2.3454
 1413SOL    HW215876   4.358   3.618  17.397 -1.8661  0.6433  1.1988
 1414SOL     OW15877   0.771   4.133   2.837 -0.2828  0.1300 -0.7129
 1414SOL    HW115878   0.760   4.214   2.788  1.1469  1.7474  1.6244
 1414SOL    HW215879   0.835   4.164   2.901 -1.3644 -0.7192  0.7800
 1415SOL     OW15880   2.479   1.647   4.112 -0.0853  0.2434  0.0708
 1415SOL    HW115881   2.386   1.626   4.099  0.4260 -2.2831  0.4316
 1415SOL    HW215882   2.494   1.636   4.206  0.7426 -1.7874 -0.3007
 1416SOL     OW15883   4.237   0.723   0.730  0.3981 -0.0143 -0.5197
 1416SOL    HW115884   4.332   0.719   0.721  0.1508  0.4020 -3.1705
 1416SOL    HW215885   4.218   0.817   0.720 -0.5760 -0.2635 -0.9815
 1417SOL     OW15886   2.596   3.265   8.615 -0.6441 -0.0082 -0.1316
 1417SOL    HW115887   2.565   3.303   8.698  0.7130 -2.0200  1.2769
 1417SOL    HW215888   2.537   3.190   8.611 -0.2811 -0.2604 -0.6019
 1418SOL     OW15889   2.705   3.908   5.788  0.7059  0.3095 -0.4291
 1418SOL    HW115890   2.783   3.916   5.734  0.1019  0.2012 -1.3166
 1418SOL    HW215891   2.702   3.990   5.837 -0.4017 -0.2540  0.4495
 1419SOL     OW15892   2.611   4.342   8.572 -0.6371  0.0622  0.3519
 1419SOL    HW115893   2.599   4.373   8.662  1.4074 -0.0495  0.6714
 1419SOL    HW215894   2.538   4.284   8.551 -0.6589  0.2718 -0.1378
 1420SOL     OW15895   2.149   1.228  15.592  0.4776 -0.2600 -0.1064
 1420SOL    HW115896   2.180   1.318  15.585 -1.3693  0.4337  0.6769
 1420SOL    HW215897   2.140   1.224  15.687 -1.2196  1.2813 -0.1953
 1421SOL     OW15898   2.539   3.730  13.092 -0.5327 -0.3474  0.3368
 1421SOL    HW115899   2.461   3.675  13.097 -2.3252  2.0445 -1.4617
 1421SOL    HW215900   2.607   3.666  13.115 -1.2329 -0.5587  1.7588
 1422SOL     OW15901   0.843   3.849   8.677  0.2072 -0.2916 -0.5472
 1422SOL    HW115902   0.901   3.776   8.699  0.3413  0.5331  1.8031
 1422SOL    HW215903   0.762   3.808   8.708  1.1961  0.1181  2.5064
 1423SOL     OW15904   0.855   1.439   7.408 -0.0041  0.0488 -0.0346
 1423SOL    HW115905   0.907   1.490   7.346 -0.5993  2.3096  1.3336
 1423SOL    HW215906   0.899   1.440   7.493 -0.5696 -2.1753  0.2801
 1424SOL     OW15907   1.922   4.478  12.027  0.7897 -0.4957 -0.4102
 1424SOL    HW115908   1.876   4.561  12.040  0.1395 -0.8253 -0.5656
 1424SOL    HW215909   1.992   4.477  12.092 -1.2557  0.4099  1.7799
 1425SOL     OW15910   0.229   4.431  11.209 -0.3765 -0.3235  0.9291
 1425SOL    HW115911   0.193   4.459  11.124  0.3887  0.0343  0.7210
 1425SOL    HW215912   0.320   4.428  11.182 -1.2756 -1.5810 -1.9660
 1426SOL     OW15913   0.798   3.304   6.943  0.0716 -0.1846 -0.3570
 1426SOL    HW115914   0.819   3.320   7.035 -3.0399  1.3246  0.0811
 1426SOL    HW215915   0.774   3.211   6.943  2.1489 -0.7117 -1.1560
 1427SOL     OW15916   0.805   1.989   3.565  0.2764  0.6080  0.1133
 1427SOL    HW115917   0.762   2.051   3.507  1.8602  0.4256 -1.2332
 1427SOL    HW215918   0.896   2.015   3.552  1.1088 -1.7806  1.1513
 1428SOL     OW15919   2.152   3.325   4.968  0.2060  0.0020 -0.6071
 1428SOL    HW115920   2.205   3.246   4.981  1.8070  1.2836  0.4666
 1428SOL    HW215921   2.123   3.341   5.058  3.9689  2.3801  0.1355
 1429SOL     OW15922   1.281   1.862  15.803 -0.8776 -0.1362 -0.0886
 1429SOL    HW115923   1.359   1.821  15.839 -1.5098 -0.9772  0.3334
 1429SOL    HW215924   1.255   1.920  15.875 -0.8837 -1.4569  0.9704
 1430SOL     OW15925   4.115   4.639   8.493 -0.4345  0.9133  0.0652
 1430SOL    HW115926   4.064   4.697   8.436  0.1998  0.1711 -1.2716
 1430SOL    HW215927   4.148   4.574   8.430 -0.0948  0.9039  0.2560
 1431SOL     OW15928   0.585   2.461  13.622  0.0120 -0.2919  0.0350
 1431SOL    HW115929   0.587   2.512  13.541 -1.4252 -0.3757 -0.0559
 1431SOL    HW215930   0.573   2.374  13.583  0.7830  0.8226 -2.6715
 1432SOL     OW15931   3.959   2.098   7.293 -0.3790  0.1396 -0.2043
 1432SOL    HW115932   4.043   2.105   7.339 -0.3334  0.0102 -0.2688
 1432SOL    HW215933   3.949   2.191   7.274  0.2671  0.2903  0.1775
 1433SOL     OW15934   0.729   3.699   4.311  0.5568 -0.5906  0.2376
 1433SOL    HW115935   0.778   3.760   4.256  1.0148 -1.2216 -0.0634
 1433SOL    HW215936   0.755   3.737   4.395 -1.0973 -0.7668  0.8226
 1434SOL     OW15937   1.592   2.533  17.468 -0.0516 -0.0987  0.0648
 1434SOL    HW115938   1.614   2.605  17.408  0.6996 -0.2561  0.1497
 1434SOL    HW215939   1.674   2.522  17.516 -0.5223 -1.0962  0.6157
 1435SOL     OW15940   0.237   1.075   4.326 -0.0171 -0.7089 -0.6079
 1435SOL    HW115941   0.201   1.150   4.373  2.7290  1.0026 -1.2637
 1435SOL    HW215942   0.322   1.102   4.292 -1.8602  2.6631 -2.5159
 1436SOL     OW15943   2.859   2.277   3.493  0.0432  0.3670  0.0127
 1436SOL    HW115944   2.791   2.344   3.505 -2.0312 -1.8583  0.6852
 1436SOL    HW215945   2.939   2.329   3.497 -0.5928  1.3629 -0.1265
 1437SOL     OW15946   1.632   2.656  12.449  0.0030  0.4174  0.0565
 1437SOL    HW115947   1.632   2.749  12.471  0.4628  0.7865 -1.4880
 1437SOL    HW215948   1.542   2.635  12.425  0.2521 -0.6104  0.0009
 1438SOL     OW15949   4.490   1.346   9.078 -0.4384  0.4309  0.1116
 1438SOL    HW115950   4.560   1.362   9.140  1.2035 -2.8193 -0.9001
 1438SOL    HW215951   4.415   1.390   9.118  0.4548  1.7301  0.3749
 1439SOL     OW15952   2.695   4.362   1.789 -0.5357  0.6343 -0.4769
 1439SOL    HW115953   2.619   4.337   1.737  0.4021  0.5075 -1.7828
 1439SOL    HW215954   2.658   4.362   1.878 -1.6593  0.1724 -0.9403
 1440SOL     OW15955   1.694   0.494   8.679 -0.2979 -0.5106  0.0231
 1440SOL    HW115956   1.648   0.554   8.620  0.4158 -1.2121 -1.2515
 1440SOL    HW215957   1.778   0.535   8.697 -0.6411  0.7565 -1.2432
 1441SOL     OW15958   0.193   3.489   3.631  0.4628  0.0548  0.5090
 1441SOL    HW115959   0.270   3.484   3.689  1.5998 -1.0860 -1.1089
 1441SOL    HW215960   0.152   3.407   3.658 -2.2697  1.7006  1.3079
 1442SOL     OW15961   0.286   2.651  16.198 -1.1021 -0.0402  0.5815
 1442SOL    HW115962   0.360   2.678  16.253 -2.9416  1.4498  2.3407
 1442SOL    HW215963   0.323   2.591  16.134 -1.0540 -0.2378  0.7938
 1443SOL     OW15964   3.720   2.144  16.265  0.0873 -0.6402 -0.3344
 1443SOL    HW115965   3.646   2.088  16.290 -1.0397  0.7139 -0.5814
 1443SOL    HW215966   3.727   2.123  16.172  1.1929  2.3571 -0.9190
 1444SOL     OW15967   1.656   4.306   2.611 -0.3969  0.6204 -0.6077
 1444SOL    HW115968   1.691   4.217   2.613 -0.2008  0.7165  0.0854
 1444SOL    HW215969   1.678   4.331   2.521 -2.7046  2.3338 -0.6945
 1445SOL     OW15970   4.520   3.759   2.211 -0.9075 -0.9247  0.0805
 1445SOL    HW115971   4.429   3.790   2.213 -1.7329 -3.2515 -2.0514
 1445SOL    HW215972   4.544   3.812   2.135  0.3775 -0.9256  0.4753
 1446SOL     OW15973   1.527   2.540  12.988  0.1897  0.3458  0.2540
 1446SOL    HW115974   1.610   2.537  13.035  0.3108  2.2269  0.1224
 1446SOL    HW215975   1.553   2.487  12.913  1.8541  0.3822  0.8175
 1447SOL     OW15976   2.827   4.071   7.701 -0.1374  0.7354  0.0759
 1447SOL    HW115977   2.915   4.055   7.734 -0.8888 -1.0171  1.2090
 1447SOL    HW215978   2.840   4.094   7.609 -0.5922 -1.3725 -0.5003
 1448SOL     OW15979   1.633   2.461  12.244  0.2873  0.6824  0.3715
 1448SOL    HW115980   1.589   2.515  12.179  0.2073  1.6889  1.2699
 1448SOL    HW215981   1.632   2.513  12.324 -1.1286 -2.3616  2.3455
 1449SOL     OW15982   0.009   3.367   3.141  0.3406 -0.3193 -0.3784
 1449SOL    HW115983   4.688   3.441   3.121  0.2607 -0.3403 -0.2257
 1449SOL    HW215984   0.011   3.308   3.066 -1.0663 -0.5473 -0.2268
 1450SOL     OW15985   2.072   3.976   0.101  0.1602 -0.0613  0.9654
 1450SOL    HW115986   2.015   4.040   0.059  1.8820 -0.9234 -2.7361
 1450SOL    HW215987   2.017   3.941   0.170 -2.2450 -0.5067 -1.1634
 1451SOL     OW15988   3.669   4.455   1.060 -0.6350  0.5018  0.0067
 1451SOL    HW115989   3.677   4.539   1.104  0.8563  0.8345 -0.9007
 1451SOL    HW215990   3.715   4.394   1.118  1.4121  0.6143 -1.4984
 1452SOL     OW15991   3.621   1.135  14.016  0.1159  0.7836 -0.3766
 1452SOL    HW115992   3.587   1.122  14.105  0.1200  0.0456 -0.4784
 1452SOL    HW215993   3.709   1.163  14.040 -0.2908  0.0529  2.0003
 1453SOL     OW15994   2.513   1.661   8.722  0.3570  0.0039  0.1862
 1453SOL    HW115995   2.495   1.723   8.651 -0.3440 -2.3517 -1.6852
 1453SOL    HW215996   2.505   1.577   8.677 -0.6521 -0.0127  0.3845
 1454SOL     OW15997   0.490   4.148   2.490  0.3861  0.2370 -0.4505
 1454SOL    HW115998   0.555   4.096   2.538 -0.0293  0.1400 -0.0020
 1454SOL    HW215999   0.523   4.158   2.400  4.4780  0.3840  1.0393
 1455SOL     OW16000   2.500   2.678   8.897 -0.3451 -0.6525 -0.1084
 1455SOL    HW116001   2.511   2.583   8.908 -2.3307 -0.3801  3.8279
 1455SOL    HW216002   2.494   2.672   8.801  0.1064  0.8194 -0.2210
 1456SOL     OW16003   0.290   2.596   4.382 -1.0748 -0.8004  0.4715
 1456SOL    HW116004   0.199   2.626   4.389 -0.4836  0.7284  1.4548
 1456SOL    HW216005   0.320   2.649   4.309  1.5288 -1.3185  1.1476
 1457SOL     OW16006   1.799   4.548   8.036 -0.3345  0.8171 -0.3227
 1457SOL    HW116007   1.825   4.577   7.948 -0.7352  0.6394 -0.4984
 1457SOL    HW216008   1.781   4.454   8.030 -1.4600  1.0642 -0.7308
 1458SOL     OW16009   1.421   0.687  16.013  0.3794  0.0980  0.5101
 1458SOL    HW116010   1.434   0.767  15.962 -0.1665  1.1496  2.0098
 1458SOL    HW216011   1.389   0.725  16.095  0.7839  0.5124  0.4766
 1459SOL     OW16012   2.527   2.949   3.252 -0.1842  0.0213 -0.3430
 1459SOL    HW116013   2.517   3.033   3.208 -0.3664  0.1124 -0.1256
 1459SOL    HW216014   2.609   2.930   3.205 -0.4977  2.1216 -1.7370
 1460SOL     OW16015   0.923   1.591   5.338  0.0611  0.4435  0.0165
 1460SOL    HW116016   1.016   1.596   5.315  0.8503 -1.1333  2.8461
 1460SOL    HW216017   0.892   1.578   5.249  0.8399 -0.6224 -0.1095
 1461SOL     OW16018   1.048   0.820   1.381 -0.0122 -0.1687 -0.0435
 1461SOL    HW116019   1.032   0.728   1.401 -0.4976  0.1976  1.3155
 1461SOL    HW216020   0.962   0.864   1.377 -0.8605 -1.8091  0.3010
 1462SOL     OW16021   1.934   3.201   5.955  0.0467  0.1958 -0.2605
 1462SOL    HW116022   2.011   3.241   5.914 -1.4565  1.5464 -1.7625
 1462SOL    HW216023   1.975   3.129   6.003 -1.4704  0.0236  0.7662
 1463SOL     OW16024   3.594   2.459   3.441  0.2018  0.0147 -0.4460
 1463SOL    HW116025   3.601   2.381   3.385  0.3387 -1.1843  1.2590
 1463SOL    HW216026   3.611   2.418   3.525  0.3692 -0.8175 -0.8890
 1464SOL     OW16027   4.037   2.018  16.333 -0.3445 -0.1110 -0.5896
 1464SOL    HW116028   4.100   2.090  16.328  1.5451 -1.8124 -1.0717
 1464SOL    HW216029   3.980   2.060  16.397  0.4128 -0.0685  0.0455
 1465SOL     OW16030   1.423   1.991  16.200  0.2594 -0.3688  0.0848
 1465SOL    HW116031   1.453   2.042  16.124 -0.0622 -2.3522 -1.3558
 1465SOL    HW216032   1.334   1.969  16.174  0.5108 -2.0667  0.6679
 1466SOL     OW16033   0.188   1.647   2.237 -0.5154 -0.3725  0.6994
 1466SOL    HW116034   0.155   1.658   2.148  1.2543  2.1348  0.3391
 1466SOL    HW216035   0.112   1.642   2.295 -0.4664  2.1468  0.9836
 1467SOL     OW16036   1.868   3.905   0.905 -0.4496  0.4723 -0.3534
 1467SOL    HW116037   1.847   3.921   0.997 -0.4205  2.6026 -0.7357
 1467SOL    HW216038   1.784   3.870   0.875  1.0195 -3.7640  0.4477
 1468SOL     OW16039   4.422   4.376   6.761 -0.3930  0.1933  0.4740
 1468SOL    HW116040   4.350   4.428   6.724  0.3909  1.2274  0.4007
 1468SOL    HW216041   4.477   4.373   6.683  0.1562  0.5770  0.8446
 1469SOL     OW16042   0.210   2.268   4.416  0.1246 -0.0704  0.0566
 1469SOL    HW116043   0.158   2.336   4.374  3.1462  3.0737  1.5056
 1469SOL    HW216044   0.288   2.308   4.453  0.7252 -2.1748  1.0526
 1470SOL     OW16045   2.867   3.217   8.711  0.0508  0.0546  0.4616
 1470SOL    HW116046   2.773   3.209   8.692  0.2229  0.7614 -0.6694
 1470SOL    HW216047   2.873   3.146   8.776 -1.1375 -0.6353 -0.1631
 1471SOL     OW16048   3.253   1.863   6.114 -0.1708  0.6495  0.0309
 1471SOL    HW116049   3.269   1.768   6.111 -0.0773  0.6433  0.7053
 1471SOL    HW216050   3.337   1.906   6.128  0.4816 -0.3832 -0.6907
 1472SOL     OW16051   2.370   1.101  12.909 -0.4671 -0.3378  0.1738
 1472SOL    HW116052   2.285   1.144  12.900 -0.7961 -1.4932 -2.0900
 1472SOL    HW216053   2.393   1.113  13.001  1.4311  2.5202 -0.6884
 1473SOL     OW16054   2.656   4.238  17.068 -0.0736 -0.3393 -0.2208
 1473SOL    HW116055   2.687   4.151  17.092  3.0368  0.7014 -0.5397
 1473SOL    HW216056   2.667   4.220  16.975 -0.3041  0.6551 -0.4387
 1474SOL     OW16057   1.839   2.429   3.184 -0.5085 -0.0377 -0.8298
 1474SOL    HW116058   1.863   2.338   3.170 -1.3656 -0.4787  0.6202
 1474SOL    HW216059   1.881   2.492   3.125 -2.5877 -0.1842 -2.4603
 1475SOL     OW16060   0.232   0.483   8.176 -0.1889 -0.0702  0.0260
 1475SOL    HW116061   0.189   0.432   8.108  0.6639 -0.4293 -0.2447
 1475SOL    HW216062   0.267   0.411   8.228  0.3643  0.7185  0.7517
 1476SOL     OW16063   1.197   1.135   3.852  0.3875  0.3688  0.3875
 1476SOL    HW116064   1.281   1.088   3.849  0.2422  0.0132  2.1373
 1476SOL    HW216065   1.214   1.206   3.790  0.0066  1.3644  1.4220
 1477SOL     OW16066   0.183   3.176  14.246 -0.1397 -0.2546  0.3021
 1477SOL    HW116067   0.134   3.258  14.233  1.7071  0.8813  0.5593
 1477SOL    HW216068   0.111   3.118  14.272 -1.9187  1.8857  0.1426
 1478SOL     OW16069   1.734   0.166  15.759  0.3309  0.0953  0.0219
 1478SOL    HW116070   1.804   0.219  15.795  1.8216 -0.2146 -2.3967
 1478SOL    HW216071   1.682   0.157  15.839  0.8315  1.0137  0.4413
 1479SOL     OW16072   4.159   3.628   2.645 -0.0634 -0.4503 -0.0125
 1479SOL    HW116073   4.192   3.571   2.575 -0.8340  0.5551 -1.1826
 1479SOL    HW216074   4.088   3.668   2.597  0.6058  0.8997  0.1321
 1480SOL     OW16075   1.297   4.532   2.741  0.1432 -0.1517  0.3238
 1480SOL    HW116076   1.258   4.606   2.695 -0.2031 -0.2366  0.4821
 1480SOL    HW216077   1.231   4.464   2.724  1.8301 -0.9277 -3.0381
 1481SOL     OW16078   4.254   1.598   2.841 -0.1187 -0.3195  0.1371
 1481SOL    HW116079   4.194   1.654   2.891 -0.5279 -0.6232 -0.0153
 1481SOL    HW216080   4.217   1.510   2.840 -0.6135 -0.0565 -3.0038
 1482SOL     OW16081   0.559   0.595  17.366 -0.1449  0.4131 -0.2771
 1482SOL    HW116082   0.533   0.675  17.320  2.5170  1.7504  0.5273
 1482SOL    HW216083   0.641   0.555  17.335  2.3430  2.5951  3.5580
 1483SOL     OW16084   2.413   3.741   7.893  0.6903 -0.4959 -0.5761
 1483SOL    HW116085   2.388   3.694   7.813 -0.7422  0.8171 -0.8928
 1483SOL    HW216086   2.495   3.783   7.869  0.0722  0.8556 -0.3268
 1484SOL     OW16087   4.048   1.103   2.081 -0.4379  0.4102 -0.3725
 1484SOL    HW116088   4.045   1.009   2.102  0.1048  0.0078 -2.1295
 1484SOL    HW216089   4.023   1.132   2.169 -1.5642 -0.0405 -0.5395
 1485SOL     OW16090   3.915   3.599  16.111 -0.5360 -0.6732 -0.0068
 1485SOL    HW116091   3.857   3.644  16.173 -0.7472 -1.0004  0.0334
 1485SOL    HW216092   3.875   3.634  16.031  0.2567 -0.3435 -0.2654
 1486SOL     OW16093   1.064   2.547   2.301  0.0842  0.2991 -0.1457
 1486SOL    HW116094   1.074   2.495   2.381 -1.3818 -0.8194 -0.6718
 1486SOL    HW216095   1.006   2.491   2.248 -2.2119  0.3743  2.2737
 1487SOL     OW16096   4.026   1.495   8.956  0.3801 -0.1128  0.9505
 1487SOL    HW116097   3.976   1.477   9.036 -2.0769  0.0322 -0.5814
 1487SOL    HW216098   4.090   1.560   8.985 -0.5750  1.4215 -0.4434
 1488SOL     OW16099   3.892   1.446   1.278 -0.1833  0.0972 -0.1882
 1488SOL    HW116100   3.873   1.352   1.274  0.5635 -0.1588  2.6086
 1488SOL    HW216101   3.949   1.449   1.201  0.6577 -3.1326  0.3229
 1489SOL     OW16102   1.562   1.587   7.356 -0.2670  0.2763  0.1869
 1489SOL    HW116103   1.503   1.658   7.330  0.3462  1.0828  1.0020
 1489SOL    HW216104   1.586   1.618   7.443  0.9416  1.2586 -0.5048
 1490SOL     OW16105   1.416   3.751   6.145 -0.0978  0.1252 -0.2900
 1490SOL    HW116106   1.379   3.666   6.123  0.8579 -0.3731  0.0357
 1490SOL    HW216107   1.510   3.747   6.128  0.2291  1.4647  1.2109
 1491SOL     OW16108   2.170   3.998   3.753  0.3300  0.0346  0.0142
 1491SOL    HW116109   2.112   3.949   3.812 -2.0597  0.3276 -2.0941
 1491SOL    HW216110   2.204   4.069   3.808 -0.2720  0.6191 -0.3687
 1492SOL     OW16111   0.660   2.693  10.408 -0.2762 -0.2405 -1.1913
 1492SOL    HW116112   0.656   2.636  10.485 -2.4075 -0.0250 -1.1453
 1492SOL    HW216113   0.741   2.666  10.363  0.4108  0.1290 -0.1654
 1493SOL     OW16114   0.302   1.500   7.653 -0.1831 -0.0506  0.6690
 1493SOL    HW116115   0.396   1.504   7.673  0.1202  0.7793 -0.8738
 1493SOL    HW216116   0.265   1.522   7.738 -0.1167 -0.8237  0.8959
 1494SOL     OW16117   2.275   2.061   8.767  0.1838 -0.5593  0.1064
 1494SOL    HW116118   2.333   2.046   8.841  2.8905  0.6337 -1.7585
 1494SOL    HW216119   2.193   2.052   8.814 -0.1517  2.0659  0.0149
 1495SOL     OW16120   2.228   4.668   3.917  0.5893 -0.4150 -0.2436
 1495SOL    HW116121   2.182   4.595   3.958  2.4317 -2.5633 -2.0065
 1495SOL    HW216122   2.319   4.653   3.944 -0.1408 -2.5357  1.1019
 1496SOL     OW16123   3.484   2.041   9.741 -0.4250  0.3703 -0.5105
 1496SOL    HW116124   3.443   1.982   9.805 -0.6216  1.5971  0.5037
 1496SOL    HW216125   3.470   2.127   9.781  0.9321 -1.0753  3.1054
 1497SOL     OW16126   2.401   0.279  10.273 -0.2555  0.4599  0.0416
 1497SOL    HW116127   2.497   0.281  10.271 -0.2736  2.6344  1.4330
 1497SOL    HW216128   2.373   0.284  10.182  0.4928  1.4242 -0.1348
 1498SOL     OW16129   4.679   0.448   1.625 -0.2120 -0.2945 -0.3982
 1498SOL    HW116130   4.678   0.515   1.557 -2.5151  0.2050  0.1246
 1498SOL    HW216131   0.018   0.478   1.675 -1.1353  1.2717  0.0572
 1499SOL     OW16132   2.104   4.388   7.709  0.1846  0.1050 -1.2017
 1499SOL    HW116133   2.183   4.441   7.722 -0.8760  1.1216  1.1110
 1499SOL    HW216134   2.041   4.451   7.745  0.0915 -0.1449 -0.9304
 1500SOL     OW16135   0.175   3.583   5.467  0.5085 -0.3155 -0.1394
 1500SOL    HW116136   0.234   3.659   5.469 -1.8797  1.5140  1.0215
 1500SOL    HW216137   0.099   3.622   5.510 -0.2159 -1.0482 -0.7660
 1501SOL     OW16138   0.199   2.821   2.846 -0.0963  0.0143 -0.4424
 1501SOL    HW116139   0.174   2.875   2.771  0.4608 -1.7769 -1.8986
 1501SOL    HW216140   0.294   2.832   2.841 -0.0581 -1.2545 -2.4468
 1502SOL     OW16141   1.135   3.257   8.753 -0.1385  0.1838  0.2064
 1502SOL    HW116142   1.046   3.288   8.770 -0.5328 -0.8169 -0.0439
 1502SOL    HW216143   1.150   3.207   8.833  4.1373  0.3774 -0.4738
 1503SOL     OW16144   3.099   2.832   7.871  0.1108  0.6506 -0.3011
 1503SOL    HW116145   3.060   2.752   7.836  0.4336 -0.2170  1.3090
 1503SOL    HW216146   3.079   2.888   7.796  1.0488 -0.0330 -1.0616
 1504SOL     OW16147   3.062   0.747  10.112  0.3742 -0.0387 -0.4154
 1504SOL    HW116148   3.060   0.686  10.039 -2.4016 -1.1500  0.6155
 1504SOL    HW216149   2.974   0.745  10.148 -0.6629  0.0189 -2.9940
 1505SOL     OW16150   2.083   1.011   6.708 -0.0502 -0.0788  0.1578
 1505SOL    HW116151   2.020   0.959   6.759 -0.9384 -0.4296 -1.3162
 1505SOL    HW216152   2.100   1.083   6.769  0.0598  0.3174 -0.3400
 1506SOL     OW16153   3.561   2.551   2.184  0.3355  0.0752 -0.2357
 1506SOL    HW116154   3.629   2.518   2.243 -0.2678 -0.0359  0.4057
 1506SOL    HW216155   3.541   2.463   2.152 -1.0448  0.7153 -1.1588
 1507SOL     OW16156   0.288   3.938   7.717  0.1165  0.3296  0.0104
 1507SOL    HW116157   0.206   3.938   7.768 -0.5283  0.5201 -1.0372
 1507SOL    HW216158   0.352   3.948   7.788 -1.1908 -0.4903  1.3071
 1508SOL     OW16159   2.060   3.232   6.502  0.0860  0.0492  0.3239
 1508SOL    HW116160   2.114   3.257   6.577 -0.5614 -1.2207  1.2210
 1508SOL    HW216161   2.058   3.313   6.451 -0.6129 -1.4131 -1.9951
 1509SOL     OW16162   2.453   0.789   2.766 -0.2244 -0.2166  0.1057
 1509SOL    HW116163   2.401   0.837   2.831  0.6243  0.0702  0.5762
 1509SOL    HW216164   2.543   0.790   2.798 -0.5019  0.0016  0.8923
 1510SOL     OW16165   1.026   3.929   2.707  0.6411 -0.1245 -0.1598
 1510SOL    HW116166   1.052   4.016   2.736  1.0562  0.1728 -1.4663
 1510SOL    HW216167   1.065   3.934   2.620  1.5542  4.1959  0.5143
 1511SOL     OW16168   1.687   3.702  17.083 -0.1156 -0.1775  0.4705
 1511SOL    HW116169   1.738   3.737  17.156  1.5149 -0.4909 -0.4942
 1511SOL    HW216170   1.704   3.608  17.076 -2.2471 -0.5159 -0.2470
 1512SOL     OW16171   2.886   2.663  12.785 -0.0801  0.2582  0.1801
 1512SOL    HW116172   2.898   2.579  12.828 -1.0589 -0.2144 -0.4432
 1512SOL    HW216173   2.800   2.694  12.813  0.9358  2.9390  0.3190
 1513SOL     OW16174   2.733   3.468   4.396 -0.0904 -0.0773  0.0820
 1513SOL    HW116175   2.803   3.520   4.436 -0.3698  0.9271 -0.7257
 1513SOL    HW216176   2.755   3.487   4.304 -1.2877  0.6383 -0.0452
 1514SOL     OW16177   1.902   4.274   1.194  0.6143 -0.5461 -0.1053
 1514SOL    HW116178   1.985   4.298   1.154 -0.1012  1.2606 -0.5254
 1514SOL    HW216179   1.886   4.365   1.218  1.0573 -0.7550  0.9932
 1515SOL     OW16180   4.255   2.200   1.637 -0.5366  0.6081 -0.0166
 1515SOL    HW116181   4.282   2.142   1.566 -0.7587  0.6780 -0.1579
 1515SOL    HW216182   4.169   2.227   1.606 -0.8118 -0.9287 -0.5624
 1516SOL     OW16183   0.719   0.877  15.294 -0.1839  0.2947  0.4129
 1516SOL    HW116184   0.791   0.850  15.350  0.7377 -1.5390 -1.6313
 1516SOL    HW216185   0.726   0.971  15.308 -0.3056 -0.1875  3.8118
 1517SOL     OW16186   2.564   1.833   4.328  0.0851 -0.3901 -0.0889
 1517SOL    HW116187   2.514   1.914   4.319  0.8243  0.2403  1.3375
 1517SOL    HW216188   2.613   1.833   4.410 -0.0829  0.8684  0.0187
 1518SOL     OW16189   1.085   0.551   3.689  0.4329  0.4691 -0.5397
 1518SOL    HW116190   1.102   0.641   3.661 -2.2870  0.7938 -1.2101
 1518SOL    HW216191   0.999   0.554   3.731  0.5502 -0.7388 -0.2102
 1519SOL     OW16192   0.619   3.309   2.507  0.1508  0.9843 -0.0176
 1519SOL    HW116193   0.655   3.340   2.424  1.2123  3.3878  1.3273
 1519SOL    HW216194   0.693   3.333   2.563 -0.8315  0.4354  1.5284
 1520SOL     OW16195   4.180   1.920   1.071 -0.2234 -0.7531 -0.3745
 1520SOL    HW116196   4.122   1.870   1.129  0.9353 -0.8231  0.7197
 1520SOL    HW216197   4.243   1.848   1.066 -1.1888 -1.7675  1.8237
 1521SOL     OW16198   0.676   0.357  16.781 -0.0399  0.2268  0.3852
 1521SOL    HW116199   0.664   0.449  16.759  0.8907  0.2483 -0.0653
 1521SOL    HW216200   0.679   0.313  16.696 -1.6688  1.5796 -0.3699
 1522SOL     OW16201   3.514   1.651  14.383  0.2660  0.7307 -0.2820
 1522SOL    HW116202   3.514   1.564  14.341  0.9612 -1.3408  4.0444
 1522SOL    HW216203   3.470   1.706  14.318 -1.3151  0.0292  0.1932
 1523SOL     OW16204   3.740   0.721   7.430 -0.0103 -0.1913  0.4342
 1523SOL    HW116205   3.750   0.628   7.450  0.6426 -0.4706 -1.2627
 1523SOL    HW216206   3.732   0.752   7.521  1.9787 -1.1894  0.9541
 1524SOL     OW16207   0.844   3.899   4.099  0.1070  0.0575  0.0320
 1524SOL    HW116208   0.867   3.818   4.054  1.1645 -0.2886  1.2093
 1524SOL    HW216209   0.929   3.941   4.087 -1.0130  2.4296  0.3037
 1525SOL     OW16210   1.225   1.867   4.446 -0.0475 -0.4706 -0.2059
 1525SOL    HW116211   1.237   1.829   4.359 -0.2580 -2.5210  0.6695
 1525SOL    HW216212   1.131   1.851   4.454  0.0981 -0.9739  0.5181
 1526SOL     OW16213   2.699   2.264  13.371 -0.0188  0.0341  0.4504
 1526SOL    HW116214   2.751   2.342  13.390  0.5451 -0.8529  2.5399
 1526SOL    HW216215   2.736   2.227  13.291  1.0138 -0.4374  1.1416
 1527SOL     OW16216   3.720   2.456   5.828 -0.0017  0.0828  0.6453
 1527SOL    HW116217   3.709   2.372   5.783 -1.8952 -0.4577  2.1121
 1527SOL    HW216218   3.807   2.439   5.864  0.8067  1.9602 -0.3834
 1528SOL     OW16219   0.686   2.205   6.154 -0.3780  0.4983 -0.3949
 1528SOL    HW116220   0.782   2.209   6.148 -0.2725 -2.5319 -0.7160
 1528SOL    HW216221   0.674   2.183   6.247 -0.9184  1.3240 -0.2661
 1529SOL     OW16222   1.976   3.141   4.714 -0.2880  0.4408 -0.3328
 1529SOL    HW116223   1.944   3.184   4.793  1.5955  1.2914 -0.0520
 1529SOL    HW216224   1.953   3.052   4.743 -1.3976  0.9281  0.3026
 1530SOL     OW16225   1.864   3.182  16.067  0.2309 -0.0483  0.0577
 1530SOL    HW116226   1.941   3.208  16.118  1.9591 -2.0723 -1.4988
 1530SOL    HW216227   1.917   3.148  15.995  0.2200 -1.4690  0.7352
 1531SOL     OW16228   4.083   4.003   8.446 -0.4665  0.1713  1.3680
 1531SOL    HW116229   4.018   4.053   8.398 -1.7862 -0.1201  2.8541
 1531SOL    HW216230   4.031   3.924   8.458  0.1609 -0.2741  1.1714
 1532SOL     OW16231   2.525   1.076  12.215 -0.5555  0.1026  0.2064
 1532SOL    HW116232   2.455   1.080  12.280  0.5725 -0.7038  1.4781
 1532SOL    HW216233   2.575   1.147  12.256 -0.9202  2.0305 -2.7179
 1533SOL     OW16234   0.805   3.349   3.002  0.1248 -0.3134 -0.3019
 1533SOL    HW116235   0.884   3.402   3.007 -1.2647  1.8658 -1.5928
 1533SOL    HW216236   0.811   3.306   3.088 -0.8880  0.5556  0.1971
 1534SOL     OW16237   0.876   2.268   8.172 -0.3540  0.3027  0.6620
 1534SOL    HW116238   0.874   2.284   8.078  1.0877 -2.1522  0.2022
 1534SOL    HW216239   0.967   2.286   8.192  0.1571 -1.3626 -0.1231
 1535SOL     OW16240   2.513   2.453  10.471 -0.4537 -0.7440  0.2914
 1535SOL    HW116241   2.494   2.547  10.471  0.4393 -0.5621 -2.0550
 1535SOL    HW216242   2.594   2.462  10.421 -0.5958 -0.0060  0.1991
 1536SOL     OW16243   1.252   0.151   8.782  0.0603 -0.4157  0.1516
 1536SOL    HW116244   1.224   0.069   8.741 -0.2039 -0.1839 -0.1276
 1536SOL    HW216245   1.175   0.190   8.823  1.8369  1.5996  1.5790
 1537SOL     OW16246   4.609   3.091  15.197 -0.0875  0.1379  0.4672
 1537SOL    HW116247   4.588   3.018  15.140  1.6620 -1.5203  1.9356
 1537SOL    HW216248   4.590   3.166  15.140  0.9779 -1.9166 -2.6082
 1538SOL     OW16249   3.192   4.088   5.811  0.1513  0.4375 -0.1614
 1538SOL    HW116250   3.227   4.091   5.900 -1.0907 -0.9943  0.3860
 1538SOL    HW216251   3.208   4.180   5.790  1.4442  0.4747  1.0043
 1539SOL     OW16252   3.375   0.435  12.884  0.6474  0.2388 -0.4269
 1539SOL    HW116253   3.352   0.393  12.967  1.9093  0.5729  0.0871
 1539SOL    HW216254   3.299   0.488  12.858 -0.9242 -2.0740 -0.5752
 1540SOL     OW16255   0.448   0.961   6.059 -0.8321 -0.1571 -0.0580
 1540SOL    HW116256   0.459   0.874   6.096 -1.1339 -1.7627 -3.7652
 1540SOL    HW216257   0.354   0.979   6.067 -0.6702  0.7136 -0.0822
 1541SOL     OW16258   2.414   3.172  15.450  0.4279 -0.3796  0.3798
 1541SOL    HW116259   2.409   3.260  15.413 -3.7631 -2.0419 -3.1091
 1541SOL    HW216260   2.321   3.169  15.471  0.8517  1.7509  2.5110
 1542SOL     OW16261   1.727   0.007   7.655 -0.1877 -0.2016  0.5749
 1542SOL    HW116262   1.676   4.663   7.648 -1.1532  0.4435  0.2765
 1542SOL    HW216263   1.690   0.065   7.588  0.6637 -0.7825 -0.4011
 1543SOL     OW16264   3.257   4.124   1.945 -0.2347 -0.5105  0.4690
 1543SOL    HW116265   3.193   4.054   1.935 -1.1964  0.7876 -2.3320
 1543SOL    HW216266   3.300   4.095   2.026  3.0681  0.7669 -0.7975
 1544SOL     OW16267   3.800   2.057   4.183  0.5253 -0.2440 -0.0152
 1544SOL    HW116268   3.786   2.116   4.110  0.3945  0.4782  0.5918
 1544SOL    HW216269   3.719   2.006   4.184 -0.1480  0.8436  1.6702
 1545SOL     OW16270   2.797   3.816  15.092  0.2992  0.1552 -0.2669
 1545SOL    HW116271   2.746   3.817  15.011 -0.4460 -0.9910  0.1933
 1545SOL    HW216272   2.866   3.881  15.082  1.0956 -0.6579 -0.0176
 1546SOL     OW16273   2.567   0.394   4.305  0.2054  0.0339  0.3077
 1546SOL    HW116274   2.631   0.453   4.344 -0.4759  0.5764  0.6130
 1546SOL    HW216275   2.600   0.310   4.337  1.1538  0.5472  0.6850
 1547SOL     OW16276   3.309   4.627   3.856  0.4108  0.0970 -0.4205
 1547SOL    HW116277   3.397   4.664   3.857  1.8242 -3.2575  1.5804
 1547SOL    HW216278   3.310   4.577   3.938  1.0001  1.4533  0.3974
 1548SOL     OW16279   1.159   4.464   6.039  0.7003 -0.1404  0.2406
 1548SOL    HW116280   1.230   4.471   5.975  1.9042 -1.6809  1.3963
 1548SOL    HW216281   1.173   4.371   6.058 -2.9798 -0.5081  1.0455
 1549SOL     OW16282   2.776   3.350   3.094  0.7134 -0.3628  0.2638
 1549SOL    HW116283   2.868   3.324   3.089  0.6279 -0.4413 -0.8109
 1549SOL    HW216284   2.745   3.307   3.174  1.8516 -0.9605  0.3816
 1550SOL     OW16285   0.282   0.919   7.509  0.3912 -0.1960  0.5065
 1550SOL    HW116286   0.260   0.891   7.598  1.1830  1.0193  1.0726
 1550SOL    HW216287   0.373   0.890   7.503  0.5043  0.4247 -0.7250
 1551SOL     OW16288   2.889   1.328  11.801 -0.3916  0.2888 -0.3990
 1551SOL    HW116289   2.899   1.281  11.884 -2.4746 -1.8536 -1.3366
 1551SOL    HW216290   2.816   1.287  11.755 -0.7790  1.4233 -0.7979
 1552SOL     OW16291   2.688   2.505   8.063 -0.3435  0.5301  0.4538
 1552SOL    HW116292   2.629   2.528   8.134 -0.4212  0.8613  0.2847
 1552SOL    HW216293   2.634   2.507   7.984 -0.7748  0.8103  0.7560
 1553SOL     OW16294   3.209   3.542   6.952 -0.3442 -0.0262 -0.0973
 1553SOL    HW116295   3.151   3.609   6.916  0.8655  0.0980 -1.8087
 1553SOL    HW216296   3.152   3.466   6.963 -1.0777  0.5284 -0.0623
 1554SOL     OW16297   3.099   4.324   7.729  0.5481  0.0996 -0.4875
 1554SOL    HW116298   3.175   4.381   7.738 -1.0012  1.9954  0.3989
 1554SOL    HW216299   3.051   4.375   7.663  2.9658  2.1189 -0.6649
 1555SOL     OW16300   2.398   4.724  14.733 -0.3483  0.0925 -0.6896
 1555SOL    HW116301   2.427   0.016  14.819 -0.7205 -0.0046 -0.5345
 1555SOL    HW216302   2.419   4.631  14.736  0.2764  0.3132  1.8418
 1556SOL     OW16303   4.000   0.253   7.513  0.5640 -0.1684 -0.3462
 1556SOL    HW116304   4.088   0.286   7.531  0.3612 -0.9915  2.2259
 1556SOL    HW216305   4.011   0.222   7.423  0.7349  0.8202 -0.6587
 1557SOL     OW16306   1.160   1.446   7.298 -0.1996 -0.1703  0.0653
 1557SOL    HW116307   1.197   1.392   7.368 -0.1663  1.1711  1.0905
 1557SOL    HW216308   1.141   1.379   7.233  1.6074  1.3962 -2.0395
 1558SOL     OW16309   0.005   2.448   3.846  0.1447  0.1373  0.0732
 1558SOL    HW116310   4.707   2.363   3.872  0.8016 -1.2966 -3.7136
 1558SOL    HW216311   4.657   2.487   3.825  1.4184  3.6783  1.5439
 1559SOL     OW16312   3.829   1.022  13.026  0.4345  0.6584 -0.1275
 1559SOL    HW116313   3.770   0.989  12.958  1.3817  0.1849 -0.7174
 1559SOL    HW216314   3.780   1.101  13.049  2.6976  1.4692  1.9361
 1560SOL     OW16315   2.464   0.263   5.252  0.3029  0.3496 -0.0236
 1560SOL    HW116316   2.401   0.281   5.182 -0.5354  0.5535  0.7881
 1560SOL    HW216317   2.505   0.183   5.218 -1.3799 -0.5150 -0.0362
 1561SOL     OW16318   0.923   2.747   4.538 -0.2098  0.6210 -0.1406
 1561SOL    HW116319   0.908   2.686   4.466  0.2140 -0.9267  1.0719
 1561SOL    HW216320   0.938   2.829   4.491  1.5916 -0.9290 -2.2768
 1562SOL     OW16321   3.756   3.197   8.745 -0.5692 -0.2713 -0.2955
 1562SOL    HW116322   3.685   3.140   8.716 -2.4110  1.8394  0.0604
 1562SOL    HW216323   3.764   3.168   8.836 -0.6146 -1.3202 -0.6231
 1563SOL     OW16324   3.016   2.756   8.334  0.4091  0.6822  0.0893
 1563SOL    HW116325   2.993   2.838   8.379 -0.7036  0.6677 -0.4501
 1563SOL    HW216326   2.961   2.685   8.365  1.9678 -0.0353  1.1874
 1564SOL     OW16327   0.991   4.042   7.421 -0.0397 -0.7805 -0.1741
 1564SOL    HW116328   1.004   4.110   7.488  1.1779 -1.9721  0.8073
 1564SOL    HW216329   0.906   4.004   7.442 -1.4811  1.3139 -2.2808
 1565SOL     OW16330   3.066   3.045   9.814  0.3927 -0.2240  0.4448
 1565SOL    HW116331   2.991   3.099   9.837  1.0911 -0.1188  2.4295
 1565SOL    HW216332   3.021   2.998   9.744 -0.1066  1.4469 -0.3624
 1566SOL     OW16333   2.136   3.566   1.360  0.4394 -0.2249  0.4955
 1566SOL    HW116334   2.185   3.614   1.294  0.6420 -1.2528 -0.0991
 1566SOL    HW216335   2.178   3.481   1.351 -1.3998 -1.2790  1.6385
 1567SOL     OW16336   1.898   2.985   2.013  0.0224  0.2982 -0.3899
 1567SOL    HW116337   1.882   3.070   2.055  0.6787 -0.9666  2.3965
 1567SOL    HW216338   1.922   2.925   2.084  0.2321 -0.6129 -1.2324
 1568SOL     OW16339   1.787   0.200  17.525  0.2509  0.3372  0.3000
 1568SOL    HW116340   1.701   0.228  17.496 -0.7846 -0.4453  2.6214
 1568SOL    HW216341   1.803   0.271  17.588 -0.7558 -1.1750  2.2503
 1569SOL     OW16342   1.470   1.483   7.618  0.0904  0.5835  0.1859
 1569SOL    HW116343   1.514   1.418   7.672 -1.3465  0.9463  1.7796
 1569SOL    HW216344   1.468   1.438   7.533  0.7853 -0.3085  0.6411
 1570SOL     OW16345   3.202   3.333   3.474 -0.4907 -0.3676  0.2378
 1570SOL    HW116346   3.245   3.262   3.427  2.3997  1.5782 -0.0391
 1570SOL    HW216347   3.282   3.371   3.509 -0.4179 -0.6022  0.3264
 1571SOL     OW16348   1.403   0.310   7.043  0.1598  0.0751 -0.4066
 1571SOL    HW116349   1.472   0.290   6.979 -0.1474  0.0243 -0.7231
 1571SOL    HW216350   1.340   0.240   7.024 -1.1888  0.8064  1.4416
 1572SOL     OW16351   0.675   2.411  15.319  0.9832 -0.0169  0.3089
 1572SOL    HW116352   0.604   2.418  15.384 -1.5076 -1.5579 -2.2548
 1572SOL    HW216353   0.678   2.316  15.315  2.0288  0.0180  0.4248
 1573SOL     OW16354   2.058   1.699  17.703 -0.5393  0.1888 -0.0655
 1573SOL    HW116355   1.993   1.739  17.645  0.1283  2.0134  0.4229
 1573SOL    HW216356   2.105   1.644  17.640  0.0333  2.5410 -1.6933
 1574SOL     OW16357   2.029   3.423   3.121  0.0756 -0.5291 -0.4183
 1574SOL    HW116358   2.014   3.349   3.180 -3.8954 -0.3162 -1.1355
 1574SOL    HW216359   2.064   3.490   3.179 -0.7490  1.4469 -2.1983
 1575SOL     OW16360   0.750   2.057   4.891 -0.0104  0.1456 -0.5127
 1575SOL    HW116361   0.823   2.098   4.936  0.0097 -0.4892  0.0465
 1575SOL    HW216362   0.691   2.131   4.904 -1.0209 -0.7194 -0.0772
 1576SOL     OW16363   3.647   1.266   8.523 -0.4467 -0.0925 -0.1538
 1576SOL    HW116364   3.691   1.203   8.580 -0.5667  1.2479  1.4429
 1576SOL    HW216365   3.717   1.331   8.516  1.2825 -1.8491  0.9027
 1577SOL     OW16366   3.208   3.168   2.651  0.1046 -0.2118  0.0641
 1577SOL    HW116367   3.169   3.125   2.727 -4.5854 -0.3082 -2.4254
 1577SOL    HW216368   3.195   3.260   2.673  0.6993  0.4748 -2.4067
 1578SOL     OW16369   4.637   0.761   4.012 -0.8109 -0.3976 -0.0425
 1578SOL    HW116370   4.686   0.811   4.078  1.6578 -0.9415 -1.4881
 1578SOL    HW216371   4.653   0.817   3.937 -2.0046  0.4230  0.3112
 1579SOL     OW16372   4.690   0.456   5.575  0.5918  0.3687 -0.0183
 1579SOL    HW116373   4.659   0.534   5.621 -1.2952 -1.1896  1.3946
 1579SOL    HW216374   0.022   0.441   5.639  1.4248 -1.9852 -1.4747
 1580SOL     OW16375   2.679   4.434   9.819 -0.4169  0.6178  0.0592
 1580SOL    HW116376   2.595   4.401   9.850 -2.0568  4.4029 -0.3326
 1580SOL    HW216377   2.636   4.499   9.764  4.1568  3.9197  0.3137
 1581SOL     OW16378   4.027   1.290   5.460 -0.7096 -0.0248  0.5338
 1581SOL    HW116379   4.052   1.381   5.442  1.6036 -1.0901 -1.6708
 1581SOL    HW216380   4.093   1.240   5.410 -0.6778 -0.6403  1.1961
 1582SOL     OW16381   0.023   1.929   9.009  0.7036  0.9043 -0.7457
 1582SOL    HW116382   0.018   1.835   9.027 -0.2008  1.5997  2.5729
 1582SOL    HW216383   4.677   1.970   9.031  1.2543  2.0867 -0.8551
 1583SOL     OW16384   2.985   4.286   7.003  0.0748  0.0913 -0.4638
 1583SOL    HW116385   2.914   4.346   6.984  0.1227  0.9810  2.2527
 1583SOL    HW216386   3.021   4.300   6.915 -0.6777  0.2626 -0.7416
 1584SOL     OW16387   2.221   3.812  15.294  0.7491 -0.0215  0.5081
 1584SOL    HW116388   2.234   3.772  15.208 -0.4650 -1.1192  0.8263
 1584SOL    HW216389   2.252   3.901  15.278 -0.3174  0.3489  0.4909
 1585SOL     OW16390   3.861   3.043   3.829 -0.2824  0.1021  0.6132
 1585SOL    HW116391   3.890   3.060   3.919 -2.5505  1.0399  1.1642
 1585SOL    HW216392   3.918   3.098   3.775 -1.7653  0.2766 -0.7540
 1586SOL     OW16393   3.602   1.792  17.351  0.2580 -0.0945  0.2598
 1586SOL    HW116394   3.611   1.709  17.305  1.0531  0.4705 -0.5920
 1586SOL    HW216395   3.691   1.819  17.373 -0.1877  1.1154  0.5967
 1587SOL     OW16396   3.999   2.237   1.616  0.0042  0.3339  0.3254
 1587SOL    HW116397   3.972   2.163   1.562  0.9406  0.2428 -0.0274
 1587SOL    HW216398   3.989   2.206   1.706 -0.6000 -0.4926 -0.0308
 1588SOL     OW16399   2.333   1.621   9.741 -0.0266 -0.0428  0.2516
 1588SOL    HW116400   2.386   1.542   9.741  0.1938  0.1034 -0.8366
 1588SOL    HW216401   2.369   1.664   9.663 -2.0567  0.0151 -0.6731
 1589SOL     OW16402   3.504   3.158   2.719  0.8288  0.4439  0.6683
 1589SOL    HW116403   3.493   3.244   2.679  0.3679  0.1311  0.1277
 1589SOL    HW216404   3.590   3.141   2.681  0.6802  2.1443 -0.4290
 1590SOL     OW16405   2.896   0.976   8.927  0.1173  0.4953 -0.0066
 1590SOL    HW116406   2.904   0.888   8.888 -2.6338 -0.1635  0.9183
 1590SOL    HW216407   2.809   1.005   8.897  0.8169  1.3462 -1.2259
 1591SOL     OW16408   2.598   1.216   4.706  0.1028  0.0411  0.6460
 1591SOL    HW116409   2.524   1.244   4.760 -0.2778  1.8050 -0.7901
 1591SOL    HW216410   2.579   1.253   4.620 -0.0892  2.7843  1.8723
 1592SOL     OW16411   0.418   0.711   3.924  0.6976 -0.6763 -0.6346
 1592SOL    HW116412   0.426   0.785   3.984  2.0824 -2.9105  1.9293
 1592SOL    HW216413   0.372   0.754   3.852  0.1887 -0.1546  0.0061
 1593SOL     OW16414   2.341   3.007   8.367  0.0094  0.3214  0.6833
 1593SOL    HW116415   2.425   3.013   8.323 -0.1788  0.4952  0.3488
 1593SOL    HW216416   2.294   3.085   8.336 -0.9563  0.3655  2.2027
 1594SOL     OW16417   1.476   3.100   3.294  0.4188 -0.0598  0.3705
 1594SOL    HW116418   1.486   3.175   3.353  1.3501 -1.2762  1.7421
 1594SOL    HW216419   1.421   3.048   3.351  0.4106 -0.3475  0.1009
 1595SOL     OW16420   3.969   2.174   8.725 -0.0406 -0.8339 -0.0518
 1595SOL    HW116421   4.033   2.135   8.666  1.3506  2.0815 -0.4503
 1595SOL    HW216422   4.011   2.178   8.810  0.6993 -1.7605 -0.3722
 1596SOL     OW16423   1.122   0.702   8.426  0.2589 -0.0016  0.3057
 1596SOL    HW116424   1.102   0.775   8.484 -0.2333 -1.2461  1.6876
 1596SOL    HW216425   1.106   0.625   8.480  0.0617 -0.3477 -0.2349
 1597SOL     OW16426   4.683   4.413  13.517  0.2942  0.0658  0.3321
 1597SOL    HW116427   4.648   4.398  13.605  0.2268  0.0267  0.2981
 1597SOL    HW216428   4.728   4.328  13.523  0.9249  0.3161 -0.7653
 1598SOL     OW16429   1.161   4.433   7.289 -0.0999  0.4285  0.0274
 1598SOL    HW116430   1.240   4.437   7.235 -2.5858 -0.6049 -3.6285
 1598SOL    HW216431   1.124   4.356   7.246  1.6396  0.7979 -2.1191
 1599SOL     OW16432   0.231   1.076  16.400 -0.5674 -0.1865  0.0311
 1599SOL    HW116433   0.147   1.043  16.430 -0.8724  2.4661  2.0804
 1599SOL    HW216434   0.210   1.168  16.384  2.3833  0.4843 -0.0978
 1600SOL     OW16435   2.276   3.154   7.792 -0.3016  0.1474 -0.2615
 1600SOL    HW116436   2.278   3.223   7.858  1.9507  1.7310 -1.9846
 1600SOL    HW216437   2.217   3.094   7.837  0.6847  0.7564  1.8146
 1601SOL     OW16438   4.028   3.088   4.052 -0.2482  0.1642 -0.1140
 1601SOL    HW116439   4.123   3.091   4.048 -0.1716  0.5735  1.9508
 1601SOL    HW216440   4.013   3.012   4.107 -2.0615  1.3535  1.0602
 1602SOL     OW16441   0.720   0.901   8.356  0.1040  0.3979 -0.5634
 1602SOL    HW116442   0.801   0.946   8.332  1.1541 -1.6103 -0.7506
 1602SOL    HW216443   0.722   0.825   8.299 -1.1853 -1.0252  1.2926
 1603SOL     OW16444   1.052   1.972   5.996  0.2626  0.3094  0.4815
 1603SOL    HW116445   1.098   1.956   6.078 -0.3470  0.2979  0.8198
 1603SOL    HW216446   1.074   1.898   5.939 -0.3615 -0.2255  0.9432
 1604SOL     OW16447   3.321   1.479   1.985  0.1685 -0.1400 -0.1499
 1604SOL    HW116448   3.283   1.466   1.898  0.5989  0.1144 -0.3748
 1604SOL    HW216449   3.246   1.468   2.044  0.4713 -2.5537 -0.2074
 1605SOL     OW16450   3.582   3.247   2.336  0.7507  0.1040  0.1876
 1605SOL    HW116451   3.592   3.342   2.334  0.3442  0.1434 -0.0240
 1605SOL    HW216452   3.489   3.239   2.359  0.7342 -0.5334 -0.0919
 1606SOL     OW16453   2.959   3.065  12.679  0.5663 -0.2889 -0.1841
 1606SOL    HW116454   2.901   3.109  12.617 -0.0912  0.1235  0.7250
 1606SOL    HW216455   2.923   3.064  12.768  0.0899  0.7433 -0.3662
 1607SOL     OW16456   0.305   3.563   9.294  0.3604 -0.0987 -0.0306
 1607SOL    HW116457   0.281   3.479   9.255  0.4417 -0.6041  0.9971
 1607SOL    HW216458   0.400   3.553   9.292  0.3604 -0.0313 -0.4745
 1608SOL     OW16459   0.502   1.515   5.368 -0.3325 -0.4586 -0.4862
 1608SOL    HW116460   0.446   1.514   5.290 -0.2329 -2.7155 -0.5289
 1608SOL    HW216461   0.521   1.608   5.361  0.3555 -0.5666 -0.0778
 1609SOL     OW16462   3.952   1.313   8.213 -0.3322  0.2484 -0.2429
 1609SOL    HW116463   4.046   1.331   8.209 -0.3713  0.4025 -0.4480
 1609SOL    HW216464   3.927   1.328   8.122  1.8211 -3.0233 -1.3563
 1610SOL     OW16465   2.748   3.967   3.941  0.5058  0.1276 -0.0881
 1610SOL    HW116466   2.736   3.908   3.866  2.5210  1.8814 -1.8211
 1610SOL    HW216467   2.682   4.035   3.924  1.5563  0.7784 -1.6320
 1611SOL     OW16468   4.075   4.528   6.362  0.2616  0.1731  0.1283
 1611SOL    HW116469   4.002   4.580   6.397 -2.2155 -2.5827 -0.9647
 1611SOL    HW216470   4.144   4.590   6.386 -0.1157  0.3541  0.7361
 1612SOL     OW16471   0.247   3.358   3.288  0.0743 -0.5423  0.2646
 1612SOL    HW116472   0.216   3.271   3.316 -0.9060 -0.4488 -0.5425
 1612SOL    HW216473   0.176   3.380   3.228  0.5795  0.0959 -0.0917
 1613SOL     OW16474   3.223   1.388   3.419  0.0961 -0.2031 -0.0154
 1613SOL    HW116475   3.176   1.413   3.339  0.2830 -0.8774 -0.3328
 1613SOL    HW216476   3.220   1.476   3.455 -0.3576  0.2720 -1.2157
 1614SOL     OW16477   2.750   3.155   5.145 -0.5150 -0.0371 -0.1200
 1614SOL    HW116478   2.756   3.250   5.156 -0.6051 -0.0000 -0.3807
 1614SOL    HW216479   2.666   3.155   5.100 -0.7374  0.3732  0.3030
 1615SOL     OW16480   4.714   3.294   6.048 -0.3195  0.8224 -0.7703
 1615SOL    HW116481   4.659   3.287   5.971 -1.3861  2.5121 -0.1850
 1615SOL    HW216482   4.655   3.330   6.115  1.7778 -0.5127  1.8205
 1616SOL     OW16483   0.320   3.558   4.272 -0.0282  0.4425 -0.3226
 1616SOL    HW116484   0.267   3.544   4.194  0.5479  0.9060 -0.7961
 1616SOL    HW216485   0.259   3.505   4.323  2.1987 -0.1595  1.7364
 1617SOL     OW16486   4.473   4.027  12.101 -0.1313 -0.3925 -0.0710
 1617SOL    HW116487   4.439   3.939  12.116  1.6630 -1.0404  0.2584
 1617SOL    HW216488   4.565   4.014  12.126 -0.0344 -0.8850 -0.6788
 1618SOL     OW16489   0.485   3.204   9.035  0.4058  0.8183 -0.5083
 1618SOL    HW116490   0.415   3.260   9.003  0.4879  1.1359 -0.1337
 1618SOL    HW216491   0.499   3.149   8.958  1.1037 -0.2821  0.4021
 1619SOL     OW16492   0.565   3.712   2.348  0.1025  0.2185 -0.2608
 1619SOL    HW116493   0.486   3.694   2.401  0.2791 -1.8695 -0.7234
 1619SOL    HW216494   0.627   3.730   2.419 -1.1255  0.1668  0.8293
 1620SOL     OW16495   4.700   0.373  14.710 -0.1570  0.2832  0.3868
 1620SOL    HW116496   4.626   0.401  14.765  0.9074  3.2189  0.3198
 1620SOL    HW216497   0.032   0.367  14.777  1.3930  1.8413 -1.0975
 1621SOL     OW16498   4.452   1.068   9.591 -0.0039 -0.2305  1.0703
 1621SOL    HW116499   4.499   1.151   9.582 -0.2958 -0.3321 -1.4133
 1621SOL    HW216500   4.386   1.085   9.658  1.3383  1.6432  1.9166
 1622SOL     OW16501   0.375   1.780  10.106 -0.3751 -0.4499 -0.5469
 1622SOL    HW116502   0.369   1.841  10.033  0.7783  0.4819  0.1316
 1622SOL    HW216503   0.309   1.712  10.090 -0.6719 -0.4019  0.4404
 1623SOL     OW16504   4.321   2.319  10.226 -0.5534 -0.0295  0.1626
 1623SOL    HW116505   4.387   2.389  10.232 -0.9661  0.2581  1.3783
 1623SOL    HW216506   4.326   2.280  10.313 -1.1004 -2.5371 -0.9477
 1624SOL     OW16507   2.367   3.654   0.379  0.3866  0.3803 -0.1751
 1624SOL    HW116508   2.396   3.688   0.294 -1.2579  1.6861 -0.2187
 1624SOL    HW216509   2.328   3.571   0.351  1.8429 -0.2334 -0.3775
 1625SOL     OW16510   0.398   0.846   1.256 -0.5273 -0.4526  0.1863
 1625SOL    HW116511   0.414   0.918   1.317 -2.7685  0.6210 -0.4657
 1625SOL    HW216512   0.438   0.775   1.306  1.4800 -0.1309 -0.9697
 1626SOL     OW16513   3.671   2.469   7.108  0.3853  0.5027  0.0515
 1626SOL    HW116514   3.647   2.548   7.158  2.1946  2.5000 -2.2353
 1626SOL    HW216515   3.592   2.450   7.056  1.5839  3.0076 -2.7200
 1627SOL     OW16516   0.242   1.610   5.361 -0.1413 -0.1498 -0.4308
 1627SOL    HW116517   0.303   1.568   5.422 -1.6934 -2.2880 -0.3614
 1627SOL    HW216518   0.286   1.588   5.279  1.6130 -2.2137  1.0490
 1628SOL     OW16519   1.542   0.206   0.091 -0.0380 -0.0883 -0.4795
 1628SOL    HW116520   1.549   0.128   0.035  0.5897  0.3673 -1.0268
 1628SOL    HW216521   1.541   0.163   0.176  3.3609 -1.0153 -0.9050
 1629SOL     OW16522   3.269   3.866   5.659 -0.4548  0.7091  0.1959
 1629SOL    HW116523   3.266   3.948   5.707 -1.0890  2.0466 -2.1298
 1629SOL    HW216524   3.237   3.905   5.577 -0.8031 -0.7953 -0.4002
 1630SOL     OW16525   1.318   3.564   3.664 -0.6177 -0.0296  0.3435
 1630SOL    HW116526   1.354   3.642   3.623 -1.0357  0.2405  0.4938
 1630SOL    HW216527   1.296   3.593   3.753  1.2102  0.1971  0.7199
 1631SOL     OW16528   3.834   1.670   9.334 -0.1157  0.6316 -0.1661
 1631SOL    HW116529   3.835   1.613   9.411 -0.0064  0.9708  0.0817
 1631SOL    HW216530   3.893   1.741   9.359 -2.1068  1.3809  2.3620
 1632SOL     OW16531   3.270   1.997  16.780  0.6358  0.0164  0.2966
 1632SOL    HW116532   3.337   1.952  16.729  2.6498  0.6365  2.3729
 1632SOL    HW216533   3.272   1.951  16.864 -1.0599  0.9062  0.8374
 1633SOL     OW16534   0.094   4.095  14.351 -0.2281 -0.5038 -0.4381
 1633SOL    HW116535   0.153   4.055  14.288  0.0301 -1.0670  0.1705
 1633SOL    HW216536   0.135   4.179  14.373 -1.1736 -0.0443 -0.4335
 1634SOL     OW16537   1.709   4.613   9.005  0.2084 -0.0089  0.1303
 1634SOL    HW116538   1.758   4.584   8.929 -1.7236 -0.7499 -0.8342
 1634SOL    HW216539   1.736   4.547   9.069  1.0416 -0.1313 -0.3620
 1635SOL     OW16540   0.369   3.185   3.942  0.4100 -0.0460  0.1643
 1635SOL    HW116541   0.436   3.220   3.884  1.0935  1.2903  1.7328
 1635SOL    HW216542   0.286   3.230   3.923  1.0002  0.9363 -0.0962
 1636SOL     OW16543   4.642   0.149   5.565 -0.6003  0.3332 -0.1013
 1636SOL    HW116544   4.706   0.170   5.497 -0.2608 -0.2257  0.0453
 1636SOL    HW216545   4.694   0.181   5.638 -1.6444  0.2330  0.6879
 1637SOL     OW16546   2.703   4.687  14.930 -0.7637  0.1184 -0.1860
 1637SOL    HW116547   2.711   4.646  15.016  0.2295  0.3340 -0.1805
 1637SOL    HW216548   2.614   4.716  14.952 -1.0165 -0.0734 -0.9478
 1638SOL     OW16549   0.087   1.540  14.986  0.9018  0.2743 -0.2904
 1638SOL    HW116550   0.054   1.620  14.946 -0.1980  0.3360  0.7559
 1638SOL    HW216551   0.136   1.505  14.911  0.0686  1.5135 -1.3925
 1639SOL     OW16552   3.775   0.859   0.310 -0.4840  0.1814  0.1173
 1639SOL    HW116553   3.811   0.776   0.340 -1.3751 -0.4819 -0.6453
 1639SOL    HW216554   3.742   0.827   0.226 -2.5679  0.3271  0.8655
 1640SOL     OW16555   2.089   1.280  15.871  0.1095 -0.3322  0.1604
 1640SOL    HW116556   2.019   1.214  15.877  0.7021 -1.1303 -1.5661
 1640SOL    HW216557   2.037   1.360  15.882 -0.1830 -0.4509 -0.3108
 1641SOL     OW16558   3.115   3.941   4.070 -0.6524  0.0842  0.0791
 1641SOL    HW116559   3.113   3.916   3.978 -2.3657  1.3656 -0.2306
 1641SOL    HW216560   3.027   3.917   4.097  0.4111 -3.6920  0.1726
 1642SOL     OW16561   2.845   1.485   8.504 -0.0516  0.0222  0.1698
 1642SOL    HW116562   2.869   1.410   8.559 -1.0788  0.7764  1.6498
 1642SOL    HW216563   2.850   1.558   8.565 -1.5623  1.6802 -1.6871
 1643SOL     OW16564   2.693   3.613   6.180 -0.2138  0.3396  0.0209
 1643SOL    HW116565   2.787   3.634   6.183 -0.6248  2.3062 -0.9762
 1643SOL    HW216566   2.667   3.696   6.221 -0.5804  0.8564 -1.2640
 1644SOL     OW16567   2.028   4.399  14.644 -0.2195 -0.0572 -0.2836
 1644SOL    HW116568   2.074   4.389  14.728 -0.1131  0.6244 -0.2652
 1644SOL    HW216569   1.992   4.310  14.641 -1.5660  0.4875  0.1881
 1645SOL     OW16570   0.140   2.348  11.812 -0.2037 -0.0138 -0.0534
 1645SOL    HW116571   0.079   2.416  11.783 -0.9248  0.2684  2.1824
 1645SOL    HW216572   0.220   2.397  11.827  0.2550 -0.6083 -0.5578
 1646SOL     OW16573   2.144   2.727   1.650 -0.5417 -0.4352  0.1076
 1646SOL    HW116574   2.095   2.799   1.691  0.4797  0.4836 -0.2844
 1646SOL    HW216575   2.078   2.665   1.619  0.0863 -0.9364 -0.2291
 1647SOL     OW16576   4.003   3.860   4.305 -0.6553  0.2502  0.1765
 1647SOL    HW116577   4.006   3.905   4.389  0.7745  0.6938 -0.1202
 1647SOL    HW216578   4.023   3.930   4.243  2.1980  0.0019  0.8054
 1648SOL     OW16579   0.126   1.591   9.780  0.4071 -0.2962 -0.2271
 1648SOL    HW116580   0.135   1.620   9.871 -0.1469  0.4106 -0.4039
 1648SOL    HW216581   0.054   1.645   9.748  0.0901 -0.8656 -0.4705
 1649SOL     OW16582   4.255   0.320   7.596 -0.0660  0.0369 -0.0828
 1649SOL    HW116583   4.294   0.403   7.568  0.5351 -0.7202 -1.4719
 1649SOL    HW216584   4.320   0.284   7.657 -0.0026  1.5676  0.7770
 1650SOL     OW16585   0.768   1.495   3.897 -0.2334  0.1247  1.0303
 1650SOL    HW116586   0.778   1.523   3.806  2.8323 -1.6438  0.8308
 1650SOL    HW216587   0.760   1.400   3.889  0.9715  0.0951  0.0698
 1651SOL     OW16588   0.411   4.556   5.892 -0.3690 -0.0150 -0.6550
 1651SOL    HW116589   0.470   4.534   5.964 -0.6643 -0.2096 -0.4737
 1651SOL    HW216590   0.358   4.477   5.880  1.0360 -1.1943  0.9538
 1652SOL     OW16591   1.152   2.498   5.753 -0.2323  0.2568  0.0680
 1652SOL    HW116592   1.082   2.435   5.737 -0.8568  1.2311 -1.0619
 1652SOL    HW216593   1.215   2.469   5.687 -1.6097 -0.1823 -1.0519
 1653SOL     OW16594   2.520   4.447  11.915  0.1916  0.2178 -0.3809
 1653SOL    HW116595   2.555   4.358  11.903  1.0050  0.5241 -0.2658
 1653SOL    HW216596   2.434   4.427  11.951  0.9075 -2.8043 -0.3359
 1654SOL     OW16597   1.280   2.075   9.842 -0.2861  0.0641  0.2703
 1654SOL    HW116598   1.194   2.114   9.851 -0.5225 -0.8009  1.8619
 1654SOL    HW216599   1.304   2.058   9.934  0.4825 -2.7429 -0.4388
 1655SOL     OW16600   1.498   0.951   4.181  0.3483 -0.3176 -0.3842
 1655SOL    HW116601   1.420   0.896   4.185 -0.1451  0.5270  1.7680
 1655SOL    HW216602   1.538   0.956   4.268 -0.1007 -2.2387 -0.0800
 1656SOL     OW16603   3.483   1.129   2.342 -0.1873 -0.2251  0.0811
 1656SOL    HW116604   3.418   1.070   2.301 -0.3107 -0.0140 -0.0276
 1656SOL    HW216605   3.538   1.128   2.264 -0.0257 -0.8160  0.2025
 1657SOL     OW16606   2.490   3.895   1.826  0.3968 -0.5407 -0.2538
 1657SOL    HW116607   2.434   3.840   1.881 -0.1570  0.1791 -0.1007
 1657SOL    HW216608   2.437   3.974   1.825  1.1640 -0.0286  0.0517
 1658SOL     OW16609   4.381   1.722   6.345  0.5745  0.2582  0.0775
 1658SOL    HW116610   4.433   1.758   6.274  1.1828 -0.4646  0.1553
 1658SOL    HW216611   4.326   1.658   6.300  0.2238  1.0397 -0.6136
 1659SOL     OW16612   0.584   1.093   6.603 -0.4169 -0.4449 -0.0802
 1659SOL    HW116613   0.548   1.096   6.691 -1.4472  0.5853 -0.5318
 1659SOL    HW216614   0.566   1.003   6.575  0.6322 -0.1168 -1.8429
 1660SOL     OW16615   2.888   1.093   4.039  0.4175  1.5925 -0.0019
 1660SOL    HW116616   2.901   1.126   4.128  0.3212  0.6471  0.3667
 1660SOL    HW216617   2.972   1.103   3.994 -0.0566  0.3321 -1.1634
 1661SOL     OW16618   4.458   3.405   6.411 -0.2458  0.1131  0.0723
 1661SOL    HW116619   4.403   3.481   6.429 -0.8167  0.4460 -3.0313
 1661SOL    HW216620   4.547   3.435   6.431 -0.4231  1.1689 -0.6892
 1662SOL     OW16621   2.213   2.162   6.362 -0.3897  0.1129  0.0479
 1662SOL    HW116622   2.245   2.122   6.281 -1.4291  0.0980 -0.3597
 1662SOL    HW216623   2.126   2.122   6.350 -1.5802  2.0134  2.2960
 1663SOL     OW16624   1.581   0.036  17.591 -0.2921 -0.1380  0.2659
 1663SOL    HW116625   1.649   0.085  17.545  0.0486  0.3584  1.2971
 1663SOL    HW216626   1.500   0.072  17.555 -1.9209 -1.4233  2.6547
 1664SOL     OW16627   4.172   2.508   4.848  0.1129  0.4838  0.0687
 1664SOL    HW116628   4.192   2.588   4.798 -0.0956 -1.1626 -2.6301
 1664SOL    HW216629   4.187   2.440   4.783  0.3718 -0.1330  0.7666
 1665SOL     OW16630   0.787   1.669  12.726  0.4732  0.3601 -0.2344
 1665SOL    HW116631   0.753   1.664  12.815  1.3248  0.4823  0.0906
 1665SOL    HW216632   0.773   1.585  12.683 -1.6248 -1.0216  3.1391
 1666SOL     OW16633   1.379   3.473   6.199 -0.0133  0.1488  0.2799
 1666SOL    HW116634   1.301   3.495   6.251 -0.3871 -1.4427  0.4110
 1666SOL    HW216635   1.331   3.414   6.141 -0.4697 -0.1975  0.9989
 1667SOL     OW16636   2.126   2.990   1.356  0.2287  0.0501 -0.1373
 1667SOL    HW116637   2.118   2.913   1.300  1.3153 -0.9625  1.1013
 1667SOL    HW216638   2.192   2.972   1.423 -0.2529 -2.1105 -0.2328
 1668SOL     OW16639   2.757   1.549   7.521  0.1542 -0.1981  0.0359
 1668SOL    HW116640   2.784   1.467   7.563  0.3852 -0.5450 -0.7882
 1668SOL    HW216641   2.814   1.548   7.444  2.0164  0.3878  1.3890
 1669SOL     OW16642   0.593   1.052   5.432  0.1578 -0.2398  0.4562
 1669SOL    HW116643   0.556   1.035   5.519 -0.8198  1.3569  0.3514
 1669SOL    HW216644   0.554   1.139   5.424  0.7558  0.2233  2.5155
 1670SOL     OW16645   0.651   1.294   4.671  0.4201  0.5316  0.1004
 1670SOL    HW116646   0.708   1.368   4.693  0.4510  0.4410  0.3186
 1670SOL    HW216647   0.664   1.233   4.743  0.8769  1.1680  0.5598
 1671SOL     OW16648   3.063   4.334   6.745  0.0130 -0.0407  0.3510
 1671SOL    HW116649   3.045   4.419   6.705 -0.4650  0.0019  0.6585
 1671SOL    HW216650   3.093   4.285   6.668 -0.2599 -0.3619  0.4480
 1672SOL     OW16651   3.235   4.615   6.399  0.4616 -0.0573 -0.4855
 1672SOL    HW116652   3.317   4.636   6.353  0.7190  1.1552  0.5280
 1672SOL    HW216653   3.254   4.655   6.484 -1.8176  0.2937 -0.1478
 1673SOL     OW16654   4.415   3.980   4.461 -0.1566 -0.0381  0.3782
 1673SOL    HW116655   4.408   4.075   4.464  0.1317  0.0121 -0.5894
 1673SOL    HW216656   4.367   3.963   4.542  1.9734  0.0872  1.6691
 1674SOL     OW16657   2.985   2.603   3.837 -0.2607 -0.0855  0.2277
 1674SOL    HW116658   3.062   2.617   3.781 -1.2810 -2.0159 -1.6370
 1674SOL    HW216659   2.926   2.670   3.802 -0.7053  0.4522  1.9838
 1675SOL     OW16660   1.137   1.248   2.111  0.6854 -1.1450  0.2123
 1675SOL    HW116661   1.186   1.323   2.079  0.5154 -0.7303  0.9043
 1675SOL    HW216662   1.116   1.203   2.030 -0.6999 -0.5367  0.2280
 1676SOL     OW16663   0.353   4.505   6.233 -0.2799 -0.0479  0.4465
 1676SOL    HW116664   0.371   4.430   6.289 -0.5060 -2.3749 -2.5774
 1676SOL    HW216665   0.436   4.515   6.187 -0.9051 -1.9772 -1.1339
 1677SOL     OW16666   2.013   2.885   4.930 -0.8707 -0.3148  0.9786
 1677SOL    HW116667   2.038   2.832   4.854  0.0734 -0.6579  1.5243
 1677SOL    HW216668   1.983   2.823   4.996 -3.5507 -0.6546 -0.5602
 1678SOL     OW16669   4.091   4.170   1.404 -0.6995  0.1292 -0.0914
 1678SOL    HW116670   4.127   4.188   1.490  0.0681 -2.5288  0.1625
 1678SOL    HW216671   4.061   4.258   1.381 -3.7580 -0.3216  2.1782
 1679SOL     OW16672   0.070   1.492   1.331  0.5244  0.3918 -0.7728
 1679SOL    HW116673   0.020   1.554   1.277  1.8790  0.6549 -1.7125
 1679SOL    HW216674   0.074   1.423   1.265  3.6997  1.0445 -1.2743
 1680SOL     OW16675   0.093   0.683   4.914  0.0315  0.2922  0.1045
 1680SOL    HW116676   0.130   0.607   4.868 -0.9680  0.2851 -0.6875
 1680SOL    HW216677   0.152   0.693   4.988 -0.5586  0.6256  0.5246
 1681SOL     OW16678   3.508   4.327   0.134  0.6710  0.0028  0.7204
 1681SOL    HW116679   3.585   4.274   0.155  0.2937 -0.8520 -0.0641
 1681SOL    HW216680   3.551   4.401   0.090 -1.2708  0.1651 -0.8960
 1682SOL     OW16681   2.364   4.475  10.798  0.2367  0.1664 -0.9590
 1682SOL    HW116682   2.356   4.542  10.866 -0.3328 -0.4929 -0.3727
 1682SOL    HW216683   2.317   4.514  10.725  0.3549 -0.1392 -1.1980
 1683SOL     OW16684   4.244   4.194   9.855  1.0099  0.1094 -0.2269
 1683SOL    HW116685   4.305   4.266   9.871  1.4294  0.0328 -1.4730
 1683SOL    HW216686   4.257   4.132   9.926  0.4227 -0.0725 -0.2801
 1684SOL     OW16687   3.280   1.635   2.894  0.5688  0.7962 -0.1619
 1684SOL    HW116688   3.310   1.657   2.806  0.0716 -1.4998 -0.9017
 1684SOL    HW216689   3.316   1.705   2.948 -1.0249 -0.9081  3.0993
 1685SOL     OW16690   2.098   0.812  11.987  0.0027  0.0522 -0.1806
 1685SOL    HW116691   2.147   0.813  11.905  0.3473  0.5766  0.0379
 1685SOL    HW216692   2.019   0.857  11.956 -0.1242  1.9684  2.8671
 1686SOL     OW16693   2.889   4.381   5.783  0.5100 -0.6376  0.2280
 1686SOL    HW116694   2.923   4.372   5.693  0.9043  0.0877  0.3008
 1686SOL    HW216695   2.870   4.474   5.791 -0.8420 -0.8697 -0.3818
 1687SOL     OW16696   2.916   0.017   4.696 -0.4441 -0.2427  0.0124
 1687SOL    HW116697   2.937   4.663   4.671 -2.2830 -1.3789  2.5664
 1687SOL    HW216698   2.993   0.066   4.669 -0.6352 -1.1377 -2.2113
 1688SOL     OW16699   4.429   3.499   4.832 -0.0022 -0.0326  0.0068
 1688SOL    HW116700   4.352   3.515   4.887 -0.3112 -0.1775 -0.3798
 1688SOL    HW216701   4.435   3.407   4.857 -2.9218 -0.1304  0.2940
 1689SOL     OW16702   2.233   4.562   2.239  0.3546 -0.2226 -0.6231
 1689SOL    HW116703   2.271   4.478   2.217 -0.4459 -0.9393  0.7287
 1689SOL    HW216704   2.241   4.611   2.157  1.7373 -0.3795 -0.5886
 1690SOL     OW16705   3.549   0.621   5.382 -0.3804 -0.2873 -0.5363
 1690SOL    HW116706   3.599   0.605   5.302  0.7301 -0.1577  0.1305
 1690SOL    HW216707   3.610   0.596   5.452 -0.1406 -1.7020 -1.2564
 1691SOL     OW16708   0.486   0.083   6.673 -0.3791  0.5170  0.3896
 1691SOL    HW116709   0.449   0.032   6.601 -0.7203  0.6868  0.4450
 1691SOL    HW216710   0.412   0.129   6.712 -0.6673  0.1875  0.2287
 1692SOL     OW16711   4.173   1.683   8.150 -0.2446 -0.5169  0.6023
 1692SOL    HW116712   4.168   1.616   8.082  1.1760 -0.7724  0.7582
 1692SOL    HW216713   4.130   1.762   8.116 -0.7994 -1.3318 -0.5892
 1693SOL     OW16714   0.605   1.315   0.928  0.1735  0.0711  0.0269
 1693SOL    HW116715   0.699   1.296   0.918  0.6477  1.6729  1.4918
 1693SOL    HW216716   0.582   1.239   0.982  3.1640 -1.1271 -0.3422
 1694SOL     OW16717   3.815   1.687   2.786  0.5521  0.1210  0.4105
 1694SOL    HW116718   3.786   1.659   2.873 -0.7111 -0.4745 -0.2071
 1694SOL    HW216719   3.893   1.729   2.821  2.4401 -2.0503 -1.1935
 1695SOL     OW16720   3.997   4.576   5.797 -0.0369 -0.2406  0.2278
 1695SOL    HW116721   3.910   4.550   5.829 -0.8100  0.8990 -0.9019
 1695SOL    HW216722   4.037   4.555   5.881  1.4343  1.7908  0.0303
 1696SOL     OW16723   1.933   4.733  15.098  0.6926 -0.1483  0.1612
 1696SOL    HW116724   1.966   0.008  15.009 -1.3394  0.2200 -0.5251
 1696SOL    HW216725   1.984   4.658  15.128  0.3497  0.4143  2.1871
 1697SOL     OW16726   2.586   4.021  14.350  0.4292  0.1498 -0.1170
 1697SOL    HW116727   2.584   3.927  14.364 -1.0264 -0.0247 -1.4179
 1697SOL    HW216728   2.589   4.021  14.254 -0.2402 -1.5728 -0.1399
 1698SOL     OW16729   3.638   1.207   6.439 -0.0508  0.3752 -0.5940
 1698SOL    HW116730   3.575   1.199   6.368 -0.1500  0.2545 -0.4939
 1698SOL    HW216731   3.673   1.295   6.434  1.6769 -0.2142  1.2502
 1699SOL     OW16732   0.158   2.434   6.599 -0.6648 -0.5941  0.0004
 1699SOL    HW116733   0.092   2.425   6.668  0.5740  1.2388  1.4128
 1699SOL    HW216734   0.169   2.346   6.564 -0.2670  0.0576 -1.5304
 1700SOL     OW16735   4.291   4.180   2.401 -0.1561 -0.1507  0.7942
 1700SOL    HW116736   4.347   4.154   2.474  0.0155 -1.0418  0.3420
 1700SOL    HW216737   4.345   4.220   2.333 -1.4601 -0.6157 -0.5294
 1701SOL     OW16738   2.665   0.081   6.770 -0.7059 -0.1903 -0.4816
 1701SOL    HW116739   2.714   0.050   6.846 -0.9215  1.1234  0.1802
 1701SOL    HW216740   2.694   0.171   6.758  0.2922 -0.3035  1.1532
 1702SOL     OW16741   3.304   3.608  11.666 -0.0963 -0.6247  0.0318
 1702SOL    HW116742   3.397   3.607  11.646 -0.3500 -0.0075 -1.1740
 1702SOL    HW216743   3.296   3.627  11.760  0.6211 -2.3685  0.4288
 1703SOL     OW16744   4.016   0.682  13.887 -0.1980 -0.0091  0.0250
 1703SOL    HW116745   3.928   0.658  13.915 -1.0813  0.0758 -2.6563
 1703SOL    HW216746   4.081   0.619  13.921 -0.8615 -0.6118  0.1860
 1704SOL     OW16747   0.273   0.300   2.722 -0.2793 -0.1811 -0.3075
 1704SOL    HW116748   0.281   0.242   2.647  2.2796 -0.5129  0.2448
 1704SOL    HW216749   0.278   0.242   2.799  1.6126  0.3331 -0.0354
 1705SOL     OW16750   3.165   4.146   2.625  0.4678 -0.0465  0.5729
 1705SOL    HW116751   3.186   4.122   2.534  1.4380  0.0543  0.7736
 1705SOL    HW216752   3.073   4.171   2.617  0.3117 -1.1831 -1.2387
 1706SOL     OW16753   3.196   2.683  12.902  0.1038  0.7330  0.0354
 1706SOL    HW116754   3.290   2.675  12.920  0.2421  0.1848 -0.9137
 1706SOL    HW216755   3.192   2.617  12.833  1.5315  1.9712 -1.2285
 1707SOL     OW16756   2.500   2.485  11.922 -0.2334  0.5159 -0.0775
 1707SOL    HW116757   2.415   2.527  11.933 -0.5569 -0.1206 -0.1649
 1707SOL    HW216758   2.555   2.524  11.990 -0.8887  1.9037 -0.3387
 1708SOL     OW16759   3.465   0.177   5.738  0.5108 -0.5160 -0.1243
 1708SOL    HW116760   3.376   0.159   5.706 -0.2786  2.7316  0.2050
 1708SOL    HW216761   3.524   0.136   5.675  0.1248  0.5834 -1.2045
 1709SOL     OW16762   2.240   1.417  11.960  0.0604  0.3045 -0.3896
 1709SOL    HW116763   2.209   1.419  12.051  1.3172 -2.9019  0.0851
 1709SOL    HW216764   2.296   1.495  11.962  0.9831 -0.3247 -2.3632
 1710SOL     OW16765   2.327   3.640   9.071  0.3706  0.1553  0.0576
 1710SOL    HW116766   2.278   3.654   8.989 -0.6054  1.1069  0.7939
 1710SOL    HW216767   2.350   3.728   9.100  0.3256  0.5158 -0.9741
 1711SOL     OW16768   3.342   1.688   4.827  0.3114  0.3405 -0.0996
 1711SOL    HW116769   3.250   1.696   4.854 -0.4597 -1.0625 -2.3653
 1711SOL    HW216770   3.363   1.781   4.826  1.8730  0.0099  1.7119
 1712SOL     OW16771   1.726   4.606   8.295  0.4769 -0.4019  0.2252
 1712SOL    HW116772   1.743   4.576   8.206 -0.8114 -2.8261  0.7910
 1712SOL    HW216773   1.683   4.690   8.283 -0.9990 -1.1266  0.3663
 1713SOL     OW16774   4.422   1.009   7.186 -0.0625  0.3516 -0.2227
 1713SOL    HW116775   4.462   0.964   7.112 -2.3267 -1.5241 -0.2965
 1713SOL    HW216776   4.425   0.942   7.254 -1.1831  0.9800  0.4364
 1714SOL     OW16777   2.965   3.290   7.696  0.1325 -0.5447  0.3752
 1714SOL    HW116778   3.000   3.349   7.763 -0.5670  1.1634 -0.7695
 1714SOL    HW216779   2.873   3.296   7.719 -0.2840 -2.3433 -0.9176
 1715SOL     OW16780   0.028   3.694   5.847 -0.2041  0.1117  0.4476
 1715SOL    HW116781   0.079   3.773   5.835  0.0996 -0.2133 -0.4164
 1715SOL    HW216782   0.065   3.658   5.927  2.8325  1.2575 -0.4714
 1716SOL     OW16783   2.481   0.622   8.478 -0.1373 -0.2289 -0.1439
 1716SOL    HW116784   2.546   0.555   8.498  1.3304  0.6158 -2.1506
 1716SOL    HW216785   2.541   0.692   8.453 -1.0329  1.1233  1.4927
 1717SOL     OW16786   0.361   4.175   3.150 -0.1446  0.2216 -0.4176
 1717SOL    HW116787   0.296   4.105   3.158  0.9532 -0.5078  2.1032
 1717SOL    HW216788   0.402   4.141   3.070  0.6804 -2.4841  1.1567
 1718SOL     OW16789   3.217   2.144   2.609  0.4622 -0.2038 -0.2559
 1718SOL    HW116790   3.309   2.128   2.589  0.5279 -0.3186  0.1292
 1718SOL    HW216791   3.179   2.176   2.527  1.3723  0.6731 -0.3273
 1719SOL     OW16792   1.695   0.130   8.555 -0.2148 -0.3389  0.3190
 1719SOL    HW116793   1.614   0.118   8.506  0.8631 -0.6247 -1.3873
 1719SOL    HW216794   1.657   0.123   8.643 -2.3085 -1.3257 -0.6374
 1720SOL     OW16795   1.513   2.626   2.546 -0.2534  0.0024  1.0217
 1720SOL    HW116796   1.550   2.551   2.593 -0.7577 -1.1696 -0.4769
 1720SOL    HW216797   1.569   2.627   2.469 -1.4842 -0.3494  0.1343
 1721SOL     OW16798   2.278   3.084   6.910 -0.5564 -0.5255 -0.2287
 1721SOL    HW116799   2.242   3.117   6.993 -0.2614 -0.3541 -0.1698
 1721SOL    HW216800   2.249   2.993   6.921  1.0682 -0.9825  0.2721
 1722SOL     OW16801   4.150   1.891   6.044  0.0887 -0.2080 -0.5628
 1722SOL    HW116802   4.081   1.849   6.095 -3.1402  4.0996 -1.4170
 1722SOL    HW216803   4.210   1.818   6.029  1.7542  1.0680 -0.0723
 1723SOL     OW16804   0.380   0.755   4.779  0.1803  0.0809  0.0891
 1723SOL    HW116805   0.351   0.814   4.709  0.2606 -1.0653 -0.9094
 1723SOL    HW216806   0.356   0.815   4.850 -2.2812  1.2748 -1.7308
 1724SOL     OW16807   3.314   4.692  17.536 -0.3006  0.0704 -0.4537
 1724SOL    HW116808   3.363   0.023  17.582 -0.6020 -0.9524  1.3757
 1724SOL    HW216809   3.224   4.719  17.553 -1.4199 -3.0194 -1.4000
 1725SOL     OW16810   3.789   1.032   6.810 -0.0921 -0.0906 -0.2446
 1725SOL    HW116811   3.751   1.115   6.785 -0.3345 -0.0023  0.4009
 1725SOL    HW216812   3.850   1.026   6.737  0.9563  0.1051  0.6034
 1726SOL     OW16813   0.977   4.183   2.433  0.4112 -0.4936  0.1345
 1726SOL    HW116814   0.971   4.088   2.429 -0.2223 -0.4383 -0.2507
 1726SOL    HW216815   1.006   4.202   2.523 -3.4519 -1.1725  1.5197
 1727SOL     OW16816   4.495   3.106   4.639  0.0436 -0.0306  0.1020
 1727SOL    HW116817   4.431   3.036   4.625 -3.1921  2.6878  1.2932
 1727SOL    HW216818   4.463   3.140   4.722 -0.8672 -0.1175 -0.2131
 1728SOL     OW16819   0.658   3.767   7.880  0.1412  0.2580 -0.0729
 1728SOL    HW116820   0.643   3.687   7.829  3.1686  1.1897 -2.4066
 1728SOL    HW216821   0.747   3.750   7.910  0.7351  0.9380 -1.4586
 1729SOL     OW16822   2.372   1.967  14.834 -0.7133  0.6831  0.4462
 1729SOL    HW116823   2.466   1.964  14.853 -0.9283  2.9213  1.8840
 1729SOL    HW216824   2.342   1.934  14.919 -2.9573  2.3581  0.2854
 1730SOL     OW16825   1.707   0.590  14.053 -0.5497  0.3980  0.2556
 1730SOL    HW116826   1.700   0.541  13.972 -0.2868  1.1943 -0.2461
 1730SOL    HW216827   1.718   0.674  14.010  1.6296  0.8568  1.6888
 1731SOL     OW16828   0.075   2.092   7.947  0.1498  0.1737  0.1703
 1731SOL    HW116829   0.149   2.104   8.006  0.6226  2.4216 -0.8893
 1731SOL    HW216830   0.104   2.010   7.906 -1.3367 -0.3415  0.1429
 1732SOL     OW16831   2.473   0.658   5.693 -0.4817  0.1550 -0.2123
 1732SOL    HW116832   2.416   0.704   5.631 -0.2682  0.6253 -0.0500
 1732SOL    HW216833   2.557   0.700   5.677 -0.4627  0.6732  1.2949
 1733SOL     OW16834   4.524   3.754  12.111  0.3379  0.1095  0.1953
 1733SOL    HW116835   4.612   3.748  12.075  1.4321  1.7021  2.6159
 1733SOL    HW216836   4.547   3.776  12.201 -0.9607 -0.8806  0.7624
 1734SOL     OW16837   0.227   2.819  16.473 -0.2510  0.3281 -0.0950
 1734SOL    HW116838   0.257   2.906  16.447 -0.4112  0.3195 -0.3112
 1734SOL    HW216839   0.173   2.840  16.549 -0.7144 -1.6011  0.1260
 1735SOL     OW16840   4.025   1.515  13.908  0.5277  0.4803 -0.9624
 1735SOL    HW116841   3.981   1.547  13.987  0.3368 -0.4599 -0.6913
 1735SOL    HW216842   3.998   1.566  13.832  0.0134  0.2569 -0.9270
 1736SOL     OW16843   2.726   4.673  15.900 -0.8126 -0.7609 -0.1782
 1736SOL    HW116844   2.667   4.659  15.974 -1.8969 -2.0029 -1.2705
 1736SOL    HW216845   2.781   0.007  15.934 -0.0279 -1.9887  1.1060
 1737SOL     OW16846   3.046   3.882   7.810 -0.2351 -0.0351  0.3220
 1737SOL    HW116847   3.042   3.875   7.905  0.9457  1.6998  0.4950
 1737SOL    HW216848   3.137   3.911   7.801  0.3726 -1.4517  1.8525
 1738SOL     OW16849   0.794   4.313   6.823  0.3453 -0.8578 -0.2769
 1738SOL    HW116850   0.725   4.368   6.859  0.0347 -1.2961 -0.2015
 1738SOL    HW216851   0.865   4.377   6.818 -1.3864  0.8857 -2.6167
 1739SOL     OW16852   0.792   4.556  15.302  0.3623 -0.2576  0.3213
 1739SOL    HW116853   0.778   4.534  15.209 -0.2631  2.6594 -0.2796
 1739SOL    HW216854   0.741   4.637  15.301 -0.8929 -1.0397 -0.7652
 1740SOL     OW16855   4.339   4.066   7.426 -0.2083 -0.1467  0.0837
 1740SOL    HW116856   4.311   4.054   7.517  2.4433  1.9421  1.2109
 1740SOL    HW216857   4.426   4.103   7.442  1.1157 -3.7011  1.1166
 1741SOL     OW16858   2.901   3.907   4.476  0.3308  0.2609 -0.0677
 1741SOL    HW116859   2.861   3.950   4.552 -1.2632 -2.8929  0.8820
 1741SOL    HW216860   2.855   3.950   4.404  0.3859 -1.5154 -1.1748
 1742SOL     OW16861   1.821   2.982   6.282 -0.2233  0.3747  0.2690
 1742SOL    HW116862   1.772   2.905   6.255  1.7139 -1.2895  1.5511
 1742SOL    HW216863   1.806   2.986   6.376 -2.6728 -0.2844 -0.1089
 1743SOL     OW16864   1.891   1.068   5.557 -0.4061  0.0000 -0.0963
 1743SOL    HW116865   1.840   1.137   5.600 -0.1114  0.7712 -0.9794
 1743SOL    HW216866   1.828   1.035   5.493 -0.6053  1.0796 -0.4531
 1744SOL     OW16867   0.052   4.351   8.247 -0.4297 -0.0426 -0.0349
 1744SOL    HW116868   4.717   4.398   8.203 -0.0687 -0.6406 -1.2712
 1744SOL    HW216869   0.032   4.258   8.244 -0.0094 -0.1459  0.4495
 1745SOL     OW16870   1.918   1.817   7.259 -0.2649  0.3602  0.0884
 1745SOL    HW116871   1.840   1.872   7.256 -0.7715 -0.3064  1.1334
 1745SOL    HW216872   1.992   1.874   7.237 -0.3804  0.1831 -0.7882
 1746SOL     OW16873   1.194   3.519  10.213 -0.1351 -0.4548 -0.2116
 1746SOL    HW116874   1.242   3.479  10.285  0.1132 -0.6358 -0.4760
 1746SOL    HW216875   1.110   3.543  10.252 -0.6948 -1.7095 -0.6340
 1747SOL     OW16876   1.256   0.024   7.573  0.5173 -0.0368  0.4486
 1747SOL    HW116877   1.311   4.686   7.550 -2.0159 -1.8719  0.3771
 1747SOL    HW216878   1.230   0.064   7.490  2.1686 -0.0467 -0.0677
 1748SOL     OW16879   3.537   1.751   1.145  0.2690 -0.4667 -0.1300
 1748SOL    HW116880   3.490   1.751   1.229 -1.5369 -2.1794 -1.1411
 1748SOL    HW216881   3.464   1.760   1.084 -0.2187  1.1342  0.6732
 1749SOL     OW16882   2.735   4.625   4.084  0.0471 -0.0528  0.3504
 1749SOL    HW116883   2.692   4.544   4.059 -0.9844  0.0200  1.9291
 1749SOL    HW216884   2.788   4.650   4.007  0.4291 -1.1941  0.2360
 1750SOL     OW16885   3.154   4.434  16.657  0.2828 -0.1379  0.1022
 1750SOL    HW116886   3.214   4.485  16.602 -1.3993  0.2240 -1.3880
 1750SOL    HW216887   3.190   4.345  16.663 -0.0249 -0.1553  1.7464
 1751SOL     OW16888   4.599   1.529   6.893  0.4178 -0.1699  0.1872
 1751SOL    HW116889   4.545   1.482   6.830  2.0040 -0.0236 -1.2987
 1751SOL    HW216890   4.540   1.531   6.968  0.1582 -1.0773  0.0038
 1752SOL     OW16891   3.795   4.212   0.061  0.0751 -0.2940  0.1582
 1752SOL    HW116892   3.865   4.276   0.045  1.6626 -1.8665  0.7471
 1752SOL    HW216893   3.781   4.195  17.714 -1.3969  0.6994  0.2051
 1753SOL     OW16894   3.185   1.964   3.340 -0.0557 -0.0668  0.3221
 1753SOL    HW116895   3.146   2.007   3.264 -0.9463  0.4549  1.0557
 1753SOL    HW216896   3.109   1.951   3.397  0.2990 -2.4622  0.2380
 1754SOL     OW16897   0.827   0.102   3.576 -0.3816  0.2800 -0.0416
 1754SOL    HW116898   0.761   0.114   3.643 -2.7519 -1.4169 -2.0668
 1754SOL    HW216899   0.775   0.122   3.498  1.3978 -0.7990 -1.5097
 1755SOL     OW16900   1.239   0.809   5.380 -0.0198  0.2112  0.7051
 1755SOL    HW116901   1.256   0.785   5.471 -0.5756  2.2588  1.3509
 1755SOL    HW216902   1.221   0.722   5.345  1.5095  0.7184 -1.3168
 1756SOL     OW16903   2.757   0.563   8.971  0.0715  0.0541 -0.0199
 1756SOL    HW116904   2.672   0.525   8.951 -0.9558  2.1458  0.3830
 1756SOL    HW216905   2.744   0.628   9.039 -1.5682  1.9792 -2.1773
 1757SOL     OW16906   1.043   3.707   5.769  0.2895  0.5580 -0.3041
 1757SOL    HW116907   0.968   3.718   5.827  1.4418 -0.4876  1.3723
 1757SOL    HW216908   1.108   3.768   5.802  0.9137 -0.5676  0.5437
 1758SOL     OW16909   1.985   2.616   3.008 -0.0409 -0.4563 -0.0966
 1758SOL    HW116910   1.996   2.521   3.000  1.1107 -0.4266  1.0556
 1758SOL    HW216911   2.073   2.621   3.045  0.4423  1.3280 -1.5148
 1759SOL     OW16912   2.641   1.911   8.101 -0.1283  0.0048  0.3810
 1759SOL    HW116913   2.711   1.926   8.037  0.5958 -2.9796  0.4716
 1759SOL    HW216914   2.607   1.826   8.073 -2.9720  0.8294  1.2563
 1760SOL     OW16915   0.063   3.945   7.913  0.4528  0.4540  0.1313
 1760SOL    HW116916   0.105   3.908   7.991  0.8451 -1.2580 -0.8943
 1760SOL    HW216917   0.017   3.864   7.895  0.3489  0.5219  0.0927
 1761SOL     OW16918   0.614   2.379  10.311  0.3541  0.2562  0.1334
 1761SOL    HW116919   0.596   2.396  10.403 -1.4392 -1.3704  0.0823
 1761SOL    HW216920   0.653   2.292  10.322 -0.5838  0.3802  4.2217
 1762SOL     OW16921   2.222   3.695   8.475 -0.6648  0.8529 -0.1248
 1762SOL    HW116922   2.301   3.665   8.519 -0.8411  1.8915  0.8957
 1762SOL    HW216923   2.153   3.658   8.530 -0.9697 -0.6536 -1.5273
 1763SOL     OW16924   0.351   0.120   7.199  0.1044 -0.1782  0.0918
 1763SOL    HW116925   0.339   0.192   7.261 -0.1477 -0.2677  0.1434
 1763SOL    HW216926   0.370   0.173   7.121 -1.4365 -0.4575 -0.4726
 1764SOL     OW16927   0.160   2.906  12.834 -0.7640 -0.0926 -0.2761
 1764SOL    HW116928   0.252   2.881  12.828  0.2540  3.6077 -0.1893
 1764SOL    HW216929   0.160   2.943  12.923  0.1615  0.6701 -0.6033
 1765SOL     OW16930   1.031   1.648   8.912  0.4926 -0.0825 -0.5884
 1765SOL    HW116931   0.960   1.584   8.921  3.0841 -2.6434  1.5046
 1765SOL    HW216932   1.043   1.657   8.817  0.8783 -1.8657 -0.7162
 1766SOL     OW16933   0.363   2.938   9.198  0.3729 -0.4043  0.0721
 1766SOL    HW116934   0.411   3.005   9.148 -0.0795  0.4916  0.8308
 1766SOL    HW216935   0.270   2.954   9.178  0.5665  1.1340  0.4035
 1767SOL     OW16936   3.880   4.501   7.696 -0.4655  0.4309  0.5326
 1767SOL    HW116937   3.862   4.585   7.739 -1.0246 -0.1528  1.4379
 1767SOL    HW216938   3.962   4.520   7.651 -0.6315  0.8436  0.3980
 1768SOL     OW16939   0.853   3.370   6.629 -0.0793  0.5060  0.1501
 1768SOL    HW116940   0.858   3.274   6.629 -0.7456  0.4660  0.3860
 1768SOL    HW216941   0.852   3.397   6.721  0.1346 -1.9745  0.8829
 1769SOL     OW16942   2.103   3.731   6.076 -0.5530  0.2439  0.0769
 1769SOL    HW116943   2.124   3.746   6.169  1.9107 -0.5747 -0.3337
 1769SOL    HW216944   2.138   3.642   6.066  0.3470  0.7270 -0.9687
 1770SOL     OW16945   1.625   1.026   7.720  0.3467  0.4248  0.3336
 1770SOL    HW116946   1.720   1.041   7.722  0.4716 -0.7033  2.5885
 1770SOL    HW216947   1.612   0.932   7.727 -1.1753  0.5550 -0.8031
 1771SOL     OW16948   0.223   1.378   8.911 -0.2284  0.0026  0.1681
 1771SOL    HW116949   0.228   1.357   9.005 -0.3515  0.8337  0.3619
 1771SOL    HW216950   0.313   1.404   8.891 -0.4876  0.8984  0.1460
 1772SOL     OW16951   3.630   2.323   5.310  0.6060 -0.1874 -0.7914
 1772SOL    HW116952   3.557   2.342   5.370 -0.3833 -0.9644 -1.7452
 1772SOL    HW216953   3.588   2.266   5.246 -1.4153  0.3579  0.0201
 1773SOL     OW16954   2.967   3.824   0.318 -0.4101 -0.0140  0.2125
 1773SOL    HW116955   2.935   3.736   0.338 -1.3645  0.7523  2.0295
 1773SOL    HW216956   3.021   3.840   0.396 -1.1073  4.8157 -0.2866
 1774SOL     OW16957   0.272   1.589   7.912  0.0263 -0.5222  0.0947
 1774SOL    HW116958   0.331   1.659   7.884 -1.1985  0.2628 -0.4971
 1774SOL    HW216959   0.259   1.616   8.003  0.8626 -1.7755  0.5803
 1775SOL     OW16960   4.292   3.040   5.161 -0.6561 -0.2633  0.0408
 1775SOL    HW116961   4.282   3.134   5.179 -0.3383 -0.2617  0.2088
 1775SOL    HW216962   4.335   3.005   5.239 -1.5609  0.0169  0.6745
 1776SOL     OW16963   3.374   2.511   1.672 -0.0256 -0.0686  0.1261
 1776SOL    HW116964   3.341   2.537   1.758  0.1176  0.2603  0.0818
 1776SOL    HW216965   3.390   2.418   1.681  0.7269  0.2442  2.0563
 1777SOL     OW16966   2.892   3.467   8.589 -0.6391  0.2509 -1.0160
 1777SOL    HW116967   2.898   3.518   8.669 -1.0308 -1.8562  0.3611
 1777SOL    HW216968   2.882   3.380   8.628  1.0323  0.5088 -0.0114
 1778SOL     OW16969   0.254   1.941   2.252 -0.0558  0.5893 -0.0167
 1778SOL    HW116970   0.243   1.847   2.268  2.0720  0.0334 -1.7261
 1778SOL    HW216971   0.247   1.952   2.157  0.2338  0.6117 -0.0348
 1779SOL     OW16972   3.399   1.238  16.501  0.4229 -0.5099 -0.4185
 1779SOL    HW116973   3.482   1.257  16.545  1.0357  0.2133 -1.9027
 1779SOL    HW216974   3.334   1.295  16.543 -0.8479  0.8055 -4.1979
 1780SOL     OW16975   1.021   3.009   7.948  0.0822 -0.5352 -0.0720
 1780SOL    HW116976   1.101   3.022   8.000  1.2487 -1.3624 -1.6733
 1780SOL    HW216977   1.061   2.959   7.878 -1.5123 -1.9975  0.0594
 1781SOL     OW16978   3.718   4.299   0.825 -0.0364 -0.3420  0.0472
 1781SOL    HW116979   3.693   4.361   0.894 -3.1710 -4.2391  2.3728
 1781SOL    HW216980   3.627   4.284   0.799  0.2547 -1.9929  0.0066
 1782SOL     OW16981   3.272   2.110   1.617  0.7302 -0.0551  0.0171
 1782SOL    HW116982   3.330   2.184   1.638 -0.2943  1.3514 -2.1048
 1782SOL    HW216983   3.218   2.142   1.545  0.3052 -1.1802 -0.1547
 1783SOL     OW16984   0.255   0.962  11.429 -0.2262  0.6262  0.1546
 1783SOL    HW116985   0.245   0.946  11.523  1.5426  0.6778  0.3593
 1783SOL    HW216986   0.218   0.883  11.391  2.0508  0.2635 -1.2761
 1784SOL     OW16987   2.631   4.365   0.342  0.6653 -0.1018 -0.6726
 1784SOL    HW116988   2.570   4.292   0.352  1.4215 -0.4663  1.2141
 1784SOL    HW216989   2.692   4.324   0.281  1.0210 -1.1337  0.3755
 1785SOL     OW16990   0.160   1.305   0.389  0.3429  0.7095  0.1665
 1785SOL    HW116991   0.074   1.342   0.373  1.8878  3.9408 -0.7515
 1785SOL    HW216992   0.202   1.325   0.305 -0.4032  0.0012 -0.3655
 1786SOL     OW16993   0.661   4.098  11.483 -0.0383  0.4840 -0.3497
 1786SOL    HW116994   0.683   4.176  11.534  2.0714 -0.4201  0.1517
 1786SOL    HW216995   0.749   4.061  11.470  0.3618  0.9787  0.9933
 1787SOL     OW16996   1.747   0.964   8.669 -0.9430 -0.1330 -0.0076
 1787SOL    HW116997   1.754   1.053   8.635 -0.5808 -0.4261 -0.7080
 1787SOL    HW216998   1.654   0.958   8.690 -1.1144 -0.3356 -0.8070
 1788SOL     OW16999   3.388   1.865   0.861 -0.1042  0.3690  0.3769
 1788SOL    HW117000   3.473   1.884   0.822 -0.2137  0.7764  0.3446
 1788SOL    HW217001   3.345   1.820   0.788  0.1843  1.6365 -0.5801
 1789SOL     OW17002   4.494   1.971   0.490 -0.5986 -0.3092  0.1571
 1789SOL    HW117003   4.469   1.988   0.581 -0.1976 -0.5004  0.3035
 1789SOL    HW217004   4.412   1.988   0.443 -0.5504  0.4962  0.3718
 1790SOL     OW17005   3.958   2.881   2.174  0.5135  0.1800 -0.1442
 1790SOL    HW117006   3.903   2.943   2.220 -4.4003 -2.3591 -2.5728
 1790SOL    HW217007   3.921   2.884   2.085 -0.3177 -0.2726  0.1890
 1791SOL     OW17008   0.733   0.386   3.929 -0.3456  0.1555 -0.5545
 1791SOL    HW117009   0.639   0.401   3.937 -0.2885  1.2910 -2.3152
 1791SOL    HW217010   0.736   0.295   3.959 -0.8466  0.4117  0.2769
 1792SOL     OW17011   4.457   1.351   6.723 -0.0560  0.5601 -0.3213
 1792SOL    HW117012   4.427   1.267   6.687  0.6367  1.1616 -2.2971
 1792SOL    HW217013   4.551   1.335   6.710 -0.5050 -2.8733  0.7239
 1793SOL     OW17014   1.390   1.320  12.367  0.0290  0.2369  0.8066
 1793SOL    HW117015   1.355   1.262  12.300 -2.1081  0.3809  1.7906
 1793SOL    HW217016   1.420   1.390  12.309 -0.0414 -0.7465 -0.4218
 1794SOL     OW17017   3.182   1.347   4.823  0.3936  0.2003 -0.2029
 1794SOL    HW117018   3.089   1.323   4.822  0.2476  0.7186  2.1764
 1794SOL    HW217019   3.174   1.430   4.776 -2.0697  0.4131  0.5847
 1795SOL     OW17020   3.950   2.439   4.648 -0.1572 -0.3638 -0.2146
 1795SOL    HW117021   3.974   2.475   4.734  2.5529  0.7853 -1.4599
 1795SOL    HW217022   3.928   2.354   4.685 -3.5077  1.3498  1.7090
 1796SOL     OW17023   3.104   1.643   3.586  0.2039 -0.0656  0.6793
 1796SOL    HW117024   3.167   1.631   3.657  0.7757 -3.2596 -0.3666
 1796SOL    HW217025   3.082   1.733   3.609 -2.2257 -0.9756  1.9540
 1797SOL     OW17026   2.093   2.149   5.777  0.0922  0.5734  0.9221
 1797SOL    HW117027   2.154   2.086   5.737 -0.0521  0.6666  0.5562
 1797SOL    HW217028   2.123   2.141   5.868  0.6394 -1.7521  0.5476
 1798SOL     OW17029   3.840   1.042   5.338  0.0045  0.8628  0.1031
 1798SOL    HW117030   3.866   0.952   5.359 -0.6481  0.1998 -1.9095
 1798SOL    HW217031   3.922   1.090   5.348  1.4078 -1.4164 -0.3573
 1799SOL     OW17032   2.071   3.998   3.345  0.0717  0.1148 -0.7131
 1799SOL    HW117033   2.121   4.064   3.297  3.6746 -2.1390 -0.1010
 1799SOL    HW217034   2.125   3.919   3.335 -2.3085 -1.5747 -0.2522
 1800SOL     OW17035   2.828   1.711   2.075  0.8494  0.4648 -0.3501
 1800SOL    HW117036   2.780   1.792   2.092  2.2892  0.9973  1.2058
 1800SOL    HW217037   2.879   1.738   1.999 -0.0617  1.7470 -0.5157
 1801SOL     OW17038   3.318   3.537   6.152  0.2495 -0.0119 -0.1756
 1801SOL    HW117039   3.255   3.487   6.100 -1.1173  0.9121  0.5814
 1801SOL    HW217040   3.309   3.620   6.104  3.5675  0.5868  0.2411
 1802SOL     OW17041   3.192   1.529   9.476  0.6684 -0.1329  0.0385
 1802SOL    HW117042   3.197   1.546   9.570  0.1215  1.4221 -0.2169
 1802SOL    HW217043   3.272   1.573   9.446  0.3232  0.7115  0.3858
 1803SOL     OW17044   1.475   1.159   6.846 -0.2477 -0.6781  0.2365
 1803SOL    HW117045   1.513   1.234   6.799 -0.9518 -0.4319  0.0575
 1803SOL    HW217046   1.381   1.171   6.834 -0.1494 -0.3248 -0.1871
 1804SOL     OW17047   2.675   4.233  15.719  0.1960 -0.1968  0.1668
 1804SOL    HW117048   2.681   4.184  15.636  0.4582 -0.7598  0.5178
 1804SOL    HW217049   2.749   4.192  15.765  0.0727  0.0627  0.5947
 1805SOL     OW17050   0.783   4.677   7.077  0.2067  0.1640  0.2807
 1805SOL    HW117051   0.700   4.654   7.119 -0.2381  0.1440 -0.6165
 1805SOL    HW217052   0.840   4.626   7.134 -1.2800  0.2927  1.8731
 1806SOL     OW17053   1.145   1.183   7.925 -0.2575  0.4019 -0.5765
 1806SOL    HW117054   1.238   1.175   7.906 -0.1905 -0.0634 -0.0551
 1806SOL    HW217055   1.149   1.276   7.948 -0.7482 -0.0515  1.3514
 1807SOL     OW17056   3.998   1.854   9.098  0.5605  0.1158  0.2399
 1807SOL    HW117057   4.051   1.775   9.104 -0.4212 -0.6389 -0.9485
 1807SOL    HW217058   3.966   1.847   9.008  0.3966 -1.8693  0.4497
 1808SOL     OW17059   2.191   0.280   7.147  0.4115 -0.5902  0.8999
 1808SOL    HW117060   2.140   0.318   7.075  0.7890 -0.0499  0.9141
 1808SOL    HW217061   2.235   0.215   7.092 -0.4863 -0.9751  0.6381
 1809SOL     OW17062   3.746   2.622  13.458 -0.3621  0.3071 -0.0297
 1809SOL    HW117063   3.659   2.582  13.462  0.0033 -0.4342  0.5893
 1809SOL    HW217064   3.773   2.602  13.368 -0.3580  0.2539 -0.0165
 1810SOL     OW17065   1.245   4.472  14.011  0.0419  0.2097 -0.6199
 1810SOL    HW117066   1.251   4.428  13.926  2.8733 -1.0862  0.2836
 1810SOL    HW217067   1.319   4.532  14.002  1.2920 -1.4744 -1.4599
 1811SOL     OW17068   4.402   3.028   7.164  0.2442  0.2095 -0.3615
 1811SOL    HW117069   4.464   3.051   7.234 -1.9427  0.7334  1.3807
 1811SOL    HW217070   4.419   2.935   7.150 -2.5690 -0.2846 -0.4827
 1812SOL     OW17071   1.375   3.942   2.877 -1.0810 -0.2096  0.5606
 1812SOL    HW117072   1.330   4.020   2.909  2.5387  2.3485 -0.5226
 1812SOL    HW217073   1.415   3.921   2.961 -0.4995 -0.0868  0.3152
 1813SOL     OW17074   3.917   3.980   7.180  0.3085 -0.4078  0.2575
 1813SOL    HW117075   3.916   3.939   7.266 -0.2467  1.9982  1.3914
 1813SOL    HW217076   3.965   3.911   7.134  0.6614  1.5718 -2.3727
 1814SOL     OW17077   3.288   1.303   0.253  0.7050 -0.0017 -0.1075
 1814SOL    HW117078   3.357   1.312   0.319  1.4504 -1.5886 -0.6675
 1814SOL    HW217079   3.222   1.372   0.260 -1.3748 -1.8356 -1.6302
 1815SOL     OW17080   4.048   3.450   3.514  0.6519 -0.2060  0.4128
 1815SOL    HW117081   4.133   3.487   3.488  1.4024 -2.7911 -0.8342
 1815SOL    HW217082   4.028   3.394   3.439 -2.2691 -0.0100  1.0500
 1816SOL     OW17083   2.425   2.164   4.596  0.0186  0.1577  0.2124
 1816SOL    HW117084   2.434   2.078   4.637 -3.1472  0.8230  2.3238
 1816SOL    HW217085   2.497   2.216   4.632 -0.8161  0.4063  1.5450
 1817SOL     OW17086   0.706   2.930   9.946  0.3803  0.3540 -0.3148
 1817SOL    HW117087   0.800   2.914   9.946 -0.0904 -2.4521  0.2475
 1817SOL    HW217088   0.686   2.942   9.853  0.3107  1.6684 -0.1327
 1818SOL     OW17089   2.804   3.815   2.691 -0.6119  0.0828 -0.1271
 1818SOL    HW117090   2.781   3.890   2.746  2.0882 -2.0705  3.9841
 1818SOL    HW217091   2.804   3.746   2.758  3.2363  0.4299  0.2480
 1819SOL     OW17092   0.509   2.729  16.600  0.6822 -0.5905 -0.8609
 1819SOL    HW117093   0.582   2.786  16.626 -0.1611  0.5093 -0.9129
 1819SOL    HW217094   0.434   2.788  16.596  2.4266  1.7906  1.5086
 1820SOL     OW17095   2.463   2.151   6.479  0.2101  0.0997 -0.0341
 1820SOL    HW117096   2.376   2.134   6.444  0.2859  0.8542 -0.6050
 1820SOL    HW217097   2.478   2.058   6.491 -2.4239 -0.1149  1.4598
 1821SOL     OW17098   3.445   0.744  13.394  0.9583  0.3767  0.0836
 1821SOL    HW117099   3.456   0.839  13.407  0.0064  0.5095 -0.0550
 1821SOL    HW217100   3.427   0.713  13.483 -0.3705 -2.4500 -1.2024
 1822SOL     OW17101   3.110   0.888  15.141  0.1693 -0.2941  0.4517
 1822SOL    HW117102   3.048   0.935  15.198 -0.9208  0.1628 -1.1185
 1822SOL    HW217103   3.072   0.801  15.143  0.1775 -0.3014  0.3077
 1823SOL     OW17104   2.222   0.938  12.187 -0.0442 -0.2473  0.5145
 1823SOL    HW117105   2.274   0.998  12.134 -0.0179 -1.7810 -1.1900
 1823SOL    HW217106   2.186   0.875  12.125 -1.6432 -0.0188  1.2019
 1824SOL     OW17107   3.039   2.337   4.707  0.0306  0.3854 -0.4202
 1824SOL    HW117108   3.012   2.295   4.626  1.0093 -1.6091  0.2910
 1824SOL    HW217109   3.067   2.261   4.758 -0.0949  1.3091  1.0520
 1825SOL     OW17110   3.153   3.033   5.286 -0.3319 -0.4304  0.1031
 1825SOL    HW117111   3.227   3.027   5.346 -0.2357 -0.9358 -0.0623
 1825SOL    HW217112   3.075   3.021   5.341 -0.8323  1.6466 -0.1740
 1826SOL     OW17113   2.837   4.253  16.760  0.4696 -0.4665 -0.5859
 1826SOL    HW117114   2.883   4.287  16.837  0.6194  1.0104 -1.3238
 1826SOL    HW217115   2.852   4.321  16.694  0.6809 -0.6688 -0.7477
 1827SOL     OW17116   3.564   1.460   2.865  0.4478 -0.0682 -0.4965
 1827SOL    HW117117   3.486   1.451   2.921 -0.9947  0.7973 -2.3569
 1827SOL    HW217118   3.528   1.487   2.780  0.6291  2.6401  0.2877
 1828SOL     OW17119   0.400   3.500   3.098  0.8963  0.5018 -0.0234
 1828SOL    HW117120   0.363   3.440   3.163 -1.7147 -1.5531 -3.4410
 1828SOL    HW217121   0.415   3.578   3.151 -1.6045  0.0639  1.3496
 1829SOL     OW17122   4.237   3.735   8.358  0.0305 -0.0095 -0.0443
 1829SOL    HW117123   4.153   3.775   8.334 -0.5912 -0.7000  1.0097
 1829SOL    HW217124   4.219   3.720   8.450  0.8727  0.8218  0.2622
 1830SOL     OW17125   2.174   1.756  15.309  0.0747  0.8424 -0.5923
 1830SOL    HW117126   2.263   1.790  15.305  0.0140  1.1453  0.3936
 1830SOL    HW217127   2.139   1.791  15.227  0.0232  0.8800 -0.5543
 1831SOL     OW17128   3.722   1.813  16.521  0.0926 -0.0798 -0.2703
 1831SOL    HW117129   3.798   1.787  16.574 -0.0159 -1.8004 -0.9635
 1831SOL    HW217130   3.770   1.801  16.440 -0.2635 -3.2929 -0.0259
 1832SOL     OW17131   2.681   2.046   1.823 -0.7794  0.7061 -0.1194
 1832SOL    HW117132   2.630   1.965   1.818  2.3154 -1.2902  0.4783
 1832SOL    HW217133   2.605   2.104   1.824 -0.4177  1.1524  1.7225
 1833SOL     OW17134   4.261   0.619   7.493 -0.5241  0.3866 -0.2805
 1833SOL    HW117135   4.179   0.630   7.541 -0.4269  3.1882 -0.7785
 1833SOL    HW217136   4.228   0.612   7.403 -1.5075 -0.8900  0.1751
 1834SOL     OW17137   1.535   2.770  11.747 -0.3323  0.4157 -0.3789
 1834SOL    HW117138   1.480   2.751  11.671 -0.6148  1.1425 -0.3476
 1834SOL    HW217139   1.509   2.860  11.761 -0.1501  0.1921  1.4058
 1835SOL     OW17140   0.394   2.819   8.137 -0.0821  0.2395  0.9065
 1835SOL    HW117141   0.340   2.873   8.080 -0.4887 -0.6845  0.4167
 1835SOL    HW217142   0.459   2.792   8.072  0.4807  2.3631  0.6117
 1836SOL     OW17143   3.075   2.785   6.805  0.1886 -0.6817 -0.4158
 1836SOL    HW117144   3.105   2.708   6.757 -1.2137 -1.6206  0.2031
 1836SOL    HW217145   3.000   2.744   6.849 -1.4665  0.3212 -2.3053
 1837SOL     OW17146   0.181   3.681   9.790  0.3044 -0.0581  0.0370
 1837SOL    HW117147   0.188   3.776   9.797  0.5322 -0.3713  3.9541
 1837SOL    HW217148   0.256   3.659   9.734  0.1741 -1.5685  0.4658
 1838SOL     OW17149   0.086   2.676   1.767 -0.3447  0.3306  0.6163
 1838SOL    HW117150   0.074   2.582   1.752  0.8656  0.3033 -0.2028
 1838SOL    HW217151   0.004   2.710   1.732 -0.8492 -1.0219  0.5195
 1839SOL     OW17152   0.935   1.058   4.295  0.0822  0.1698  0.2775
 1839SOL    HW117153   0.995   1.072   4.222 -0.1149 -0.1057  0.0664
 1839SOL    HW217154   0.852   1.030   4.258  1.1766 -3.0051  0.2402
 1840SOL     OW17155   0.187   2.975  16.958 -0.3550  0.9039 -0.0635
 1840SOL    HW117156   0.231   3.053  16.923 -2.1674  1.6938 -0.5707
 1840SOL    HW217157   0.260   2.928  16.999 -0.0392  0.5450 -1.0518
 1841SOL     OW17158   4.672   0.484   3.341 -0.2379 -0.7785 -0.2001
 1841SOL    HW117159   4.587   0.447   3.318 -1.6097  3.1911 -1.5658
 1841SOL    HW217160   4.635   0.520   3.421 -0.4065  2.3307 -1.6730
 1842SOL     OW17161   3.939   1.369   6.315  0.3155  0.0154  0.0015
 1842SOL    HW117162   3.993   1.334   6.244  0.1518 -0.9257  0.3447
 1842SOL    HW217163   3.995   1.368   6.392  2.5055  0.0352 -1.5980
 1843SOL     OW17164   4.365   2.369   3.816 -0.5866  0.2788  0.0021
 1843SOL    HW117165   4.397   2.355   3.726  0.5125  1.6531  0.1787
 1843SOL    HW217166   4.419   2.444   3.842  1.4048 -0.8423 -0.8996
 1844SOL     OW17167   1.928   1.722  16.367  0.0153 -0.4487 -0.6443
 1844SOL    HW117168   1.867   1.650  16.353 -0.2857 -0.0851 -1.2072
 1844SOL    HW217169   1.870   1.777  16.419  0.9332  0.7954 -0.9334
 1845SOL     OW17170   3.481   3.387   6.295  0.5815 -0.5109 -0.2938
 1845SOL    HW117171   3.435   3.309   6.266  0.0831 -0.7355  1.1103
 1845SOL    HW217172   3.426   3.451   6.251  2.7727  2.6270  1.5263
 1846SOL     OW17173   1.827   0.488  11.657 -0.0775  0.5955  0.2345
 1846SOL    HW117174   1.883   0.426  11.612 -1.1162  0.5454 -1.0100
 1846SOL    HW217175   1.832   0.445  11.742 -0.7499  1.3863  0.6731
 1847SOL     OW17176   1.996   4.734   1.438 -0.5314  0.1815 -0.6562
 1847SOL    HW117177   2.089   4.719   1.426 -0.5745  0.9705 -1.9423
 1847SOL    HW217178   2.007   0.045   1.520 -0.3099  1.2955 -1.3301
 1848SOL     OW17179   4.375   1.218  13.168 -0.3020  0.0210 -0.4202
 1848SOL    HW117180   4.285   1.226  13.137  0.1251  0.1524 -1.6378
 1848SOL    HW217181   4.358   1.198  13.260 -1.4331  1.2418 -0.3551
 1849SOL     OW17182   0.638   2.843   5.646  0.5096 -0.4207 -0.5009
 1849SOL    HW117183   0.581   2.915   5.675  2.2362  0.9741 -0.6173
 1849SOL    HW217184   0.675   2.823   5.732  1.0987 -0.4381 -0.7595
 1850SOL     OW17185   0.964   1.423   3.104  0.1766  0.0924 -0.3923
 1850SOL    HW117186   0.881   1.386   3.136 -0.2682  1.3947 -0.0356
 1850SOL    HW217187   1.028   1.363   3.143  0.3512  0.4910 -0.0707
 1851SOL     OW17188   4.475   0.512   0.731 -0.3722  0.0234 -0.0174
 1851SOL    HW117189   4.403   0.500   0.669 -0.5179  1.0211 -0.0421
 1851SOL    HW217190   4.508   0.593   0.692  0.5272 -0.0124  0.6762
 1852SOL     OW17191   0.196   2.883   4.698 -0.1144  0.0939 -0.0561
 1852SOL    HW117192   0.121   2.905   4.642  1.5427  4.5796 -0.4582
 1852SOL    HW217193   0.217   2.968   4.735  1.0703 -0.2987  0.1732
 1853SOL     OW17194   4.158   2.313   3.626  0.1333  0.1488 -0.1583
 1853SOL    HW117195   4.160   2.406   3.602 -0.1194  0.3344  0.5179
 1853SOL    HW217196   4.206   2.330   3.707 -2.3056  0.7894  1.1551
 1854SOL     OW17197   4.390   2.880   9.232 -0.1683  0.0546 -0.6887
 1854SOL    HW117198   4.351   2.800   9.267 -1.2296  0.9501  0.1810
 1854SOL    HW217199   4.314   2.916   9.186 -0.9396  0.7326  1.0951
 1855SOL     OW17200   3.214   3.202   8.208  0.2370  0.0766 -0.5650
 1855SOL    HW117201   3.167   3.244   8.280 -0.2078 -0.9020 -0.2846
 1855SOL    HW217202   3.288   3.161   8.251  1.5481  0.3904 -2.5313
 1856SOL     OW17203   1.114   3.232   2.616  0.4693 -0.0838 -0.4610
 1856SOL    HW117204   1.113   3.140   2.642  1.3470 -0.6336 -2.3409
 1856SOL    HW217205   1.113   3.279   2.699 -1.3347 -0.8775 -0.0460
 1857SOL     OW17206   2.070   0.145   4.815 -0.4582  0.4950 -0.1397
 1857SOL    HW117207   2.053   0.239   4.811 -2.6562  0.0782 -0.7199
 1857SOL    HW217208   2.078   0.131   4.720 -0.0725 -0.2291  0.0043
 1858SOL     OW17209   2.845   0.202   6.983 -0.1582 -0.7782 -0.1022
 1858SOL    HW117210   2.758   0.237   6.999 -1.2014 -2.8066 -1.3711
 1858SOL    HW217211   2.900   0.281   6.987 -0.8264 -0.1810 -2.9303
 1859SOL     OW17212   1.441   0.227  14.996  0.1186  0.7178 -0.0625
 1859SOL    HW117213   1.532   0.237  14.966 -0.0372  0.7655 -0.5262
 1859SOL    HW217214   1.395   0.307  14.970 -1.1146 -0.0400 -0.2238
 1860SOL     OW17215   0.225   3.946   3.128  0.0049  0.1115 -0.7659
 1860SOL    HW117216   0.151   3.903   3.171  0.2294  1.8518  1.3618
 1860SOL    HW217217   0.259   3.870   3.080 -0.2098  0.2471 -1.1347
 1861SOL     OW17218   2.126   3.569   7.675  0.3468 -0.6140 -0.1901
 1861SOL    HW117219   2.131   3.579   7.770  0.8101 -0.7541 -0.2048
 1861SOL    HW217220   2.210   3.531   7.652  0.1266 -0.2167 -1.6608
 1862SOL     OW17221   2.977   1.857   6.713  0.3094  0.5752  0.0835
 1862SOL    HW117222   3.062   1.859   6.670  1.0843  0.0356  1.5726
 1862SOL    HW217223   2.924   1.809   6.649  0.1061  1.6605 -0.5641
 1863SOL     OW17224   0.257   0.822  12.025 -0.2144  0.0660  0.3837
 1863SOL    HW117225   0.191   0.890  12.013 -1.1100 -0.7529  0.5654
 1863SOL    HW217226   0.219   0.752  11.972 -2.0013  1.2269  0.1389
 1864SOL     OW17227   2.536   4.235   7.470 -0.0858  0.0764  0.0355
 1864SOL    HW117228   2.533   4.158   7.527 -0.7136  0.6112  0.7382
 1864SOL    HW217229   2.585   4.199   7.397 -2.2499  1.3815 -2.0791
 1865SOL     OW17230   4.531   0.677   1.837 -0.0963  0.4024 -0.1670
 1865SOL    HW117231   4.578   0.715   1.763  2.9502  1.7136  2.3876
 1865SOL    HW217232   4.447   0.723   1.831 -0.2792  0.1861  0.7043
 1866SOL     OW17233   3.709   1.471  10.711  0.2624  0.1917  0.1036
 1866SOL    HW117234   3.691   1.495  10.802 -3.7734  0.7700 -0.8295
 1866SOL    HW217235   3.804   1.481  10.706  0.1954  1.0290  0.6510
 1867SOL     OW17236   4.405   1.718   9.916  0.1388 -0.0869  0.2108
 1867SOL    HW117237   4.427   1.667   9.994  0.2549  1.1083  0.9668
 1867SOL    HW217238   4.322   1.675   9.893  0.0548  1.2850 -2.1136
 1868SOL     OW17239   1.518   0.391   3.633  0.3276 -0.1621 -0.2453
 1868SOL    HW117240   1.556   0.453   3.570 -1.0300 -0.1699 -1.0753
 1868SOL    HW217241   1.470   0.454   3.687 -2.3023 -1.4096 -1.0854
 1869SOL     OW17242   4.717   2.054   7.558  0.3138 -0.1268 -0.5906
 1869SOL    HW117243   0.075   2.055   7.572  0.2552  2.2694 -0.4901
 1869SOL    HW217244   4.704   2.137   7.513  1.4103  1.9591  2.9962
 1870SOL     OW17245   4.285   2.083   7.396 -0.3361  0.1281 -0.0349
 1870SOL    HW117246   4.366   2.093   7.446 -0.0588  2.2269 -0.8909
 1870SOL    HW217247   4.261   1.991   7.407 -1.5397  0.2581 -1.4790
 1871SOL     OW17248   2.737   4.128   5.518 -0.1169  0.2065 -0.1176
 1871SOL    HW117249   2.642   4.122   5.511 -0.3447  1.8695  1.7107
 1871SOL    HW217250   2.747   4.216   5.483  4.1223  0.3479  1.4984
 1872SOL     OW17251   0.248   1.556  16.939 -0.4329  0.5549  0.6155
 1872SOL    HW117252   0.163   1.571  16.980  0.1545  1.9088  1.3196
 1872SOL    HW217253   0.208   1.529  16.856  1.8280 -2.4641  0.4909
 1873SOL     OW17254   4.144   3.454   8.507 -0.0810 -0.5677  0.8199
 1873SOL    HW117255   4.090   3.449   8.428  2.4320  0.2431 -0.9403
 1873SOL    HW217256   4.084   3.409   8.567 -0.6773 -0.8490  0.0012
 1874SOL     OW17257   4.109   2.855   1.374  0.4572  0.1250 -0.1937
 1874SOL    HW117258   4.155   2.885   1.295  1.6025 -0.8959  0.0906
 1874SOL    HW217259   4.173   2.874   1.442  0.6914  1.3134 -0.7523
 1875SOL     OW17260   0.759   1.561   6.405 -0.5350 -0.1379 -0.4200
 1875SOL    HW117261   0.690   1.511   6.447 -0.1788  1.2910  1.8804
 1875SOL    HW217262   0.830   1.500   6.384  2.3678  2.5923  1.4241
 1876SOL     OW17263   0.210   3.388   2.908 -0.1035 -0.0325 -0.5943
 1876SOL    HW117264   0.267   3.455   2.945  2.0783 -2.2280  0.0240
 1876SOL    HW217265   0.124   3.430   2.909 -0.5149 -0.8624  0.0616
 1877SOL     OW17266   1.771   4.264  11.924  0.3148 -0.3111  0.3656
 1877SOL    HW117267   1.720   4.272  11.843  1.9035  2.2996 -0.3561
 1877SOL    HW217268   1.801   4.353  11.942  0.3964  0.1183 -1.9255
 1878SOL     OW17269   2.906   2.271   6.090 -0.3061  0.4119  0.3760
 1878SOL    HW117270   2.994   2.265   6.125 -0.8234 -1.6774  1.2840
 1878SOL    HW217271   2.888   2.190   6.043 -0.3847 -0.0564  1.2318
 1879SOL     OW17272   2.771   2.288   7.495  0.0638 -0.2806 -0.2101
 1879SOL    HW117273   2.726   2.208   7.466  0.1533 -1.1614  2.0237
 1879SOL    HW217274   2.846   2.300   7.437  0.7008  0.6233  0.7851
 1880SOL     OW17275   0.377   0.327   9.508 -0.2094  0.0187 -0.1183
 1880SOL    HW117276   0.352   0.404   9.459  2.3193  0.6007 -0.5183
 1880SOL    HW217277   0.338   0.255   9.458  1.1477 -1.5993  1.1357
 1881SOL     OW17278   4.237   0.570   8.592  0.1437 -0.0333  0.1843
 1881SOL    HW117279   4.323   0.600   8.623  0.8461 -1.0103 -0.8099
 1881SOL    HW217280   4.176   0.643   8.599  0.7158  0.2748  1.9009
 1882SOL     OW17281   1.301   1.128   1.376 -0.0787  0.1616  0.3637
 1882SOL    HW117282   1.247   1.101   1.451  0.8010 -0.0507  0.9186
 1882SOL    HW217283   1.388   1.111   1.412  0.3404  0.6177 -0.4475
 1883SOL     OW17284   1.033   0.891   5.574 -0.2397 -0.3112  0.4037
 1883SOL    HW117285   1.080   0.860   5.497  0.8096  2.8764 -0.2281
 1883SOL    HW217286   1.101   0.879   5.641  0.8061  0.1648 -0.5763
 1884SOL     OW17287   0.367   2.303  10.720 -0.5182 -0.0137 -0.2671
 1884SOL    HW117288   0.385   2.376  10.779 -0.7728  0.5355 -0.8744
 1884SOL    HW217289   0.395   2.233  10.779 -0.9020 -0.9948 -1.2369
 1885SOL     OW17290   1.938   2.185   4.219 -0.0006  0.4300 -0.0673
 1885SOL    HW117291   1.929   2.154   4.128 -1.4345  0.2727  0.1220
 1885SOL    HW217292   1.855   2.225   4.242  1.1854  0.9016  3.3214
 1886SOL     OW17293   3.662   0.355   1.983 -0.2147 -0.0337  0.2486
 1886SOL    HW117294   3.621   0.392   2.061  1.2488  0.2783  0.8741
 1886SOL    HW217295   3.743   0.407   1.981  0.0747 -0.3988  2.3756
 1887SOL     OW17296   3.599   3.203   9.612 -0.5325 -0.6102  0.1329
 1887SOL    HW117297   3.647   3.120   9.607 -1.4760 -1.1463  0.0638
 1887SOL    HW217298   3.621   3.249   9.531 -0.8108  1.2895  1.1416
 1888SOL     OW17299   4.685   1.200  17.528 -0.8118 -0.2133 -0.1523
 1888SOL    HW117300   4.716   1.214  17.439  2.2181 -2.2046  0.5847
 1888SOL    HW217301   4.703   1.287  17.564  0.4900 -0.7060  0.4219
 1889SOL     OW17302   4.057   1.480   1.074  0.3560 -0.4875 -0.3829
 1889SOL    HW117303   4.000   1.534   1.019  2.9436 -1.0308 -3.6238
 1889SOL    HW217304   4.136   1.457   1.025  0.8955 -1.2384  0.8494
 1890SOL     OW17305   4.591   2.114  10.250 -0.7796  0.2021  0.5489
 1890SOL    HW117306   4.505   2.074  10.241 -0.0882 -1.5430  1.7441
 1890SOL    HW217307   4.589   2.109  10.345 -1.4297  1.0515  0.5821
 1891SOL     OW17308   3.630   0.679   3.195  0.1490 -0.2768  0.1343
 1891SOL    HW117309   3.655   0.713   3.109  0.5491 -1.1833 -0.1130
 1891SOL    HW217310   3.554   0.735   3.210  0.3151 -0.7601  2.6770
 1892SOL     OW17311   0.493   3.748   4.215  0.4943 -0.2329  0.0632
 1892SOL    HW117312   0.428   3.679   4.229  0.1080  0.4839  1.8197
 1892SOL    HW217313   0.573   3.714   4.256 -0.2542  0.1758  1.8827
 1893SOL     OW17314   0.508   3.684   5.229  0.0439 -0.2072  0.1288
 1893SOL    HW117315   0.491   3.697   5.135 -2.9653 -0.9027  0.5660
 1893SOL    HW217316   0.556   3.762   5.254 -0.1815 -0.9943  2.9436
 1894SOL     OW17317   4.109   4.669   3.148  0.2918  0.3328  0.0207
 1894SOL    HW117318   4.111   4.610   3.224  0.8058  0.4892  0.1329
 1894SOL    HW217319   4.084   0.016   3.187  2.1264  0.1803  1.5711
 1895SOL     OW17320   1.506   1.639  16.513 -0.5543 -0.5035  0.4393
 1895SOL    HW117321   1.411   1.644  16.526 -0.6120  1.4376 -0.7013
 1895SOL    HW217322   1.522   1.647  16.607 -2.0500  0.1675  0.6369
 1896SOL     OW17323   3.702   1.347   9.059 -0.1711  0.3717  0.2832
 1896SOL    HW117324   3.731   1.315   8.973  1.1052 -0.2085  0.9315
 1896SOL    HW217325   3.633   1.411   9.038 -0.2857 -0.4988 -2.0436
 1897SOL     OW17326   0.339   2.608  11.180  0.2685 -0.2302  0.4945
 1897SOL    HW117327   0.317   2.651  11.098 -1.2991 -0.1400  0.9538
 1897SOL    HW217328   0.422   2.653  11.195 -0.3652  1.0452  0.2501
 1898SOL     OW17329   2.545   0.406   5.646 -0.7203  0.1292  0.4436
 1898SOL    HW117330   2.510   0.495   5.654 -3.2990 -0.8872  0.5744
 1898SOL    HW217331   2.585   0.415   5.559  0.8489  3.3834  1.4783
 1899SOL     OW17332   0.576   0.989   7.321 -0.4712  0.0069 -0.2563
 1899SOL    HW117333   0.625   0.912   7.352 -0.1751  0.5834  0.6962
 1899SOL    HW217334   0.637   1.058   7.347 -2.6063  0.6595  3.1115
 1900SOL     OW17335   3.972   0.221   4.429 -0.2139 -0.3892 -0.1454
 1900SOL    HW117336   4.015   0.223   4.514 -0.4724  0.8504 -0.0537
 1900SOL    HW217337   4.050   0.240   4.376  0.8411 -2.7357  0.5739
 1901SOL     OW17338   0.364   1.868   7.942  0.0118  0.2861  0.1478
 1901SOL    HW117339   0.459   1.857   7.953  0.2803  2.5407  0.0130
 1901SOL    HW217340   0.354   1.958   7.974 -0.8955 -0.2108  1.2400
 1902SOL     OW17341   4.185   3.899   7.280  0.0753 -0.0617  0.1830
 1902SOL    HW117342   4.251   3.954   7.322  0.8124 -1.8884  1.4041
 1902SOL    HW217343   4.127   3.872   7.352  1.7020 -1.2970  1.0432
 1903SOL     OW17344   0.788   2.257  16.735  0.4998 -0.1985  0.2460
 1903SOL    HW117345   0.814   2.182  16.789  0.6901 -0.0979  0.2949
 1903SOL    HW217346   0.819   2.323  16.797 -2.8330  1.0779  0.5619
 1904SOL     OW17347   1.425   1.408  12.649 -0.4301  0.3771 -0.2466
 1904SOL    HW117348   1.378   1.334  12.687 -0.4673 -0.6266 -2.2069
 1904SOL    HW217349   1.460   1.367  12.569 -1.5203 -2.1284  0.5771
 1905SOL     OW17350   3.797   2.387   2.896 -0.1521 -0.1554  0.7371
 1905SOL    HW117351   3.801   2.408   2.803 -0.8017  0.6699  0.9001
 1905SOL    HW217352   3.703   2.390   2.913 -0.5440 -2.7250 -1.0224
 1906SOL     OW17353   2.672   0.851   5.723 -0.6022  0.0001  0.4809
 1906SOL    HW117354   2.721   0.810   5.653 -0.5678  0.8247  0.0194
 1906SOL    HW217355   2.715   0.829   5.805 -0.5246 -0.4721  0.3120
 1907SOL     OW17356   4.591   0.680  14.324  0.1098  0.3353  0.4688
 1907SOL    HW117357   4.674   0.633  14.309 -0.2230 -0.8768  2.3875
 1907SOL    HW217358   4.619   0.770  14.335 -2.0745  1.0257  0.2756
 1908SOL     OW17359   2.678   1.934   2.131  0.3942  0.3918 -0.3447
 1908SOL    HW117360   2.728   2.015   2.134 -0.5476  0.8906  1.4012
 1908SOL    HW217361   2.603   1.964   2.183  0.9138 -1.7162  1.6084
 1909SOL     OW17362   2.916   0.949   2.155 -1.1479  0.0665 -0.4300
 1909SOL    HW117363   2.909   0.961   2.249 -0.6920 -0.8721 -0.2857
 1909SOL    HW217364   2.892   0.857   2.157 -0.3931 -0.0421  2.7168
 1910SOL     OW17365   0.997   3.242   8.113  0.3369 -1.2823 -0.1712
 1910SOL    HW117366   0.980   3.169   8.054  3.0263  0.0993 -2.6282
 1910SOL    HW217367   1.091   3.246   8.093  0.0001 -1.9232 -1.8669
 1911SOL     OW17368   0.241   3.966   0.690  0.1436 -0.3534 -0.6242
 1911SOL    HW117369   0.275   3.995   0.775  1.4736  0.9395 -1.5982
 1911SOL    HW217370   0.165   4.024   0.683 -1.4708 -2.4398 -0.2535
 1912SOL     OW17371   2.931   3.977  17.416  0.5456  0.0825 -0.1178
 1912SOL    HW117372   2.953   4.069  17.426 -1.1667  0.6473 -1.4432
 1912SOL    HW217373   2.861   3.964  17.480  0.5130 -1.6191 -0.4902
 1913SOL     OW17374   1.305   0.768   1.323  0.1308 -0.3691 -0.2741
 1913SOL    HW117375   1.232   0.808   1.371  0.4722  0.6615 -0.6030
 1913SOL    HW217376   1.275   0.677   1.318  0.5365 -0.5529  0.6209
 1914SOL     OW17377   0.041   2.706   8.120 -0.1396  0.2746 -0.3294
 1914SOL    HW117378   0.060   2.657   8.200 -0.2179  1.8130  0.6343
 1914SOL    HW217379   0.098   2.660   8.059 -1.2644 -0.4262 -0.8583
 1915SOL     OW17380   4.364   4.642   3.891 -0.2626 -0.6127  0.1693
 1915SOL    HW117381   4.435   4.637   3.827  0.3933  4.6320  0.4636
 1915SOL    HW217382   4.325   4.555   3.885 -1.3977 -0.1319  0.5167
 1916SOL     OW17383   2.898   1.848   9.720 -0.2205 -0.3320  0.2598
 1916SOL    HW117384   2.809   1.878   9.701  0.3328  0.2054 -1.5383
 1916SOL    HW217385   2.941   1.854   9.634 -0.7616  2.1291  0.1645
 1917SOL     OW17386   1.267   1.335   6.414  0.0502  0.1441  0.1865
 1917SOL    HW117387   1.211   1.263   6.386 -0.4698  0.0931  1.3280
 1917SOL    HW217388   1.266   1.393   6.338  0.7261 -0.7709 -0.5091
 1918SOL     OW17389   2.558   3.112   8.260 -0.6694 -0.0957 -0.2260
 1918SOL    HW117390   2.606   3.160   8.328 -1.7787  1.5338 -0.6092
 1918SOL    HW217391   2.625   3.112   8.191 -1.7066  0.6373 -1.2117
 1919SOL     OW17392   3.168   4.661   1.311  0.2424 -0.4168 -0.1007
 1919SOL    HW117393   3.190   4.645   1.220  2.5082  0.1863  0.3353
 1919SOL    HW217394   3.235   4.724   1.338 -0.8409  1.1122 -1.0171
 1920SOL     OW17395   0.261   2.871   6.261 -0.1547 -0.4900 -0.7478
 1920SOL    HW117396   0.198   2.876   6.188  0.2292  0.4477 -1.0107
 1920SOL    HW217397   0.265   2.775   6.264 -0.8916 -0.5652 -1.9205
 1921SOL     OW17398   0.890   4.349   4.818 -0.0596  0.0088 -0.0712
 1921SOL    HW117399   0.800   4.381   4.816 -0.4433 -0.9108  1.9656
 1921SOL    HW217400   0.936   4.426   4.785  0.0275 -0.3878 -0.8680
 1922SOL     OW17401   2.552   4.396   4.542 -0.3517  0.2892  0.2896
 1922SOL    HW117402   2.513   4.317   4.579 -0.0089  0.0305  0.1012
 1922SOL    HW217403   2.501   4.409   4.462 -0.1136  0.3164  0.1432
 1923SOL     OW17404   3.701   3.563   8.181  0.3022 -0.3268  0.1268
 1923SOL    HW117405   3.613   3.600   8.185  0.4667 -0.1421  2.2831
 1923SOL    HW217406   3.684   3.503   8.108  0.2184  0.6762 -0.6701
 1924SOL     OW17407   1.919   0.534   0.172  0.4800  0.4165  0.3503
 1924SOL    HW117408   1.832   0.574   0.169 -0.4909 -1.6885  0.3025
 1924SOL    HW217409   1.904   0.453   0.221  0.2788  0.0257 -0.3491
 1925SOL     OW17410   0.676   0.190   6.920 -0.4385  0.2594  0.0080
 1925SOL    HW117411   0.703   0.145   6.840  0.5185  1.1695 -0.1769
 1925SOL    HW217412   0.714   0.139   6.991  0.3252  2.0355  0.8866
 1926SOL     OW17413   3.768   0.204   2.880  0.0229 -0.7980 -0.1689
 1926SOL    HW117414   3.860   0.201   2.857 -0.2123 -1.7259 -0.9898
 1926SOL    HW217415   3.736   0.258   2.807  0.8377  0.9441  0.7689
 1927SOL     OW17416   4.560   4.593   3.707  1.1079 -0.2647  0.3931
 1927SOL    HW117417   4.650   4.621   3.691  1.3516 -1.0076  0.4275
 1927SOL    HW217418   4.543   4.532   3.635  0.0509  0.2780  0.1880
 1928SOL     OW17419   2.227   3.333   5.539  0.2087  0.5147  0.6069
 1928SOL    HW117420   2.303   3.366   5.587 -0.2022  0.7276  1.1086
 1928SOL    HW217421   2.255   3.243   5.524  0.1095  0.5555  0.1739
 1929SOL     OW17422   0.491   0.695   6.113 -0.1780 -0.3379  0.6302
 1929SOL    HW117423   0.407   0.661   6.080  0.0647  1.6676 -2.0352
 1929SOL    HW217424   0.543   0.684   6.034 -0.6336  0.2915  0.2396
 1930SOL     OW17425   3.303   4.392   8.431 -0.2822  0.4609 -0.1288
 1930SOL    HW117426   3.239   4.440   8.483  1.5154  0.9376  1.6674
 1930SOL    HW217427   3.293   4.304   8.466  0.1265 -0.5666 -2.5844
 1931SOL     OW17428   4.347   2.799   0.427  0.6150 -0.0382 -0.6964
 1931SOL    HW117429   4.427   2.798   0.480  1.5155 -0.4412 -2.0682
 1931SOL    HW217430   4.368   2.765   0.340  3.5811  0.1609 -0.0690
 1932SOL     OW17431   0.156   3.109   2.989 -0.2401 -0.0738 -0.6249
 1932SOL    HW117432   0.214   3.037   3.012 -0.7404  0.0675  1.0467
 1932SOL    HW217433   0.220   3.176   2.967  0.7843 -1.0182 -0.5279
 1933SOL     OW17434   2.220   2.842  14.546 -0.1939 -0.1581  0.1156
 1933SOL    HW117435   2.151   2.785  14.581 -0.1765  0.3177  0.9263
 1933SOL    HW217436   2.259   2.792  14.475  1.5052  0.2550  0.7490
 1934SOL     OW17437   3.128   1.479   0.445 -0.0518  0.3626  0.1291
 1934SOL    HW117438   3.056   1.540   0.460 -0.0846 -0.6672  4.3686
 1934SOL    HW217439   3.199   1.542   0.437 -0.0424  0.2884 -0.3513
 1935SOL     OW17440   2.679   2.696   5.488  0.2069 -0.0570 -0.4801
 1935SOL    HW117441   2.734   2.741   5.552  2.1100 -1.5281 -1.0508
 1935SOL    HW217442   2.695   2.745   5.408  2.0655  0.1803  0.0364
 1936SOL     OW17443   1.842   3.744   5.014  0.1631 -0.0939  0.2178
 1936SOL    HW117444   1.884   3.659   5.027 -0.9490 -1.1115 -2.9136
 1936SOL    HW217445   1.857   3.784   5.099  1.5590 -1.1914  0.4871
 1937SOL     OW17446   1.073   1.092   3.056  0.1577 -0.3293  0.4077
 1937SOL    HW117447   0.980   1.078   3.075  0.0491  2.8470  2.2434
 1937SOL    HW217448   1.071   1.097   2.960 -2.1606 -1.4799  0.4014
 1938SOL     OW17449   4.362   2.077   3.585 -0.2595  0.0291  0.4006
 1938SOL    HW117450   4.329   2.133   3.515 -0.8501 -2.2220 -1.1197
 1938SOL    HW217451   4.283   2.030   3.612 -0.1229 -0.5738 -0.2396
 1939SOL     OW17452   1.980   1.434   1.307 -0.1819 -0.0962  0.2333
 1939SOL    HW117453   2.049   1.391   1.257  0.1827 -1.1346  1.6548
 1939SOL    HW217454   1.902   1.415   1.255  0.7473  2.5213 -2.1463
 1940SOL     OW17455   4.658   1.079   8.060  0.5004 -0.0071  0.2009
 1940SOL    HW117456   4.649   1.075   7.965  2.6655  0.3148 -0.0167
 1940SOL    HW217457   4.722   1.008   8.069 -0.2965 -0.5942  1.3877
 1941SOL     OW17458   3.869   1.405  13.093 -0.2853 -0.5612 -0.0446
 1941SOL    HW117459   3.795   1.399  13.034 -0.6440  0.2145  0.3329
 1941SOL    HW217460   3.839   1.370  13.177 -0.7248 -0.9675 -0.3681
 1942SOL     OW17461   1.670   2.351   8.141 -0.8549 -0.0811  0.3792
 1942SOL    HW117462   1.714   2.267   8.157  0.6331  0.7413  0.6620
 1942SOL    HW217463   1.716   2.406   8.205 -0.3869 -0.7614  0.6315
 1943SOL     OW17464   0.302   4.165   4.989 -0.1533  0.4721  0.3488
 1943SOL    HW117465   0.340   4.091   4.942  1.8863  1.4702  0.4081
 1943SOL    HW217466   0.358   4.235   4.956 -0.8022  0.9501  0.2615
 1944SOL     OW17467   4.015   0.157   2.745  0.2862 -0.4370  0.4632
 1944SOL    HW117468   3.969   0.075   2.725 -1.4828  0.1411  2.1814
 1944SOL    HW217469   4.105   0.126   2.734  0.6291 -0.1305  2.4055
 1945SOL     OW17470   2.158   2.653  16.633  0.1746 -0.6123  0.7270
 1945SOL    HW117471   2.174   2.692  16.547  2.2845 -0.7800  1.0336
 1945SOL    HW217472   2.065   2.676  16.635  0.6402  1.4427 -1.4842
 1946SOL     OW17473   1.900   1.114   6.184  0.3521  0.1750  0.0954
 1946SOL    HW117474   1.897   1.140   6.092  2.4676  0.6907  0.1752
 1946SOL    HW217475   1.812   1.133   6.216  0.6142  2.0800 -0.3147
 1947SOL     OW17476   2.648   2.478   3.873  0.1539 -0.0128  0.1008
 1947SOL    HW117477   2.659   2.494   3.779 -0.4116 -2.1555 -0.3245
 1947SOL    HW217478   2.696   2.396   3.884  1.0710  0.3474 -1.2140
 1948SOL     OW17479   0.334   4.170   4.074  0.6143  0.1965  0.5632
 1948SOL    HW117480   0.344   4.227   3.998 -1.6045 -1.7238 -1.1584
 1948SOL    HW217481   0.416   4.120   4.071  0.8273  0.5537  0.4206
 1949SOL     OW17482   1.343   2.742  12.635  0.0585 -0.1874 -0.1666
 1949SOL    HW117483   1.328   2.757  12.541  1.4010  1.2140 -0.1428
 1949SOL    HW217484   1.374   2.652  12.643 -0.2940 -0.3623 -0.7470
 1950SOL     OW17485   1.618   4.601   0.723 -0.6297  0.0369  0.0659
 1950SOL    HW117486   1.616   4.586   0.629  1.0986  1.7111 -0.2240
 1950SOL    HW217487   1.532   4.564   0.746 -1.5152  2.0754  0.0753
 1951SOL     OW17488   4.297   2.308  11.900 -0.4442 -0.0681  0.1860
 1951SOL    HW117489   4.333   2.363  11.970  0.9920 -0.4478 -0.2527
 1951SOL    HW217490   4.373   2.260  11.867 -1.1594  0.1002 -1.7214
 1952SOL     OW17491   1.582   2.445  13.391 -0.1287  0.2017  0.2049
 1952SOL    HW117492   1.665   2.440  13.345 -0.4461  2.1235 -0.5755
 1952SOL    HW217493   1.522   2.375  13.363 -2.8507  1.4196  2.9625
 1953SOL     OW17494   0.991   3.472   5.093 -0.4676 -0.6260 -0.5573
 1953SOL    HW117495   0.999   3.378   5.080 -0.4234 -0.6772 -0.1307
 1953SOL    HW217496   0.899   3.470   5.119 -0.2971 -0.0238  0.0742
 1954SOL     OW17497   1.996   2.641   5.857  0.1706  0.2384  0.0830
 1954SOL    HW117498   2.026   2.653   5.947  0.5360  1.5151 -0.2030
 1954SOL    HW217499   2.042   2.562   5.830 -0.4441 -0.5453  1.3447
 1955SOL     OW17500   3.310   2.539  10.420 -0.0889  0.4530  0.0042
 1955SOL    HW117501   3.368   2.543  10.496 -0.8232 -1.5888  0.6425
 1955SOL    HW217502   3.291   2.446  10.415  0.9403  0.2167  0.5629
 1956SOL     OW17503   1.238   3.610   2.032 -0.2210  0.5998 -0.2042
 1956SOL    HW117504   1.222   3.666   1.956  0.1629  0.1865 -0.5906
 1956SOL    HW217505   1.290   3.549   1.980 -0.5179 -0.4504  0.7444
 1957SOL     OW17506   2.064   3.351  12.768  0.0684 -0.2887 -0.1585
 1957SOL    HW117507   1.989   3.357  12.828 -0.0949 -1.5271 -0.2259
 1957SOL    HW217508   2.078   3.442  12.744  0.9291 -0.7163 -1.2660
 1958SOL     OW17509   3.385   4.099   1.691 -0.0044  0.3817  0.1099
 1958SOL    HW117510   3.332   4.048   1.752  0.3097 -0.9787 -0.7775
 1958SOL    HW217511   3.349   4.083   1.603  1.5258 -0.5011 -0.3492
 1959SOL     OW17512   3.002   4.020   9.187  0.0848 -0.8032 -0.2459
 1959SOL    HW117513   3.028   4.056   9.272  1.8386  0.2300 -1.2101
 1959SOL    HW217514   2.919   4.066   9.173  1.0731  1.7015  2.1752
 1960SOL     OW17515   0.674   3.957   0.874 -0.2504  0.0355  0.0276
 1960SOL    HW117516   0.673   3.925   0.784  2.5444 -3.1787  1.1063
 1960SOL    HW217517   0.653   4.049   0.857  1.3781  0.1679 -1.2723
 1961SOL     OW17518   2.224   1.219   3.465  0.0168 -0.2774 -0.2646
 1961SOL    HW117519   2.182   1.295   3.426 -1.2543 -1.1285 -0.5630
 1961SOL    HW217520   2.169   1.207   3.542 -1.2365 -1.6427 -1.3670
 1962SOL     OW17521   2.372   3.230   2.883 -0.7440  0.0817  0.3710
 1962SOL    HW117522   2.424   3.307   2.908 -2.1279  0.9751  0.4832
 1962SOL    HW217523   2.283   3.265   2.880 -0.3890  0.8473 -0.9815
 1963SOL     OW17524   1.031   0.332   6.849 -0.2474  0.5539  0.8349
 1963SOL    HW117525   1.032   0.268   6.779  3.1944  2.0649 -0.4961
 1963SOL    HW217526   0.943   0.318   6.884  0.7964 -1.4694  2.6464
 1964SOL     OW17527   2.210   0.063   3.518  0.0120  0.7298 -0.5016
 1964SOL    HW117528   2.292   0.025   3.550 -1.0371  0.2632  1.6278
 1964SOL    HW217529   2.228   0.156   3.522  2.7618  0.1145  1.3632
 1965SOL     OW17530   2.515   4.386  15.511  0.0606 -0.0833 -0.5277
 1965SOL    HW117531   2.567   4.308  15.493 -1.0287 -0.7681 -0.7347
 1965SOL    HW217532   2.466   4.350  15.584 -2.2430  0.5146 -1.7701
 1966SOL     OW17533   1.608   4.614   3.334  0.0852 -0.5703  0.6185
 1966SOL    HW117534   1.571   4.527   3.348  0.3242 -1.2054 -2.6869
 1966SOL    HW217535   1.678   4.619   3.399  0.5728 -0.8931  0.1267
 1967SOL     OW17536   0.309   3.039   6.725 -0.2243  0.6240  0.2507
 1967SOL    HW117537   0.236   3.080   6.772 -1.5365 -0.0622 -1.2127
 1967SOL    HW217538   0.257   2.986   6.664  0.6659 -0.3903  0.3797
 1968SOL     OW17539   2.490   0.208   8.710 -0.0736 -0.4604  0.3376
 1968SOL    HW117540   2.450   0.122   8.724  1.7637 -1.2450  0.8088
 1968SOL    HW217541   2.435   0.265   8.764  2.5322 -0.6567  3.1694
 1969SOL     OW17542   4.558   4.098   8.431  0.1338 -0.3098 -0.2611
 1969SOL    HW117543   4.627   4.111   8.497 -0.5441  2.8313 -0.1327
 1969SOL    HW217544   4.482   4.086   8.487  1.6785 -3.2335  1.1861
 1970SOL     OW17545   4.573   1.779   8.462 -0.3071 -0.2482  0.0342
 1970SOL    HW117546   4.604   1.839   8.394  0.3739  0.1973  0.7361
 1970SOL    HW217547   4.488   1.748   8.431 -0.2444 -1.5849  1.1731
 1971SOL     OW17548   2.306   2.602   7.761 -0.9726  0.1754  0.2721
 1971SOL    HW117549   2.369   2.607   7.689 -2.6842 -2.6430 -1.4182
 1971SOL    HW217550   2.230   2.635   7.713 -0.2983  0.2536 -0.7490
 1972SOL     OW17551   4.350   4.552   2.394 -0.0724 -0.1306 -0.1022
 1972SOL    HW117552   4.355   4.533   2.487  0.5267 -1.0738 -0.3270
 1972SOL    HW217553   4.370   4.463   2.365 -2.3483 -0.8277  0.4829
 1973SOL     OW17554   4.340   0.025   6.668 -0.4119 -0.1604 -0.2750
 1973SOL    HW117555   4.397   0.101   6.653 -1.5769  0.7346 -0.2271
 1973SOL    HW217556   4.318   0.027   6.762  0.2202  0.9756 -0.1535
 1974SOL     OW17557   4.199   3.498   3.030  0.0987  0.3499 -0.1359
 1974SOL    HW117558   4.235   3.410   3.043  0.4322  0.4070 -0.6600
 1974SOL    HW217559   4.130   3.503   3.096  0.0812  1.9407 -0.2889
 1975SOL     OW17560   2.799   4.631   1.715  0.2305 -0.3612 -0.2080
 1975SOL    HW117561   2.858   4.593   1.650  0.8029  1.3781 -0.6874
 1975SOL    HW217562   2.761   4.546   1.739 -1.0890  0.1732 -0.4191
 1976SOL     OW17563   2.291   2.587   7.273  0.0740  0.3257 -0.0729
 1976SOL    HW117564   2.381   2.562   7.293  0.0350 -0.4866 -0.9034
 1976SOL    HW217565   2.276   2.546   7.187 -1.0118  2.6640 -1.0069
 1977SOL     OW17566   0.638   1.035   8.567 -0.5541  0.0255 -0.1050
 1977SOL    HW117567   0.679   0.968   8.512 -1.3090 -2.0948  1.9085
 1977SOL    HW217568   0.621   1.105   8.505 -2.0563 -0.0172  0.2679
 1978SOL     OW17569   4.413   4.269   4.490  0.4654  0.1599  0.2035
 1978SOL    HW117570   4.354   4.250   4.417 -2.3486  1.2758  2.2016
 1978SOL    HW217571   4.406   4.365   4.490  1.5529  0.2382  0.4907
 1979SOL     OW17572   1.681   3.531   3.601  0.1298 -0.2623  0.8482
 1979SOL    HW117573   1.751   3.575   3.649  1.3650 -0.6867 -0.5521
 1979SOL    HW217574   1.619   3.493   3.663  0.2434  0.0568  1.1552
 1980SOL     OW17575   1.120   0.775   7.067 -0.4096 -0.2407  0.2486
 1980SOL    HW117576   1.126   0.852   7.123  2.2471  0.4637 -0.9908
 1980SOL    HW217577   1.199   0.723   7.083  0.2087  1.0195  1.3759
 1981SOL     OW17578   2.142   4.641  12.084 -0.2933 -0.6088  0.1229
 1981SOL    HW117579   2.196   4.713  12.118 -1.3578  0.1256  0.2603
 1981SOL    HW217580   2.081   4.681  12.022 -0.8695 -0.7569  0.6014
 1982SOL     OW17581   2.534   3.710  11.721 -0.5188 -0.3877  0.0466
 1982SOL    HW117582   2.577   3.748  11.644 -3.1661  0.8913 -0.8067
 1982SOL    HW217583   2.549   3.615  11.721  2.1748  0.0223  0.2993
 1983SOL     OW17584   1.615   4.184  13.059 -0.1258 -0.5025  0.4368
 1983SOL    HW117585   1.553   4.169  12.989 -1.0627  0.6397  1.0238
 1983SOL    HW217586   1.655   4.267  13.032  2.1501 -0.9885  2.2838
 1984SOL     OW17587   3.048   4.500   4.725 -1.2658  0.4413  0.2659
 1984SOL    HW117588   3.106   4.545   4.663 -0.0326  0.4944  1.4516
 1984SOL    HW217589   2.979   4.474   4.665  0.2403 -1.5598 -0.6083
 1985SOL     OW17590   1.409   3.804   9.016 -0.4908  0.2875  0.2319
 1985SOL    HW117591   1.446   3.884   8.979 -1.1372  0.1914 -0.6024
 1985SOL    HW217592   1.491   3.763   9.043 -0.7717  1.1923  2.5034
 1986SOL     OW17593   4.180   2.327  12.718 -0.0428 -0.0246 -0.1256
 1986SOL    HW117594   4.113   2.305  12.653 -0.5184  1.5206 -0.1780
 1986SOL    HW217595   4.194   2.238  12.748 -0.6578 -0.4219 -1.0137
 1987SOL     OW17596   0.111   1.698  10.043 -0.9502  0.2878  0.0691
 1987SOL    HW117597   0.044   1.766  10.051 -0.1995  0.9264  0.8328
 1987SOL    HW217598   0.081   1.650  10.119  1.2308 -1.1972  0.0026
 1988SOL     OW17599   2.841   3.617   2.877 -0.1674  0.1126  0.5501
 1988SOL    HW117600   2.853   3.549   2.811  0.8828  0.7087  0.1364
 1988SOL    HW217601   2.801   3.575   2.953  0.5146 -1.2907  0.1208
 1989SOL     OW17602   2.523   0.430   1.219  0.4737  0.0628  0.0790
 1989SOL    HW117603   2.531   0.498   1.287  4.6497 -0.5944  0.2494
 1989SOL    HW217604   2.508   0.493   1.149 -2.6071 -1.5409 -0.6715
 1990SOL     OW17605   1.428   1.856   6.576  0.3691 -0.5979 -0.7842
 1990SOL    HW117606   1.348   1.805   6.589  0.9206 -1.6958 -1.6804
 1990SOL    HW217607   1.480   1.785   6.538  0.7328 -0.8292  0.1445
 1991SOL     OW17608   1.606   3.703   3.387 -0.4024  0.6918  0.1414
 1991SOL    HW117609   1.633   3.653   3.464 -1.8775  0.3542  0.4301
 1991SOL    HW217610   1.683   3.757   3.370  1.0685 -1.4622  0.0248
 1992SOL     OW17611   4.058   4.446   1.247 -0.4085 -0.5229  0.3931
 1992SOL    HW117612   3.970   4.416   1.221  0.3606 -1.4504 -1.1525
 1992SOL    HW217613   4.078   4.505   1.174 -1.2060  1.6329  1.9237
 1993SOL     OW17614   1.933   2.812   9.332  0.3361  0.0556 -0.2474
 1993SOL    HW117615   2.025   2.824   9.308 -0.5954  2.1747 -2.7868
 1993SOL    HW217616   1.893   2.878   9.275  0.8306 -0.4240 -1.1328
 1994SOL     OW17617   2.647   1.486  17.589 -0.2778  0.2033  0.7493
 1994SOL    HW117618   2.572   1.532  17.553 -0.2839 -0.0510  0.4341
 1994SOL    HW217619   2.698   1.564  17.612  0.3786 -0.6622  2.2217
 1995SOL     OW17620   3.198   4.631   1.928 -0.4366 -0.4868 -0.1786
 1995SOL    HW117621   3.211   4.541   1.901  0.2207 -0.5841  0.4700
 1995SOL    HW217622   3.170   4.674   1.847 -1.1297  2.2121  1.4598
 1996SOL     OW17623   3.376   1.304   4.190  0.3913  0.3305  0.0289
 1996SOL    HW117624   3.375   1.334   4.281  0.6710 -0.2029  0.2033
 1996SOL    HW217625   3.435   1.368   4.150 -0.9833  0.0705 -2.4774
 1997SOL     OW17626   2.514   2.747  10.487 -0.0750 -0.0964  0.1885
 1997SOL    HW117627   2.556   2.707  10.563  0.1439  0.7970  0.5420
 1997SOL    HW217628   2.553   2.833  10.503  1.3371 -0.3902 -1.6616
 1998SOL     OW17629   3.476   1.250   3.098 -0.3309  0.6297  0.3307
 1998SOL    HW117630   3.429   1.212   3.172  1.1486  1.6677  1.7824
 1998SOL    HW217631   3.496   1.340   3.125 -3.6823  1.0096  1.5452
 1999SOL     OW17632   2.837   0.316   8.296  0.2018 -0.2780  0.3934
 1999SOL    HW117633   2.753   0.285   8.330  0.0648 -1.4483 -1.0042
 1999SOL    HW217634   2.877   0.355   8.373 -1.5008  0.1242  1.0773
 2000SOL     OW17635   0.012   2.435   1.661 -0.5766  0.6789  0.4161
 2000SOL    HW117636   4.673   2.386   1.631 -0.6121  0.0202  1.5628
 2000SOL    HW217637   0.053   2.460   1.578  0.0101 -2.3679 -0.2092
 2001SOL     OW17638   2.832   0.623   8.526  0.1276 -0.8125 -0.5042
 2001SOL    HW117639   2.796   0.695   8.474 -0.4823 -1.1232 -0.5093
 2001SOL    HW217640   2.758   0.563   8.526  0.7258 -1.5601 -0.1424
 2002SOL     OW17641   4.672   4.098  11.876  0.3055  0.3927 -0.7641
 2002SOL    HW117642   4.609   4.086  11.947  2.7243  1.6941  1.5835
 2002SOL    HW217643   4.666   4.018  11.822 -1.3864 -0.9007  1.3347
 2003SOL     OW17644   0.269   4.407   7.969  0.3094  0.2809  0.0655
 2003SOL    HW117645   0.308   4.328   8.007 -0.9141  0.3038  1.3754
 2003SOL    HW217646   0.293   4.466   8.041  1.3160 -0.0993  0.0401
 2004SOL     OW17647   2.284   0.964   5.987  0.0834 -0.5363 -0.3539
 2004SOL    HW117648   2.362   0.910   5.977  0.7325  0.7879 -2.3964
 2004SOL    HW217649   2.222   0.911   5.937 -1.2016 -0.2796  0.9739
 2005SOL     OW17650   4.156   2.600   4.496  0.1600 -0.2581  0.0166
 2005SOL    HW117651   4.156   2.510   4.464 -0.6591 -0.2524 -0.0040
 2005SOL    HW217652   4.074   2.600   4.545 -0.6198 -1.0023 -1.3361
 2006SOL     OW17653   1.710   2.710  13.670 -0.1747 -0.1234  0.4403
 2006SOL    HW117654   1.804   2.704  13.687 -0.0725  1.0774  0.3166
 2006SOL    HW217655   1.675   2.757  13.746 -1.0542 -1.6014  0.9474
 2007SOL     OW17656   2.341   4.509   5.586  0.2350 -0.4750  0.5492
 2007SOL    HW117657   2.285   4.581   5.555  0.3448 -0.5062  0.2756
 2007SOL    HW217658   2.267   4.464   5.627  0.3986 -0.2398  1.1050
 2008SOL     OW17659   3.149   3.920   8.444 -0.3083  0.2116  0.1383
 2008SOL    HW117660   3.089   3.895   8.373  1.2487  0.3687 -1.2370
 2008SOL    HW217661   3.104   3.888   8.522 -0.9046 -0.3268 -0.4115
 2009SOL     OW17662   2.119   3.845   7.091 -0.4570 -0.2592 -0.9309
 2009SOL    HW117663   2.136   3.751   7.102 -0.5152 -0.1044  0.5208
 2009SOL    HW217664   2.133   3.876   7.180 -1.8154  1.1967 -1.2349
 2010SOL     OW17665   3.390   0.467   5.221  0.3424  0.2321  0.0406
 2010SOL    HW117666   3.301   0.496   5.236 -0.2267 -0.6098 -1.7978
 2010SOL    HW217667   3.436   0.507   5.295 -0.5110 -1.3152  1.4176
 2011SOL     OW17668   4.091   0.450   6.320 -0.4324  0.4206  1.0659
 2011SOL    HW117669   4.009   0.435   6.274  0.1978  0.2800 -0.0012
 2011SOL    HW217670   4.135   0.506   6.257 -0.6910 -2.2246 -1.4517
 2012SOL     OW17671   4.591   3.480  17.113 -0.1853  0.1004  0.0706
 2012SOL    HW117672   4.570   3.479  17.020 -0.0381 -0.8327  0.0458
 2012SOL    HW217673   4.610   3.390  17.141  1.1892  0.3281 -0.1298
 2013SOL     OW17674   0.016   1.664  17.061 -0.1360 -0.1426  0.3663
 2013SOL    HW117675   4.723   1.670  16.970  3.4288  0.2160 -0.7971
 2013SOL    HW217676   4.685   1.714  17.105  1.0843  1.5120  0.3609
 2014SOL     OW17677   3.192   1.035   4.317  0.0072 -0.1084 -0.8819
 2014SOL    HW117678   3.256   1.023   4.247  0.4717 -0.8074 -0.3439
 2014SOL    HW217679   3.258   1.044   4.386  0.2077 -2.9040 -0.6872
 2015SOL     OW17680   0.475   4.620   6.481  0.2125  0.1794 -0.1673
 2015SOL    HW117681   0.465   4.624   6.386 -1.6392  2.4782  0.1413
 2015SOL    HW217682   0.568   4.601   6.497  0.0651  0.0386  0.5256
 2016SOL     OW17683   3.778   1.225  16.237 -0.3727  0.2633  0.1401
 2016SOL    HW117684   3.694   1.201  16.198 -0.6080 -2.4618  2.3019
 2016SOL    HW217685   3.817   1.143  16.266 -0.1978  0.2277 -0.1900
 2017SOL     OW17686   3.999   1.268  15.409 -0.1322 -0.5396 -0.1139
 2017SOL    HW117687   3.914   1.246  15.371 -0.5099 -0.5968  0.7663
 2017SOL    HW217688   4.030   1.346  15.363 -0.7825  0.2783  0.8211
 2018SOL     OW17689   4.695   3.181   1.148  0.1302  0.4112  0.2837
 2018SOL    HW117690   0.004   3.138   1.220 -0.3579  0.2796  0.5119
 2018SOL    HW217691   0.022   3.241   1.109 -1.6431  0.8042 -2.0333
 2019SOL     OW17692   0.217   1.772   0.278  0.7787 -0.5440  0.3684
 2019SOL    HW117693   0.313   1.774   0.268  0.8228 -2.4977  0.5622
 2019SOL    HW217694   0.199   1.679   0.281  1.1098 -0.5336  2.5884
 2020SOL     OW17695   4.314   0.865   1.788  0.4337 -0.4121  0.0779
 2020SOL    HW117696   4.366   0.888   1.711 -1.0136  2.6665  0.0535
 2020SOL    HW217697   4.335   0.914   1.867 -2.0480  0.6506  0.0492
 2021SOL     OW17698   2.398   2.142   2.788 -0.3095 -0.3126 -0.8227
 2021SOL    HW117699   2.359   2.229   2.798  0.2738 -0.2886  1.2488
 2021SOL    HW217700   2.493   2.149   2.781 -0.2508  1.2359  1.5254
 2022SOL     OW17701   4.375   2.586   9.756  0.3596  0.9830  0.1402
 2022SOL    HW117702   4.448   2.600   9.815 -1.3569  0.7214  2.3453
 2022SOL    HW217703   4.368   2.660   9.696  1.7340  3.4250  2.9859
 2023SOL     OW17704   3.689   4.341   9.490  0.4944  0.3783 -0.4333
 2023SOL    HW117705   3.723   4.257   9.520 -1.2297  0.5769  2.0836
 2023SOL    HW217706   3.772   4.370   9.452  0.7520 -0.3607 -0.4275
 2024SOL     OW17707   3.281   2.375   4.006 -0.1203  0.3567  0.2695
 2024SOL    HW117708   3.189   2.401   3.993 -0.5410 -0.6632  1.1939
 2024SOL    HW217709   3.298   2.432   4.081  2.2768  0.1768 -0.1434
 2025SOL     OW17710   1.083   4.210   7.152 -0.0697 -0.6954 -0.4733
 2025SOL    HW117711   1.014   4.155   7.189 -0.6650  0.1610 -0.3221
 2025SOL    HW217712   1.074   4.203   7.057 -0.5495 -0.0323 -0.4797
 2026SOL     OW17713   0.578   0.963   0.094  0.5374  0.2251 -0.2044
 2026SOL    HW117714   0.604   1.051   0.122  1.1505 -0.0864  0.1824
 2026SOL    HW217715   0.635   0.906   0.145 -2.3562 -2.0158  0.5589
 2027SOL     OW17716   0.657   2.975   4.341 -0.5082  0.3365 -0.5889
 2027SOL    HW117717   0.669   3.046   4.405  2.4910 -0.2957 -0.4325
 2027SOL    HW217718   0.736   2.979   4.286 -0.9163  1.7655 -1.0857
 2028SOL     OW17719   1.344   1.016   8.552 -0.7248 -0.3721  0.2005
 2028SOL    HW117720   1.370   1.108   8.556 -0.2846 -0.4895  0.1038
 2028SOL    HW217721   1.341   0.997   8.458 -0.9740 -0.5467  0.2425
 2029SOL     OW17722   2.542   2.448   2.435  0.2029 -0.1940 -0.5779
 2029SOL    HW117723   2.630   2.450   2.473  0.1847 -0.5506 -0.5140
 2029SOL    HW217724   2.535   2.367   2.385 -1.6679  0.7581 -1.8575
 2030SOL     OW17725   2.948   1.960   9.213  0.0179  0.2968 -0.0513
 2030SOL    HW117726   2.938   1.956   9.118 -2.8586  0.7908  0.2379
 2030SOL    HW217727   2.860   1.963   9.249  1.2153  1.1179  2.7829
 2031SOL     OW17728   0.854   1.399  12.644  0.2792  0.0146 -0.0112
 2031SOL    HW117729   0.949   1.402  12.639  0.3626 -1.6749  0.6324
 2031SOL    HW217730   0.835   1.343  12.568  2.2914  0.7630 -1.0582
 2032SOL     OW17731   4.021   1.348   4.674  0.6564  0.0879  0.4708
 2032SOL    HW117732   4.026   1.306   4.761 -1.4699  1.7550  1.3959
 2032SOL    HW217733   3.955   1.302   4.622 -1.0157 -0.7130  3.2679
 2033SOL     OW17734   2.569   3.877   6.242 -0.6828 -0.0143  0.2264
 2033SOL    HW117735   2.495   3.868   6.302  0.7690  2.4933  2.4344
 2033SOL    HW217736   2.549   3.955   6.191  2.2765 -0.2435 -1.3045
 2034SOL     OW17737   2.955   4.170   6.388  0.3074  0.2153  0.0094
 2034SOL    HW117738   2.906   4.212   6.317  0.5295 -1.3564 -1.0647
 2034SOL    HW217739   2.907   4.089   6.407 -0.4343  0.6629  0.0782
 2035SOL     OW17740   4.302   0.808   4.325 -0.2339  0.2778 -0.2322
 2035SOL    HW117741   4.216   0.806   4.282  0.3892  1.2310 -1.5269
 2035SOL    HW217742   4.308   0.900   4.351  2.5617 -0.2264  0.9292
 2036SOL     OW17743   3.511   0.794  10.023  0.8926 -0.1211 -0.0396
 2036SOL    HW117744   3.447   0.830   9.963  0.7177  0.1620  0.3145
 2036SOL    HW217745   3.512   0.710   9.977 -2.6865  0.6419 -1.4335
 2037SOL     OW17746   3.304   0.855  13.997  0.2328 -0.3630  0.0388
 2037SOL    HW117747   3.333   0.871  13.907 -1.8631 -0.1353 -0.6062
 2037SOL    HW217748   3.221   0.900  14.013  0.2796 -0.6106  1.0224
 2038SOL     OW17749   0.466   2.309   7.067 -0.5228  0.2582  0.1548
 2038SOL    HW117750   0.461   2.228   7.015 -0.6843  0.4325 -0.1020
 2038SOL    HW217751   0.510   2.369   7.007 -1.4538 -0.8745 -1.6762
 2039SOL     OW17752   1.049   4.268   7.632 -0.1288  0.3411  0.1604
 2039SOL    HW117753   1.046   4.320   7.713  1.3953  2.0462 -0.8832
 2039SOL    HW217754   1.125   4.314   7.597 -0.2915  0.9336  0.5736
 2040SOL     OW17755   3.025   4.718  14.953  0.1701 -0.1786 -0.2505
 2040SOL    HW117756   3.056   4.636  14.992 -2.1805 -0.4032  1.1337
 2040SOL    HW217757   3.096   0.037  14.985 -1.7945  1.4882  1.1798
 2041SOL     OW17758   0.193   3.794   6.556 -0.2543 -0.1401  0.3304
 2041SOL    HW117759   0.099   3.811   6.550 -0.0919  0.5387 -0.3490
 2041SOL    HW217760   0.230   3.858   6.495 -3.1638 -0.0337 -1.3122
 2042SOL     OW17761   3.268   0.810   8.783  0.3139  0.0988  0.4886
 2042SOL    HW117762   3.239   0.727   8.821  0.4902 -0.5482 -0.8095
 2042SOL    HW217763   3.202   0.831   8.717  1.4102  0.6347 -0.4401
 2043SOL     OW17764   3.653   0.694   2.298 -0.7499  0.0326 -0.4632
 2043SOL    HW117765   3.703   0.615   2.277 -0.7960 -0.3071  0.7159
 2043SOL    HW217766   3.631   0.675   2.389 -2.6252 -0.9286 -1.1191
 2044SOL     OW17767   0.800   0.549   5.124  0.1914  0.0381 -0.0655
 2044SOL    HW117768   0.767   0.495   5.052  0.4846 -1.5263  0.9702
 2044SOL    HW217769   0.835   0.482   5.182 -1.8864  0.0550  1.2060
 2045SOL     OW17770   1.929   4.725   5.541 -0.4765  0.1893  0.7323
 2045SOL    HW117771   1.936   0.007   5.635 -1.0840 -0.1028  0.8346
 2045SOL    HW217772   2.013   4.680   5.528 -0.4130  1.0074 -1.7021
 2046SOL     OW17773   2.459   0.164   7.854 -0.2704 -0.3925  0.8820
 2046SOL    HW117774   2.450   0.106   7.930 -0.1880 -1.9404 -0.2862
 2046SOL    HW217775   2.372   0.203   7.847 -0.4224 -0.8284  0.3051
 2047SOL     OW17776   0.597   1.925   8.107 -0.3447 -0.2426  0.9324
 2047SOL    HW117777   0.691   1.933   8.124 -0.6634  2.3019  1.5634
 2047SOL    HW217778   0.584   2.019   8.124  4.3486  0.3975  1.0001
 2048SOL     OW17779   0.328   0.517  10.279 -0.0075 -0.2744 -0.1544
 2048SOL    HW117780   0.269   0.442  10.287 -0.9803  0.4591 -0.4366
 2048SOL    HW217781   0.394   0.509  10.348  0.9570 -2.2732 -1.2943
 2049SOL     OW17782   0.647   0.779   8.719  0.3441 -0.4569 -0.8538
 2049SOL    HW117783   0.723   0.728   8.691  0.0943 -0.3263 -1.7792
 2049SOL    HW217784   0.687   0.866   8.713  0.1985 -0.2527  0.9443
 2050SOL     OW17785   2.816   2.099   4.265 -0.1788 -0.5255  0.4808
 2050SOL    HW117786   2.750   2.145   4.213  0.3179 -0.1001  0.2252
 2050SOL    HW217787   2.840   2.029   4.204  0.8803 -0.0530  0.3611
 2051SOL     OW17788   3.946   3.907  16.301 -0.6063 -0.7447 -0.2106
 2051SOL    HW117789   3.907   3.977  16.249  0.7057  1.2385  1.4822
 2051SOL    HW217790   3.877   3.840  16.300  0.9716 -2.3903  0.7872
 2052SOL     OW17791   3.503   0.570   3.963  0.2279  0.3708 -0.6753
 2052SOL    HW117792   3.595   0.596   3.970  0.8724 -2.5406  1.4914
 2052SOL    HW217793   3.478   0.618   3.884  0.3403 -1.0035 -1.5247
 2053SOL     OW17794   0.224   4.161   8.661 -0.3906  0.3012  0.4604
 2053SOL    HW117795   0.299   4.132   8.608  0.1655 -0.6443  1.7811
 2053SOL    HW217796   0.265   4.174   8.746  1.7453 -1.1273 -0.3436
 2054SOL     OW17797   3.154   3.929  14.618  0.3740 -0.0922 -0.8735
 2054SOL    HW117798   3.077   3.876  14.597 -0.4427  0.1164  1.5734
 2054SOL    HW217799   3.134   4.010  14.571 -2.5321  1.2452  2.7334
 2055SOL     OW17800   4.210   3.528  15.148  0.2558 -0.3688  0.2570
 2055SOL    HW117801   4.291   3.482  15.125  1.2623  1.5652 -0.0954
 2055SOL    HW217802   4.242   3.613  15.117  1.8948 -1.1934 -0.3197
 2056SOL     OW17803   4.064   3.077   4.884 -0.1862 -0.0555 -0.0319
 2056SOL    HW117804   4.021   3.090   4.799 -1.0738  1.8436  0.7193
 2056SOL    HW217805   4.080   2.983   4.883  0.5962  0.0957 -1.7365
 2057SOL     OW17806   1.531   4.604   1.087  0.0984 -0.3468 -0.0002
 2057SOL    HW117807   1.482   4.605   1.169  1.5735 -0.4751  0.8809
 2057SOL    HW217808   1.547   4.696   1.066  2.7843 -1.1532 -1.4283
 2058SOL     OW17809   4.291   2.987  16.615 -0.8067  0.4117  0.8093
 2058SOL    HW117810   4.245   2.989  16.531 -1.0746  2.4202  1.0178
 2058SOL    HW217811   4.233   2.934  16.670  0.4139  1.6365  3.2596
 2059SOL     OW17812   3.871   0.547   2.041 -0.1571 -0.1102 -0.3671
 2059SOL    HW117813   3.796   0.604   2.027  0.1284  0.3386 -0.0899
 2059SOL    HW217814   3.933   0.568   1.971 -0.4524 -0.9763 -0.8790
 2060SOL     OW17815   0.466   2.316   1.967  0.7768  0.7191 -0.3958
 2060SOL    HW117816   0.393   2.262   1.998  1.6464 -0.4551 -0.3849
 2060SOL    HW217817   0.540   2.255   1.969  1.2077  1.2958  1.2415
 2061SOL     OW17818   4.229   1.938   1.781 -0.6362  0.3289  0.4251
 2061SOL    HW117819   4.227   1.918   1.688  3.5064 -0.0374  0.4249
 2061SOL    HW217820   4.286   1.871   1.818 -0.1552 -0.2717 -1.4080
 2062SOL     OW17821   1.097   3.012   6.573  0.1462 -0.5622 -0.3501
 2062SOL    HW117822   1.059   3.037   6.489  3.5100  3.8991 -0.5324
 2062SOL    HW217823   1.021   3.020   6.631  0.7106  0.4200  0.2487
 2063SOL     OW17824   1.469   4.303  12.604  0.1451 -0.3351  0.3180
 2063SOL    HW117825   1.481   4.398  12.594 -0.6651 -0.1236  1.3258
 2063SOL    HW217826   1.445   4.284  12.514 -1.6094 -2.7682  1.3186
 2064SOL     OW17827   2.784   3.236   6.485  0.1210  0.5374  0.2571
 2064SOL    HW117828   2.817   3.276   6.404 -1.6511  2.8084  0.6645
 2064SOL    HW217829   2.816   3.296   6.552 -1.0943  1.0047  0.4124
 2065SOL     OW17830   1.795   4.078   3.128  0.1678  0.0678 -0.0958
 2065SOL    HW117831   1.702   4.100   3.123  0.0906 -0.5582 -1.2864
 2065SOL    HW217832   1.830   4.158   3.168 -1.1075  0.2369  0.6790
 2066SOL     OW17833   2.175   1.686  14.969 -0.2309 -0.0527 -0.1741
 2066SOL    HW117834   2.268   1.681  14.949 -0.1323  1.5295 -0.1053
 2066SOL    HW217835   2.149   1.594  14.980 -1.9053  0.6077  1.3221
 2067SOL     OW17836   4.128   1.161   0.266  0.2281  0.2826  0.0015
 2067SOL    HW117837   4.077   1.231   0.224 -0.0701 -0.0282 -0.1588
 2067SOL    HW217838   4.084   1.137   0.347 -1.0804  1.3452 -0.3803
 2068SOL     OW17839   4.393   3.055   3.597  0.5402 -0.2130 -0.3797
 2068SOL    HW117840   4.313   3.004   3.586  2.2146 -2.4269 -2.3666
 2068SOL    HW217841   4.434   3.027   3.679  1.0227 -0.2117 -0.6190
 2069SOL     OW17842   3.094   1.821  13.885  0.4960  0.6864 -0.2720
 2069SOL    HW117843   3.014   1.857  13.848  1.7637  3.4747 -0.2529
 2069SOL    HW217844   3.081   1.726  13.874  1.3556  0.5871 -0.4170
 2070SOL     OW17845   4.638   4.445  11.593  0.1958 -0.4103  0.0717
 2070SOL    HW117846   4.659   4.398  11.674  1.4744 -0.2102 -0.1391
 2070SOL    HW217847   4.717   4.422  11.544  0.9083  0.0572  0.9817
 2071SOL     OW17848   1.875   1.632   7.041  0.0533  0.1282  0.1652
 2071SOL    HW117849   1.787   1.602   7.018 -0.1004 -0.3161  1.3002
 2071SOL    HW217850   1.864   1.697   7.111 -1.0143 -0.9944  1.0360
 2072SOL     OW17851   4.074   4.407   7.990 -0.1897 -0.1088 -0.2045
 2072SOL    HW117852   4.081   4.503   7.989  0.9676 -0.2270 -2.7245
 2072SOL    HW217853   3.985   4.410   8.027 -0.5922  4.1055 -1.4475
 2073SOL     OW17854   3.596   3.477   9.790 -0.0006 -0.4282  0.0485
 2073SOL    HW117855   3.584   3.462   9.884 -0.5385 -1.3214 -0.1516
 2073SOL    HW217856   3.525   3.430   9.747  0.3522 -2.2073  1.3875
 2074SOL     OW17857   0.566   0.214   6.048  0.1806  0.6271  0.3729
 2074SOL    HW117858   0.657   0.207   6.079  0.0837  1.9549  0.9705
 2074SOL    HW217859   0.527   0.263   6.121  0.4660 -0.7315  1.4393
 2075SOL     OW17860   2.404   2.626   3.976  0.0240  0.2070  0.6075
 2075SOL    HW117861   2.451   2.656   4.054 -1.7318  2.8904  0.6191
 2075SOL    HW217862   2.478   2.582   3.933  1.9833  2.0460  2.0496
 2076SOL     OW17863   3.079   3.848   3.242  0.0952  0.0383 -0.1316
 2076SOL    HW117864   3.168   3.814   3.241  0.8231  2.0893 -2.8132
 2076SOL    HW217865   3.057   3.849   3.149  0.3993 -2.4973 -0.2263
 2077SOL     OW17866   0.610   1.523  15.840  0.3511  0.6656  0.2675
 2077SOL    HW117867   0.668   1.451  15.814 -0.7128  0.4172 -1.3974
 2077SOL    HW217868   0.601   1.502  15.933  2.5849  2.0680  0.8017
 2078SOL     OW17869   1.668   3.567   5.656 -0.6562  0.1551  0.0301
 2078SOL    HW117870   1.650   3.603   5.743 -0.6001  1.6246 -0.5571
 2078SOL    HW217871   1.699   3.640   5.602 -0.8314 -1.1530 -1.8591
 2079SOL     OW17872   1.597   0.826   7.480 -0.3651  0.1962 -0.5515
 2079SOL    HW117873   1.613   0.783   7.564 -0.9055  2.7767  0.8734
 2079SOL    HW217874   1.545   0.763   7.432 -0.1993 -0.6564  0.3985
 2080SOL     OW17875   1.387   0.338   0.750 -0.1228 -0.1635  0.4720
 2080SOL    HW117876   1.306   0.340   0.700  0.4008 -2.6512 -0.4857
 2080SOL    HW217877   1.418   0.248   0.763  0.5852  0.1020  0.6452
 2081SOL     OW17878   4.363   2.864  13.737 -0.0827 -0.4077 -0.1451
 2081SOL    HW117879   4.405   2.808  13.801 -0.0995 -0.2500  0.0029
 2081SOL    HW217880   4.270   2.844  13.746 -0.2799  1.0900  1.1350
 2082SOL     OW17881   2.939   1.263   9.330 -0.1353  0.9501 -0.2732
 2082SOL    HW117882   3.033   1.248   9.327 -0.3274  0.0257 -1.6651
 2082SOL    HW217883   2.916   1.268   9.423  0.9821  0.3675  0.0323
 2083SOL     OW17884   3.169   2.824   9.195 -0.0478  0.1627  0.0960
 2083SOL    HW117885   3.251   2.786   9.226 -0.1774 -0.6304 -0.5377
 2083SOL    HW217886   3.108   2.753   9.218 -0.1823  1.2597  3.2040
 2084SOL     OW17887   0.945   1.356   6.329 -0.4486 -0.1521  0.1558
 2084SOL    HW117888   0.906   1.281   6.374  0.3109 -0.3755  0.4419
 2084SOL    HW217889   1.030   1.320   6.304 -0.9047 -2.0494  1.3525
 2085SOL     OW17890   3.051   0.371  10.516  0.4458  0.2135 -0.3479
 2085SOL    HW117891   3.047   0.436  10.587  1.9555  0.7129 -0.7070
 2085SOL    HW217892   3.095   0.302  10.565  2.8375  2.8200  1.2137
 2086SOL     OW17893   0.283   1.336   6.653  0.1481 -0.1645  0.2478
 2086SOL    HW117894   0.355   1.364   6.596  1.0920  0.8003  1.9452
 2086SOL    HW217895   0.276   1.411   6.712  2.1559  1.0846 -1.1122
 2087SOL     OW17896   2.488   1.859   5.778  0.0866 -0.3360  0.2520
 2087SOL    HW117897   2.445   1.774   5.777 -0.5878  0.0153  0.0361
 2087SOL    HW217898   2.410   1.907   5.805 -0.8587 -0.9605 -1.4119
 2088SOL     OW17899   1.941   3.010   3.976  0.6122 -0.1839  0.2240
 2088SOL    HW117900   1.924   2.966   4.060 -0.0689  0.0054  0.1885
 2088SOL    HW217901   1.897   2.943   3.923  1.3811 -0.8815  0.4756
 2089SOL     OW17902   3.323   2.014   8.888  0.0317  0.0035 -0.1853
 2089SOL    HW117903   3.250   2.001   8.827 -2.7398  1.1400  2.9156
 2089SOL    HW217904   3.316   1.928   8.929 -2.0231  0.9203  1.3488
 2090SOL     OW17905   0.624   3.701   6.107  0.1044  0.0719 -0.2113
 2090SOL    HW117906   0.552   3.659   6.155  0.2161  0.3163  0.1728
 2090SOL    HW217907   0.590   3.710   6.018  1.2890 -0.3809 -0.7012
 2091SOL     OW17908   1.316   0.839   0.059 -0.2192  0.1187 -0.3361
 2091SOL    HW117909   1.231   0.881   0.067 -0.8836 -0.8839 -2.1337
 2091SOL    HW217910   1.377   0.911   0.075  0.5550 -0.3248 -1.2876
 2092SOL     OW17911   4.338   2.753   3.713  0.0929 -0.0060 -0.2928
 2092SOL    HW117912   4.275   2.777   3.646 -1.0707 -0.5204  0.6086
 2092SOL    HW217913   4.283   2.739   3.791 -0.5571  0.6548 -0.6355
 2093SOL     OW17914   4.014   2.663   7.649 -0.5614 -0.0755 -0.2157
 2093SOL    HW117915   3.979   2.576   7.629  1.2616 -0.7272 -0.5569
 2093SOL    HW217916   4.020   2.643   7.742  0.4368 -0.7415 -0.4278
 2094SOL     OW17917   1.205   3.245   3.383  0.4029  0.2864  0.1836
 2094SOL    HW117918   1.277   3.269   3.442  0.5101 -2.0078  0.9951
 2094SOL    HW217919   1.212   3.150   3.383 -1.5384  0.1338 -2.0550
 2095SOL     OW17920   2.767   2.721  17.438 -0.3670 -0.4411 -0.0027
 2095SOL    HW117921   2.734   2.792  17.383 -2.3350 -2.3461 -1.2804
 2095SOL    HW217922   2.861   2.741  17.432  0.0070 -1.4903  2.3313
 2096SOL     OW17923   1.865   2.507   2.034  0.6407  0.4729 -0.0391
 2096SOL    HW117924   1.846   2.451   2.109 -0.2842 -3.3423 -3.1615
 2096SOL    HW217925   1.845   2.455   1.957  0.6818  0.9067 -0.3387
 2097SOL     OW17926   3.676   1.746   7.835 -1.1454  0.6823  0.8271
 2097SOL    HW117927   3.691   1.755   7.741  1.2204  0.6477  1.2066
 2097SOL    HW217928   3.608   1.680   7.849  0.1832 -1.2698 -1.9841
 2098SOL     OW17929   0.965   4.243   3.000 -0.1449  0.3625 -0.8586
 2098SOL    HW117930   1.054   4.216   2.980  1.3731  3.5298  1.5886
 2098SOL    HW217931   0.979   4.316   3.061 -3.2491 -0.2291  0.5595
 2099SOL     OW17932   1.575   4.478  12.120 -0.2738 -0.2331  0.1784
 2099SOL    HW117933   1.521   4.526  12.056  1.4350  0.2898 -0.8538
 2099SOL    HW217934   1.627   4.551  12.152  0.1524 -0.4220 -0.0869
 2100SOL     OW17935   4.251   4.220   4.298  0.0438  0.2229 -0.2040
 2100SOL    HW117936   4.182   4.286   4.285  0.6787  0.9070 -0.1018
 2100SOL    HW217937   4.215   4.139   4.263 -2.1876  1.1045 -0.0137
 2101SOL     OW17938   1.163   0.989   1.572 -0.0895  0.2810  0.5361
 2101SOL    HW117939   1.169   0.934   1.650 -0.8520 -1.3465 -0.5654
 2101SOL    HW217940   1.094   0.937   1.530 -0.7449  1.6286 -0.0843
 2102SOL     OW17941   2.640   0.563   2.664 -0.8877  0.3880  0.1528
 2102SOL    HW117942   2.586   0.485   2.675 -2.6897  1.2237 -2.5625
 2102SOL    HW217943   2.723   0.527   2.695  0.3609  1.4931 -1.8683
 2103SOL     OW17944   1.043   1.878   1.186 -0.0918  0.4567  0.4941
 2103SOL    HW117945   0.997   1.945   1.136  1.3861  0.3985 -0.9581
 2103SOL    HW217946   1.134   1.905   1.180  0.0165  0.1126  0.5566
 2104SOL     OW17947   2.124   3.455   7.066 -0.3707  0.5395  0.1932
 2104SOL    HW117948   2.094   3.364   7.069  1.3432 -0.0047  1.2663
 2104SOL    HW217949   2.078   3.489   6.990  1.3430  2.0118 -0.1858
 2105SOL     OW17950   3.971   1.638  17.563 -0.1162 -0.2468 -0.1813
 2105SOL    HW117951   3.945   1.726  17.534 -1.9008 -0.6349  0.2041
 2105SOL    HW217952   3.964   1.582  17.485 -0.7792  0.8646 -0.9124
 2106SOL     OW17953   1.858   3.256   4.098 -0.1037 -0.0049 -0.4750
 2106SOL    HW117954   1.904   3.173   4.087  0.7141  0.2048  1.3353
 2106SOL    HW217955   1.867   3.263   4.193 -0.4120 -0.7587 -0.3900
 2107SOL     OW17956   4.629   2.957   6.833 -0.2484 -0.1774 -0.9786
 2107SOL    HW117957   4.625   3.002   6.748  2.3564  0.8338 -0.5484
 2107SOL    HW217958   4.640   3.031   6.892 -4.0642 -0.6204  0.3248
 2108SOL     OW17959   2.774   2.394   6.812 -0.0538 -0.8308  0.0703
 2108SOL    HW117960   2.748   2.428   6.726 -0.2194  0.8548  0.7839
 2108SOL    HW217961   2.864   2.373   6.788  0.1050  0.0266 -0.1049
 2109SOL     OW17962   3.996   3.263   6.090  0.3498  0.2463 -0.0719
 2109SOL    HW117963   4.081   3.306   6.080  0.1270  1.3532  2.9723
 2109SOL    HW217964   3.960   3.302   6.170 -1.2042  0.3363 -0.8165
 2110SOL     OW17965   1.912   4.155  15.519 -0.2295 -0.4460 -0.0903
 2110SOL    HW117966   1.940   4.065  15.502 -1.2684 -1.0230  1.2872
 2110SOL    HW217967   1.993   4.206  15.515 -1.8670  2.4286  2.8354
 2111SOL     OW17968   3.705   1.275   6.740 -0.0319  0.3636 -0.1836
 2111SOL    HW117969   3.730   1.332   6.667  0.4448  3.5156  2.4587
 2111SOL    HW217970   3.744   1.327   6.810  1.3349 -1.0379  0.0813
 2112SOL     OW17971   2.997   2.465   2.255  0.0856  0.4678  0.1840
 2112SOL    HW117972   2.939   2.541   2.265  0.0785  0.5989 -0.8494
 2112SOL    HW217973   3.065   2.511   2.205  0.2208  2.2665  2.0141
 2113SOL     OW17974   1.293   2.678   7.279  0.1361 -0.3580  0.1000
 2113SOL    HW117975   1.270   2.706   7.190 -0.7953  1.4214  0.9094
 2113SOL    HW217976   1.387   2.685   7.262  0.0951  1.0498  0.5075
 2114SOL     OW17977   4.375   3.143  14.939  0.4545 -0.2203  0.0873
 2114SOL    HW117978   4.357   3.074  15.003 -0.3645 -1.0182 -1.0041
 2114SOL    HW217979   4.286   3.177  14.933  0.3907 -0.1946  1.1270
 2115SOL     OW17980   4.137   2.630   5.864  0.1950 -0.3556  0.1430
 2115SOL    HW117981   4.092   2.704   5.824  1.6216  0.6603  0.4109
 2115SOL    HW217982   4.137   2.570   5.789 -1.2612  0.4312 -0.4872
 2116SOL     OW17983   0.070   4.011   5.234 -0.3310 -0.3622  1.0902
 2116SOL    HW117984   0.060   3.918   5.215  1.1984 -0.0267 -1.3903
 2116SOL    HW217985   0.039   4.052   5.153  1.7493  0.4513  0.6998
 2117SOL     OW17986   2.943   3.597  14.842 -0.7561  0.1653 -0.1851
 2117SOL    HW117987   3.009   3.614  14.775 -0.0420 -0.9248  0.2483
 2117SOL    HW217988   2.942   3.677  14.894 -0.3403 -0.5407  0.8980
 2118SOL     OW17989   2.578   1.779  13.663 -0.0762 -0.1966 -0.3304
 2118SOL    HW117990   2.547   1.866  13.687 -0.6389 -0.4937  0.0337
 2118SOL    HW217991   2.500   1.723  13.657  0.7423 -1.3973  0.2234
 2119SOL     OW17992   2.566   3.592   3.873 -0.6333  0.0131  0.1132
 2119SOL    HW117993   2.592   3.666   3.818  1.0631 -0.4622  0.2816
 2119SOL    HW217994   2.639   3.534   3.849 -1.4867 -0.9231 -0.2112
 2120SOL     OW17995   4.491   0.010  14.405  0.3334 -0.5132  0.0860
 2120SOL    HW117996   4.530   0.064  14.337  0.4195  0.9629  1.2946
 2120SOL    HW217997   4.410   4.733  14.355  0.0786 -0.0439  0.3662
 2121SOL     OW17998   2.791   3.396  14.749 -0.4251  0.1149  0.0139
 2121SOL    HW117999   2.732   3.370  14.820 -0.1552  0.6728  0.4389
 2121SOL    HW218000   2.852   3.453  14.795  1.0222 -0.1564 -1.5639
 2122SOL     OW18001   4.484   3.186  14.097  0.1378  0.1773 -0.1857
 2122SOL    HW118002   4.519   3.267  14.060  0.3028  0.8873  1.5396
 2122SOL    HW218003   4.546   3.119  14.069 -0.1563  0.5665 -1.7628
 2123SOL     OW18004   4.438   2.052   5.922  0.3828 -0.4348 -0.3108
 2123SOL    HW118005   4.382   2.012   5.988  0.4928  1.0445  0.6639
 2123SOL    HW218006   4.486   1.974   5.895 -0.0556 -1.4526  1.9373
 2124SOL     OW18007   2.781   1.085  13.294 -0.2077  0.1807 -0.2168
 2124SOL    HW118008   2.754   1.071  13.203 -1.2626  0.4485  0.0596
 2124SOL    HW218009   2.781   1.180  13.290 -2.5616  0.1031 -1.8411
 2125SOL     OW18010   4.563   4.226   2.505 -0.5130  0.1750  0.3128
 2125SOL    HW118011   4.581   4.254   2.415  0.8541 -0.3624  0.4264
 2125SOL    HW218012   4.634   4.162   2.508 -0.0231  0.6707 -0.5564
 2126SOL     OW18013   2.249   3.896   4.808 -0.1757 -0.2711  0.1413
 2126SOL    HW118014   2.243   3.914   4.902 -1.0156 -1.7116  0.3585
 2126SOL    HW218015   2.330   3.845   4.812  1.7955  2.9238  0.4880
 2127SOL     OW18016   1.315   3.995   6.147 -0.2686  0.5562  0.9418
 2127SOL    HW118017   1.385   4.018   6.086  0.8922  2.8823  3.1529
 2127SOL    HW218018   1.336   3.902   6.159 -0.4894  0.0883 -2.2198
 2128SOL     OW18019   3.429   0.444   6.110  0.5511 -0.3746  0.2359
 2128SOL    HW118020   3.363   0.494   6.062 -0.6733  0.7301  3.0370
 2128SOL    HW218021   3.495   0.418   6.046  1.6427 -2.5895  2.2798
 2129SOL     OW18022   2.660   0.141   4.388 -0.1446  0.0974 -0.0613
 2129SOL    HW118023   2.639   0.095   4.469  0.7780 -1.5861 -0.7909
 2129SOL    HW218024   2.593   0.107   4.328  0.4622 -2.2162  0.5751
 2130SOL     OW18025   1.441   1.576  17.449 -0.4205 -0.1198 -0.1557
 2130SOL    HW118026   1.488   1.508  17.496  1.7372  1.6878  0.3275
 2130SOL    HW218027   1.378   1.614  17.511 -0.1608  0.0098  0.0322
 2131SOL     OW18028   4.280   2.401   6.671  0.3484  0.1158  0.1331
 2131SOL    HW118029   4.231   2.450   6.738 -0.5100  0.1108 -0.4906
 2131SOL    HW218030   4.346   2.467   6.649  0.8351 -0.3540  0.1953
 2132SOL     OW18031   3.772   2.274   8.546 -0.2611  0.9183 -0.6457
 2132SOL    HW118032   3.837   2.251   8.611  1.5197  1.2194 -2.3118
 2132SOL    HW218033   3.783   2.203   8.482  1.4137  1.4255 -0.9325
 2133SOL     OW18034   1.564   1.845   4.768  0.0249 -0.4863  0.7117
 2133SOL    HW118035   1.528   1.773   4.716 -0.5279  0.3867 -0.1142
 2133SOL    HW218036   1.496   1.912   4.763  2.2920  1.7982  0.6980
 2134SOL     OW18037   2.588   3.680   8.182  0.0732  0.3369 -0.0134
 2134SOL    HW118038   2.658   3.640   8.233  0.4623  3.5024  1.9253
 2134SOL    HW218039   2.557   3.755   8.232 -0.6467  0.2689 -0.3595
 2135SOL     OW18040   1.133   0.545  10.049 -0.0884 -1.0019 -0.0569
 2135SOL    HW118041   1.059   0.605  10.040 -0.6303 -1.9370 -1.8351
 2135SOL    HW218042   1.134   0.504   9.962  1.3383 -0.7039 -0.1682
 2136SOL     OW18043   3.063   4.066   2.313 -0.2891  0.5738 -0.3581
 2136SOL    HW118044   3.009   4.006   2.364 -1.9333  1.3178 -1.2171
 2136SOL    HW218045   3.028   4.041   2.227  1.0846  0.3610 -0.8592
 2137SOL     OW18046   1.669   0.828   6.027 -0.0158 -0.0638  0.6784
 2137SOL    HW118047   1.639   0.880   6.102  2.2009  0.2421  1.3581
 2137SOL    HW218048   1.669   0.738   6.060 -2.3629 -0.1640  0.4421
 2138SOL     OW18049   1.987   4.192   7.164  0.2352  0.0323 -0.1256
 2138SOL    HW118050   2.079   4.215   7.176  0.5842 -1.0194 -0.8866
 2138SOL    HW218051   1.936   4.258   7.211  0.6193  1.8140 -2.1980
 2139SOL     OW18052   4.429   2.876   7.933 -0.3448  0.0909 -0.3860
 2139SOL    HW118053   4.475   2.888   7.850  0.5044  1.7556  0.3442
 2139SOL    HW218054   4.373   2.953   7.923  0.1989  0.7329  1.6766
 2140SOL     OW18055   0.115   4.602   2.953  0.3167 -0.2055 -0.0860
 2140SOL    HW118056   0.207   4.597   2.981 -0.0109 -0.0157  1.0177
 2140SOL    HW218057   0.077   4.664   3.015 -0.0056 -1.1034  0.6066
 2141SOL     OW18058   3.676   3.333  17.529 -0.3719  0.4676 -0.4257
 2141SOL    HW118059   3.670   3.368  17.618 -1.2972 -1.3561  0.2191
 2141SOL    HW218060   3.730   3.402  17.490 -0.8715  2.2980  2.1158
 2142SOL     OW18061   4.319   0.619   4.119  0.5850 -0.1567 -0.0867
 2142SOL    HW118062   4.411   0.625   4.093  0.8848 -1.5767  0.6497
 2142SOL    HW218063   4.305   0.697   4.172  0.4039 -1.2182  1.4420
 2143SOL     OW18064   2.562   1.028   8.485 -0.0666 -0.0826  0.0766
 2143SOL    HW118065   2.544   1.091   8.554  1.4514 -0.5207  0.8861
 2143SOL    HW218066   2.502   1.067   8.421  0.5714  1.1120  0.2043
 2144SOL     OW18067   2.959   4.341   3.065 -0.5771  0.6055 -0.4519
 2144SOL    HW118068   2.918   4.381   3.142 -0.3250  2.2138 -1.1702
 2144SOL    HW218069   3.053   4.348   3.082 -0.8892 -0.3924  1.6915
 2145SOL     OW18070   0.771   2.522   7.636 -0.4597 -0.7218  0.1244
 2145SOL    HW118071   0.718   2.492   7.710 -0.8986 -0.5082 -0.0992
 2145SOL    HW218072   0.768   2.615   7.660 -1.1092 -0.5201 -0.7093
 2146SOL     OW18073   2.381   2.193  10.727  0.2032 -0.1736 -0.1910
 2146SOL    HW118074   2.404   2.279  10.764 -1.9568 -0.6297  2.1885
 2146SOL    HW218075   2.370   2.136  10.803 -0.1062 -0.9371 -0.8119
 2147SOL     OW18076   4.318   1.041   9.052 -0.4757  0.6556  0.4502
 2147SOL    HW118077   4.412   1.047   9.064  0.1895 -1.2422 -3.7214
 2147SOL    HW218078   4.283   1.046   9.141 -0.9177  2.8567  0.1479
 2148SOL     OW18079   3.363   4.665   6.652  0.2751 -0.6036 -0.0363
 2148SOL    HW118080   3.340   4.620   6.733  0.8285  1.8035  1.4665
 2148SOL    HW218081   3.458   4.663   6.665  0.1973 -0.5456  0.5502
 2149SOL     OW18082   4.068   3.970   2.599  0.1051 -0.3013  0.0724
 2149SOL    HW118083   4.154   3.934   2.578  1.2652  3.4428 -1.5997
 2149SOL    HW218084   4.011   3.906   2.557  0.3631 -0.5918  0.1639
 2150SOL     OW18085   3.134   1.114   3.929 -0.6799 -0.2164  0.2232
 2150SOL    HW118086   3.170   1.053   3.865 -2.7521 -0.6109 -0.5767
 2150SOL    HW218087   3.197   1.112   4.001 -0.2471  0.8808 -0.1285
 2151SOL     OW18088   1.381   2.267  13.299  0.3515 -0.8761  0.0866
 2151SOL    HW118089   1.353   2.310  13.219  0.8650  0.4710  0.6175
 2151SOL    HW218090   1.296   2.249  13.339  0.7711  1.1553  1.9312
 2152SOL     OW18091   2.751   1.687   2.963  0.1982  0.4443  0.3439
 2152SOL    HW118092   2.696   1.635   3.022 -1.6236  3.0370  0.9254
 2152SOL    HW218093   2.835   1.682   3.009 -0.1302  1.2213  1.0211
 2153SOL     OW18094   0.920   0.467   1.878 -0.1495 -0.3627  0.0175
 2153SOL    HW118095   0.981   0.394   1.868  0.4480  0.0668  0.5249
 2153SOL    HW218096   0.835   0.424   1.891  0.1521 -0.6241  1.0949
 2154SOL     OW18097   4.702   0.733  15.654  0.1619  0.0116  0.3733
 2154SOL    HW118098   4.707   0.818  15.612 -2.6451  0.2635  0.5148
 2154SOL    HW218099   4.616   0.727  15.697 -0.9239 -1.2998 -1.9610
 2155SOL     OW18100   2.580   0.135   3.056  0.0248  0.2732 -0.2388
 2155SOL    HW118101   2.674   0.124   3.040  0.3947  0.6257  1.7154
 2155SOL    HW218102   2.575   0.229   3.038  0.0940  0.3462  0.1347
 2156SOL     OW18103   3.973   2.256  10.216 -0.2856  0.0219 -0.5727
 2156SOL    HW118104   3.934   2.339  10.242 -1.7675  0.1386 -3.1545
 2156SOL    HW218105   3.970   2.209  10.300  0.5525  1.2782  0.1513
 2157SOL     OW18106   0.937   4.245  11.075  0.1859  0.4050 -0.2737
 2157SOL    HW118107   0.969   4.157  11.093 -1.2859 -0.0732  0.0255
 2157SOL    HW218108   0.953   4.244  10.981 -1.4265 -0.3317 -0.5486
 2158SOL     OW18109   2.964   0.590   0.332 -0.0850 -0.4508 -0.2497
 2158SOL    HW118110   2.992   0.567   0.420  2.0804 -0.6992 -0.9848
 2158SOL    HW218111   2.958   0.684   0.351 -0.1550 -0.6693  0.7832
 2159SOL     OW18112   2.716   1.626   5.176  0.0475 -0.1556  0.6875
 2159SOL    HW118113   2.711   1.543   5.127 -1.1220  0.4850 -0.2896
 2159SOL    HW218114   2.629   1.637   5.214 -0.1341  0.2370  0.1558
 2160SOL     OW18115   1.702   2.897   2.427  0.5128  0.1791 -0.4862
 2160SOL    HW118116   1.724   2.896   2.521  0.3142  1.2396 -0.4189
 2160SOL    HW218117   1.773   2.956   2.401 -1.0880  0.9475 -3.1249
 2161SOL     OW18118   2.946   1.845  13.110  0.7129 -0.2576 -0.0056
 2161SOL    HW118119   2.958   1.910  13.179  0.9728 -0.4447  0.1278
 2161SOL    HW218120   2.866   1.865  13.061  1.1139 -0.1805 -0.6245
 2162SOL     OW18121   4.426   2.356   7.043  0.4933  0.2608  0.2471
 2162SOL    HW118122   4.379   2.295   7.099  0.3558  0.3899  0.2713
 2162SOL    HW218123   4.351   2.414   7.033 -0.9727 -1.6567  0.2004
 2163SOL     OW18124   3.513   3.821  17.297  0.6438  0.2160  0.8426
 2163SOL    HW118125   3.525   3.870  17.215  0.3196  0.6757  1.0685
 2163SOL    HW218126   3.420   3.807  17.309  0.5847 -1.0759 -1.1563
 2164SOL     OW18127   2.302   3.366  11.071 -0.3311 -0.4031  0.0734
 2164SOL    HW118128   2.358   3.376  10.994  0.9229 -1.1853  0.8751
 2164SOL    HW218129   2.368   3.325  11.127 -0.7765 -0.7668  0.3309
 2165SOL     OW18130   4.250   3.963   5.497 -0.3047  0.2003  0.2906
 2165SOL    HW118131   4.334   3.945   5.455 -0.3317  0.7716 -0.0104
 2165SOL    HW218132   4.237   3.884   5.548 -1.1207 -0.1748 -0.5043
 2166SOL     OW18133   4.625   3.758   7.957  0.7034 -0.5471 -0.7608
 2166SOL    HW118134   4.565   3.806   8.014 -0.0722 -2.6813  0.2202
 2166SOL    HW218135   4.585   3.758   7.870 -3.1851 -1.0653  1.0150
 2167SOL     OW18136   1.965   1.339   7.020 -0.0514 -0.0892 -0.5100
 2167SOL    HW118137   1.937   1.314   6.932  0.4875 -0.7595 -0.4908
 2167SOL    HW218138   1.923   1.424   7.033  0.2778  0.1647 -1.1421
 2168SOL     OW18139   2.784   2.231  15.993 -0.5283 -0.0535 -0.4185
 2168SOL    HW118140   2.689   2.236  16.005 -0.2267 -0.0044  2.1309
 2168SOL    HW218141   2.776   2.176  15.916 -0.0610 -0.7041  0.0022
 2169SOL     OW18142   3.817   0.418   5.880 -0.5081 -0.2591 -0.0855
 2169SOL    HW118143   3.749   0.358   5.912  0.8817 -1.7197  0.0978
 2169SOL    HW218144   3.860   0.361   5.817  0.1284 -1.4599  1.4382
 2170SOL     OW18145   1.516   0.195   1.449  0.4563 -0.5474 -0.2041
 2170SOL    HW118146   1.612   0.195   1.442  0.2779  0.3090 -2.8829
 2170SOL    HW218147   1.513   0.207   1.544 -0.3286  1.1808 -0.4467
 2171SOL     OW18148   4.619   0.102   4.013 -0.2229  0.1931  0.0723
 2171SOL    HW118149   4.688   0.062   4.067  0.5473  1.8028  0.3003
 2171SOL    HW218150   4.663   0.162   3.952  2.6622  0.5383  2.4808
 2172SOL     OW18151   1.280   1.035   4.854 -0.3357  0.4288 -0.1201
 2172SOL    HW118152   1.327   1.106   4.897  3.0696 -1.3972 -0.8350
 2172SOL    HW218153   1.269   0.969   4.923  1.6052 -1.8089 -1.9582
 2173SOL     OW18154   2.798   3.641   8.397 -0.6113  0.0257 -0.3432
 2173SOL    HW118155   2.832   3.567   8.447 -2.0749 -1.2191 -1.1976
 2173SOL    HW218156   2.869   3.679   8.345 -1.1023  0.7066 -0.5183
 2174SOL     OW18157   2.724   1.861   5.472 -0.9098 -0.5163  0.3600
 2174SOL    HW118158   2.787   1.790   5.460 -0.2429  0.4878 -2.0706
 2174SOL    HW218159   2.715   1.862   5.567  1.2681  0.0474  0.5750
 2175SOL     OW18160   3.409   2.738   5.331 -0.4019  0.5145 -0.1189
 2175SOL    HW118161   3.453   2.772   5.254 -0.2487  1.9201  0.5846
 2175SOL    HW218162   3.335   2.689   5.296 -0.0477 -1.4119  1.8068
 2176SOL     OW18163   0.114   4.657   4.644  0.0050 -0.6730  0.0215
 2176SOL    HW118164   0.026   4.684   4.617 -0.2025  0.5835  1.9425
 2176SOL    HW218165   0.121   4.565   4.620  0.5336 -1.6078  3.7016
 2177SOL     OW18166   3.078   2.488   2.609  0.5860  0.0914 -0.0114
 2177SOL    HW118167   3.150   2.455   2.555 -0.8586  0.9844 -2.4769
 2177SOL    HW218168   3.114   2.574   2.630  3.2693 -1.2627  0.9897
 2178SOL     OW18169   1.590   2.789  10.934 -0.3379  0.1135 -0.0735
 2178SOL    HW118170   1.543   2.770  11.016  0.2371  0.3804  0.3183
 2178SOL    HW218171   1.673   2.806  10.979  0.3232  2.9823 -2.3746
 2179SOL     OW18172   1.940   3.050   2.465  0.4782  0.1732 -0.5998
 2179SOL    HW118173   1.923   3.117   2.531 -0.5248  0.2830 -0.9792
 2179SOL    HW218174   1.952   2.979   2.528  1.2597  0.4567 -0.4281
 2180SOL     OW18175   3.053   1.449   6.660 -0.0534  0.0147 -0.5812
 2180SOL    HW118176   3.021   1.492   6.739  1.0004 -1.4709  0.6567
 2180SOL    HW218177   3.080   1.525   6.609  1.0724  1.1807  1.7531
 2181SOL     OW18178   2.634   1.879   4.619  0.3051  0.1922 -0.1213
 2181SOL    HW118179   2.575   1.918   4.683  0.7042 -1.6071  1.3311
 2181SOL    HW218180   2.700   1.848   4.680  1.1793 -0.5630 -1.4387
 2182SOL     OW18181   3.681   2.061   7.334  0.1972 -0.3462 -0.7407
 2182SOL    HW118182   3.664   2.042   7.426  1.4278 -0.1841 -0.4898
 2182SOL    HW218183   3.775   2.078   7.338  0.3747 -0.7209 -2.9904
 2183SOL     OW18184   3.598   2.000   3.849 -0.4722 -0.7866 -0.1304
 2183SOL    HW118185   3.588   1.937   3.921 -1.5927 -0.7032 -0.2035
 2183SOL    HW218186   3.519   2.054   3.855 -1.4552 -1.9655 -2.4529
 2184SOL     OW18187   1.525   3.094   9.071  0.0608 -0.4123  0.3742
 2184SOL    HW118188   1.508   3.000   9.084  0.5834 -0.7927 -1.7216
 2184SOL    HW218189   1.472   3.129   9.143  0.3765  0.1310  0.3366
 2185SOL     OW18190   0.109   3.675  14.844 -0.3256  0.2365  0.2000
 2185SOL    HW118191   0.198   3.695  14.872  0.2290 -0.2911 -1.1743
 2185SOL    HW218192   0.096   3.588  14.882 -0.5207  1.0470  2.0031
 2186SOL     OW18193   2.184   2.836   6.965  0.3658 -0.6043 -0.0938
 2186SOL    HW118194   2.094   2.849   6.995  1.1192  0.4393  1.7265
 2186SOL    HW218195   2.185   2.743   6.944  0.2176 -0.9851  1.5371
 2187SOL     OW18196   1.595   3.662  17.445  0.3072 -0.3237  0.3696
 2187SOL    HW118197   1.523   3.725  17.441  1.1017  0.5634  0.0160
 2187SOL    HW218198   1.644   3.687  17.367  1.3936 -1.6548  0.6261
 2188SOL     OW18199   3.563   2.534   8.138  0.7330 -0.4236 -0.5772
 2188SOL    HW118200   3.506   2.484   8.196 -1.0991  1.5612 -0.6689
 2188SOL    HW218201   3.508   2.533   8.060  0.2761 -0.2265 -0.2547
 2189SOL     OW18202   3.547   3.603  11.520  0.0217 -0.3607 -0.5377
 2189SOL    HW118203   3.611   3.651  11.468  0.2282 -0.3831 -0.3071
 2189SOL    HW218204   3.495   3.555  11.456 -0.5495 -3.0023  1.9071
 2190SOL     OW18205   1.794   2.659   5.680 -0.7955 -0.3216  0.0028
 2190SOL    HW118206   1.852   2.659   5.756  0.0082 -1.8727 -0.6060
 2190SOL    HW218207   1.734   2.587   5.702 -3.0284  1.4378 -0.2499
 2191SOL     OW18208   2.187   1.481  15.469  0.0337  0.0296  0.5368
 2191SOL    HW118209   2.194   1.510  15.378  0.1192  1.8470  1.1169
 2191SOL    HW218210   2.220   1.556  15.519 -2.0150  0.8691  0.6338
 2192SOL     OW18211   1.995   0.478   4.708 -0.5730 -0.1107 -0.1354
 2192SOL    HW118212   2.034   0.470   4.621  1.9374  1.9181  0.8189
 2192SOL    HW218213   1.967   0.569   4.709  0.0220  0.0461  1.8705
 2193SOL     OW18214   3.118   0.003   3.717 -0.3746 -0.2468  0.0919
 2193SOL    HW118215   3.183   4.698   3.773 -0.0605  1.5617  1.0585
 2193SOL    HW218216   3.121   4.693   3.633 -4.2428 -1.8293  0.8420
 2194SOL     OW18217   1.308   1.674   7.073  0.3736  0.1978  0.1743
 2194SOL    HW118218   1.245   1.649   7.142  1.2353  1.0522  1.2799
 2194SOL    HW218219   1.276   1.764   7.063  0.0812  0.2227  1.2695
 2195SOL     OW18220   0.342   4.040  12.219 -0.2656  0.0146 -0.2365
 2195SOL    HW118221   0.436   4.050  12.235  0.0104  1.8297 -3.0986
 2195SOL    HW218222   0.299   4.080  12.294 -0.5803 -0.3980 -0.1956
 2196SOL     OW18223   4.531   3.429   2.673  0.2939 -0.0009  0.4599
 2196SOL    HW118224   4.461   3.365   2.686 -0.0872  0.9612  3.0612
 2196SOL    HW218225   4.497   3.488   2.605  1.5329 -1.3930 -1.3958
 2197SOL     OW18226   0.109   2.624   8.934  0.1689  0.0173 -0.1878
 2197SOL    HW118227   0.016   2.647   8.940 -0.2563 -1.7442 -0.1845
 2197SOL    HW218228   0.134   2.634   9.026  2.4886  0.6757 -0.8751
 2198SOL     OW18229   2.426   1.081   3.253  0.2476  0.5748  0.3574
 2198SOL    HW118230   2.480   1.140   3.306 -1.1613 -0.1394  2.5579
 2198SOL    HW218231   2.355   1.062   3.314 -0.0697 -0.6155 -0.3956
 2199SOL     OW18232   4.094   1.034  12.924 -0.2892  0.5833 -0.4530
 2199SOL    HW118233   4.022   1.032  12.987  0.6420 -0.1889  0.5875
 2199SOL    HW218234   4.148   0.974  12.975 -0.4394 -0.4066 -1.4707
 2200SOL     OW18235   0.679   1.501  14.018  0.5170  0.3148 -0.4538
 2200SOL    HW118236   0.729   1.434  13.972  1.4843  2.1791 -2.1047
 2200SOL    HW218237   0.616   1.449  14.067 -0.1818 -0.2415 -1.9497
 2201SOL     OW18238   2.423   0.371  13.332 -0.4324 -0.0436 -0.7467
 2201SOL    HW118239   2.442   0.280  13.354 -2.3493 -0.2506  0.0582
 2201SOL    HW218240   2.345   0.362  13.278 -1.7974  1.6508  0.9419
 2202SOL     OW18241   1.252   3.674   3.924  0.0975  0.2590  0.2593
 2202SOL    HW118242   1.228   3.612   3.993  1.4087  0.1419  0.6120
 2202SOL    HW218243   1.332   3.710   3.962  0.2529 -0.8903  1.0323
 2203SOL     OW18244   1.392   1.963   5.606 -0.3218  0.0198 -0.2392
 2203SOL    HW118245   1.321   2.019   5.575  0.0256  0.9168  0.5604
 2203SOL    HW218246   1.372   1.931   5.694 -2.8266 -0.6528 -1.0813
 2204SOL     OW18247   2.400   2.051   7.992  0.3832  0.2329  0.2696
 2204SOL    HW118248   2.454   2.007   7.927  1.3563  0.8611  0.6417
 2204SOL    HW218249   2.379   1.975   8.046 -0.6996 -0.0168 -0.5039
 2205SOL     OW18250   3.692   2.407  16.291 -0.4497 -0.2024 -0.8159
 2205SOL    HW118251   3.695   2.314  16.269  1.9552  0.1866 -2.1797
 2205SOL    HW218252   3.654   2.399  16.379 -0.1351  1.8317 -0.4978
 2206SOL     OW18253   2.427   1.366   7.028  0.3215 -0.3116 -0.3830
 2206SOL    HW118254   2.522   1.354   7.019  0.6160  1.1930  0.8074
 2206SOL    HW218255   2.415   1.353   7.122  0.8845 -0.3169 -0.3103
 2207SOL     OW18256   2.316   0.285   1.386  0.6180 -0.3635  0.3967
 2207SOL    HW118257   2.315   0.199   1.344  0.0914  0.4920 -1.3286
 2207SOL    HW218258   2.400   0.321   1.357 -0.1967  0.0068 -1.4638
 2208SOL     OW18259   3.930   4.113   7.861 -0.7591 -0.0550  0.0940
 2208SOL    HW118260   4.006   4.166   7.838 -1.8902  1.0869 -1.0172
 2208SOL    HW218261   3.974   4.028   7.870  2.1858  1.7921  2.8275
 2209SOL     OW18262   1.486   1.351   4.013 -0.1258 -0.0827 -0.2595
 2209SOL    HW118263   1.424   1.318   4.079 -0.6242  0.2935 -0.5379
 2209SOL    HW218264   1.473   1.289   3.941 -1.3586 -1.7618  1.4033
 2210SOL     OW18265   3.126   0.274   1.635 -0.1026 -0.7531  0.2511
 2210SOL    HW118266   3.068   0.329   1.583  2.0949  1.5308  0.2024
 2210SOL    HW218267   3.195   0.331   1.669 -1.0031  0.9783 -0.8311
 2211SOL     OW18268   1.298   4.497  15.103 -0.7109 -0.1370  0.3132
 2211SOL    HW118269   1.218   4.506  15.154 -0.7075  1.2604  0.0625
 2211SOL    HW218270   1.281   4.435  15.032 -1.0647 -1.9433  1.9544
 2212SOL     OW18271   2.246   0.231   3.951 -0.5150 -0.3106 -0.5078
 2212SOL    HW118272   2.236   0.138   3.930 -0.9020 -0.6936  1.3875
 2212SOL    HW218273   2.303   0.262   3.880 -1.5255  0.3784 -1.0113
 2213SOL     OW18274   0.569   1.116   5.167 -0.2166 -0.1582 -0.3771
 2213SOL    HW118275   0.627   1.095   5.240 -2.1930  0.3493  1.3468
 2213SOL    HW218276   0.506   1.044   5.165  1.6875 -1.8851  1.8617
 2214SOL     OW18277   2.361   1.771   8.047 -0.3048 -0.3093  0.1534
 2214SOL    HW118278   2.287   1.715   8.025 -0.1479 -0.0287 -1.1155
 2214SOL    HW218279   2.398   1.707   8.107  0.2100  1.4665  1.7190
 2215SOL     OW18280   1.322   1.273  16.761  0.3566  0.2762 -0.7730
 2215SOL    HW118281   1.366   1.358  16.759  0.6367  0.2023  2.5142
 2215SOL    HW218282   1.304   1.267  16.667 -1.0499  1.1660 -0.5530
 2216SOL     OW18283   2.044   2.500  10.072  0.2073 -0.1128  0.0565
 2216SOL    HW118284   2.026   2.445   9.996  2.3698 -0.2802 -0.3460
 2216SOL    HW218285   2.071   2.584  10.036 -0.3679 -0.4378 -1.1172
 2217SOL     OW18286   1.186   0.239  16.258 -0.1948  0.4419  0.4254
 2217SOL    HW118287   1.204   0.329  16.232  0.7577  0.4722  1.1853
 2217SOL    HW218288   1.221   0.232  16.347 -2.7492  3.2094  1.6324
 2218SOL     OW18289   2.116   1.714   5.508  0.3309  0.1102  0.3842
 2218SOL    HW118290   2.044   1.685   5.564  1.0033 -1.3701  0.4980
 2218SOL    HW218291   2.156   1.632   5.480  2.2848  0.7380  1.3450
 2219SOL     OW18292   3.492   0.014   7.058 -0.2212 -0.2539  0.2627
 2219SOL    HW118293   3.526   4.662   7.052  0.6988  0.2287 -1.9229
 2219SOL    HW218294   3.410   0.008   7.010  0.3639 -2.0619 -0.5125
 2220SOL     OW18295   3.576   1.579  16.650  0.0861  0.1972 -0.4766
 2220SOL    HW118296   3.578   1.496  16.696  0.3599  0.3233 -0.2602
 2220SOL    HW218297   3.625   1.577  16.568 -1.2361 -0.7523 -1.2486
 2221SOL     OW18298   3.350   3.970   6.807 -0.2513 -0.2230  0.0364
 2221SOL    HW118299   3.259   3.982   6.834 -0.7682 -1.1069 -1.3065
 2221SOL    HW218300   3.389   3.942   6.890  0.1334  2.6510  0.8201
 2222SOL     OW18301   0.258   3.749  14.222 -0.1042  0.4862 -0.5442
 2222SOL    HW118302   0.170   3.715  14.235 -0.1090  0.5480 -0.4226
 2222SOL    HW218303   0.242   3.841  14.199  1.6896  1.3935  1.8410
 2223SOL     OW18304   3.907   3.295   5.667 -0.0200 -0.3168 -0.0277
 2223SOL    HW118305   3.939   3.354   5.599  3.0702  1.0683  2.6450
 2223SOL    HW218306   3.893   3.357   5.738  1.6187 -1.9613  1.7341
 2224SOL     OW18307   0.915   0.035   2.511 -0.2782 -0.1504  0.7084
 2224SOL    HW118308   0.990   0.005   2.562 -1.9723 -3.4026  1.2911
 2224SOL    HW218309   0.848   4.722   2.556 -0.6723 -1.2650 -1.0883
 2225SOL     OW18310   3.599   2.636   1.584 -0.2044 -0.3510 -0.4389
 2225SOL    HW118311   3.635   2.547   1.576 -0.8321 -0.8828  2.7058
 2225SOL    HW218312   3.511   2.613   1.614 -0.9821  3.4995  0.1578
 2226SOL     OW18313   0.232   1.791   6.806  0.3923 -0.0922 -0.1914
 2226SOL    HW118314   0.306   1.805   6.746 -0.4564 -2.2660 -1.7580
 2226SOL    HW218315   0.266   1.834   6.885 -2.2857  0.7611  0.4825
 2227SOL     OW18316   2.365   4.346  15.718  0.0469  0.2065  0.2939
 2227SOL    HW118317   2.327   4.433  15.704  2.8370  0.9509 -2.5712
 2227SOL    HW218318   2.409   4.364  15.800  1.4755 -1.4528 -0.1128
 2228SOL     OW18319   3.017   4.558  16.122  0.5356  0.0386 -0.0892
 2228SOL    HW118320   2.944   4.549  16.184  1.4618 -0.4821  0.9287
 2228SOL    HW218321   3.031   4.652  16.125 -0.3329  0.1005  2.2807
 2229SOL     OW18322   0.405   0.276   6.989 -0.0703 -0.2433 -0.1770
 2229SOL    HW118323   0.494   0.259   6.959 -0.8277 -1.0844 -1.9608
 2229SOL    HW218324   0.367   0.215   6.926 -0.8610 -0.3757  0.4251
 2230SOL     OW18325   3.498   3.967   4.253  0.0442 -0.6518 -0.1366
 2230SOL    HW118326   3.555   3.958   4.177 -0.2615 -0.8310 -0.3474
 2230SOL    HW218327   3.555   4.004   4.320 -0.0612 -0.7955  0.0306
 2231SOL     OW18328   3.378   2.691   4.867 -0.2607  0.2945  0.3066
 2231SOL    HW118329   3.429   2.619   4.830  1.0223  0.6338  1.4142
 2231SOL    HW218330   3.302   2.698   4.810 -1.1612 -0.7236  1.3677
 2232SOL     OW18331   0.493   3.636   3.325  0.1955 -0.1451  0.2447
 2232SOL    HW118332   0.512   3.654   3.418  0.0752  0.6193  0.1175
 2232SOL    HW218333   0.550   3.695   3.276 -1.1220  0.7645 -0.1591
 2233SOL     OW18334   0.268   1.095   0.170 -0.1580 -0.4090  0.3434
 2233SOL    HW118335   0.351   1.079   0.124  0.2509  1.3500  0.4503
 2233SOL    HW218336   0.311   1.128   0.249  0.4495 -1.7504  0.5768
 2234SOL     OW18337   3.459   1.544  10.633  0.5035  0.0440  0.5664
 2234SOL    HW118338   3.401   1.470  10.650  0.2351 -0.0494 -0.8185
 2234SOL    HW218339   3.544   1.501  10.641 -0.4906 -2.2580 -1.2368
 2235SOL     OW18340   2.372   3.911   2.429 -0.6041  0.9155 -0.3515
 2235SOL    HW118341   2.314   3.835   2.431 -0.6479  0.9384 -0.7436
 2235SOL    HW218342   2.421   3.878   2.505 -1.4080 -0.1852 -0.3011
 2236SOL     OW18343   1.720   2.657   8.798  0.1322 -0.0272  0.1303
 2236SOL    HW118344   1.705   2.599   8.873 -0.2750 -0.3943 -0.2317
 2236SOL    HW218345   1.627   2.660   8.776  0.9242 -1.3014 -3.3958
 2237SOL     OW18346   4.534   3.048   5.988 -0.4490  0.7538  0.1196
 2237SOL    HW118347   4.468   2.979   5.985  0.5499 -0.1071 -1.3307
 2237SOL    HW218348   4.481   3.126   6.007 -0.7617  0.7946 -0.9395
 2238SOL     OW18349   3.674   2.260   8.145  0.6926 -0.4492  0.8287
 2238SOL    HW118350   3.584   2.274   8.174 -0.8432 -1.2355 -3.5594
 2238SOL    HW218351   3.690   2.313   8.066  1.1560  0.6858  1.6811
 2239SOL     OW18352   2.765   2.431   3.072  0.3598 -0.1761  0.4253
 2239SOL    HW118353   2.774   2.337   3.056  1.8698  0.1190 -0.4767
 2239SOL    HW218354   2.724   2.455   2.989 -1.2670  0.9123  1.5360
 2240SOL     OW18355   4.115   1.135   3.906 -0.0505  0.2644 -0.2307
 2240SOL    HW118356   4.172   1.149   3.831  0.2490  2.3745  0.3997
 2240SOL    HW218357   4.077   1.221   3.921 -1.5541 -0.3873 -0.3251
 2241SOL     OW18358   3.579   4.447   7.068  0.0786 -0.6078 -0.0449
 2241SOL    HW118359   3.602   4.453   7.161  0.4642  3.6222 -0.4150
 2241SOL    HW218360   3.532   4.364   7.067 -1.0987  0.0627 -0.3688
 2242SOL     OW18361   2.390   3.189  16.648  0.3927 -0.3514  0.2149
 2242SOL    HW118362   2.329   3.166  16.718  0.7428 -0.4275  0.4939
 2242SOL    HW218363   2.457   3.244  16.689 -0.1814  0.0827  0.5890
 2243SOL     OW18364   4.575   4.451   2.646  0.3019 -0.0623  0.1447
 2243SOL    HW118365   4.566   4.379   2.584  0.1704  1.9552 -2.1912
 2243SOL    HW218366   4.491   4.439   2.691 -1.0874 -1.7601 -2.8999
 2244SOL     OW18367   0.878   3.788   5.381  0.6700 -0.3477  0.1084
 2244SOL    HW118368   0.864   3.702   5.423 -1.0472  0.7308  1.7603
 2244SOL    HW218369   0.972   3.787   5.403  0.8797 -1.0433 -0.7864
 2245SOL     OW18370   4.111   1.531   8.696  1.0373 -0.0732 -0.0265
 2245SOL    HW118371   4.169   1.600   8.730  0.5481  0.9794 -1.3322
 2245SOL    HW218372   4.055   1.532   8.773  0.8214  0.3935 -0.1848
 2246SOL     OW18373   0.086   1.835   7.371  0.0857  0.5496 -0.1982
 2246SOL    HW118374   0.067   1.919   7.415 -2.2214 -0.0643 -0.0160
 2246SOL    HW218375   0.014   1.790   7.415  0.8371 -0.6308 -0.1694
 2247SOL     OW18376   2.941   1.527   6.922  0.5386  0.3013  0.6855
 2247SOL    HW118377   2.919   1.606   6.972 -1.7704  0.9742 -1.3924
 2247SOL    HW218378   3.015   1.486   6.966  0.4519 -1.4970 -0.8307
 2248SOL     OW18379   3.095   3.079   2.885  0.5185  0.5473  0.0361
 2248SOL    HW118380   3.107   3.101   2.977  1.0209  2.0756 -0.3944
 2248SOL    HW218381   3.069   2.987   2.891  1.7340  0.1773 -0.3460
 2249SOL     OW18382   4.222   0.295   9.464 -0.4730 -0.0739 -0.6902
 2249SOL    HW118383   4.281   0.266   9.534  1.3248  1.4874 -1.5795
 2249SOL    HW218384   4.204   0.383   9.497  0.7232 -0.2401  0.4238
 2250SOL     OW18385   3.108   1.352   9.063 -0.8057 -0.0586 -0.0329
 2250SOL    HW118386   3.168   1.418   9.098 -1.5216  1.6336 -2.0398
 2250SOL    HW218387   3.033   1.403   9.032 -1.6052  0.4637  2.7987
 2251SOL     OW18388   2.569   1.285   6.374  0.4650  0.2496 -0.3884
 2251SOL    HW118389   2.555   1.215   6.437 -0.1701  0.5049 -0.2476
 2251SOL    HW218390   2.599   1.238   6.296  0.0003 -1.0888  0.2542
 2252SOL     OW18391   3.842   0.353   8.390  0.5222 -0.7363  0.5423
 2252SOL    HW118392   3.904   0.343   8.318 -0.3352 -0.0942 -0.2978
 2252SOL    HW218393   3.833   0.448   8.383 -0.7810 -0.9767 -1.2318
 2253SOL     OW18394   2.233   4.727   5.455 -0.0483  0.2229 -0.0951
 2253SOL    HW118395   2.177   0.038   5.394  0.3304  0.8838  0.0705
 2253SOL    HW218396   2.285   0.064   5.486  0.1825  0.5442 -1.2526
 2254SOL     OW18397   1.979   1.002   2.432  0.1464  0.3244  0.3893
 2254SOL    HW118398   1.953   1.043   2.350 -0.3376  1.7277  1.2465
 2254SOL    HW218399   1.995   0.915   2.396  1.2419  0.6773  0.0159
 2255SOL     OW18400   1.108   2.021  16.724  0.4113 -0.4398  0.2216
 2255SOL    HW118401   1.061   1.965  16.662 -1.1552 -0.9994  1.9168
 2255SOL    HW218402   1.175   1.960  16.756  2.3887  1.3306 -0.5030
 2256SOL     OW18403   0.979   3.156   3.674 -0.4353 -0.4096  0.0014
 2256SOL    HW118404   0.986   3.247   3.705 -2.0961 -0.7098  1.2280
 2256SOL    HW218405   0.891   3.154   3.637 -0.4022  2.9154 -0.2786
 2257SOL     OW18406   0.619   4.253  11.245  0.0423  0.4330 -0.3804
 2257SOL    HW118407   0.590   4.203  11.321 -0.8948  0.0742 -0.9698
 2257SOL    HW218408   0.640   4.337  11.286 -1.5991 -0.2979  1.9571
 2258SOL     OW18409   3.508   2.505  13.519 -0.2546  0.1788 -0.0293
 2258SOL    HW118410   3.528   2.427  13.569 -0.3733  0.2073  0.0624
 2258SOL    HW218411   3.428   2.539  13.561  1.2223  1.6077  1.6302
 2259SOL     OW18412   3.479   4.573   3.084 -0.5542 -0.4812  0.0829
 2259SOL    HW118413   3.460   4.629   3.009 -0.0182 -0.2042  0.1631
 2259SOL    HW218414   3.489   4.488   3.041 -1.0849 -0.2754 -0.4469
 2260SOL     OW18415   1.920   1.812   8.030 -0.6607  0.3053  0.0042
 2260SOL    HW118416   1.961   1.732   7.996 -0.3915  0.9326 -1.1296
 2260SOL    HW218417   1.966   1.881   7.981 -1.6806  0.4713 -0.7157
 2261SOL     OW18418   3.880   4.147   4.317 -0.4565  0.5164  0.0650
 2261SOL    HW118419   3.933   4.223   4.292  0.1825  0.0015 -0.1512
 2261SOL    HW218420   3.870   4.100   4.234  3.4178  0.9185 -0.6348
 2262SOL     OW18421   2.699   4.417   2.052  0.2953 -0.1823  0.2825
 2262SOL    HW118422   2.646   4.489   2.087 -0.6298 -1.1253  0.8113
 2262SOL    HW218423   2.753   4.487   2.014 -2.0183  1.9506  0.9271
 2263SOL     OW18424   0.922   1.886   8.428  0.0853 -0.1384  0.3008
 2263SOL    HW118425   0.854   1.822   8.449 -0.6094  0.6958  0.5894
 2263SOL    HW218426   0.883   1.946   8.364  1.3775 -0.0159 -0.3617
 2264SOL     OW18427   0.223   1.210  12.350 -0.2842 -0.0525  0.1916
 2264SOL    HW118428   0.221   1.271  12.424 -1.7364 -0.9961  0.9344
 2264SOL    HW218429   0.254   1.134  12.400  0.0723  0.3481  0.5885
 2265SOL     OW18430   2.329   4.362   8.891 -0.1805  0.1600 -0.2332
 2265SOL    HW118431   2.308   4.371   8.984 -2.4154  1.1022 -0.8271
 2265SOL    HW218432   2.248   4.324   8.855 -1.5012  2.7704 -0.0967
 2266SOL     OW18433   3.603   2.745   7.245 -0.1655 -0.4393  0.3846
 2266SOL    HW118434   3.537   2.795   7.198  1.4601  0.7098 -0.6865
 2266SOL    HW218435   3.676   2.806   7.247 -0.2920 -0.3582  1.8473
 2267SOL     OW18436   3.552   1.278   4.643  0.1489  0.1817  0.0961
 2267SOL    HW118437   3.573   1.218   4.714 -2.1468 -1.5976 -0.7291
 2267SOL    HW218438   3.493   1.332   4.696 -1.4568 -1.9332  0.4719
 2268SOL     OW18439   4.316   4.495  11.949  0.3639 -0.2863  0.0078
 2268SOL    HW118440   4.358   4.581  11.954  1.2341 -0.8117  2.0294
 2268SOL    HW218441   4.363   4.443  12.015 -2.9240 -0.9781  1.8171
 2269SOL     OW18442   3.693   3.605  10.790  0.3568 -0.2398  0.6090
 2269SOL    HW118443   3.671   3.511  10.788  0.2650 -0.2215  0.7973
 2269SOL    HW218444   3.629   3.634  10.726  2.0369 -0.0797 -0.9989
 2270SOL     OW18445   4.644   0.002   2.114 -0.3178  0.0057  0.3215
 2270SOL    HW118446   4.561   0.002   2.163  1.1783  0.2399  2.8180
 2270SOL    HW218447   4.613   0.054   2.040  2.4855 -0.1647 -0.9658
 2271SOL     OW18448   2.092   4.457  14.402 -0.7178 -0.1848 -0.2402
 2271SOL    HW118449   2.065   4.434  14.491 -0.1880  0.0909 -0.0105
 2271SOL    HW218450   2.170   4.405  14.384 -0.1271  0.0051  1.8516
 2272SOL     OW18451   2.473   3.732   4.797  0.6782 -0.2197  0.6646
 2272SOL    HW118452   2.496   3.653   4.845 -0.2244 -1.5035 -1.0426
 2272SOL    HW218453   2.555   3.781   4.801  0.1700  0.9532 -2.7955
 2273SOL     OW18454   0.189   4.535   3.311 -0.0798 -0.0903  0.9280
 2273SOL    HW118455   0.107   4.490   3.295 -0.3394 -0.3150  2.8692
 2273SOL    HW218456   0.230   4.509   3.228 -2.0608  0.5466 -0.2446
 2274SOL     OW18457   1.719   2.493   3.408 -0.3295  0.3268  0.4294
 2274SOL    HW118458   1.657   2.566   3.401 -0.5342  0.0381 -0.6296
 2274SOL    HW218459   1.747   2.493   3.317 -0.7826  0.9600  0.2868
 2275SOL     OW18460   3.508   2.071   4.205 -0.5105  0.4551 -0.3223
 2275SOL    HW118461   3.447   2.049   4.276 -0.5191  1.1560 -0.1183
 2275SOL    HW218462   3.557   2.145   4.241 -0.4168 -0.1862  0.8890
 2276SOL     OW18463   0.131   1.032   1.513  0.1093 -0.1048  0.3084
 2276SOL    HW118464   0.138   1.089   1.589  1.6369  0.9755 -0.6507
 2276SOL    HW218465   0.189   0.957   1.526 -0.5741 -0.2716  2.3779
 2277SOL     OW18466   2.716   1.113   6.192  0.1424 -0.6042 -0.1347
 2277SOL    HW118467   2.730   1.081   6.281 -0.4563  0.4893  0.3520
 2277SOL    HW218468   2.805   1.122   6.159  0.5154 -0.3107  0.9435
 2278SOL     OW18469   1.744   2.563   7.592  0.4057  0.0032 -0.0455
 2278SOL    HW118470   1.723   2.539   7.502  0.8580  0.8951 -0.3905
 2278SOL    HW218471   1.822   2.509   7.607 -0.0194 -0.8802 -0.9721
 2279SOL     OW18472   3.425   4.370   9.647 -0.0288  0.0809 -0.1776
 2279SOL    HW118473   3.499   4.370   9.587 -1.7092  0.4053 -2.2204
 2279SOL    HW218474   3.451   4.438   9.709  0.7861  0.8878 -1.4124
 2280SOL     OW18475   1.824   2.858   1.529 -0.1479 -0.1210 -0.3616
 2280SOL    HW118476   1.881   2.910   1.585  0.1579 -2.2641  1.3532
 2280SOL    HW218477   1.880   2.781   1.518  0.9756  0.5743  0.4952
 2281SOL     OW18478   0.638   0.653   2.830 -0.3909 -0.0145 -0.6941
 2281SOL    HW118479   0.569   0.586   2.826  0.6382 -1.0383 -1.1837
 2281SOL    HW218480   0.703   0.611   2.885 -2.6216  0.6269  2.4476
 2282SOL     OW18481   3.235   4.019   2.857  0.4951 -0.2000  0.2597
 2282SOL    HW118482   3.151   4.030   2.901 -0.5484 -0.2133 -1.7069
 2282SOL    HW218483   3.221   4.058   2.770 -0.8221 -0.2632  0.4548
 2283SOL     OW18484   4.200   2.535  17.604 -0.0068  0.5265  0.4175
 2283SOL    HW118485   4.142   2.495  17.668  0.2703  1.5217  1.2904
 2283SOL    HW218486   4.262   2.462  17.601  0.6499  1.0791  0.6023
 2284SOL     OW18487   1.012   0.513   4.829 -0.4185  0.2588 -0.0792
 2284SOL    HW118488   1.051   0.590   4.789 -0.2324 -1.1624 -2.6776
 2284SOL    HW218489   1.088   0.463   4.859 -0.4908  0.8896  1.1361
 2285SOL     OW18490   1.437   0.952   6.507  0.2744  0.1985  0.2922
 2285SOL    HW118491   1.350   0.975   6.538 -0.0120 -2.6551  1.6236
 2285SOL    HW218492   1.487   1.030   6.530  0.3789  0.7849 -1.9667
 2286SOL     OW18493   0.991   4.597   4.695 -0.7359 -0.4700  0.1317
 2286SOL    HW118494   1.001   4.590   4.600  0.6046 -0.6109  0.2832
 2286SOL    HW218495   0.895   4.603   4.695 -0.6426  1.0071 -1.3438
 2287SOL     OW18496   1.900   0.371   6.533 -0.1758  0.3417  0.2745
 2287SOL    HW118497   1.863   0.293   6.575  0.0889  0.6362  1.0598
 2287SOL    HW218498   1.822   0.415   6.499 -0.4220  0.2709  0.7406
 2288SOL     OW18499   4.615   1.016   1.975  0.2387  0.5334  0.7540
 2288SOL    HW118500   4.614   1.016   1.879  0.3812  0.5299  0.7524
 2288SOL    HW218501   4.528   1.045   2.001  0.1233  0.2710  0.6625
 2289SOL     OW18502   0.448   2.358   2.476 -0.2203  0.0266 -0.5044
 2289SOL    HW118503   0.403   2.331   2.557 -0.0949 -0.0680 -0.4661
 2289SOL    HW218504   0.456   2.274   2.431 -0.9444 -0.5043  0.3531
 2290SOL     OW18505   0.150   1.289   2.599 -0.7276  0.3949  0.1233
 2290SOL    HW118506   0.199   1.341   2.536 -3.5139 -0.5715 -2.8286
 2290SOL    HW218507   0.148   1.207   2.551 -3.4863 -0.3004  1.3949
 2291SOL     OW18508   2.331   4.017   2.912  0.0115  0.0278 -0.3553
 2291SOL    HW118509   2.268   4.004   2.841 -0.5574  0.4774  0.0624
 2291SOL    HW218510   2.362   4.102   2.883  2.0986 -0.3653  0.6742
 2292SOL     OW18511   4.259   0.678   9.439 -0.5531 -0.1871  0.6744
 2292SOL    HW118512   4.215   0.728   9.370  2.6232 -1.1424 -2.0485
 2292SOL    HW218513   4.194   0.663   9.507 -0.7055  0.2891  0.6359
 2293SOL     OW18514   1.802   3.197   6.605 -0.0931  0.0160 -0.0592
 2293SOL    HW118515   1.818   3.104   6.615  1.0137  0.2376  0.2731
 2293SOL    HW218516   1.879   3.212   6.551 -0.5899  1.3483 -0.3978
 2294SOL     OW18517   3.155   2.308   2.813 -0.0364 -0.9798  0.2297
 2294SOL    HW118518   3.096   2.356   2.755  1.2741 -2.1102 -2.0003
 2294SOL    HW218519   3.200   2.251   2.751 -0.7935 -0.3815 -0.8682
 2295SOL     OW18520   1.561   4.290   4.732  0.1440  0.1865  0.0467
 2295SOL    HW118521   1.624   4.345   4.685 -0.8574  1.6145  0.3817
 2295SOL    HW218522   1.585   4.197   4.730 -1.1287 -0.1122 -1.0046
 2296SOL     OW18523   0.853   0.662   2.518 -0.0602  0.1680  0.2254
 2296SOL    HW118524   0.806   0.692   2.595  0.5230  3.3015 -0.5933
 2296SOL    HW218525   0.791   0.691   2.451  0.5259 -0.0225 -0.4024
 2297SOL     OW18526   2.096   4.589   8.193  0.7021 -0.5805 -0.2897
 2297SOL    HW118527   2.161   4.580   8.262 -0.0695 -0.6974  0.4211
 2297SOL    HW218528   2.088   4.497   8.168  2.7822 -0.7664 -0.2822
 2298SOL     OW18529   0.093   2.107  13.004 -0.4676 -0.2965 -0.0281
 2298SOL    HW118530   0.077   2.012  13.007 -0.7810 -0.1988  1.4653
 2298SOL    HW218531   0.023   2.134  12.944 -1.0281  0.8000  1.1254
 2299SOL     OW18532   1.124   0.723   4.400  0.3924  0.3956 -0.7318
 2299SOL    HW118533   1.097   0.784   4.469  2.2788  2.0282 -1.4478
 2299SOL    HW218534   1.037   0.712   4.362  0.6427  0.3436 -1.2842
 2300SOL     OW18535   4.092   2.013  16.630  0.1353  0.0031  0.3457
 2300SOL    HW118536   4.001   2.037  16.613 -0.3476 -2.5010 -0.6089
 2300SOL    HW218537   4.126   2.008  16.540 -0.7856 -0.5272  0.0255
 2301SOL     OW18538   4.457   3.955   2.951  1.1303  0.3945  0.3137
 2301SOL    HW118539   4.373   3.917   2.928  0.9718  0.6173  0.5161
 2301SOL    HW218540   4.463   4.037   2.902  1.3195 -0.7778 -1.6036
 2302SOL     OW18541   3.036   1.273   5.651 -0.3005 -1.0888 -0.1580
 2302SOL    HW118542   2.985   1.299   5.574  1.9914  4.1416  0.1442
 2302SOL    HW218543   2.982   1.311   5.720 -1.2378  1.4064 -2.2845
 2303SOL     OW18544   3.032   0.097   4.110 -0.2715  0.2022 -0.4766
 2303SOL    HW118545   2.964   0.164   4.109  0.3273  0.7733 -2.4487
 2303SOL    HW218546   2.997   0.035   4.046  0.8095  0.1889 -1.0482
 2304SOL     OW18547   3.303   3.387  17.530 -0.3257 -0.0349 -0.3088
 2304SOL    HW118548   3.345   3.438  17.600  0.5651  2.0022 -2.3130
 2304SOL    HW218549   3.354   3.400  17.450  0.7073  0.3815  0.4007
 2305SOL     OW18550   3.400   1.388  13.971 -0.1696 -0.3709  0.4018
 2305SOL    HW118551   3.483   1.378  14.017 -0.4081  1.2055  1.1475
 2305SOL    HW218552   3.385   1.298  13.942  0.1825 -1.4420  3.5698
 2306SOL     OW18553   0.763   1.479  10.643  0.0044  0.0579 -0.2732
 2306SOL    HW118554   0.798   1.405  10.694  1.7059  1.1883  0.2233
 2306SOL    HW218555   0.784   1.547  10.707 -0.7769 -1.3511  1.4591
 2307SOL     OW18556   4.024   4.196  16.115  0.2146  0.4176 -0.1797
 2307SOL    HW118557   4.047   4.127  16.054  1.5439 -1.0967  2.0306
 2307SOL    HW218558   3.949   4.241  16.076 -0.4055 -0.5104 -0.0637
 2308SOL     OW18559   2.195   2.331   4.656  0.5496 -0.3576 -0.0733
 2308SOL    HW118560   2.288   2.310   4.657  0.9247  1.3430 -0.1009
 2308SOL    HW218561   2.157   2.243   4.662  1.0459 -0.6168 -0.7327
 2309SOL     OW18562   1.352   3.485  14.885  0.1649 -0.4056  0.1883
 2309SOL    HW118563   1.312   3.501  14.800  2.4338 -0.8395 -0.9872
 2309SOL    HW218564   1.439   3.514  14.856  0.7485 -1.3201  1.0091
 2310SOL     OW18565   0.801   0.095   7.710 -0.1720 -0.2526  0.4638
 2310SOL    HW118566   0.820   0.069   7.620  0.1427  1.2918  0.0922
 2310SOL    HW218567   0.794   0.190   7.701  1.1921  0.0364  2.4202
 2311SOL     OW18568   4.715   1.342   6.668 -0.0130 -0.3197 -0.2629
 2311SOL    HW118569   0.059   1.379   6.704 -0.8843 -1.4130  2.7652
 2311SOL    HW218570   4.718   1.385   6.582  0.8051 -1.9148 -1.0331
 2312SOL     OW18571   0.852   1.093   5.549  0.4778  0.3716  0.7355
 2312SOL    HW118572   0.905   1.013   5.553 -1.1470 -0.8974 -2.5614
 2312SOL    HW218573   0.778   1.086   5.488 -1.0231 -2.0877  2.8198
 2313SOL     OW18574   0.710   4.325  11.643 -0.6551 -0.3984 -0.0280
 2313SOL    HW118575   0.641   4.353  11.703 -0.3056  1.7545 -0.6079
 2313SOL    HW218576   0.759   4.276  11.708 -0.3749 -1.5481 -1.1041
 2314SOL     OW18577   3.262   3.757   1.922  0.0500 -0.0838 -0.0136
 2314SOL    HW118578   3.273   3.665   1.948 -0.8430  0.2390  1.5150
 2314SOL    HW218579   3.200   3.747   1.850 -2.0431 -1.2986  1.9196
 2315SOL     OW18580   1.233   2.661  14.470  0.7488  0.1607  0.5014
 2315SOL    HW118581   1.279   2.669  14.387  0.3397 -1.0377  0.1573
 2315SOL    HW218582   1.317   2.666  14.515  1.2712 -1.7745 -0.2422
 2316SOL     OW18583   4.271   0.145   2.659 -0.5053  0.7237  0.8573
 2316SOL    HW118584   4.366   0.140   2.671 -0.9893 -3.7146  3.2777
 2316SOL    HW218585   4.261   0.207   2.587 -3.0063  2.2175  2.4804
 2317SOL     OW18586   3.127   3.071   7.678 -0.0039  0.2012  0.1576
 2317SOL    HW118587   3.082   3.155   7.673  0.5109  0.3865 -1.5124
 2317SOL    HW218588   3.140   3.070   7.773  2.3811  1.6744 -0.1438
 2318SOL     OW18589   1.731   0.560  14.772  0.4207  0.6277 -0.2908
 2318SOL    HW118590   1.723   0.586  14.681 -2.8215  1.2088  0.1669
 2318SOL    HW218591   1.738   0.465  14.767  0.4850  0.5964  0.3668
 2319SOL     OW18592   2.384   4.135   4.599 -0.4092  0.2995  0.1121
 2319SOL    HW118593   2.295   4.150   4.630 -0.8877  0.7015 -1.4516
 2319SOL    HW218594   2.379   4.090   4.514 -3.7948  3.5348 -1.4147
 2320SOL     OW18595   3.725   3.221   5.466 -0.1909 -0.5568  0.0062
 2320SOL    HW118596   3.742   3.249   5.556  0.7492  0.6582 -0.5514
 2320SOL    HW218597   3.654   3.158   5.477  0.4414 -1.2436  0.1285
 2321SOL     OW18598   4.136   0.583   7.247  0.1546  0.7460 -0.0986
 2321SOL    HW118599   4.088   0.503   7.222  0.5233  0.4910  0.0056
 2321SOL    HW218600   4.070   0.651   7.242  0.7178  1.2342 -0.8943
 2322SOL     OW18601   1.889   1.580   3.655  0.1572  0.4482 -0.1272
 2322SOL    HW118602   1.842   1.661   3.669  0.8144  1.2680 -2.6537
 2322SOL    HW218603   1.941   1.613   3.581  0.7930 -1.9972 -0.7802
 2323SOL     OW18604   3.474   4.696  17.328  0.5965 -0.0483 -0.2570
 2323SOL    HW118605   3.401   4.667  17.383  1.2277  1.3580  1.3091
 2323SOL    HW218606   3.545   4.671  17.387 -0.5770 -0.7427  0.8426
 2324SOL     OW18607   0.564   3.501   7.128  0.3754 -0.6314  0.5277
 2324SOL    HW118608   0.606   3.515   7.044 -1.0968  0.4873 -0.0283
 2324SOL    HW218609   0.489   3.445   7.110  0.7103 -0.1618 -2.2994
 2325SOL     OW18610   0.520   2.407  17.040 -0.1517 -0.0600  0.3778
 2325SOL    HW118611   0.440   2.448  17.073  0.0358 -1.0129  2.0030
 2325SOL    HW218612   0.554   2.485  16.997  2.9433 -1.9906 -0.6738
 2326SOL     OW18613   4.567   3.255   8.483  0.1026  0.1177 -0.1740
 2326SOL    HW118614   4.560   3.169   8.441 -1.1020  0.7833 -1.3404
 2326SOL    HW218615   4.506   3.299   8.423 -1.5429  0.3633  1.6592
 2327SOL     OW18616   0.421   2.603   5.515  0.3629 -0.7837  0.0116
 2327SOL    HW118617   0.485   2.668   5.545  0.6693 -1.3281  0.5380
 2327SOL    HW218618   0.384   2.577   5.599 -0.8180  1.3356  0.1329
 2328SOL     OW18619   1.647   3.477   4.035 -0.1191  0.5394  0.0016
 2328SOL    HW118620   1.650   3.388   4.069 -1.1687  0.7527  0.6462
 2328SOL    HW218621   1.726   3.473   3.981  0.6443 -0.1974  1.1842
 2329SOL     OW18622   3.413   1.796   5.209 -0.1560 -0.1512 -0.0927
 2329SOL    HW118623   3.321   1.804   5.183 -1.0424 -2.7738  2.3730
 2329SOL    HW218624   3.404   1.804   5.303  1.1504 -2.0981  0.2005
 2330SOL     OW18625   3.885   1.888   0.902 -0.7437  0.4418 -0.7895
 2330SOL    HW118626   3.933   1.968   0.883 -1.5805  1.4425  1.2920
 2330SOL    HW218627   3.933   1.823   0.851  0.6582  0.2719  0.7563
 2331SOL     OW18628   1.286   1.541   2.989 -0.1555  0.1726  0.2956
 2331SOL    HW118629   1.310   1.580   2.905 -0.4984 -0.0906  0.0755
 2331SOL    HW218630   1.366   1.491   3.006  0.8910  0.9267 -2.3734
 2332SOL     OW18631   0.393   1.442  15.678 -0.1706  0.1281  0.6182
 2332SOL    HW118632   0.348   1.376  15.731  0.4956 -3.1215 -2.9128
 2332SOL    HW218633   0.457   1.470  15.743 -0.3921  1.6246  0.1945
 2333SOL     OW18634   1.058   2.133   7.876 -0.1779  0.1549 -0.4128
 2333SOL    HW118635   1.114   2.209   7.892  0.8098 -0.4842 -0.9044
 2333SOL    HW218636   0.993   2.175   7.818  0.8309  1.1518 -0.8188
 2334SOL     OW18637   2.890   1.964  17.352 -0.2870  0.2909  0.6202
 2334SOL    HW118638   2.807   2.007  17.332 -0.0059  0.5127 -0.0931
 2334SOL    HW218639   2.867   1.872  17.364  0.0165  0.1953  0.4831
 2335SOL     OW18640   3.634   3.752   6.678 -0.0097 -0.0264 -0.3522
 2335SOL    HW118641   3.610   3.843   6.657  0.7799  0.2176 -0.2028
 2335SOL    HW218642   3.577   3.716   6.610  2.5562 -3.0591 -0.8386
 2336SOL     OW18643   4.591   1.694   8.755 -0.1371  0.5389 -0.8696
 2336SOL    HW118644   4.544   1.732   8.830 -0.1908  1.1727 -1.2268
 2336SOL    HW218645   4.567   1.746   8.679  0.4118  1.0384 -0.7079
 2337SOL     OW18646   2.789   1.622   0.217  0.2722 -0.4613 -0.0607
 2337SOL    HW118647   2.848   1.661   0.282 -1.0078  0.6701  0.4226
 2337SOL    HW218648   2.714   1.676   0.240 -1.0482 -1.7397 -1.4468
 2338SOL     OW18649   1.210   0.837   6.148 -0.0502  0.0953 -0.0539
 2338SOL    HW118650   1.195   0.868   6.237 -0.0846  0.8667 -0.3310
 2338SOL    HW218651   1.146   0.765   6.141  1.7468 -1.5076  0.0864
 2339SOL     OW18652   2.595   4.417   2.375  0.0017 -0.3843  0.1283
 2339SOL    HW118653   2.522   4.359   2.353 -0.3118 -0.1136  0.4427
 2339SOL    HW218654   2.596   4.418   2.471 -0.1589 -0.9728  0.1381
 2340SOL     OW18655   4.144   2.588  12.840  0.3431 -0.1013 -0.1150
 2340SOL    HW118656   4.132   2.498  12.810 -0.8072 -0.6057  1.8843
 2340SOL    HW218657   4.238   2.595  12.824  0.6755  1.6036  2.7661
 2341SOL     OW18658   2.897   2.457   5.165 -0.2892 -0.3671  0.3568
 2341SOL    HW118659   2.913   2.462   5.071  0.5633 -2.1238  0.4146
 2341SOL    HW218660   2.975   2.500   5.202  0.8658 -0.9426 -1.4061
 2342SOL     OW18661   3.574   0.874   2.931 -0.2495 -0.0445 -0.0091
 2342SOL    HW118662   3.554   0.921   2.850 -0.0124  0.3125  0.1369
 2342SOL    HW218663   3.563   0.786   2.895  2.9540 -0.3004 -0.3631
 2343SOL     OW18664   2.766   1.919   5.725 -0.1150  0.1113  0.1250
 2343SOL    HW118665   2.674   1.936   5.745 -0.7499 -1.0204 -1.7858
 2343SOL    HW218666   2.807   1.960   5.801 -0.6114 -1.0475  1.0187
 2344SOL     OW18667   2.086   3.627   0.092 -0.3914  0.1318 -0.0058
 2344SOL    HW118668   2.058   3.593   0.177 -1.5873  0.2699 -0.3461
 2344SOL    HW218669   2.004   3.672   0.072  0.4192  0.5731 -2.3012
 2345SOL     OW18670   4.145   4.266  16.806 -0.3343 -0.4445  0.2216
 2345SOL    HW118671   4.071   4.311  16.767 -0.0473  1.7807  2.1770
 2345SOL    HW218672   4.160   4.191  16.748  1.0216 -0.1414  0.1811
 2346SOL     OW18673   2.757   2.241  17.583 -0.3006  0.5892  0.0806
 2346SOL    HW118674   2.738   2.322  17.535 -1.7918  0.7735  0.9590
 2346SOL    HW218675   2.845   2.225  17.549 -0.9309 -1.5008 -0.5701
 2347SOL     OW18676   0.575   3.727   4.957 -0.5019 -0.3485 -0.1729
 2347SOL    HW118677   0.521   3.707   4.881 -0.4056  1.7684 -0.8050
 2347SOL    HW218678   0.666   3.737   4.927 -0.4147 -0.9245 -0.1040
 2348SOL     OW18679   1.757   3.119   5.764 -0.0633  0.4959 -0.0736
 2348SOL    HW118680   1.803   3.171   5.830  2.0866 -1.2117 -0.2447
 2348SOL    HW218681   1.735   3.190   5.703 -1.1709 -0.7382 -1.1180
 2349SOL     OW18682   1.489   3.502   4.299 -0.4160 -0.3296 -0.0337
 2349SOL    HW118683   1.479   3.516   4.205 -1.5113 -1.3006 -0.0609
 2349SOL    HW218684   1.490   3.591   4.333 -0.9048 -0.2751 -0.1612
 2350SOL     OW18685   3.648   2.338   4.963 -0.0953  0.1276  0.3599
 2350SOL    HW118686   3.631   2.430   4.983 -1.9432 -0.3109  0.8465
 2350SOL    HW218687   3.579   2.295   5.013  0.6393 -1.1983  0.2317
 2351SOL     OW18688   3.057   3.127  16.807 -0.0073 -0.3406 -0.7346
 2351SOL    HW118689   3.058   3.193  16.876  0.5922  0.6079 -1.6320
 2351SOL    HW218690   2.964   3.106  16.809  0.2410 -1.5763 -2.2183
 2352SOL     OW18691   2.331   3.486   2.677 -0.2318  0.2952 -0.4633
 2352SOL    HW118692   2.323   3.431   2.599  0.0094  0.9933 -0.9697
 2352SOL    HW218693   2.278   3.430   2.735  0.8259  0.4333  0.6494
 2353SOL     OW18694   1.420   1.894   6.871 -0.4408 -0.3574 -0.2477
 2353SOL    HW118695   1.477   1.912   6.797 -0.3547  0.0059 -0.0917
 2353SOL    HW218696   1.335   1.907   6.830 -0.4741  0.8113  0.1993
 2354SOL     OW18697   1.668   0.839   3.995 -0.2971  0.0340  0.2143
 2354SOL    HW118698   1.734   0.907   3.981 -0.5776  0.1376 -0.6326
 2354SOL    HW218699   1.618   0.879   4.066  1.1038  1.5532  0.3536
 2355SOL     OW18700   1.538   0.268  17.405 -0.1672  0.3820 -0.0757
 2355SOL    HW118701   1.524   0.272  17.310 -0.0038 -1.3794 -0.1736
 2355SOL    HW218702   1.452   0.304  17.427  0.6933  1.4640  1.4636
 2356SOL     OW18703   1.067   4.069   2.000  0.4665  0.2787  0.0567
 2356SOL    HW118704   1.131   4.060   2.071 -2.1522 -0.5419  2.2751
 2356SOL    HW218705   1.106   4.136   1.944  0.7779  0.5905  0.6460
 2357SOL     OW18706   2.973   0.691   6.802  0.2981 -1.0710  0.0615
 2357SOL    HW118707   2.883   0.699   6.771 -0.2817  1.9099  2.4965
 2357SOL    HW218708   3.003   0.782   6.800 -0.6745 -0.7626 -0.3237
 2358SOL     OW18709   4.314   2.881  13.021 -0.3887  0.5745 -0.2198
 2358SOL    HW118710   4.356   2.894  13.106 -1.1554  1.7275 -0.0218
 2358SOL    HW218711   4.328   2.970  12.988  0.2447  1.5475  2.6695
 2359SOL     OW18712   2.914   0.218   6.357  0.2941 -0.0074  0.3558
 2359SOL    HW118713   2.941   0.189   6.444 -1.0438  3.7678  2.0433
 2359SOL    HW218714   2.951   0.149   6.302  1.6895  1.2787 -0.3315
 2360SOL     OW18715   2.194   0.164   7.589  0.2959  0.1726  0.8967
 2360SOL    HW118716   2.191   0.087   7.532 -0.6102  1.8547 -1.3651
 2360SOL    HW218717   2.193   0.130   7.678  0.9627  1.3601  1.3657
 2361SOL     OW18718   1.324   2.988   8.740  0.4462  0.2536 -0.1481
 2361SOL    HW118719   1.352   3.079   8.737  0.5444  0.2252 -0.1236
 2361SOL    HW218720   1.242   2.994   8.789  0.0157 -0.5166 -0.7750
 2362SOL     OW18721   3.160   1.882  10.141  0.1583 -0.1276  0.0027
 2362SOL    HW118722   3.084   1.894  10.199 -0.3096  0.2064 -0.6759
 2362SOL    HW218723   3.118   1.833  10.070 -0.1983  3.3053 -2.1444
 2363SOL     OW18724   3.564   1.410   5.360 -0.0710 -0.7707 -0.3867
 2363SOL    HW118725   3.523   1.329   5.391 -1.7097  1.3252  2.8007
 2363SOL    HW218726   3.614   1.371   5.288 -0.3090 -1.1151 -0.3709
 2364SOL     OW18727   4.088   2.121  14.189  0.5679 -0.7492  0.8003
 2364SOL    HW118728   4.078   2.181  14.263  3.8274 -0.3560  0.9191
 2364SOL    HW218729   4.175   2.148  14.159 -0.3333 -0.7566 -1.8406
 2365SOL     OW18730   3.094   3.558   5.726  0.1301 -0.9200  0.1334
 2365SOL    HW118731   3.190   3.556   5.725  0.1237 -0.7086 -1.3866
 2365SOL    HW218732   3.074   3.637   5.675  0.5558  0.3916  1.9987
 2366SOL     OW18733   2.212   4.199   7.867 -0.5732 -0.2285 -0.4103
 2366SOL    HW118734   2.193   4.257   7.793 -0.0985 -0.6926 -0.8964
 2366SOL    HW218735   2.308   4.196   7.870 -0.5319  2.0442  0.3074
 2367SOL     OW18736   4.674   3.558   9.847  0.7921 -0.0641  0.3336
 2367SOL    HW118737   4.695   3.503   9.772 -0.6183 -0.6928  0.3851
 2367SOL    HW218738   0.015   3.612   9.836  1.9261 -1.6463  0.5961
 2368SOL     OW18739   2.225   4.398  15.318  0.1590  0.1498 -0.0561
 2368SOL    HW118740   2.230   4.343  15.396 -0.0363 -2.3529 -1.8323
 2368SOL    HW218741   2.252   4.485  15.348 -2.8527  1.7184 -1.8253
 2369SOL     OW18742   3.864   1.662  15.373  0.2869 -0.1870 -0.4027
 2369SOL    HW118743   3.958   1.660  15.391 -0.1137  0.1552  1.6803
 2369SOL    HW218744   3.867   1.744  15.325  1.1725  0.5008  0.8349
 2370SOL     OW18745   4.040   4.574   4.592  0.1201 -0.1411  0.2906
 2370SOL    HW118746   4.016   4.496   4.643  1.2409  0.6726  2.0686
 2370SOL    HW218747   3.956   4.611   4.566 -0.3036 -1.2755  0.0396
 2371SOL     OW18748   2.731   1.282   6.652  0.4985 -0.1985  0.4962
 2371SOL    HW118749   2.762   1.246   6.736  2.3435 -0.3354 -0.2324
 2371SOL    HW218750   2.646   1.239   6.655  0.1133  0.3433 -2.6533
 2372SOL     OW18751   2.038   0.719   3.611  0.1449  0.4892 -0.2228
 2372SOL    HW118752   2.022   0.632   3.647  2.4462  0.2381  0.1483
 2372SOL    HW218753   2.077   0.744   3.695 -0.8815 -1.1482  0.7476
 2373SOL     OW18754   1.792   3.295   3.844  0.5042  0.0951  0.7380
 2373SOL    HW118755   1.884   3.281   3.821 -0.1961 -2.1473 -0.6456
 2373SOL    HW218756   1.798   3.286   3.939  2.2332  1.9103  0.8008
 2374SOL     OW18757   3.489   0.808   1.430  0.4010 -0.2993  0.2202
 2374SOL    HW118758   3.481   0.716   1.457  0.7851  0.3302  2.4787
 2374SOL    HW218759   3.582   0.814   1.453  0.5401 -0.0732 -0.4237
 2375SOL     OW18760   2.940   3.775   6.112 -0.4756  0.3638  0.1324
 2375SOL    HW118761   2.906   3.817   6.033  3.2436  1.5728 -0.8239
 2375SOL    HW218762   3.029   3.758   6.080 -0.6324 -1.6858  0.7613
 2376SOL     OW18763   1.601   3.838   4.270  0.5219 -0.1369  0.0097
 2376SOL    HW118764   1.547   3.906   4.310 -0.2912 -1.4158  1.0726
 2376SOL    HW218765   1.665   3.825   4.340 -0.2669  2.0946  1.1513
 2377SOL     OW18766   2.047   1.852   5.942 -0.0356 -0.7153  0.0720
 2377SOL    HW118767   2.125   1.886   5.897 -0.9727 -0.4124 -1.3428
 2377SOL    HW218768   1.985   1.926   5.941 -1.7989 -2.1689  2.7987
 2378SOL     OW18769   4.522   0.820   9.496  0.8400  0.1370  0.0343
 2378SOL    HW118770   4.498   0.901   9.540 -0.5280  0.0505 -0.5491
 2378SOL    HW218771   4.433   0.787   9.497  1.8551 -2.5900  1.1941
 2379SOL     OW18772   4.175   1.146   7.848 -0.5477 -0.1002  0.2482
 2379SOL    HW118773   4.200   1.111   7.933  1.2847 -0.4579 -0.4349
 2379SOL    HW218774   4.181   1.063   7.800 -2.4259 -1.8061  2.9795
 2380SOL     OW18775   1.361   3.264   7.540  0.1688 -0.0227  0.5412
 2380SOL    HW118776   1.372   3.359   7.532  0.2534 -0.0785  0.0016
 2380SOL    HW218777   1.445   3.257   7.585 -0.0889 -0.0776  1.0044
 2381SOL     OW18778   1.880   4.048   9.758  0.0404 -0.2914 -0.0141
 2381SOL    HW118779   1.941   4.084   9.822 -1.8127  0.3983  1.3688
 2381SOL    HW218780   1.802   4.104   9.763  0.9790  1.0279 -0.0675
 2382SOL     OW18781   0.382   2.537   9.879 -0.3705  0.0948 -0.5324
 2382SOL    HW118782   0.342   2.457   9.845 -2.2065  0.1404  1.5765
 2382SOL    HW218783   0.463   2.504   9.918  0.5236  0.8037 -1.7673
 2383SOL     OW18784   1.531   1.057   1.506 -0.0981 -0.3833  0.6806
 2383SOL    HW118785   1.509   1.017   1.591  0.1499 -2.7483 -0.3704
 2383SOL    HW218786   1.617   1.084   1.538 -0.2983  2.0440 -0.8399
 2384SOL     OW18787   3.114   1.159   7.209 -0.3008 -0.0707 -0.3193
 2384SOL    HW118788   3.064   1.095   7.259  0.4649 -0.9421 -0.6902
 2384SOL    HW218789   3.122   1.119   7.123  0.2504 -0.2944 -0.1642
 2385SOL     OW18790   3.189   0.837   7.217 -0.4305 -0.0401 -0.4399
 2385SOL    HW118791   3.256   0.785   7.262  1.7491  0.6582 -2.8336
 2385SOL    HW218792   3.251   0.870   7.151  0.8020  1.5808  1.5308
 2386SOL     OW18793   0.943   0.453   4.134 -0.2158  0.9366 -0.1272
 2386SOL    HW118794   0.970   0.543   4.150  1.1865  0.1718  1.8995
 2386SOL    HW218795   0.866   0.457   4.078  0.7735  3.1330 -1.3190
 2387SOL     OW18796   0.744   2.974   7.956  0.5160  0.4911  0.5511
 2387SOL    HW118797   0.831   3.011   7.943  0.6360 -0.9545 -2.7698
 2387SOL    HW218798   0.715   3.028   8.029 -0.5456  2.6296 -1.4704
 2388SOL     OW18799   0.394   1.930   0.735 -0.3739 -0.0767  0.2829
 2388SOL    HW118800   0.383   1.990   0.809  0.3255 -0.3417  0.5986
 2388SOL    HW218801   0.400   1.988   0.659 -0.0850  0.1956  0.5126
 2389SOL     OW18802   4.533   2.621   6.960 -0.1059 -0.2066  0.3359
 2389SOL    HW118803   4.469   2.684   6.993  1.3415  0.7968  1.2065
 2389SOL    HW218804   4.524   2.553   7.027  1.2111 -0.4328  0.2953
 2390SOL     OW18805   3.918   4.246   7.219  0.1925  0.0934 -0.1983
 2390SOL    HW118806   3.908   4.257   7.313  0.1864 -1.3901 -0.0367
 2390SOL    HW218807   3.887   4.159   7.197 -2.1553  0.9413 -0.2240
 2391SOL     OW18808   0.077   3.942   4.763  0.2731  0.0511  0.0139
 2391SOL    HW118809   0.084   3.956   4.858  1.3284  2.0810 -0.3739
 2391SOL    HW218810   0.008   3.998   4.729  0.2044  0.9974  1.6868
 2392SOL     OW18811   3.546   0.428   4.965  0.0467  0.7650  0.1361
 2392SOL    HW118812   3.486   0.503   4.960 -0.5957  0.2651  0.3516
 2392SOL    HW218813   3.541   0.402   5.057  1.2848 -0.4178 -0.1473
 2393SOL     OW18814   0.595   3.944   5.286  0.4365 -0.5674 -0.1703
 2393SOL    HW118815   0.688   3.961   5.270  0.7490 -0.7947  1.4124
 2393SOL    HW218816   0.562   4.033   5.276 -1.2616 -1.1850 -0.0392
 2394SOL     OW18817   4.101   4.493  14.356 -0.1762 -0.4295 -0.5234
 2394SOL    HW118818   4.088   4.399  14.344 -0.0831 -0.5813  0.5206
 2394SOL    HW218819   4.008   4.519  14.354  0.5572  2.4124  1.7029
 2395SOL     OW18820   2.620   3.717   5.280  0.2052 -0.0600 -0.1516
 2395SOL    HW118821   2.573   3.634   5.278 -1.4605  0.8301  1.2184
 2395SOL    HW218822   2.674   3.710   5.359  1.4187  0.3278 -0.9358
 2396SOL     OW18823   1.716   2.875   7.614  0.5118  0.1187 -0.1177
 2396SOL    HW118824   1.788   2.913   7.664  0.2477  0.9489 -0.3715
 2396SOL    HW218825   1.743   2.784   7.602 -0.8935 -0.4303  0.7725
 2397SOL     OW18826   3.977   0.244   5.531  0.5329 -0.3309 -0.2544
 2397SOL    HW118827   3.963   0.223   5.624  2.4168  1.6312  0.4753
 2397SOL    HW218828   4.045   0.311   5.539  0.0022  0.2453 -0.5143
 2398SOL     OW18829   4.698   1.562   4.831  0.0345 -0.0583  0.4110
 2398SOL    HW118830   4.678   1.600   4.916 -1.8370 -2.7818  1.1818
 2398SOL    HW218831   4.723   1.636   4.776  0.5113 -0.8292 -0.4204
 2399SOL     OW18832   3.548   4.343   4.474  0.2616  0.4881 -0.2166
 2399SOL    HW118833   3.458   4.360   4.446  0.1475  0.2477  0.0098
 2399SOL    HW218834   3.590   4.345   4.388  0.2293  1.4714 -0.2061
 2400SOL     OW18835   3.242   4.102   7.864  0.8998 -0.2200 -0.2953
 2400SOL    HW118836   3.314   4.079   7.805  0.7403  0.0082 -0.5839
 2400SOL    HW218837   3.188   4.170   7.825 -0.6140 -1.5312 -0.4957
 2401SOL     OW18838   4.596   1.492   8.596 -0.0180 -0.6920 -0.2194
 2401SOL    HW118839   4.594   1.565   8.659  0.0227 -1.0191  0.1621
 2401SOL    HW218840   4.530   1.514   8.530  0.1621 -3.6736 -1.3819
 2402SOL     OW18841   0.680   0.779  14.060 -0.2872  0.0709  0.0774
 2402SOL    HW118842   0.726   0.799  13.979  2.0099 -0.7320  1.1673
 2402SOL    HW218843   0.758   0.768  14.116 -0.1649 -0.6866 -0.2452
 2403SOL     OW18844   2.905   3.221  15.594  0.1810  0.0731 -0.1470
 2403SOL    HW118845   2.855   3.216  15.676 -0.8875 -1.3061 -0.8677
 2403SOL    HW218846   2.831   3.201  15.537  1.2115 -2.6974 -0.5033
 2404SOL     OW18847   2.116   2.095  13.519 -0.6340 -0.2631  0.2528
 2404SOL    HW118848   2.024   2.096  13.491 -0.1930  0.1084 -1.1690
 2404SOL    HW218849   2.153   2.012  13.487 -0.1672 -0.2567  0.7793
 2405SOL     OW18850   3.620   3.315   5.744 -0.3500  0.3958 -0.2766
 2405SOL    HW118851   3.688   3.373   5.778  0.1803 -0.7982  0.6996
 2405SOL    HW218852   3.631   3.253   5.816 -0.9887  1.0629  0.3819
 2406SOL     OW18853   1.086   1.684   3.120 -0.1721  1.2183 -0.1626
 2406SOL    HW118854   1.148   1.613   3.103  1.0832  2.5181 -1.0557
 2406SOL    HW218855   1.007   1.643   3.154  0.5139 -1.5008 -1.8584
 2407SOL     OW18856   0.214   0.841   0.042  0.1791 -0.4151 -0.4340
 2407SOL    HW118857   0.161   0.907  17.744 -0.1163 -0.0542  0.4696
 2407SOL    HW218858   0.235   0.890   0.121 -0.5751 -0.9990  0.1355
 2408SOL     OW18859   1.057   3.056  11.056 -0.8581  0.2957  0.0409
 2408SOL    HW118860   1.138   3.034  11.009 -1.5495 -2.1795 -0.0089
 2408SOL    HW218861   1.059   3.151  11.046  2.6854  0.0661 -1.3042
 2409SOL     OW18862   3.976   4.376  17.707 -0.5034 -0.0030 -0.1115
 2409SOL    HW118863   4.061   4.362  17.665 -0.7244  1.0292 -0.8866
 2409SOL    HW218864   3.970   4.471  17.718  0.7777  0.4121 -3.2551
 2410SOL     OW18865   0.583   3.096   2.320 -0.3812  0.1196  0.2035
 2410SOL    HW118866   0.671   3.069   2.296 -0.1203 -0.0120  1.2855
 2410SOL    HW218867   0.598   3.116   2.413  2.5013  0.2585 -0.3139
 2411SOL     OW18868   4.313   2.037  13.558 -0.3692 -0.0030 -0.0021
 2411SOL    HW118869   4.237   2.007  13.507 -0.7013  0.5181  0.1897
 2411SOL    HW218870   4.384   1.995  13.509 -0.3164 -0.1286  0.1819
 2412SOL     OW18871   0.204   3.029   9.626 -0.5104  0.0472 -0.0211
 2412SOL    HW118872   0.214   3.108   9.574  0.1133  0.9666  1.4967
 2412SOL    HW218873   0.279   3.043   9.685 -0.8005  4.0612 -0.6060
 2413SOL     OW18874   0.899   2.358   8.658  0.4186  0.0640 -0.3664
 2413SOL    HW118875   0.813   2.374   8.620 -0.1321  1.3568  1.4550
 2413SOL    HW218876   0.905   2.427   8.724  0.1789 -0.8044  0.5689
 2414SOL     OW18877   3.084   3.661   5.024  0.3027  0.2088 -0.0436
 2414SOL    HW118878   3.077   3.589   5.086 -0.7736  1.1962  0.9939
 2414SOL    HW218879   3.178   3.664   5.005  0.3244  0.3537  0.0818
 2415SOL     OW18880   2.937   1.288   6.479  0.1489  0.2195  0.8373
 2415SOL    HW118881   2.856   1.281   6.529 -1.2067  0.0609 -1.3609
 2415SOL    HW218882   2.983   1.357   6.527  0.5682  2.5642 -2.9168
 2416SOL     OW18883   1.439   4.191   2.398 -0.4956 -0.7108 -0.3564
 2416SOL    HW118884   1.518   4.243   2.383 -0.7124  0.0868  1.1986
 2416SOL    HW218885   1.477   4.107   2.424  0.3850 -0.7433 -1.7472
 2417SOL     OW18886   1.817   2.131  13.425 -0.0035 -0.2206 -0.1037
 2417SOL    HW118887   1.779   2.155  13.510 -0.0792 -0.2109 -0.1400
 2417SOL    HW218888   1.740   2.100  13.377 -0.8376 -2.7051  2.8347
 2418SOL     OW18889   1.945   1.804   6.186 -0.1713  0.4049 -0.3471
 2418SOL    HW118890   1.997   1.787   6.107 -0.2899  1.3449 -0.6276
 2418SOL    HW218891   1.957   1.899   6.181 -1.0526  0.5227 -0.1620
 2419SOL     OW18892   3.565   3.761  13.479  0.2899 -0.3549  0.5385
 2419SOL    HW118893   3.582   3.761  13.385 -0.8211 -1.3322  0.3484
 2419SOL    HW218894   3.477   3.726  13.474 -0.4661  1.3754  1.7315
 2420SOL     OW18895   4.683   0.859   1.658 -0.0782  0.3284  0.2947
 2420SOL    HW118896   4.639   0.789   1.609 -1.2213  1.8050 -0.8031
 2420SOL    HW218897   4.722   0.913   1.589 -0.0511  2.0501  1.6511
 2421SOL     OW18898   0.939   3.675   3.973 -0.1935 -0.0863 -0.5622
 2421SOL    HW118899   0.863   3.618   3.963 -1.6792  1.8125 -0.1688
 2421SOL    HW218900   0.988   3.637   4.046  1.7928  0.8893 -1.3755
 2422SOL     OW18901   1.316   2.020   2.709 -0.5017  0.6241  0.5033
 2422SOL    HW118902   1.253   1.969   2.658 -1.9601 -1.0337  3.9262
 2422SOL    HW218903   1.309   1.979   2.795 -2.5983 -2.5082 -1.1539
 2423SOL     OW18904   1.969   2.679  11.551  0.1847  0.4868  0.0574
 2423SOL    HW118905   2.015   2.666  11.634 -0.1282 -0.8659  0.0173
 2423SOL    HW218906   2.037   2.680  11.483  0.9288 -1.3154  0.7499
 2424SOL     OW18907   2.786   2.642   6.588 -0.4589 -0.1277 -0.0824
 2424SOL    HW118908   2.791   2.736   6.573  0.4167  0.1354  1.9462
 2424SOL    HW218909   2.877   2.616   6.600  0.5464  1.6192 -3.8579
 2425SOL     OW18910   2.284   4.331   9.725  0.5277 -0.5261 -0.8725
 2425SOL    HW118911   2.323   4.329   9.813 -0.0710 -2.3855 -0.6341
 2425SOL    HW218912   2.192   4.338   9.750  0.7741 -1.8366  0.4634
 2426SOL     OW18913   4.032   2.149   6.976  0.2511 -0.1515 -0.3955
 2426SOL    HW118914   4.026   2.242   6.952 -0.1510  0.3150  1.5426
 2426SOL    HW218915   4.112   2.141   7.027 -0.6989  0.0613  1.1412
 2427SOL     OW18916   1.336   1.344  14.026  0.1209 -0.3420 -0.3900
 2427SOL    HW118917   1.255   1.302  14.056  1.2404  0.1180  3.3155
 2427SOL    HW218918   1.358   1.403  14.099  0.2822  0.4734 -1.0972
 2428SOL     OW18919   1.749   1.226   8.578  0.2014 -0.6536  0.0742
 2428SOL    HW118920   1.799   1.296   8.621  2.0070 -1.4934 -0.6351
 2428SOL    HW218921   1.751   1.256   8.488  0.6797 -0.7361  0.0544
 2429SOL     OW18922   2.829   1.568  14.267  0.3901  0.1240  0.1902
 2429SOL    HW118923   2.898   1.562  14.201  0.9987 -1.9131  0.9922
 2429SOL    HW218924   2.762   1.621  14.224  0.2079  0.3104  0.7083
 2430SOL     OW18925   0.304   4.457   2.276 -0.2389 -0.0903 -0.2704
 2430SOL    HW118926   0.314   4.459   2.181 -0.7777  0.6234 -0.3119
 2430SOL    HW218927   0.228   4.515   2.284  1.2587  1.6209  1.7351
 2431SOL     OW18928   2.291   0.363   8.837 -0.1813 -0.4130  0.2698
 2431SOL    HW118929   2.239   0.345   8.916 -0.4806 -1.6741 -0.2089
 2431SOL    HW218930   2.227   0.398   8.774  2.2086  2.8246 -0.2988
 2432SOL     OW18931   1.083   2.138   4.374  0.4937 -0.3269  0.0223
 2432SOL    HW118932   1.004   2.187   4.349 -0.2297 -1.4155  0.1526
 2432SOL    HW218933   1.098   2.163   4.465 -2.0431 -3.1150  1.2367
 2433SOL     OW18934   3.960   3.016  13.742 -0.2617 -0.3226  0.3467
 2433SOL    HW118935   3.942   2.954  13.813  1.0426 -0.4457  0.5632
 2433SOL    HW218936   4.007   3.078  13.796 -0.3962 -0.9689  1.2092
 2434SOL     OW18937   4.733   3.023   7.946 -0.2434 -0.2535  0.6348
 2434SOL    HW118938   0.052   3.016   8.023  0.3874 -1.6022  0.0448
 2434SOL    HW218939   4.722   2.937   7.908  0.6172  0.4403 -1.1970
 2435SOL     OW18940   2.982   1.433   8.281  0.8396  0.4457 -0.1617
 2435SOL    HW118941   3.067   1.454   8.319 -0.9405  3.7021  1.9540
 2435SOL    HW218942   2.921   1.435   8.355 -1.1710  0.8569 -1.8228
 2436SOL     OW18943   3.754   2.858   8.907  0.1781 -0.2849  0.0655
 2436SOL    HW118944   3.822   2.878   8.971 -0.6704 -1.4645  1.3570
 2436SOL    HW218945   3.794   2.772   8.893  1.3517  0.0279  1.5249
 2437SOL     OW18946   4.517   1.963  14.183  0.1879 -0.3700  0.3677
 2437SOL    HW118947   4.463   2.030  14.142 -0.1712  0.2886  1.9021
 2437SOL    HW218948   4.582   1.966  14.113  0.3409 -1.8388  0.4329
 2438SOL     OW18949   3.004   4.180  14.928 -0.3298  0.5430  0.4914
 2438SOL    HW118950   2.970   4.260  14.968 -1.6058 -0.2918  1.0786
 2438SOL    HW218951   3.043   4.218  14.849 -0.8106  1.6934  0.8128
 2439SOL     OW18952   1.850   4.444   4.894  0.1151  0.7077  0.0441
 2439SOL    HW118953   1.856   4.358   4.937 -1.5705  0.9313  0.7279
 2439SOL    HW218954   1.838   4.509   4.963 -1.7731  0.6088 -0.1966
 2440SOL     OW18955   1.096   2.463   6.467 -0.4133  0.6225 -0.6965
 2440SOL    HW118956   1.096   2.496   6.378  0.1529 -1.6306 -1.5384
 2440SOL    HW218957   1.081   2.539   6.523  0.7058 -0.4906  1.1461
 2441SOL     OW18958   2.850   2.459  13.462 -0.4130  0.2739  0.0816
 2441SOL    HW118959   2.940   2.490  13.469  0.6325 -2.8188  0.1362
 2441SOL    HW218960   2.821   2.481  13.550 -1.0533  0.5087 -0.1866
 2442SOL     OW18961   2.885   2.283   6.542 -0.5415 -0.6462  0.1213
 2442SOL    HW118962   2.927   2.206   6.580 -2.3477 -1.3427  0.6918
 2442SOL    HW218963   2.942   2.290   6.466 -2.9330  0.0502 -1.6165
 2443SOL     OW18964   0.540   0.417   6.654 -0.6275  0.7348 -0.5129
 2443SOL    HW118965   0.603   0.445   6.720 -1.4250 -2.4413  1.5947
 2443SOL    HW218966   0.583   0.337   6.624 -0.3340  0.5081  0.5177
 2444SOL     OW18967   3.341   1.608   6.057  0.1800 -0.3685  0.0742
 2444SOL    HW118968   3.351   1.620   5.963 -1.4196  2.4235  0.2502
 2444SOL    HW218969   3.416   1.556   6.084  0.6404  1.4259  2.2224
 2445SOL     OW18970   0.777   0.512  15.348  0.1577  0.1625  1.1259
 2445SOL    HW118971   0.700   0.567  15.361 -0.1513 -0.1048  0.4212
 2445SOL    HW218972   0.841   0.549  15.409  1.7613  2.5324 -1.9524
 2446SOL     OW18973   3.374   2.089   3.516  0.2062 -0.2304 -0.0157
 2446SOL    HW118974   3.313   2.061   3.448 -0.3414  0.6055  0.1367
 2446SOL    HW218975   3.459   2.084   3.471 -0.0940  4.4688 -1.1235
 2447SOL     OW18976   0.543   1.322   6.085 -0.3539  0.6963 -0.2238
 2447SOL    HW118977   0.485   1.383   6.130 -0.4224  1.7229 -1.7176
 2447SOL    HW218978   0.493   1.295   6.008  2.1879 -1.1922 -1.2052
 2448SOL     OW18979   1.394   3.535   9.203  0.0301  0.1946  0.2865
 2448SOL    HW118980   1.352   3.607   9.251 -0.8123 -0.2801  0.2616
 2448SOL    HW218981   1.311   3.489   9.189  0.9114 -0.8952 -1.2939
 2449SOL     OW18982   2.829   2.102  13.173  0.5001 -0.3395 -0.1219
 2449SOL    HW118983   2.779   2.047  13.112 -0.0803  0.0341  0.0148
 2449SOL    HW218984   2.909   2.127  13.128 -0.1603 -2.0192 -2.2482
 2450SOL     OW18985   1.199   0.070  10.568 -0.1879 -0.4754  0.5428
 2450SOL    HW118986   1.224   0.016  10.642 -0.7833 -0.2585  0.9051
 2450SOL    HW218987   1.254   0.143  10.598  0.1444 -0.7644  0.6288
 2451SOL     OW18988   1.941   0.104   7.180  0.0660 -0.0046  0.0475
 2451SOL    HW118989   1.878   0.167   7.216 -1.3107 -1.1819 -0.3202
 2451SOL    HW218990   2.020   0.158   7.177 -0.0581  0.2508  1.3161
 2452SOL     OW18991   4.381   1.926   9.736  0.1762  0.1481 -0.5303
 2452SOL    HW118992   4.464   1.972   9.748  0.0866 -0.0796  1.0384
 2452SOL    HW218993   4.400   1.862   9.805 -1.0662  0.9632  0.5717
 2453SOL     OW18994   4.323   3.593   5.332  0.0116 -0.0868  0.2299
 2453SOL    HW118995   4.246   3.630   5.376 -0.5614 -0.1752 -0.7028
 2453SOL    HW218996   4.350   3.670   5.282 -0.2143 -0.4425 -0.4374
 2454SOL     OW18997   0.320   0.165   2.473 -0.4320  0.5865  0.3620
 2454SOL    HW118998   0.400   0.140   2.426  0.3775 -0.0678  2.0889
 2454SOL    HW218999   0.295   0.244   2.426 -1.0047 -1.6602 -3.1384
 2455SOL     OW19000   0.409   0.118   3.222  0.6064 -0.0031  1.0096
 2455SOL    HW119001   0.429   0.028   3.250  1.9059  0.3790  1.2960
 2455SOL    HW219002   0.460   0.178   3.276  0.2739  1.9420 -0.8583
 2456SOL     OW19003   4.375   1.942   8.777  0.3301 -0.1815 -0.3424
 2456SOL    HW119004   4.328   1.979   8.853  0.4348  2.1567 -1.4162
 2456SOL    HW219005   4.388   2.016   8.718  0.5494 -2.4049 -3.0381
 2457SOL     OW19006   2.499   0.069   7.111  0.8497  0.2102 -0.0010
 2457SOL    HW119007   2.486   0.100   7.201 -1.6895  1.1661 -0.6970
 2457SOL    HW219008   2.533   0.149   7.072  2.7669 -0.5287  0.1349
 2458SOL     OW19009   1.533   3.245   3.792 -0.8947  0.0675  0.4421
 2458SOL    HW119010   1.618   3.289   3.796 -0.1066 -1.6436  2.1594
 2458SOL    HW219011   1.552   3.182   3.861  0.6250 -1.0586 -0.9936
 2459SOL     OW19012   4.102   2.768  17.462  0.3864  0.3081  0.7311
 2459SOL    HW119013   4.137   2.686  17.497  1.3792  0.2183 -0.5045
 2459SOL    HW219014   4.013   2.770  17.498  0.8285  0.2394  1.8409
 2460SOL     OW19015   0.685   0.693  15.892 -0.4434  0.3117  0.7295
 2460SOL    HW119016   0.604   0.646  15.873 -0.1801  0.5248 -0.9271
 2460SOL    HW219017   0.668   0.774  15.939  0.1607  0.8418  0.0245
 2461SOL     OW19018   0.217   0.927   3.110  0.0936 -0.4331 -0.1658
 2461SOL    HW119019   0.183   1.016   3.100 -1.8185 -1.2175 -0.6276
 2461SOL    HW219020   0.249   0.899   3.024 -2.9822 -0.3811 -1.3435
 2462SOL     OW19021   2.763   2.449   5.503  0.2534  0.6093 -0.0907
 2462SOL    HW119022   2.847   2.482   5.472  0.6595  0.3451  0.7182
 2462SOL    HW219023   2.720   2.534   5.491 -0.7158 -0.1985 -2.3905
 2463SOL     OW19024   1.690   4.441  10.758  0.0820  0.0837 -0.1890
 2463SOL    HW119025   1.703   4.497  10.681 -1.5496 -1.2054 -1.4378
 2463SOL    HW219026   1.779   4.441  10.791  0.1781 -1.7265 -0.4481
 2464SOL     OW19027   0.490   3.362   5.006 -0.3865  0.3706  0.6868
 2464SOL    HW119028   0.404   3.341   5.043 -1.3357  2.9530 -0.0794
 2464SOL    HW219029   0.457   3.380   4.919 -0.4284  1.0159  0.8349
 2465SOL     OW19030   2.575   3.058   9.118  0.2149 -0.6712  0.1685
 2465SOL    HW119031   2.625   3.034   9.040 -0.2201  2.7661 -1.1345
 2465SOL    HW219032   2.494   3.011   9.097  0.5384 -0.8402 -0.7111
 2466SOL     OW19033   2.511   3.772   0.164 -0.1345  0.2771  0.1651
 2466SOL    HW119034   2.546   3.798   0.249  1.6045  1.3958 -0.9076
 2466SOL    HW219035   2.579   3.721   0.120 -1.1384 -0.0722 -0.9841
 2467SOL     OW19036   0.516   1.047   2.710  0.5907 -0.2383  0.0845
 2467SOL    HW119037   0.475   1.119   2.662  0.7263 -2.0933 -2.8144
 2467SOL    HW219038   0.603   1.081   2.727  0.8058 -1.2812  1.0656
 2468SOL     OW19039   2.993   0.065  11.286 -0.2490 -0.1910  0.6018
 2468SOL    HW119040   2.946   0.147  11.272 -3.1965 -1.8520  0.9491
 2468SOL    HW219041   3.072   0.101  11.327 -0.8617  1.3721  0.4202
 2469SOL     OW19042   3.752   1.266   9.437 -0.2063  0.3716 -0.4056
 2469SOL    HW119043   3.723   1.215   9.363 -0.8609  1.8622 -1.1759
 2469SOL    HW219044   3.666   1.278   9.477 -0.2503 -0.9648 -0.1294
 2470SOL     OW19045   2.230   4.017  10.392  0.5405 -0.8650  0.3995
 2470SOL    HW119046   2.208   3.969  10.313  0.3544  1.4076 -0.9282
 2470SOL    HW219047   2.147   4.048  10.429  1.6800  0.0143  2.2538
 2471SOL     OW19048   1.726   4.201   8.642  0.9137 -0.0421  0.3609
 2471SOL    HW119049   1.737   4.205   8.737 -0.8175 -0.1187  0.5574
 2471SOL    HW219050   1.641   4.159   8.636  1.1843 -0.9106  2.3403
 2472SOL     OW19051   0.457   1.569  12.721  0.5648 -0.5912 -0.0808
 2472SOL    HW119052   0.364   1.585  12.731  0.5740  1.0880 -2.7920
 2472SOL    HW219053   0.498   1.654  12.735  0.6346 -0.8722  1.4509
 2473SOL     OW19054   0.446   4.550   9.309  0.4870 -0.1502  0.5742
 2473SOL    HW119055   0.438   4.464   9.350 -0.2833  0.2271  1.1922
 2473SOL    HW219056   0.353   4.563   9.295  0.9471 -0.8959 -3.3620
 2474SOL     OW19057   2.413   0.046  15.913  0.3639  0.5061 -0.2314
 2474SOL    HW119058   2.429   4.723  15.985 -0.7664  0.8850  0.3369
 2474SOL    HW219059   2.384   4.726  15.842  0.3823 -1.7533  1.5827
 2475SOL     OW19060   2.985   3.474   8.949 -0.4785 -0.4758  0.0813
 2475SOL    HW119061   2.954   3.473   9.039  0.2414  1.0365  0.3389
 2475SOL    HW219062   3.047   3.401   8.949 -0.4530 -0.4582 -0.7174
 2476SOL     OW19063   1.128   2.385   3.713 -0.7771 -0.1760 -0.0579
 2476SOL    HW119064   1.049   2.436   3.732 -0.1135  1.5375 -1.8497
 2476SOL    HW219065   1.141   2.338   3.795 -2.9735 -1.9965 -0.7452
 2477SOL     OW19066   3.603   2.305   4.349  0.3930 -0.2179 -0.2351
 2477SOL    HW119067   3.538   2.374   4.341  0.8651  0.6731  3.2761
 2477SOL    HW219068   3.617   2.297   4.444 -0.1279 -1.3147 -0.2557
 2478SOL     OW19069   4.687   2.832   9.327  0.2253 -0.3236  0.2089
 2478SOL    HW119070   4.599   2.830   9.289 -0.5792  0.6849  2.0423
 2478SOL    HW219071   4.674   2.857   9.419  2.1487 -0.8458  0.6224
 2479SOL     OW19072   2.104   2.183   8.962  0.2458 -0.3521 -0.1436
 2479SOL    HW119073   2.069   2.112   9.015  0.9890  1.0908  2.2640
 2479SOL    HW219074   2.036   2.195   8.895  1.8519 -0.8277 -1.8731
 2480SOL     OW19075   4.094   0.385   4.651  0.3471  0.0931 -0.0683
 2480SOL    HW119076   4.171   0.368   4.705  0.4568  0.9298  0.0347
 2480SOL    HW219077   4.142   0.451   4.600  0.3885 -0.2301 -0.4517
 2481SOL     OW19078   3.934   2.471   6.026  0.1687 -0.0373  0.1863
 2481SOL    HW119079   4.002   2.533   6.003  0.0361  0.6002  1.4958
 2481SOL    HW219080   3.969   2.443   6.110 -1.0232 -3.5880 -0.4750
 2482SOL     OW19081   4.245   3.456   6.103  0.8062 -0.3707 -0.0269
 2482SOL    HW119082   4.250   3.481   6.195  3.2154  0.0355 -0.2744
 2482SOL    HW219083   4.329   3.412   6.091  1.1770 -0.2277  2.1044
 2483SOL     OW19084   1.026   4.707   2.270  0.2471 -0.5654 -0.0390
 2483SOL    HW119085   1.050   4.619   2.301  0.9082 -0.0866  0.8344
 2483SOL    HW219086   1.011   0.009   2.357 -3.4689 -1.9509 -0.0698
 2484SOL     OW19087   2.400   0.103   4.208 -0.3601  0.5237  0.2561
 2484SOL    HW119088   2.352   0.145   4.137 -2.0580 -0.6326  0.7372
 2484SOL    HW219089   2.339   0.045   4.254 -2.5684  3.0558  0.4921
 2485SOL     OW19090   1.053   3.445   5.667  0.0773  0.0511  0.5428
 2485SOL    HW119091   1.064   3.534   5.701 -0.4869  0.4090 -0.2214
 2485SOL    HW219092   1.105   3.446   5.587 -2.1735  0.3840 -0.9346
 2486SOL     OW19093   0.412   3.507   7.587 -0.2017  0.9598  0.1430
 2486SOL    HW119094   0.504   3.500   7.612 -0.3149  1.7807  0.7691
 2486SOL    HW219095   0.416   3.560   7.507  0.5909 -0.1219 -0.5342
 2487SOL     OW19096   0.677   2.871   2.110  0.1901  0.0742  1.1173
 2487SOL    HW119097   0.729   2.951   2.103 -2.0034  1.2418 -1.9291
 2487SOL    HW219098   0.732   2.813   2.164 -0.0850 -0.8130  0.4407
 2488SOL     OW19099   3.747   2.972   5.867 -0.3845 -0.0720  0.7098
 2488SOL    HW119100   3.841   2.990   5.864 -0.4635 -0.3186 -2.7365
 2488SOL    HW219101   3.718   3.035   5.933 -0.6421  1.0776 -0.4987
 2489SOL     OW19102   4.407   2.773  16.228 -1.0430 -0.3555 -0.5640
 2489SOL    HW119103   4.354   2.852  16.237  1.2461  1.2128 -0.8108
 2489SOL    HW219104   4.416   2.732  16.314 -0.2894  0.7970 -0.0899
 2490SOL     OW19105   0.655   2.568   6.817  0.3860 -0.3647  0.6210
 2490SOL    HW119106   0.563   2.594   6.809  0.7592  0.0882 -2.2493
 2490SOL    HW219107   0.680   2.585   6.726 -2.1311 -5.1380 -0.9768
 2491SOL     OW19108   0.028   3.473   8.405  0.1756 -0.2902  0.4766
 2491SOL    HW119109   4.708   3.397   8.418  0.7663 -1.0953 -1.5607
 2491SOL    HW219110   4.695   3.539   8.400 -1.1481 -1.8019 -0.9808
 2492SOL     OW19111   1.064   1.387   5.942 -0.1757  0.5036  0.4871
 2492SOL    HW119112   1.147   1.348   5.916 -0.2950  1.2575 -1.0392
 2492SOL    HW219113   1.001   1.321   5.915 -0.6689  1.3760 -0.5381
 2493SOL     OW19114   1.862   0.316   9.375 -0.6677 -0.3221  0.5969
 2493SOL    HW119115   1.814   0.304   9.293 -1.5547  1.4033  0.8594
 2493SOL    HW219116   1.787   0.294   9.430  0.5818  0.4254  2.5944
 2494SOL     OW19117   1.701   3.031   4.926 -0.2880 -0.2103 -0.0966
 2494SOL    HW119118   1.768   3.072   4.982 -1.8670  0.5242  1.2785
 2494SOL    HW219119   1.691   2.942   4.960  1.1814  0.7690  2.9522
 2495SOL     OW19120   1.501   3.571   5.360 -0.8464  0.6857  0.6313
 2495SOL    HW119121   1.494   3.476   5.357  4.1482  0.3785 -1.5773
 2495SOL    HW219122   1.595   3.586   5.348 -0.5817 -0.9687  0.5878
 2496SOL     OW19123   0.773   3.864  14.097  0.2586 -0.0546  0.3055
 2496SOL    HW119124   0.684   3.840  14.123  0.2269  0.4707  0.6926
 2496SOL    HW219125   0.771   3.856  14.002 -1.3494  1.4243  0.2066
 2497SOL     OW19126   1.084   0.461   8.601  0.0208  0.3438 -0.4999
 2497SOL    HW119127   1.173   0.426   8.607 -1.0898 -2.0520  2.2382
 2497SOL    HW219128   1.038   0.418   8.673  1.1300 -0.0593 -0.0315
 2498SOL     OW19129   0.843   3.474   2.445 -0.7389  0.1859 -0.1817
 2498SOL    HW119130   0.936   3.467   2.422 -1.0054  0.6320 -1.4414
 2498SOL    HW219131   0.808   3.502   2.360 -0.0987  0.3313 -0.3953
 2499SOL     OW19132   3.014   3.817   2.998  0.2642  0.5300  0.1058
 2499SOL    HW119133   2.958   3.746   2.966  1.3463  0.1832 -1.0164
 2499SOL    HW219134   2.985   3.898   2.956 -0.8227  0.1583  0.1558
 2500SOL     OW19135   4.727   1.288   8.487 -0.3424  0.5905  0.7980
 2500SOL    HW119136   4.711   1.332   8.404 -1.8812 -1.3852  0.0464
 2500SOL    HW219137   4.725   1.369   8.537  2.8025 -0.0894  2.0106
 2501SOL     OW19138   0.642   1.675   2.656 -0.3976  0.0910  0.2651
 2501SOL    HW119139   0.735   1.701   2.660 -0.7524  1.5001 -0.6266
 2501SOL    HW219140   0.645   1.579   2.664  0.2059  0.0716 -0.1744
 2502SOL     OW19141   2.846   1.103   1.943  0.1590 -0.4240 -0.0024
 2502SOL    HW119142   2.869   1.049   2.019  3.0350  0.2113 -0.4291
 2502SOL    HW219143   2.925   1.155   1.930  0.8635 -1.5281 -0.2110
 2503SOL     OW19144   0.219   0.272   6.121 -0.1338 -0.6992  0.5686
 2503SOL    HW119145   0.127   0.249   6.132  0.4867 -2.3005  2.3558
 2503SOL    HW219146   0.256   0.203   6.067 -0.5054 -0.1019 -0.4509
 2504SOL     OW19147   1.434   1.391   8.006 -0.5288  0.3012  0.3449
 2504SOL    HW119148   1.436   1.309   7.957 -1.1741 -0.7757  2.1344
 2504SOL    HW219149   1.423   1.450   7.931 -0.9375 -0.8422 -0.4908
 2505SOL     OW19150   0.859   0.323   3.176 -0.0327  0.2548 -0.0608
 2505SOL    HW119151   0.765   0.302   3.179  0.1091 -0.8194 -2.6613
 2505SOL    HW219152   0.889   0.265   3.246 -0.1813  1.1127  0.7208
 2506SOL     OW19153   2.959   4.281  15.981 -0.2642 -0.1641  0.1181
 2506SOL    HW119154   2.994   4.354  16.032 -3.1484 -1.5034  3.9816
 2506SOL    HW219155   2.886   4.330  15.944  0.6407  0.1269 -1.2618
 2507SOL     OW19156   2.663   2.639  10.677  0.4860 -0.4590 -0.2470
 2507SOL    HW119157   2.733   2.643  10.613 -0.0304  0.9775 -0.7158
 2507SOL    HW219158   2.701   2.701  10.740 -1.9301 -0.8056  1.5971
 2508SOL     OW19159   4.521   0.562   6.810  0.8191  0.1034 -0.4445
 2508SOL    HW119160   4.549   0.505   6.881 -0.6631 -0.5313 -0.3720
 2508SOL    HW219161   4.428   0.572   6.830  1.0107  0.6072  0.1772
 2509SOL     OW19162   0.076   1.812   1.933  0.2088  0.1617  0.1249
 2509SOL    HW119163   0.056   1.719   1.923  0.0461  0.2853 -0.7049
 2509SOL    HW219164   4.727   1.850   1.915  0.6470 -0.1608 -2.5751
 2510SOL     OW19165   1.890   2.157   2.867 -0.2708  0.3263 -0.2473
 2510SOL    HW119166   1.975   2.198   2.884  0.6868 -1.2272 -1.3076
 2510SOL    HW219167   1.834   2.156   2.945  1.6915 -1.4677  1.1246
 2511SOL     OW19168   3.317   3.861   9.171  0.2864  0.4020 -0.3687
 2511SOL    HW119169   3.399   3.817   9.148 -0.1029 -0.2570 -0.4986
 2511SOL    HW219170   3.261   3.786   9.190  0.2163  0.2702 -1.1130
 2512SOL     OW19171   4.646   2.879   7.114 -0.3513  0.1665  0.0931
 2512SOL    HW119172   4.618   2.837   7.033 -1.0532 -0.2304  0.5412
 2512SOL    HW219173   4.627   2.807   7.174  2.5081 -1.0763 -0.4992
 2513SOL     OW19174   3.370   3.625   5.756  0.0335 -0.4597 -0.2608
 2513SOL    HW119175   3.446   3.613   5.699  1.0984 -0.9457  1.2992
 2513SOL    HW219176   3.329   3.705   5.721 -0.7704 -0.8010 -0.1117
 2514SOL     OW19177   1.290   0.672   5.628 -0.2355  0.0237  0.1699
 2514SOL    HW119178   1.383   0.669   5.650  0.0614  1.4890 -0.8815
 2514SOL    HW219179   1.243   0.710   5.703 -2.1818 -1.6729 -0.1873
 2515SOL     OW19180   0.517   1.341  16.850 -0.3018  0.1729  0.1573
 2515SOL    HW119181   0.600   1.331  16.803 -0.4833 -1.8126  0.2639
 2515SOL    HW219182   0.514   1.435  16.867  0.7684  0.2714 -0.1893
 2516SOL     OW19183   2.857   4.387   6.165  0.0610  0.6449  0.3075
 2516SOL    HW119184   2.795   4.378   6.093 -0.1451  1.4075  0.3971
 2516SOL    HW219185   2.855   4.479   6.191  0.6894  1.1134 -1.2875
 2517SOL     OW19186   1.174   1.503   4.578 -0.0234  0.3195 -0.2502
 2517SOL    HW119187   1.234   1.576   4.593 -0.9006  0.7164  1.3457
 2517SOL    HW219188   1.190   1.446   4.653 -2.7226  1.0266  0.8508
 2518SOL     OW19189   4.277   0.300  16.563 -0.9853 -0.1891  0.5459
 2518SOL    HW119190   4.237   0.270  16.645 -0.1966 -1.0596  0.6126
 2518SOL    HW219191   4.240   0.244  16.495  2.4605 -0.7489 -0.8549
 2519SOL     OW19192   4.135   0.043   8.889 -0.4352  0.1521 -0.4541
 2519SOL    HW119193   4.068   0.071   8.826 -0.0739  2.6335  0.2866
 2519SOL    HW219194   4.217   0.059   8.842 -1.0090 -0.4756 -1.6774
 2520SOL     OW19195   3.409   2.805   4.448 -0.1304  0.3448  0.1269
 2520SOL    HW119196   3.457   2.868   4.501 -1.0860 -0.9411  2.5717
 2520SOL    HW219197   3.409   2.856   4.368  0.4916  2.3914  1.4477
 2521SOL     OW19198   4.091   4.719  12.976 -0.1647  0.7295 -0.3567
 2521SOL    HW119199   4.098   4.680  13.063  0.8303  2.5254  0.3687
 2521SOL    HW219200   4.181   0.013  12.968  0.3560 -0.4514  0.9236
 2522SOL     OW19201   3.008   3.737  10.746 -0.5854 -0.0705  0.1291
 2522SOL    HW119202   3.063   3.816  10.746 -0.3335 -0.2590 -1.2253
 2522SOL    HW219203   2.978   3.715  10.659 -0.7107  1.1181 -0.1330
 2523SOL     OW19204   1.100   1.973   8.116 -0.0047 -0.1236 -0.3737
 2523SOL    HW119205   1.103   2.033   8.042 -2.4710  0.8198  0.2643
 2523SOL    HW219206   1.183   1.989   8.160 -2.2340  1.4250  3.3292
 2524SOL     OW19207   1.371   4.549   7.072 -0.0021  0.7103  0.1576
 2524SOL    HW119208   1.457   4.572   7.038  1.7165 -2.1988  2.5546
 2524SOL    HW219209   1.367   4.456   7.049 -0.2883  0.7975 -0.1503
 2525SOL     OW19210   3.982   0.743   6.326 -0.3451 -0.1963  0.4832
 2525SOL    HW119211   4.065   0.738   6.280 -0.1110 -2.2202  1.0851
 2525SOL    HW219212   4.011   0.687   6.398  1.5030  0.4886  0.2706
 2526SOL     OW19213   4.094   0.695   9.129  0.1575 -0.1322  0.1826
 2526SOL    HW119214   4.154   0.640   9.079  0.3155  0.1074  0.1093
 2526SOL    HW219215   4.007   0.675   9.094  0.3434 -2.0346  0.8405
 2527SOL     OW19216   3.515   4.355   3.953  0.1829  0.0697 -0.2368
 2527SOL    HW119217   3.586   4.295   3.929 -0.6934 -1.2816  0.5758
 2527SOL    HW219218   3.445   4.311   3.905 -1.1048  1.4323  0.3886
 2528SOL     OW19219   0.017   0.206   3.795 -0.3013 -0.5948 -0.1166
 2528SOL    HW119220   4.710   0.216   3.710  1.3246 -2.5036 -1.1671
 2528SOL    HW219221   0.081   0.277   3.784  0.0178 -0.5681  1.8804
 2529SOL     OW19222   0.600   4.335   0.554  0.2936 -0.3080 -0.4346
 2529SOL    HW119223   0.638   4.370   0.473  2.1916 -0.2130  0.5057
 2529SOL    HW219224   0.558   4.412   0.592 -1.9968 -0.9357 -1.7123
 2530SOL     OW19225   0.302   3.808   4.408  0.5437 -0.1921 -0.7548
 2530SOL    HW119226   0.293   3.758   4.327  1.8592 -0.4974 -0.7056
 2530SOL    HW219227   0.237   3.764   4.464 -0.3444  0.7650 -1.0287
 2531SOL     OW19228   1.783   3.398   8.704 -0.3944 -0.1028  0.3378
 2531SOL    HW119229   1.827   3.315   8.726  1.6862  1.1771  1.0449
 2531SOL    HW219230   1.789   3.453   8.782  2.4559  1.0638 -0.7011
 2532SOL     OW19231   0.528   0.827   7.608 -0.7221 -0.4752  0.0876
 2532SOL    HW119232   0.597   0.792   7.663 -1.8315  0.0456  1.8043
 2532SOL    HW219233   0.561   0.812   7.519 -0.8138  0.2318 -0.0728
 2533SOL     OW19234   4.634   3.696   1.816 -0.3283 -0.2221 -0.2331
 2533SOL    HW119235   4.596   3.613   1.790 -0.1941 -0.7026  1.0859
 2533SOL    HW219236   4.713   3.672   1.866 -1.0157  0.4635  1.1914
 2534SOL     OW19237   2.771   2.367  11.199 -0.1704 -0.3644  0.4876
 2534SOL    HW119238   2.753   2.355  11.106  0.4391  1.9334  0.0691
 2534SOL    HW219239   2.715   2.440  11.225 -2.2581 -1.9447  0.4429
 2535SOL     OW19240   4.591   1.339   5.825  1.2948 -0.0838  0.0393
 2535SOL    HW119241   4.614   1.251   5.796  0.8567 -0.2256  0.1288
 2535SOL    HW219242   4.634   1.383   5.752  1.2434  0.6907  0.4737
 2536SOL     OW19243   0.814   3.957   8.279 -0.3319 -0.3319  0.2335
 2536SOL    HW119244   0.778   4.021   8.218 -2.0627  0.8877  2.5735
 2536SOL    HW219245   0.905   3.946   8.249  0.6460  1.8029  2.3963
 2537SOL     OW19246   4.041   3.848   7.793  0.3367  0.1416  0.2525
 2537SOL    HW119247   4.103   3.827   7.862 -1.0794 -0.6885  1.2677
 2537SOL    HW219248   4.029   3.758   7.762 -1.2487  1.1740 -2.1789
 2538SOL     OW19249   4.421   1.313   2.011  0.3046 -0.1862 -0.3520
 2538SOL    HW119250   4.404   1.334   2.103  2.0678 -2.3537  0.4652
 2538SOL    HW219251   4.376   1.388   1.972  0.1895 -0.0703  0.0005
 2539SOL     OW19252   2.905   1.917   4.115  0.2201 -0.1978 -0.0488
 2539SOL    HW119253   2.893   1.841   4.058 -2.0330  0.0558  0.0913
 2539SOL    HW219254   2.977   1.952   4.063  0.7532  0.0055  0.8174
 2540SOL     OW19255   1.481   3.678   3.155 -0.1270  0.4993  0.4702
 2540SOL    HW119256   1.506   3.769   3.136  3.1954 -0.9774 -2.0989
 2540SOL    HW219257   1.504   3.671   3.248 -0.7708  2.4633  0.7842
 2541SOL     OW19258   0.354   1.376   4.379  0.4488  0.4802  0.1829
 2541SOL    HW119259   0.363   1.466   4.346 -0.8558  0.0206 -1.4387
 2541SOL    HW219260   0.303   1.388   4.459 -0.0021 -0.1739 -0.0074
 2542SOL     OW19261   3.482   4.583   9.859  0.1138 -0.6790  0.2447
 2542SOL    HW119262   3.537   4.659   9.880 -0.2391 -0.3091 -0.1725
 2542SOL    HW219263   3.446   4.623   9.780  0.9357  0.0336  0.2258
 2543SOL     OW19264   0.939   3.954   3.815 -0.3853  0.4560  0.3586
 2543SOL    HW119265   1.002   3.993   3.876 -0.8612  1.8132 -0.0082
 2543SOL    HW219266   0.861   3.946   3.870  1.0187 -0.2315  2.2931
 2544SOL     OW19267   0.070   4.203   9.083 -0.4474  0.2023 -0.3601
 2544SOL    HW119268   4.717   4.204   9.050 -0.4068 -0.2206 -0.4787
 2544SOL    HW219269   0.062   4.167   9.171 -0.2921 -1.8585 -1.1757
 2545SOL     OW19270   0.314   3.731   2.119  0.1086 -0.6384 -0.2935
 2545SOL    HW119271   0.394   3.782   2.106  0.0964 -0.7870 -0.9863
 2545SOL    HW219272   0.348   3.646   2.093  0.1440 -1.3288  2.0200
 2546SOL     OW19273   2.338   3.070  12.915 -0.2963 -0.0091  0.5645
 2546SOL    HW119274   2.338   3.035  13.004 -2.3982  1.7091  1.2504
 2546SOL    HW219275   2.244   3.082  12.901 -0.5082 -2.1388  0.0451
 2547SOL     OW19276   2.976   1.558  13.755  0.3653 -0.3286  0.3715
 2547SOL    HW119277   2.937   1.586  13.838  1.0083 -0.7898  0.8361
 2547SOL    HW219278   3.010   1.639  13.718 -1.3481  0.5821  0.8285
 2548SOL     OW19279   2.605   4.656   2.124  0.0254  0.7523  0.0129
 2548SOL    HW119280   2.654   4.717   2.070 -0.8695  0.0826 -1.5517
 2548SOL    HW219281   2.535   4.711   2.160 -1.2785 -0.3394 -0.8459
 2549SOL     OW19282   2.649   0.498   3.672  0.2159 -0.4688 -0.0974
 2549SOL    HW119283   2.566   0.545   3.668  1.9704  2.7296  1.0176
 2549SOL    HW219284   2.700   0.552   3.612 -0.3116 -0.5299 -0.6056
 2550SOL     OW19285   3.878   2.980   1.528 -0.1543  0.1440 -0.3312
 2550SOL    HW119286   3.860   2.894   1.568  0.0319 -0.7186 -2.1203
 2550SOL    HW219287   3.964   2.972   1.487 -1.4921 -1.7202 -2.7932
 2551SOL     OW19288   3.554   0.102   3.233  0.0339  0.4479  0.2301
 2551SOL    HW119289   3.643   0.076   3.213  0.5234  2.0022  0.3451
 2551SOL    HW219290   3.562   0.093   3.328  0.4293 -0.2387  0.1284
 2552SOL     OW19291   1.618   4.322   1.067  0.2795 -0.0669  0.0635
 2552SOL    HW119292   1.591   4.412   1.049 -0.1572 -0.4641 -1.2582
 2552SOL    HW219293   1.713   4.323   1.050  0.5245 -2.2847  1.4317
 2553SOL     OW19294   2.483   1.191   7.577  0.6652 -0.4292 -0.2645
 2553SOL    HW119295   2.447   1.279   7.578 -0.3796 -0.8398 -1.7584
 2553SOL    HW219296   2.401   1.141   7.570  1.0431 -1.3569  1.7601
 2554SOL     OW19297   1.869   2.856   4.489  0.3912 -0.5162 -0.0246
 2554SOL    HW119298   1.938   2.846   4.423 -0.2010  1.6258 -0.9671
 2554SOL    HW219299   1.801   2.814   4.436 -0.1687 -0.5778  0.7466
 2555SOL     OW19300   4.450   2.474  12.051 -0.5567 -0.8187 -0.4512
 2555SOL    HW119301   4.450   2.433  12.138 -2.8883  2.1669  0.9550
 2555SOL    HW219302   4.456   2.564  12.082 -1.5842 -0.4882 -1.2229
 2556SOL     OW19303   4.367   4.627   0.063  0.0508  0.1645  0.3811
 2556SOL    HW119304   4.337   4.641  17.719  0.4278  0.8017  0.3605
 2556SOL    HW219305   4.302   4.679   0.111 -0.0996  1.9657 -1.7810
 2557SOL     OW19306   1.734   1.212  10.336  0.0697  0.0152  0.2827
 2557SOL    HW119307   1.773   1.176  10.416  0.4112 -0.1410  0.0426
 2557SOL    HW219308   1.811   1.261  10.309 -0.3320  1.4113  1.6143
 2558SOL     OW19309   1.312   2.472   4.532  0.2886 -0.2212  0.4789
 2558SOL    HW119310   1.282   2.536   4.596  0.4978 -0.3453  0.7019
 2558SOL    HW219311   1.253   2.502   4.463 -1.7414 -1.9011  1.4635
 2559SOL     OW19312   0.049   3.132  10.692 -0.2582 -0.3396 -0.1369
 2559SOL    HW119313   0.060   3.227  10.695 -2.0310 -0.1587  0.8605
 2559SOL    HW219314   0.051   3.122  10.597  1.1730  0.1557 -0.1547
 2560SOL     OW19315   0.942   2.289   7.157  0.0376  0.6530  0.4027
 2560SOL    HW119316   0.907   2.344   7.087 -1.0587 -0.8435 -0.2086
 2560SOL    HW219317   0.965   2.214   7.103  0.6384  0.6666  0.6465
 2561SOL     OW19318   1.301   2.991   2.553 -0.3414 -0.5490 -0.1916
 2561SOL    HW119319   1.221   2.962   2.510  0.9349 -2.7501 -1.0737
 2561SOL    HW219320   1.364   2.946   2.495  1.7886 -0.2613  1.9025
 2562SOL     OW19321   1.808   2.075   6.559  0.9932  0.0621 -0.2957
 2562SOL    HW119322   1.829   2.167   6.576 -1.1109  0.8768 -2.1949
 2562SOL    HW219323   1.814   2.030   6.643 -0.5436  1.3686  0.5007
 2563SOL     OW19324   0.262   0.551   6.010 -0.0008 -0.2486 -0.1371
 2563SOL    HW119325   0.176   0.587   6.029  1.2621  1.8712  1.5539
 2563SOL    HW219326   0.254   0.462   6.044 -3.1047 -0.8750 -2.5304
 2564SOL     OW19327   2.134   1.974   1.809 -0.1442  0.0080 -0.0663
 2564SOL    HW119328   2.064   1.917   1.841 -2.5837  2.7481 -0.5290
 2564SOL    HW219329   2.102   1.986   1.720 -0.8891 -0.7376  0.1008
 2565SOL     OW19330   0.901   4.518   5.954 -0.2837 -0.0692 -0.4993
 2565SOL    HW119331   0.873   4.454   5.889  4.0105  0.5204 -2.9490
 2565SOL    HW219332   0.988   4.491   5.984 -0.0730  0.5975 -0.4999
 2566SOL     OW19333   2.691   1.018  16.381  0.7133 -0.7893 -0.5880
 2566SOL    HW119334   2.690   0.937  16.329  0.2505 -2.1180  1.4585
 2566SOL    HW219335   2.663   1.082  16.316 -0.5840 -1.2642 -0.4970
 2567SOL     OW19336   0.010   1.925  15.603  0.5054 -0.5870 -0.2505
 2567SOL    HW119337   0.102   1.952  15.602  0.5806 -0.8890 -1.2724
 2567SOL    HW219338   4.702   2.009  15.589  0.9919  0.0773  2.0426
 2568SOL     OW19339   2.392   2.053  10.967 -0.2988  0.4565  0.3044
 2568SOL    HW119340   2.317   2.000  10.995 -1.3894  1.0550 -1.5226
 2568SOL    HW219341   2.453   2.021  11.034  1.4581  0.3437 -1.3800
 2569SOL     OW19342   0.726   1.882   1.158 -0.4208 -0.5318 -0.1603
 2569SOL    HW119343   0.751   1.967   1.195 -0.8634 -0.4957  0.0572
 2569SOL    HW219344   0.783   1.871   1.082  0.2184 -0.2829  0.2851
 2570SOL     OW19345   0.618   3.137  12.395  0.1954  0.0959  0.0242
 2570SOL    HW119346   0.569   3.203  12.443  2.2137  0.7998  1.1134
 2570SOL    HW219347   0.703   3.177  12.377  1.3653 -2.2433  0.3686
 2571SOL     OW19348   2.146   3.336  13.338  0.6194 -0.1624  0.2274
 2571SOL    HW119349   2.097   3.392  13.399 -0.4661 -0.6135 -0.2302
 2571SOL    HW219350   2.201   3.289  13.400  0.7025  0.3163  0.5169
 2572SOL     OW19351   3.936   1.625  16.464 -0.0265  0.6077 -0.1713
 2572SOL    HW119352   3.967   1.561  16.400 -0.3606 -1.4102  1.6990
 2572SOL    HW219353   4.017   1.649  16.509 -0.7716  0.3845  1.2778
 2573SOL     OW19354   2.433   4.268  17.217 -0.5432  0.4007  0.3929
 2573SOL    HW119355   2.511   4.258  17.162 -1.3193 -0.8677 -0.4884
 2573SOL    HW219356   2.403   4.358  17.206  2.4404  1.2890 -0.6931
 2574SOL     OW19357   0.841   2.951   3.433  0.4276  0.8467 -0.2333
 2574SOL    HW119358   0.833   3.024   3.495 -1.2053 -0.4104  1.0540
 2574SOL    HW219359   0.862   2.878   3.492 -0.4535  1.3968  0.7568
 2575SOL     OW19360   1.345   1.127   7.259 -0.7069 -0.3777 -0.6362
 2575SOL    HW119361   1.271   1.082   7.300 -0.9469 -0.9013 -1.6464
 2575SOL    HW219362   1.296   1.177   7.194 -0.7426  0.4612  0.0445
 2576SOL     OW19363   4.190   0.097   3.778  0.4049 -0.1459 -0.0279
 2576SOL    HW119364   4.130   0.033   3.740 -1.9389  0.9877  1.7680
 2576SOL    HW219365   4.261   0.043   3.813  0.0412 -0.8116 -0.3150
 2577SOL     OW19366   2.450   4.224   6.966  0.0137  0.0599 -0.3357
 2577SOL    HW119367   2.431   4.315   6.945 -2.9950 -1.1318 -2.7075
 2577SOL    HW219368   2.474   4.230   7.059 -1.9782 -0.9399  0.2432
 2578SOL     OW19369   3.360   2.211   7.405  0.0094 -0.3053  0.7905
 2578SOL    HW119370   3.337   2.210   7.498 -5.0564 -0.0903 -0.4708
 2578SOL    HW219371   3.451   2.238   7.417  0.3249 -0.8422 -0.4438
 2579SOL     OW19372   1.349   1.026  16.876 -0.0647  0.2018 -0.2040
 2579SOL    HW119373   1.286   1.052  16.943  2.0771 -1.4596  2.4464
 2579SOL    HW219374   1.355   1.114  16.838  2.4776  0.9124  1.8129
 2580SOL     OW19375   2.191   1.890   0.969 -0.2371  0.2965 -0.4580
 2580SOL    HW119376   2.226   1.808   1.003  0.3532 -0.0874 -2.0272
 2580SOL    HW219377   2.257   1.950   1.003 -0.4470  0.4758 -0.3645
 2581SOL     OW19378   0.698   1.118   6.185 -0.2236  0.4040 -0.3393
 2581SOL    HW119379   0.646   1.189   6.147 -2.3992 -0.1105  1.6567
 2581SOL    HW219380   0.638   1.043   6.185  0.3529 -0.0489  0.3342
 2582SOL     OW19381   0.664   2.096  16.255  0.2753  0.2441 -0.0849
 2582SOL    HW119382   0.664   2.022  16.195  1.5056 -0.3990  0.7084
 2582SOL    HW219383   0.759   2.099  16.258  0.4614 -3.7345 -1.4485
 2583SOL     OW19384   3.424   0.323  17.106 -0.9666 -0.1185 -0.2597
 2583SOL    HW119385   3.445   0.247  17.161  0.1108 -1.0265 -1.9511
 2583SOL    HW219386   3.368   0.374  17.165 -2.0873 -0.5097 -0.9972
 2584SOL     OW19387   3.839   3.474   4.757 -0.0321 -0.1015  0.6120
 2584SOL    HW119388   3.907   3.439   4.815 -0.8747 -1.0593  1.0124
 2584SOL    HW219389   3.898   3.490   4.683 -3.4040  0.5172 -1.9205
 2585SOL     OW19390   3.345   4.345   6.540 -0.0311 -0.3805  0.1252
 2585SOL    HW119391   3.365   4.268   6.487 -2.7904  1.0911 -3.0202
 2585SOL    HW219392   3.252   4.332   6.526 -0.2096 -2.9881  3.7940
 2586SOL     OW19393   2.801   1.900   7.890  0.0317  0.4292  0.0858
 2586SOL    HW119394   2.839   1.859   7.813  1.3419  3.0059 -0.6214
 2586SOL    HW219395   2.796   1.992   7.865 -1.3021 -0.0628 -1.4717
 2587SOL     OW19396   1.875   4.661  10.701  0.0583 -0.3130 -0.1738
 2587SOL    HW119397   1.924   0.006  10.700  0.1123 -0.3222  1.3921
 2587SOL    HW219398   1.899   4.615  10.782  1.9438 -0.5974 -0.8986
 2588SOL     OW19399   2.809   2.480   2.551  0.0480 -0.3859 -0.0581
 2588SOL    HW119400   2.836   2.542   2.483  1.2052  2.1559  2.6846
 2588SOL    HW219401   2.895   2.451   2.583 -1.2222  0.1443  3.9160
 2589SOL     OW19402   4.353   1.003   7.502  0.0374 -0.4216  0.1698
 2589SOL    HW119403   4.268   0.964   7.481  0.8990 -0.5416 -3.0348
 2589SOL    HW219404   4.331   1.096   7.512 -0.0056 -0.0103 -3.7810
 2590SOL     OW19405   3.893   2.333   7.612  0.3874 -0.0038  0.2413
 2590SOL    HW119406   3.985   2.308   7.606  0.0213  0.0454 -4.8375
 2590SOL    HW219407   3.854   2.260   7.660  1.2712 -0.0056  0.9661
 2591SOL     OW19408   3.130   3.502   2.214 -0.1063  0.1919  0.4421
 2591SOL    HW119409   3.186   3.527   2.288  1.2534  2.0763 -1.2253
 2591SOL    HW219410   3.192   3.507   2.141 -1.7633  1.1297 -0.9098
 2592SOL     OW19411   2.008   0.680   6.094  0.2369 -0.7597 -0.6672
 2592SOL    HW119412   2.038   0.599   6.136  0.5392 -0.3027 -0.0098
 2592SOL    HW219413   1.966   0.647   6.014  0.5756 -0.0631 -1.1287
 2593SOL     OW19414   1.569   2.551   3.976  0.1518  0.1732  0.1895
 2593SOL    HW119415   1.495   2.570   4.034  0.4440 -0.8069  0.8649
 2593SOL    HW219416   1.587   2.643   3.954  1.7408 -0.5142 -1.3194
 2594SOL     OW19417   1.125   3.085   1.694  0.3238 -0.0047 -0.2770
 2594SOL    HW119418   1.059   3.017   1.705 -0.1515  0.2954 -1.3006
 2594SOL    HW219419   1.142   3.102   1.787 -3.2713 -1.0685  0.5646
 2595SOL     OW19420   0.046   3.651   9.267 -0.0688 -0.3832  0.3413
 2595SOL    HW119421   0.138   3.628   9.270  0.1650  0.3669 -0.9576
 2595SOL    HW219422   0.032   3.673   9.359 -3.5553 -2.2246  0.2844
 2596SOL     OW19423   3.632   1.178  13.208 -0.2035  0.4382 -0.4893
 2596SOL    HW119424   3.555   1.232  13.223 -1.5698 -2.1077  1.6730
 2596SOL    HW219425   3.703   1.217  13.259 -0.5496  1.4332 -0.7842
 2597SOL     OW19426   0.772   0.842   0.263  0.4709  0.7230 -0.2505
 2597SOL    HW119427   0.867   0.844   0.256  0.3308  1.5063 -1.7952
 2597SOL    HW219428   0.744   0.886   0.343  0.8089  0.7230 -0.1328
 2598SOL     OW19429   0.812   2.397   4.596 -0.4132  0.7871 -0.0445
 2598SOL    HW119430   0.779   2.307   4.601  2.7004 -0.2784  1.0270
 2598SOL    HW219431   0.904   2.371   4.585 -0.5239  0.1650  0.4872
 2599SOL     OW19432   1.610   3.598  16.757  0.2979  0.5537 -0.6070
 2599SOL    HW119433   1.542   3.583  16.692  1.5923 -0.8451 -1.6384
 2599SOL    HW219434   1.622   3.692  16.750  1.7211  0.3993 -0.3912
 2600SOL     OW19435   3.033   4.582   6.582 -0.8048  0.3594 -0.5663
 2600SOL    HW119436   3.098   4.566   6.514  0.2570 -0.1393  0.5646
 2600SOL    HW219437   3.036   4.677   6.589  0.9211  0.3538 -1.4152
 2601SOL     OW19438   4.232   4.411  17.599  0.7560 -0.4366  0.0382
 2601SOL    HW119439   4.313   4.414  17.548  2.5434 -0.9222  2.8541
 2601SOL    HW219440   4.200   4.497  17.573  0.3085 -0.2973  1.0548
 2602SOL     OW19441   1.610   2.010   5.860 -0.2901  0.1518  0.2158
 2602SOL    HW119442   1.600   1.917   5.840  1.5195  0.1745 -0.8388
 2602SOL    HW219443   1.557   2.021   5.938  1.9782  1.9196  1.5189
 2603SOL     OW19444   0.376   2.124   1.419 -0.0140 -0.0916 -0.3690
 2603SOL    HW119445   0.281   2.127   1.427 -0.1554 -0.4072 -1.8820
 2603SOL    HW219446   0.386   2.055   1.353 -0.6077  1.1955 -1.8087
 2604SOL     OW19447   1.142   4.014  14.486 -0.0392 -0.0052 -0.1624
 2604SOL    HW119448   1.055   3.976  14.487 -0.7537  1.6239 -0.8716
 2604SOL    HW219449   1.166   3.998  14.577  1.0448 -0.4235 -0.5185
 2605SOL     OW19450   4.634   4.327   0.896  0.3440  0.2608  0.7085
 2605SOL    HW119451   4.695   4.378   0.843 -0.5170 -0.8244 -1.3430
 2605SOL    HW219452   4.572   4.385   0.940 -0.8175 -0.4087 -0.0069
 2606SOL     OW19453   2.859   2.810   2.714  0.6162 -0.1463  0.0321
 2606SOL    HW119454   2.890   2.801   2.623  0.1595 -0.8331 -0.0523
 2606SOL    HW219455   2.940   2.808   2.764  1.5850  1.8920 -1.4395
 2607SOL     OW19456   4.155   0.684   5.290  0.2676 -0.4697 -0.1342
 2607SOL    HW119457   4.173   0.743   5.217 -2.2407 -0.9565 -1.1619
 2607SOL    HW219458   4.218   0.613   5.291  0.2450 -0.4836  1.6475
 2608SOL     OW19459   1.587   2.823   3.931 -0.3019 -0.6481 -0.1283
 2608SOL    HW119460   1.680   2.834   3.911  0.4529 -1.1098  3.2285
 2608SOL    HW219461   1.583   2.867   4.015  0.6866 -0.6521 -0.0780
 2609SOL     OW19462   0.004   1.714   4.225  0.7231  0.1043 -0.3298
 2609SOL    HW119463   4.701   1.721   4.139 -1.6026 -0.1099  0.7245
 2609SOL    HW219464   0.011   1.619   4.226 -1.3762 -0.0402  1.2886
 2610SOL     OW19465   3.827   2.092   3.620  0.5621  0.3743 -0.3930
 2610SOL    HW119466   3.805   2.185   3.614  0.1568  0.2303 -1.0686
 2610SOL    HW219467   3.780   2.070   3.701  0.9813  0.8675 -0.0196
 2611SOL     OW19468   3.741   2.201   5.764  0.1015  0.2870 -0.6559
 2611SOL    HW119469   3.679   2.138   5.802  3.0709 -1.0838  1.9442
 2611SOL    HW219470   3.740   2.179   5.671  2.6613 -0.6172 -0.4832
 2612SOL     OW19471   3.402   2.542   5.826 -0.3956  0.0109 -0.3619
 2612SOL    HW119472   3.487   2.558   5.867 -0.7135 -1.5274  0.8801
 2612SOL    HW219473   3.430   2.563   5.737 -2.5005 -0.3193 -1.1031
 2613SOL     OW19474   4.254   4.138  13.729  0.3164 -0.2148 -0.2485
 2613SOL    HW119475   4.341   4.102  13.748 -0.1965 -1.3195  0.0680
 2613SOL    HW219476   4.277   4.215  13.678  1.3135 -0.2291  0.1788
 2614SOL     OW19477   1.494   3.426  17.519 -0.3460 -0.6753 -0.0274
 2614SOL    HW119478   1.563   3.434  17.585 -1.4023  0.7567  0.9118
 2614SOL    HW219479   1.526   3.497  17.463 -0.0113  1.4749  2.8468
 2615SOL     OW19480   1.675   2.193  11.824  0.4756 -0.4349 -0.4394
 2615SOL    HW119481   1.690   2.245  11.744 -0.4718  0.9083  0.2579
 2615SOL    HW219482   1.717   2.244  11.893 -0.8335 -0.8957  0.6897
 2616SOL     OW19483   3.858   2.621   8.919  0.3456 -0.5417 -0.3793
 2616SOL    HW119484   3.895   2.554   8.977 -1.7268  0.2745  1.8947
 2616SOL    HW219485   3.895   2.600   8.834 -0.2077  0.1223 -0.7869
 2617SOL     OW19486   3.967   2.424   7.014 -0.4688 -0.1844  0.3956
 2617SOL    HW119487   3.961   2.399   7.107 -0.2123  0.1038  0.4899
 2617SOL    HW219488   3.932   2.512   7.024  2.3629  0.8217  1.5495
 2618SOL     OW19489   2.857   2.116   4.941  0.1385  0.3646  0.0223
 2618SOL    HW119490   2.864   2.052   5.011 -1.4004 -2.0391 -2.0168
 2618SOL    HW219491   2.929   2.093   4.883 -1.6081  2.0544 -2.8362
 2619SOL     OW19492   4.039   1.665   7.801 -0.0073 -0.2054 -0.3138
 2619SOL    HW119493   3.966   1.604   7.793  1.1244 -1.6364  0.1773
 2619SOL    HW219494   4.104   1.609   7.844  1.4654 -0.0557 -2.3544
 2620SOL     OW19495   4.481   3.741   3.796 -0.3343 -0.3062  0.3380
 2620SOL    HW119496   4.551   3.709   3.740 -0.9005  0.5613 -0.8536
 2620SOL    HW219497   4.415   3.766   3.732 -0.0670  0.9368  0.5430
 2621SOL     OW19498   0.260   4.529   8.239  0.1486 -0.1703  0.3078
 2621SOL    HW119499   0.308   4.488   8.310  1.7823 -0.9648 -1.2569
 2621SOL    HW219500   0.186   4.470   8.223 -1.6101  2.0491  0.2749
 2622SOL     OW19501   3.349   2.475  14.976 -0.4126 -0.0024 -0.2163
 2622SOL    HW119502   3.337   2.434  15.062 -0.0423 -0.6357 -0.4672
 2622SOL    HW219503   3.275   2.535  14.974 -0.3255  0.0316 -2.8934
 2623SOL     OW19504   1.267   3.824   1.557 -0.4516  0.1424  0.2176
 2623SOL    HW119505   1.359   3.826   1.580 -0.4773 -1.2439  0.4507
 2623SOL    HW219506   1.266   3.775   1.475  1.6791  1.4168 -0.5535
 2624SOL     OW19507   1.734   2.023   2.427 -0.3791 -0.4200  0.5250
 2624SOL    HW119508   1.788   1.994   2.501 -1.3064 -0.0503  1.3460
 2624SOL    HW219509   1.767   2.112   2.416 -0.9812 -0.0844  1.4360
 2625SOL     OW19510   0.588   2.543   1.820 -0.1965 -0.4552  0.3319
 2625SOL    HW119511   0.516   2.503   1.868 -0.2481  1.5424  1.9388
 2625SOL    HW219512   0.640   2.467   1.793  0.8414  0.7505 -1.0702
 2626SOL     OW19513   1.040   1.906   5.298  0.3145 -0.1185  0.5395
 2626SOL    HW119514   1.045   1.826   5.246 -1.4336  1.5896 -2.2475
 2626SOL    HW219515   1.131   1.903   5.327  0.9184  1.3724 -1.2110
 2627SOL     OW19516   3.189   2.930   8.112  0.1623  0.3574 -0.4917
 2627SOL    HW119517   3.118   2.947   8.174 -0.7945 -1.1150 -1.1906
 2627SOL    HW219518   3.144   2.896   8.035  0.7772 -3.2523  0.7172
 2628SOL     OW19519   0.983   0.808  15.313 -0.3212 -0.4079  0.3566
 2628SOL    HW119520   1.044   0.754  15.263  1.1566 -1.1626  2.9658
 2628SOL    HW219521   0.970   0.750  15.388 -1.0706  0.0572  0.5871
 2629SOL     OW19522   0.702   4.332   8.357 -0.0078  0.1339 -0.0231
 2629SOL    HW119523   0.684   4.416   8.398  1.2162  0.0570  0.6659
 2629SOL    HW219524   0.761   4.287   8.417 -0.2419  1.4520  1.1823
 2630SOL     OW19525   2.648   0.421   5.378 -0.2871 -0.3004 -0.1945
 2630SOL    HW119526   2.575   0.385   5.328 -0.3329 -0.7702  0.2103
 2630SOL    HW219527   2.727   0.396   5.332  0.7950  0.5052  1.2040
 2631SOL     OW19528   4.469   0.613   2.086 -0.4021 -0.4853 -0.1564
 2631SOL    HW119529   4.376   0.621   2.066  0.1089 -0.0816 -2.3909
 2631SOL    HW219530   4.505   0.613   1.997  0.4915 -0.5319  0.2058
 2632SOL     OW19531   3.775   1.916   4.527  0.0364  0.0927 -0.4467
 2632SOL    HW119532   3.767   2.006   4.559 -1.0375  0.2233 -1.0745
 2632SOL    HW219533   3.839   1.876   4.586  0.7475 -2.2460 -2.7984
 2633SOL     OW19534   3.057   2.151   3.701  0.3330  0.6191  0.4240
 2633SOL    HW119535   2.974   2.104   3.707  0.0590  1.0674  0.1579
 2633SOL    HW219536   3.043   2.189   3.614 -0.9705  1.6870  1.0868
 2634SOL     OW19537   0.681   3.983   5.594 -0.8456 -0.5203 -0.3708
 2634SOL    HW119538   0.738   3.947   5.526  1.5289 -1.2431  2.0487
 2634SOL    HW219539   0.662   3.902   5.641 -3.3534  1.2384  1.6705
 2635SOL     OW19540   4.166   3.668  12.168 -0.4061 -0.5930  0.1219
 2635SOL    HW119541   4.072   3.659  12.151 -0.6711  2.4617  0.0229
 2635SOL    HW219542   4.187   3.721  12.092 -0.5638  0.0072  0.5021
 2636SOL     OW19543   2.344   3.522   6.848  0.1676  0.5260  0.0735
 2636SOL    HW119544   2.333   3.589   6.916 -0.0248  0.3702  0.1968
 2636SOL    HW219545   2.278   3.456   6.872  1.1258 -0.3070  0.4033
 2637SOL     OW19546   0.442   3.257  14.129  0.1960 -0.3852 -0.2662
 2637SOL    HW119547   0.406   3.345  14.117 -0.5946 -0.9592 -2.0247
 2637SOL    HW219548   0.373   3.219  14.183  1.4124 -1.4587  0.5542
 2638SOL     OW19549   4.360   3.879   5.761  0.5027 -0.1537 -0.2657
 2638SOL    HW119550   4.389   3.803   5.812  1.2065  0.0486 -0.3666
 2638SOL    HW219551   4.409   3.942   5.814 -0.1580 -0.4258  0.6603
 2639SOL     OW19552   1.541   4.465  11.082  0.2254 -0.0853 -0.3786
 2639SOL    HW119553   1.628   4.478  11.121  0.5656  0.6282 -1.3896
 2639SOL    HW219554   1.523   4.554  11.053 -0.5373  0.1146  0.6725
 2640SOL     OW19555   0.964   3.000   3.963  0.2068  0.4057  0.3513
 2640SOL    HW119556   0.874   2.974   3.947 -0.2485  3.0620 -1.3764
 2640SOL    HW219557   0.962   3.091   3.933  1.7250  0.6799  1.0534
 2641SOL     OW19558   4.144   2.564   3.505 -0.4039  1.0152 -0.6171
 2641SOL    HW119559   4.055   2.553   3.472  0.2627  1.7147 -2.6045
 2641SOL    HW219560   4.195   2.586   3.427  0.7934  1.7961  0.3773
 2642SOL     OW19561   4.407   3.148   3.330  0.1500 -0.6051  0.1325
 2642SOL    HW119562   4.486   3.199   3.346  0.9730 -1.5989 -0.8452
 2642SOL    HW219563   4.406   3.110   3.418  0.1400 -0.9299 -0.0079
 2643SOL     OW19564   3.921   3.144  15.485 -0.4589  0.1486 -0.1796
 2643SOL    HW119565   3.945   3.230  15.450  0.2059 -0.5330 -1.3811
 2643SOL    HW219566   3.911   3.154  15.580 -0.1830 -0.8292 -0.0541
 2644SOL     OW19567   3.711   0.960   9.752 -0.5013 -0.5959  0.1413
 2644SOL    HW119568   3.679   0.871   9.736  0.1043 -1.7253  5.2895
 2644SOL    HW219569   3.743   0.982   9.665  0.0601 -1.9142  0.0045
 2645SOL     OW19570   3.544   2.024   5.845 -0.1730  0.3510  0.4329
 2645SOL    HW119571   3.543   2.032   5.941 -0.4558  1.7406  0.3200
 2645SOL    HW219572   3.528   1.932   5.826 -1.5785  0.8756 -0.8771
 2646SOL     OW19573   3.169   4.371   9.735 -0.4533  0.1065 -0.5038
 2646SOL    HW119574   3.168   4.279   9.759  0.5527 -0.1311 -1.3763
 2646SOL    HW219575   3.260   4.387   9.707 -0.4962 -0.8417 -1.1869
 2647SOL     OW19576   1.007   3.447   3.409 -0.0720  0.2610 -0.4926
 2647SOL    HW119577   1.037   3.533   3.378  1.4196 -0.1541 -0.2376
 2647SOL    HW219578   1.085   3.393   3.394 -0.0549 -0.3046  1.7543
 2648SOL     OW19579   0.629   1.075  12.115 -0.5232 -0.0407 -0.7110
 2648SOL    HW119580   0.565   1.127  12.166  0.6775  0.3164  0.4439
 2648SOL    HW219581   0.691   1.143  12.090  0.3348 -0.5017  0.1534
 2649SOL     OW19582   2.478   4.299   9.940 -0.0232 -0.0380 -0.0071
 2649SOL    HW119583   2.435   4.326  10.021  1.1467  1.6088  0.0732
 2649SOL    HW219584   2.482   4.204   9.951  1.2808 -0.0519 -0.5596
 2650SOL     OW19585   2.929   0.751  15.664  0.3212  0.3960  0.2474
 2650SOL    HW119586   2.896   0.816  15.601  0.7606  2.3054  1.9738
 2650SOL    HW219587   2.926   0.805  15.743  1.7081 -0.5116  0.9199
 2651SOL     OW19588   1.587   3.074   3.560 -0.5081  0.7381 -0.3195
 2651SOL    HW119589   1.554   3.127   3.633  1.4706 -0.1486  1.2197
 2651SOL    HW219590   1.637   3.142   3.514  0.0086  0.6636  0.1320
 2652SOL     OW19591   2.897   4.508  16.584 -0.1125  0.2146 -0.9705
 2652SOL    HW119592   2.913   4.600  16.602 -0.5908 -0.2311  1.6362
 2652SOL    HW219593   2.989   4.482  16.592 -0.1885  0.6308  1.1667
 2653SOL     OW19594   2.636   3.219   7.838 -0.1454  0.2468  0.1388
 2653SOL    HW119595   2.598   3.297   7.881 -0.5313 -0.1740  0.5611
 2653SOL    HW219596   2.581   3.226   7.760  0.9876  0.7332 -0.6189
 2654SOL     OW19597   0.376   1.620   9.096 -0.0355 -0.0397  0.1218
 2654SOL    HW119598   0.398   1.597   9.186 -3.1571  0.4499  1.0247
 2654SOL    HW219599   0.448   1.576   9.051  1.2189  0.4059  1.6876
 2655SOL     OW19600   1.430   1.561   2.747 -0.9465  0.0535 -0.0612
 2655SOL    HW119601   1.433   1.551   2.651 -1.7614  1.4372 -0.2369
 2655SOL    HW219602   1.495   1.629   2.767 -1.5245  0.4629  0.4268
 2656SOL     OW19603   2.749   3.229  13.345  0.5363  0.1497 -0.2504
 2656SOL    HW119604   2.742   3.133  13.350  2.2722  0.2051  3.6045
 2656SOL    HW219605   2.840   3.245  13.370  0.5358 -0.3802  0.0852
 2657SOL     OW19606   4.522   4.670   0.866  0.5122 -0.1734  0.0540
 2657SOL    HW119607   4.463   4.624   0.926 -0.0079  0.9847  0.4157
 2657SOL    HW219608   4.509   4.612   0.790  0.4667 -0.5983  0.3835
 2658SOL     OW19609   3.225   0.045   6.928  0.3195  0.2121  0.4834
 2658SOL    HW119610   3.233   0.139   6.916  0.6840  0.1962  0.5881
 2658SOL    HW219611   3.251   0.008   6.843 -0.2165 -0.6338  0.6864
 2659SOL     OW19612   0.001   2.798   3.167 -0.3666  0.1095  0.0266
 2659SOL    HW119613   4.643   2.793   3.181 -0.4019 -0.8997 -0.5901
 2659SOL    HW219614   0.011   2.795   3.072 -2.5702 -0.5208 -0.1963
 2660SOL     OW19615   3.755   3.281  11.625  0.1182 -0.3711 -0.7228
 2660SOL    HW119616   3.662   3.298  11.620  0.4283  1.3492 -0.4363
 2660SOL    HW219617   3.751   3.195  11.667  1.7430 -0.6415 -1.0963
 2661SOL     OW19618   2.256   2.084  11.454 -0.2824 -0.0161  0.1466
 2661SOL    HW119619   2.268   1.990  11.469 -0.2824 -0.1395 -0.6235
 2661SOL    HW219620   2.177   2.089  11.401 -0.3060  0.0739  0.1913
 2662SOL     OW19621   1.102   0.591   5.243 -0.2917 -0.0943 -0.2240
 2662SOL    HW119622   1.055   0.629   5.168 -0.0132 -0.4374 -0.5747
 2662SOL    HW219623   1.087   0.497   5.230  0.3235 -0.2039 -0.1496
 2663SOL     OW19624   0.317   1.722   7.448 -0.5063 -0.1504  0.3263
 2663SOL    HW119625   0.247   1.781   7.421  0.0756  0.3674 -0.0571
 2663SOL    HW219626   0.280   1.664   7.515  0.4441 -0.0604  0.9329
 2664SOL     OW19627   3.523   4.156   5.085  0.1403  0.2922 -0.5001
 2664SOL    HW119628   3.441   4.206   5.088  0.8606  1.5138 -0.9234
 2664SOL    HW219629   3.560   4.182   5.169  2.2226  0.7214 -1.5500
 2665SOL     OW19630   2.864   3.961  11.070  0.0869  0.0058 -0.1371
 2665SOL    HW119631   2.828   3.878  11.037  0.5983 -0.6265  0.9245
 2665SOL    HW219632   2.869   4.008  10.987 -0.1261  1.8414  0.8874
 2666SOL     OW19633   2.732   1.062  14.952  0.2300  0.4270 -0.3457
 2666SOL    HW119634   2.746   1.108  14.869  1.0378  1.2252  0.2237
 2666SOL    HW219635   2.642   1.084  14.974  0.7733  0.8236  1.5261
 2667SOL     OW19636   0.088   1.721   4.635  0.0818  0.2356  0.0717
 2667SOL    HW119637   0.066   1.753   4.547  0.6798 -0.5753 -0.3656
 2667SOL    HW219638   0.061   1.793   4.693 -2.2830 -1.7776  1.4687
 2668SOL     OW19639   0.574   4.473   4.032 -0.1665  0.5013 -0.0328
 2668SOL    HW119640   0.527   4.413   3.975  1.0713 -0.6495  0.1694
 2668SOL    HW219641   0.504   4.516   4.081 -0.5427 -2.0931  1.6982
 2669SOL     OW19642   3.721   1.306   5.165 -0.3421  0.2733 -0.4134
 2669SOL    HW119643   3.747   1.219   5.134  1.3953  0.7305 -0.2745
 2669SOL    HW219644   3.724   1.354   5.082  1.5145 -0.6425 -0.8830
 2670SOL     OW19645   0.413   2.451   4.577 -0.4898 -0.6549 -0.0195
 2670SOL    HW119646   0.475   2.404   4.523  1.8267  1.1769  1.0258
 2670SOL    HW219647   0.379   2.503   4.504 -1.2322  0.6118  1.2240
 2671SOL     OW19648   1.521   3.520   7.399 -0.7185 -0.4427 -0.4990
 2671SOL    HW119649   1.542   3.583   7.330  0.2414  1.1801  1.2829
 2671SOL    HW219650   1.595   3.461   7.407 -0.4638 -0.4357 -2.8522
 2672SOL     OW19651   0.608   3.827   3.190 -0.4068  0.0592  0.1715
 2672SOL    HW119652   0.631   3.831   3.097  0.2204  1.1061  0.3692
 2672SOL    HW219653   0.667   3.894   3.225  0.2452 -0.1338 -0.5599
 2673SOL     OW19654   1.165   3.857   6.438  0.0605  0.1364  0.2444
 2673SOL    HW119655   1.195   3.773   6.402  1.2284  0.3180  0.8151
 2673SOL    HW219656   1.171   3.910   6.359 -0.9564 -0.4666 -0.2476
 2674SOL     OW19657   2.405   1.583   6.848  0.2397 -0.1520 -0.5779
 2674SOL    HW119658   2.414   1.515   6.915  2.4031  0.8043  0.1304
 2674SOL    HW219659   2.316   1.559   6.824 -0.3484  1.4373 -0.0050
 2675SOL     OW19660   1.882   3.603   1.343 -0.1753  0.5954  0.7035
 2675SOL    HW119661   1.977   3.600   1.355 -0.3234 -0.1439  1.7153
 2675SOL    HW219662   1.883   3.566   1.256  2.1023 -0.5278  1.2128
 2676SOL     OW19663   2.233   3.085   9.765  0.3809 -0.1626 -0.3398
 2676SOL    HW119664   2.286   3.040   9.831 -0.0651 -0.3110 -0.0828
 2676SOL    HW219665   2.283   3.059   9.688  1.0496  2.8089 -0.9025
 2677SOL     OW19666   2.775   1.787   6.531 -0.6525  0.1301 -0.2336
 2677SOL    HW119667   2.788   1.799   6.437  0.3611  0.8969 -0.0061
 2677SOL    HW219668   2.740   1.698   6.533 -2.3012  0.7635 -1.3309
 2678SOL     OW19669   2.714   2.147   2.736 -0.2695 -0.2686 -0.4644
 2678SOL    HW119670   2.760   2.147   2.652 -0.1042 -0.4136 -0.3721
 2678SOL    HW219671   2.695   2.054   2.751  0.6486 -0.4363 -0.3681
 2679SOL     OW19672   4.022   2.507   1.542 -0.2914  0.3028  0.1368
 2679SOL    HW119673   3.988   2.427   1.583 -2.5625  1.2270  0.0650
 2679SOL    HW219674   4.059   2.466   1.465 -0.0230 -1.0669  0.9966
 2680SOL     OW19675   0.943   4.005   5.210  0.8686 -0.4512 -0.2343
 2680SOL    HW119676   1.032   3.995   5.244 -0.0770  0.4258  2.4676
 2680SOL    HW219677   0.908   3.920   5.237 -1.1868  0.8412  1.2108
 2681SOL     OW19678   1.602   1.107   4.804  0.2331 -0.1699  0.1748
 2681SOL    HW119679   1.544   1.176   4.836 -2.1904 -1.4646 -1.4907
 2681SOL    HW219680   1.646   1.158   4.736 -0.6930  2.9437  1.8804
 2682SOL     OW19681   0.898   0.978   2.572  0.5505  0.0668  0.1816
 2682SOL    HW119682   0.871   0.985   2.480  1.4052  2.6328  0.1367
 2682SOL    HW219683   0.992   0.988   2.556  0.7662  0.8257  1.9487
 2683SOL     OW19684   3.398   0.073   4.686 -0.9075  0.0653  0.2453
 2683SOL    HW119685   3.306   0.080   4.661 -0.0627  0.3548 -2.7843
 2683SOL    HW219686   3.417   0.166   4.701 -0.4616  0.0724 -0.3796
 2684SOL     OW19687   2.412   1.538  17.243  0.4980  0.3000 -0.2822
 2684SOL    HW119688   2.466   1.460  17.229  1.6942  1.4728 -2.1722
 2684SOL    HW219689   2.334   1.518  17.192  0.1349  0.4478  0.2081
 2685SOL     OW19690   2.330   4.440   2.899  0.3983  0.2589 -0.4510
 2685SOL    HW119691   2.379   4.515   2.932  0.2082 -0.4458  1.4661
 2685SOL    HW219692   2.248   4.451   2.949  1.5890  2.4438  1.0409
 2686SOL     OW19693   1.304   0.070   6.966 -0.2766  0.2007 -0.2419
 2686SOL    HW119694   1.339   0.036   6.884  1.6148 -0.2578  0.7404
 2686SOL    HW219695   1.307   4.723   7.013  0.0087  0.4925  0.2618
 2687SOL     OW19696   3.025   1.283   8.777 -0.5347  0.0743 -0.0565
 2687SOL    HW119697   3.005   1.197   8.813 -1.3760  0.3137  0.0441
 2687SOL    HW219698   3.021   1.260   8.684 -0.4405  4.0231 -1.0400
 2688SOL     OW19699   2.177   2.081   2.581  0.6856 -0.0025  0.1629
 2688SOL    HW119700   2.241   2.111   2.646 -0.3702  2.0054  0.2817
 2688SOL    HW219701   2.230   2.068   2.502  0.0900  1.4275 -0.4733
 2689SOL     OW19702   3.960   0.648   3.301 -0.3746 -0.5579  0.2327
 2689SOL    HW119703   3.982   0.583   3.368  1.0042 -2.3658 -1.9298
 2689SOL    HW219704   3.887   0.617   3.248 -0.3219  0.6131 -0.5116
 2690SOL     OW19705   2.522   2.272   5.258 -0.3703 -0.4492 -0.5108
 2690SOL    HW119706   2.611   2.236   5.256 -0.4756 -0.8221  2.0930
 2690SOL    HW219707   2.513   2.282   5.163  1.7022  1.4158 -0.5015
 2691SOL     OW19708   0.018   1.870   4.844  0.3345 -0.3585  0.4131
 2691SOL    HW119709   4.687   1.909   4.898 -0.0733  1.4636 -1.4079
 2691SOL    HW219710   0.099   1.905   4.880 -0.2121 -1.6988  2.9453
 2692SOL     OW19711   1.450   4.181   4.232  0.0220  0.6497  0.1632
 2692SOL    HW119712   1.460   4.242   4.159  0.5701  1.1693  0.6658
 2692SOL    HW219713   1.535   4.181   4.277 -0.5808  2.1467  1.3256
 2693SOL     OW19714   3.481   4.504   3.387  1.0688  0.3102 -0.0221
 2693SOL    HW119715   3.458   4.470   3.473 -2.4979  0.6721 -0.8352
 2693SOL    HW219716   3.401   4.551   3.364 -0.8192 -2.3760  1.0785
 2694SOL     OW19717   2.816   0.440   8.049  0.3801 -0.3736  0.0872
 2694SOL    HW119718   2.835   0.405   8.136  2.3677  0.3600 -0.0453
 2694SOL    HW219719   2.876   0.515   8.052  1.1944 -1.0593  1.2670
 2695SOL     OW19720   0.345   3.709   7.952 -0.2510 -0.0448  0.5208
 2695SOL    HW119721   0.379   3.627   7.987  0.2917 -0.1175 -0.1740
 2695SOL    HW219722   0.420   3.768   7.962  0.8699 -1.1948 -0.9632
 2696SOL     OW19723   4.220   0.638   2.749  0.2493  0.0727 -0.4957
 2696SOL    HW119724   4.165   0.560   2.762  1.7079 -0.7277  0.8200
 2696SOL    HW219725   4.163   0.713   2.764 -0.9058 -0.8724 -0.1142
 2697SOL     OW19726   3.769   4.528  11.073  0.4385 -0.9574  0.4921
 2697SOL    HW119727   3.694   4.483  11.110 -2.4233  3.0535 -0.4030
 2697SOL    HW219728   3.757   4.507  10.980  0.6229  0.7441  0.0745
 2698SOL     OW19729   0.151   0.257  14.864  0.2460  0.4089  0.2827
 2698SOL    HW119730   0.195   0.315  14.926  2.2330 -2.5066  1.5841
 2698SOL    HW219731   0.193   0.288  14.784 -1.5189  0.0593 -0.7740
 2699SOL     OW19732   0.501   3.326   5.716  0.1319  0.3639 -0.5389
 2699SOL    HW119733   0.557   3.359   5.646 -0.6822  0.2230 -1.2656
 2699SOL    HW219734   0.427   3.385   5.700 -1.7410 -2.1241 -1.1127
 2700SOL     OW19735   3.040   2.089  17.089 -0.0636  0.5312  0.0710
 2700SOL    HW119736   3.116   2.138  17.122  0.0886 -0.4326  1.1890
 2700SOL    HW219737   3.037   2.016  17.151 -0.4670  0.0210 -0.5495
 2701SOL     OW19738   1.262   3.115   2.250 -0.0126 -0.6314 -0.3154
 2701SOL    HW119739   1.192   3.052   2.262 -1.6145  0.8739 -1.7067
 2701SOL    HW219740   1.224   3.154   2.171 -2.0671 -0.2317  0.8737
 2702SOL     OW19741   3.778   1.723   2.405 -0.1567 -0.1397 -0.0177
 2702SOL    HW119742   3.735   1.805   2.430  1.3808 -0.1272  2.5552
 2702SOL    HW219743   3.740   1.715   2.317 -0.8072  0.2798  0.2245
 2703SOL     OW19744   3.173   0.813   8.241 -0.3620 -1.4641 -0.2235
 2703SOL    HW119745   3.179   0.745   8.308  1.1068  0.5153  1.6202
 2703SOL    HW219746   3.172   0.898   8.283  1.1251 -0.2764 -2.6250
 2704SOL     OW19747   1.366   1.633   8.354 -0.2128  0.3122 -0.3840
 2704SOL    HW119748   1.332   1.565   8.295  2.3422  1.6906 -3.4293
 2704SOL    HW219749   1.391   1.703   8.294 -2.0185  0.2542 -1.2061
 2705SOL     OW19750   3.527   3.422  15.995 -0.4159 -0.2503 -1.0857
 2705SOL    HW119751   3.612   3.464  15.981  0.3170 -0.0947  3.6863
 2705SOL    HW219752   3.466   3.494  16.010  1.1530  0.7598  0.4408
 2706SOL     OW19753   1.809   3.306  16.853 -0.8712 -0.2701 -0.5044
 2706SOL    HW119754   1.718   3.321  16.882 -0.6659  1.3070 -0.6694
 2706SOL    HW219755   1.825   3.400  16.845 -2.7911 -0.1225 -2.6968
 2707SOL     OW19756   4.231   4.140   2.893  0.4426 -0.9641  0.6711
 2707SOL    HW119757   4.311   4.157   2.844  0.1562 -0.6110  0.3282
 2707SOL    HW219758   4.241   4.213   2.955  0.9917 -1.1537  0.8030
 2708SOL     OW19759   4.730   0.737   6.764  0.3301 -0.1280 -0.1300
 2708SOL    HW119760   4.728   0.747   6.669  2.2615 -1.6274 -0.3299
 2708SOL    HW219761   4.654   0.678   6.770 -1.0434  1.5750 -1.1497
 2709SOL     OW19762   2.909   3.641   7.478  0.0729  0.3353 -0.0687
 2709SOL    HW119763   2.863   3.723   7.496  0.0192  0.2235  0.3029
 2709SOL    HW219764   2.854   3.575   7.434  2.3981 -0.8759 -1.1839
 2710SOL     OW19765   1.099   0.886   6.399 -0.6592 -0.1152 -0.5052
 2710SOL    HW119766   1.131   0.904   6.487  0.1227 -1.2014 -0.5587
 2710SOL    HW219767   1.024   0.830   6.417  0.2448 -0.6841  1.5125
 2711SOL     OW19768   1.068   2.182   5.696  0.2613 -0.5746  0.2018
 2711SOL    HW119769   1.023   2.230   5.627  1.0092  0.5316  0.4934
 2711SOL    HW219770   1.025   2.096   5.688 -0.5948 -0.0470 -0.7595
 2712SOL     OW19771   4.534   0.874   6.985 -0.1979  0.3358 -0.0739
 2712SOL    HW119772   4.519   0.791   7.030 -2.5948  1.9691  2.1569
 2712SOL    HW219773   4.559   0.845   6.897  2.1314  0.6269  0.5042
 2713SOL     OW19774   1.319   4.495  12.735 -0.2468  0.8414 -0.1977
 2713SOL    HW119775   1.245   4.440  12.763 -0.2015  0.4495 -0.8549
 2713SOL    HW219776   1.305   4.559  12.805  1.2457 -0.6972  1.5391
 2714SOL     OW19777   3.997   2.631   8.657 -0.1197 -0.4370 -0.1293
 2714SOL    HW119778   4.054   2.704   8.681 -2.2352  1.6130 -1.2244
 2714SOL    HW219779   4.059   2.571   8.617  0.7916  1.2974 -1.3241
 2715SOL     OW19780   3.842   0.338   8.966  0.6527  0.0584 -0.7024
 2715SOL    HW119781   3.917   0.385   8.930  0.2341  2.9912  2.1997
 2715SOL    HW219782   3.774   0.401   8.942 -1.2610 -0.4698  3.3605
 2716SOL     OW19783   4.714   1.552   1.904  0.4810  0.1610 -0.5797
 2716SOL    HW119784   4.655   1.511   1.841  1.0132 -1.5101 -0.0107
 2716SOL    HW219785   4.733   1.470   1.951  2.0525  1.6543  1.3826
 2717SOL     OW19786   0.561   4.535   4.881 -0.2040  0.0454  0.2900
 2717SOL    HW119787   0.467   4.518   4.885 -0.5992  1.7996 -1.6740
 2717SOL    HW219788   0.574   4.465   4.817  0.6651  0.2793  0.2090
 2718SOL     OW19789   0.317   0.331   7.370 -0.3721  0.0947  0.7646
 2718SOL    HW119790   0.286   0.301   7.456  0.0080 -2.7940 -0.0921
 2718SOL    HW219791   0.238   0.375   7.341 -0.1510  0.7815  1.1896
 2719SOL     OW19792   3.568   3.904   5.962  0.1438 -0.0062 -0.2697
 2719SOL    HW119793   3.634   3.850   5.919 -0.6151  0.0452 -1.5010
 2719SOL    HW219794   3.568   3.972   5.894 -0.1513 -0.0993 -0.3647
 2720SOL     OW19795   4.275   2.676   7.390  0.3380  0.0702 -0.3272
 2720SOL    HW119796   4.345   2.648   7.448  0.5115 -0.1537 -0.6413
 2720SOL    HW219797   4.269   2.768   7.416 -2.4315 -0.0868 -0.3854
 2721SOL     OW19798   2.876   0.471   6.906  0.0329  0.0073 -0.1443
 2721SOL    HW119799   2.950   0.522   6.874 -2.3099  3.4390 -0.0648
 2721SOL    HW219800   2.844   0.435   6.823 -1.3202  1.9389 -0.4660
 2722SOL     OW19801   2.019   1.292  17.440  0.4194  0.4458 -0.0168
 2722SOL    HW119802   2.066   1.215  17.471  1.1872  0.7728 -0.3646
 2722SOL    HW219803   1.929   1.263  17.455 -0.3098  3.5661  1.5275
 2723SOL     OW19804   4.549   4.178  16.996  0.0697  0.1856 -0.5280
 2723SOL    HW119805   4.627   4.173  17.052 -1.7128 -0.4936  1.9077
 2723SOL    HW219806   4.508   4.094  17.018  1.0429  0.3253  1.8908
 2724SOL     OW19807   3.688   2.950   3.490  0.3576 -0.2776  0.1314
 2724SOL    HW119808   3.657   2.870   3.447  2.1861 -2.1043  2.1961
 2724SOL    HW219809   3.767   2.964   3.437 -0.1337  0.9817 -0.2581
 2725SOL     OW19810   2.626   2.572   6.969  0.3562  0.1917  0.4052
 2725SOL    HW119811   2.661   2.511   6.903 -1.3989  0.9018 -1.1606
 2725SOL    HW219812   2.540   2.602   6.941 -0.0939  1.4079  3.0637
 2726SOL     OW19813   1.909   1.047  15.882 -0.9941  0.4726  0.4133
 2726SOL    HW119814   1.945   0.984  15.819  0.2867 -0.5743  2.2100
 2726SOL    HW219815   1.856   1.104  15.827  0.6634 -0.2375 -1.9301
 2727SOL     OW19816   2.760   2.117   4.529  0.3259  0.4716 -0.3004
 2727SOL    HW119817   2.745   2.027   4.559 -0.2352 -0.8687 -4.5497
 2727SOL    HW219818   2.783   2.103   4.437 -1.6169  1.1792 -0.8776
 2728SOL     OW19819   0.428   3.935   7.369 -0.0745  0.1374 -0.5915
 2728SOL    HW119820   0.440   3.939   7.464  1.3386  0.2979 -0.7797
 2728SOL    HW219821   0.379   3.853   7.361 -1.8698  1.0730  0.7291
 2729SOL     OW19822   4.169   1.392  11.543 -0.1095 -0.2862  0.3101
 2729SOL    HW119823   4.224   1.324  11.581 -1.6402 -0.7803  1.6542
 2729SOL    HW219824   4.141   1.428  11.627 -3.4809 -1.5510 -0.2428
 2730SOL     OW19825   2.372   0.686   7.318  0.4629 -0.4009  0.0826
 2730SOL    HW119826   2.306   0.752   7.297  0.1986  0.2079  2.8570
 2730SOL    HW219827   2.317   0.608   7.329  1.5576 -1.2661 -0.6213
 2731SOL     OW19828   2.424   3.379  13.577 -0.0319 -0.3637  0.3540
 2731SOL    HW119829   2.363   3.305  13.579  0.4194 -0.7133  1.1047
 2731SOL    HW219830   2.463   3.372  13.490  0.1264 -0.7442  0.4568
 2732SOL     OW19831   2.637   3.946   5.136 -0.1286 -0.4260  0.5663
 2732SOL    HW119832   2.712   3.986   5.179 -0.8496  2.1665 -0.5790
 2732SOL    HW219833   2.632   3.865   5.186  1.0349 -0.1998  1.0338
 2733SOL     OW19834   0.836   0.842   6.259 -0.1736 -0.0282  0.0197
 2733SOL    HW119835   0.862   0.753   6.281  2.1606  0.5566 -0.4317
 2733SOL    HW219836   0.909   0.872   6.205 -1.3380 -0.5656 -1.8547
 2734SOL     OW19837   2.710   3.895  11.849 -1.1534 -0.2004 -0.1208
 2734SOL    HW119838   2.683   3.803  11.845  1.4304 -0.9224 -0.6553
 2734SOL    HW219839   2.740   3.900  11.940  2.7091  0.4165 -1.4420
 2735SOL     OW19840   1.357   4.461   5.279  0.3078  0.6768 -0.0677
 2735SOL    HW119841   1.339   4.506   5.197 -3.1610 -3.2625 -1.4172
 2735SOL    HW219842   1.296   4.388   5.277 -0.5425  1.3085  2.7698
 2736SOL     OW19843   2.066   1.401  13.894 -0.3187 -0.0908 -0.5034
 2736SOL    HW119844   1.980   1.365  13.871 -0.6013  1.5011 -1.9314
 2736SOL    HW219845   2.099   1.337  13.957  1.1699  0.8682 -0.3190
 2737SOL     OW19846   1.597   3.671   4.871 -0.1485  0.0268  0.5092
 2737SOL    HW119847   1.685   3.696   4.899  1.1136 -1.6731 -1.9677
 2737SOL    HW219848   1.549   3.744   4.910  2.6435  1.2751  1.5446
 2738SOL     OW19849   3.882   3.407   9.718 -0.1430 -0.3733  0.0461
 2738SOL    HW119850   3.815   3.468   9.748 -0.1022  0.8498 -2.3500
 2738SOL    HW219851   3.909   3.437   9.631 -1.0233  0.9079  0.2210
 2739SOL     OW19852   2.168   1.126  11.682 -0.1419  0.1640 -0.4193
 2739SOL    HW119853   2.255   1.101  11.711  0.1787  2.3843  0.5384
 2739SOL    HW219854   2.193   1.179  11.606 -2.0399  0.4419 -0.8546
 2740SOL     OW19855   2.078   3.110  12.882 -0.0906  0.0204 -0.0414
 2740SOL    HW119856   2.005   3.054  12.855 -1.3583  1.5229  0.2713
 2740SOL    HW219857   2.082   3.183  12.820 -1.3469  1.0836  1.1448
 2741SOL     OW19858   3.787   0.811   3.511  0.0393  0.1702  0.2736
 2741SOL    HW119859   3.829   0.888   3.550  0.4038  0.3949 -0.5610
 2741SOL    HW219860   3.842   0.787   3.437  1.6172  2.5569  0.6534
 2742SOL     OW19861   2.183   1.515  17.099  0.4581 -0.0347  0.0670
 2742SOL    HW119862   2.200   1.423  17.120  0.6057 -0.1276 -0.4405
 2742SOL    HW219863   2.201   1.508  17.005 -1.0707  0.2510 -0.2460
 2743SOL     OW19864   0.865   1.713   5.583  0.3059 -0.2897 -0.0233
 2743SOL    HW119865   0.873   1.687   5.491 -1.3514  1.8416 -0.7742
 2743SOL    HW219866   0.777   1.685   5.607 -0.4856  1.2901 -1.0649
 2744SOL     OW19867   2.005   2.466   8.800  0.4478  0.1109  0.3465
 2744SOL    HW119868   1.962   2.393   8.845  1.1416  1.8871  3.9117
 2744SOL    HW219869   2.086   2.428   8.766  0.4129  2.0493 -1.8697
 2745SOL     OW19870   0.806   2.264   2.390  0.4224  0.4945 -0.5684
 2745SOL    HW119871   0.767   2.329   2.332  3.3810  3.2135  0.5417
 2745SOL    HW219872   0.804   2.194   2.324  4.7273  2.7370 -3.0457
 2746SOL     OW19873   2.011   0.139   1.655 -0.2296 -0.3267  0.0174
 2746SOL    HW119874   1.987   0.070   1.716  2.7878 -2.3817 -1.0795
 2746SOL    HW219875   2.044   0.206   1.715 -0.7642  1.8735 -2.1563
 2747SOL     OW19876   1.113   3.945  13.117  0.1813  0.0599  0.0836
 2747SOL    HW119877   1.068   4.015  13.069 -0.0272  0.2617  0.5750
 2747SOL    HW219878   1.199   3.985  13.132 -0.6010  1.3787  1.1411
 2748SOL     OW19879   1.117   2.680   0.838 -0.0544  0.5581  0.3869
 2748SOL    HW119880   1.064   2.606   0.809 -0.5115  1.6487 -1.5955
 2748SOL    HW219881   1.059   2.743   0.880  1.1191  1.0830  1.2063
 2749SOL     OW19882   0.930   0.535  12.740 -0.4006  0.8103 -0.5398
 2749SOL    HW119883   0.936   0.625  12.772 -0.1096  0.5492  0.1464
 2749SOL    HW219884   1.014   0.527  12.695 -0.5357 -0.4259 -0.5803
 2750SOL     OW19885   3.480   1.048   8.376  0.0922  0.3944  0.0058
 2750SOL    HW119886   3.520   1.132   8.400 -1.5608  1.3240 -0.4692
 2750SOL    HW219887   3.464   1.008   8.462  1.0564 -1.9889 -0.9459
 2751SOL     OW19888   1.633   3.256   7.646 -0.5183  0.7236  0.1679
 2751SOL    HW119889   1.656   3.218   7.561 -1.9664  1.6836 -0.6582
 2751SOL    HW219890   1.709   3.307   7.674  0.1975 -0.1770 -0.1681
 2752SOL     OW19891   4.648   3.975   7.286  0.3151  0.5569  0.2412
 2752SOL    HW119892   4.681   4.065   7.282  1.2269  0.1779 -0.7591
 2752SOL    HW219893   4.693   3.948   7.366  0.5048  0.9446  0.2678
 2753SOL     OW19894   1.786   0.766   3.506 -0.2473  1.0015  0.0893
 2753SOL    HW119895   1.799   0.836   3.441  0.5708 -1.1564 -2.0543
 2753SOL    HW219896   1.858   0.776   3.568  0.0807  0.7023 -0.2407
 2754SOL     OW19897   4.335   4.012  17.112 -0.2297 -0.0929  0.3261
 2754SOL    HW119898   4.358   3.923  17.086  0.4859  0.7010 -1.7248
 2754SOL    HW219899   4.345   4.017  17.207  0.1373  2.3892  0.1503
 2755SOL     OW19900   0.067   2.327   6.997  0.0874 -0.0002 -0.2310
 2755SOL    HW119901   0.003   2.258   7.016  3.2325 -3.0481 -0.7119
 2755SOL    HW219902   0.105   2.289   6.918 -0.6057  1.1526 -1.1163
 2756SOL     OW19903   1.419   3.445   2.918 -0.0633 -1.0060  0.1725
 2756SOL    HW119904   1.457   3.533   2.924  0.3068 -1.0022 -2.2140
 2756SOL    HW219905   1.492   3.393   2.952 -1.2809 -0.4155  3.7133
 2757SOL     OW19906   0.076   2.446   6.181  0.4488  0.1266  1.0286
 2757SOL    HW119907   0.018   2.372   6.199  1.9956 -1.4125 -0.2697
 2757SOL    HW219908   0.114   2.423   6.096  1.4607 -0.8425  1.7544
 2758SOL     OW19909   2.900   4.647   3.185 -0.5860  0.0997 -0.2025
 2758SOL    HW119910   2.876   4.713   3.250 -3.3946 -1.0138 -0.0891
 2758SOL    HW219911   2.995   4.644   3.198 -0.7362  1.4895  1.1822
 2759SOL     OW19912   1.828   2.254   3.440  0.2510  0.2466  0.6140
 2759SOL    HW119913   1.911   2.253   3.392  0.1502 -0.3119  0.4499
 2759SOL    HW219914   1.800   2.345   3.428 -1.2328 -0.2893 -0.0657
 2760SOL     OW19915   4.383   3.591   6.882  0.0826  0.3865  0.1116
 2760SOL    HW119916   4.425   3.664   6.927 -1.6301  0.0631  2.2136
 2760SOL    HW219917   4.297   3.627   6.859 -0.2380 -0.0713  0.5962
 2761SOL     OW19918   3.685   4.084  16.206 -0.2450  0.0337 -0.2314
 2761SOL    HW119919   3.735   4.074  16.125 -0.2729  3.3897 -0.6583
 2761SOL    HW219920   3.641   3.999  16.214 -0.4321 -0.1075 -2.7430
 2762SOL     OW19921   4.424   4.195   0.802 -0.3643  0.6520 -0.0715
 2762SOL    HW119922   4.481   4.249   0.856 -1.2969  2.8262 -1.2661
 2762SOL    HW219923   4.341   4.218   0.844  0.6689  0.6240  1.9826
 2763SOL     OW19924   4.109   2.595   9.612 -0.2300  0.1551  0.1783
 2763SOL    HW119925   4.149   2.535   9.549  1.8279 -0.3369  1.9471
 2763SOL    HW219926   4.168   2.588   9.687 -0.4311  0.9745  0.4213
 2764SOL     OW19927   0.423   2.376   3.726 -0.3496  0.3860 -0.0081
 2764SOL    HW119928   0.375   2.295   3.741 -0.7420  0.4606 -0.8781
 2764SOL    HW219929   0.344   2.428   3.719 -0.3205  0.5408  0.8668
 2765SOL     OW19930   3.139   4.583   6.123  0.0861  0.6356 -0.3312
 2765SOL    HW119931   3.054   4.609   6.157 -0.1755  1.7046 -1.7829
 2765SOL    HW219932   3.177   4.536   6.197 -3.1139 -0.0080  0.8781
 2766SOL     OW19933   3.096   1.064   9.095 -0.4468  0.5985  0.1551
 2766SOL    HW119934   3.014   1.040   9.051  1.3233 -2.2443 -1.6101
 2766SOL    HW219935   3.091   1.159   9.103 -3.6629  0.6147 -2.0745
 2767SOL     OW19936   0.342   4.105   2.060 -0.1769  0.4937 -0.4531
 2767SOL    HW119937   0.340   4.108   2.156 -2.6215  0.3876 -0.4960
 2767SOL    HW219938   0.408   4.036   2.057  0.7724  1.4089 -0.5910
 2768SOL     OW19939   2.849   4.681   0.482 -0.2974  0.3930  0.0318
 2768SOL    HW119940   2.799   4.665   0.402 -1.3508  0.0203  0.7577
 2768SOL    HW219941   2.785   4.723   0.541 -0.3845  0.4682 -0.1154
 2769SOL     OW19942   1.901   1.039   4.426  0.4804  0.4089 -0.3060
 2769SOL    HW119943   1.980   1.015   4.473 -0.4812 -0.3146  0.9222
 2769SOL    HW219944   1.912   0.987   4.346 -3.1553 -1.3722  0.3555
 2770SOL     OW19945   3.857   2.155  12.325  0.0205 -0.6642 -0.4249
 2770SOL    HW119946   3.761   2.152  12.322 -0.0643  0.4997  1.1974
 2770SOL    HW219947   3.889   2.116  12.244 -2.8411 -0.1291 -1.7941
 2771SOL     OW19948   0.351   3.235   7.585 -0.6554  0.3380  0.1316
 2771SOL    HW119949   0.260   3.232   7.615 -0.7014  1.2995  0.0971
 2771SOL    HW219950   0.375   3.327   7.591 -1.8709  0.6401  0.3723
 2772SOL     OW19951   2.600   4.256   3.233 -0.1884 -0.6637 -0.4339
 2772SOL    HW119952   2.604   4.207   3.151 -0.3682 -0.4793 -0.5556
 2772SOL    HW219953   2.690   4.255   3.265  0.0881  1.6283 -1.0716
 2773SOL     OW19954   4.586   3.708   7.695  0.2393  0.7644 -0.1511
 2773SOL    HW119955   4.648   3.640   7.668 -1.4071 -1.3371  1.3609
 2773SOL    HW219956   4.531   3.707   7.616 -1.0246  2.5013  0.7323
 2774SOL     OW19957   1.254   3.947   3.869  0.1916  0.3036 -0.0888
 2774SOL    HW119958   1.246   3.852   3.862 -0.7320  0.3334  0.5339
 2774SOL    HW219959   1.187   3.983   3.927 -0.1130  0.1417 -0.3382
 2775SOL     OW19960   2.519   4.470   7.830  0.3962 -0.1002  0.2023
 2775SOL    HW119961   2.519   4.477   7.734  0.0732 -3.8075 -0.0571
 2775SOL    HW219962   2.592   4.408   7.828 -2.0464 -2.9330 -1.5418
 2776SOL     OW19963   1.920   4.650   2.773  0.0634  1.0979 -0.4705
 2776SOL    HW119964   1.869   4.569   2.771  0.0213  1.0716  1.6219
 2776SOL    HW219965   1.932   4.660   2.868 -0.4527  1.0526 -0.3971
 2777SOL     OW19966   2.514   4.526   7.071 -0.1943  0.3198  0.3909
 2777SOL    HW119967   2.454   4.515   7.145 -1.0762  0.8157 -0.2501
 2777SOL    HW219968   2.539   4.618   7.068  1.0484 -0.2119 -4.4445
 2778SOL     OW19969   4.532   1.796   5.732  0.1763  0.0837  0.5463
 2778SOL    HW119970   4.616   1.762   5.765  1.6746  1.7066 -1.5980
 2778SOL    HW219971   4.535   1.762   5.643  2.0659 -1.1758  1.0849
 2779SOL     OW19972   3.798   4.734   7.820  0.3044 -0.1767 -0.0786
 2779SOL    HW119973   3.801   0.070   7.759 -0.7326 -1.0411 -1.1450
 2779SOL    HW219974   3.737   0.035   7.883  1.5854 -1.1407  1.7631
 2780SOL     OW19975   0.278   1.560   0.567 -0.4060  0.2952  0.1875
 2780SOL    HW119976   0.315   1.498   0.630  1.9021  0.8071 -0.6552
 2780SOL    HW219977   0.327   1.519   0.496  0.0937  2.5021 -0.7495
 2781SOL     OW19978   3.579   1.140   4.880  0.3858 -0.0795 -0.5580
 2781SOL    HW119979   3.639   1.101   4.943  0.1498 -1.8072 -1.3964
 2781SOL    HW219980   3.516   1.180   4.940  2.4094  1.5045  0.5066
 2782SOL     OW19981   1.519   3.210   5.034  0.3490 -0.0457 -0.1385
 2782SOL    HW119982   1.442   3.232   4.982 -0.9839 -0.3082  1.7138
 2782SOL    HW219983   1.571   3.160   4.971 -0.3979  0.2087 -0.9642
 2783SOL     OW19984   3.070   0.823   4.764  0.0567  0.2066  0.1547
 2783SOL    HW119985   3.118   0.903   4.784 -1.4067  0.8301  1.2018
 2783SOL    HW219986   3.035   0.837   4.676 -0.8289  1.0802  0.6364
 2784SOL     OW19987   2.885   2.902   4.258  0.0915 -0.1291 -0.0423
 2784SOL    HW119988   2.799   2.944   4.261  0.3454  0.2894  1.4289
 2784SOL    HW219989   2.860   2.824   4.207 -0.1694 -0.4920  0.6408
 2785SOL     OW19990   2.561   1.386   2.041  0.3846  0.3198  0.0899
 2785SOL    HW119991   2.522   1.470   2.067  2.8963  1.9386 -1.4299
 2785SOL    HW219992   2.531   1.326   2.110  0.5705  1.6447  1.3067
 2786SOL     OW19993   0.341   1.229  14.985  0.6247 -0.4683  0.2133
 2786SOL    HW119994   0.283   1.305  14.991  0.3423 -0.7062  0.4820
 2786SOL    HW219995   0.363   1.203  15.074  2.7546  1.0163  0.1465
 2787SOL     OW19996   2.873   1.333   7.646 -0.3873 -0.3640  0.4225
 2787SOL    HW119997   2.802   1.281   7.685  0.6108 -0.8432  1.5872
 2787SOL    HW219998   2.939   1.273   7.612 -0.2313 -0.0376  0.1378
 2788SOL     OW19999   1.329   2.237   2.516  0.1831 -1.2303  0.6478
 2788SOL    HW120000   1.248   2.287   2.510 -0.0108 -1.5169  0.8672
 2788SOL    HW220001   1.323   2.201   2.604 -1.3647  2.7393  2.1430
 2789SOL     OW20002   0.256   0.756  10.568 -0.7149  0.2922 -0.2441
 2789SOL    HW120003   0.163   0.759  10.545 -1.2246 -0.2797  1.8166
 2789SOL    HW220004   0.279   0.849  10.575  0.7636 -0.1291  0.5040
 2790SOL     OW20005   4.379   0.961   1.528  0.1748 -0.7953 -0.1679
 2790SOL    HW120006   4.408   1.041   1.571 -1.9478 -1.3610  2.2826
 2790SOL    HW220007   4.396   0.976   1.435  4.1030  2.3729  1.0445
 2791SOL     OW20008   1.927   2.792  11.965 -0.3570  0.7838 -0.3291
 2791SOL    HW120009   1.892   2.833  11.886 -2.5043 -0.8063 -0.1903
 2791SOL    HW220010   1.922   2.857  12.035  0.5919  1.0716 -0.5211
 2792SOL     OW20011   1.232   0.894  15.081  0.0539  0.0200 -0.0350
 2792SOL    HW120012   1.171   0.870  15.151  0.0824 -1.3564 -0.4694
 2792SOL    HW220013   1.174   0.874  15.008 -0.8834  1.0179  0.4435
 2793SOL     OW20014   4.120   1.790  15.465 -0.3869 -0.0979 -0.5056
 2793SOL    HW120015   4.125   1.829  15.552 -0.8547  0.4142 -0.7080
 2793SOL    HW220016   4.202   1.740  15.466 -2.1062 -2.8962  0.7803
 2794SOL     OW20017   0.037   3.109   6.425  0.0769  0.5842 -0.1497
 2794SOL    HW120018   0.132   3.126   6.429  0.2595 -0.1753 -1.1038
 2794SOL    HW220019   0.015   3.134   6.335  0.8022  0.9768 -0.2187
 2795SOL     OW20020   0.669   2.719   6.178 -0.2051 -0.0461 -0.2705
 2795SOL    HW120021   0.609   2.683   6.245  0.9983 -3.1212 -0.8666
 2795SOL    HW220022   0.599   2.747   6.119 -0.0466 -1.0011 -0.9031
 2796SOL     OW20023   4.110   0.878   5.478  0.1633  0.6697  0.2462
 2796SOL    HW120024   4.145   0.806   5.425 -1.9383  0.3906 -0.7437
 2796SOL    HW220025   4.087   0.827   5.556 -0.2487 -0.8377 -0.8591
 2797SOL     OW20026   3.872   3.148   9.829  0.0126  0.0873  0.2045
 2797SOL    HW120027   3.868   3.239   9.800  1.2830  0.3335  0.7738
 2797SOL    HW220028   3.939   3.118   9.767 -1.7288 -0.6224 -1.3342
 2798SOL     OW20029   1.097   4.408   2.018 -0.4921 -0.4955 -0.1598
 2798SOL    HW120030   1.103   4.387   2.111  1.4805 -1.6387 -0.5385
 2798SOL    HW220031   1.113   4.503   2.016 -0.5643 -0.3951  4.3965
 2799SOL     OW20032   2.132   4.149   4.723  0.0181 -0.3231 -0.3473
 2799SOL    HW120033   2.154   4.142   4.816  2.1544  1.2653 -0.7260
 2799SOL    HW220034   2.045   4.110   4.728 -0.3063  0.5356  0.6952
 2800SOL     OW20035   3.312   4.718  10.572 -0.6523  0.2973  0.5494
 2800SOL    HW120036   3.280   4.641  10.525  0.5408 -0.0699  0.3532
 2800SOL    HW220037   3.399   4.695  10.604 -1.1382 -1.7533  0.3780
 2801SOL     OW20038   3.691   1.074   3.077 -0.0788 -0.3080  0.3709
 2801SOL    HW120039   3.626   1.144   3.072 -1.4405 -1.5700  0.6347
 2801SOL    HW220040   3.645   1.002   3.034  1.4177 -2.0400  1.6758
 2802SOL     OW20041   0.803   3.722   7.550  0.2081  0.3213  0.0780
 2802SOL    HW120042   0.751   3.803   7.550  0.2802  0.3728  1.9848
 2802SOL    HW220043   0.835   3.722   7.640 -0.9442  0.3155  0.4886
 2803SOL     OW20044   1.996   4.208  10.465 -0.0229 -0.3686  0.2388
 2803SOL    HW120045   2.016   4.278  10.527 -0.1292 -0.0307 -0.1102
 2803SOL    HW220046   2.000   4.250  10.379  0.0524 -1.7008 -0.4015
 2804SOL     OW20047   4.595   1.287   2.954 -0.3968 -0.3206  0.5023
 2804SOL    HW120048   4.586   1.235   2.875 -0.7479  1.4914 -0.6434
 2804SOL    HW220049   4.531   1.239   3.008 -0.7772  1.4789  1.6631
 2805SOL     OW20050   3.212   2.706  10.606 -0.1037  0.1143  0.1217
 2805SOL    HW120051   3.230   2.785  10.554  0.4842 -1.0891 -1.4927
 2805SOL    HW220052   3.214   2.645  10.533  2.2233 -0.6237  0.7925
 2806SOL     OW20053   2.599   0.757  11.269 -0.0712 -0.2051 -0.0891
 2806SOL    HW120054   2.669   0.740  11.207  0.2478  2.8255 -0.5466
 2806SOL    HW220055   2.614   0.702  11.347 -1.3108 -1.2552 -0.5860
 2807SOL     OW20056   2.373   2.396   5.783  0.4704 -0.5312  0.4762
 2807SOL    HW120057   2.448   2.456   5.788  0.4102 -0.5151  1.0990
 2807SOL    HW220058   2.397   2.350   5.702  0.4102 -0.6057  0.5010
 2808SOL     OW20059   2.176   3.868   4.553 -0.5783  0.0305  0.4317
 2808SOL    HW120060   2.207   3.885   4.642 -2.1408 -2.0057  1.3854
 2808SOL    HW220061   2.131   3.787   4.577 -0.9850  0.3627  0.7866
 2809SOL     OW20062   0.409   3.719   4.703 -0.1464  0.8490 -0.1670
 2809SOL    HW120063   0.338   3.714   4.640  1.3363  4.3213 -2.0917
 2809SOL    HW220064   0.462   3.640   4.685  1.2965  1.6152  0.6761
 2810SOL     OW20065   4.195   0.786   3.196  0.3507 -0.2995 -0.4614
 2810SOL    HW120066   4.156   0.724   3.257  1.0653  1.7135  2.0588
 2810SOL    HW220067   4.268   0.735   3.162  0.1359 -1.0170  0.1557
 2811SOL     OW20068   0.105   1.141   5.286  0.3965 -0.4772 -0.0053
 2811SOL    HW120069   0.094   1.212   5.222  2.6266  0.2917  0.4691
 2811SOL    HW220070   0.125   1.062   5.236 -0.0034 -1.5313  1.5072
 2812SOL     OW20071   1.537   1.825  15.855  0.4897  0.0451 -0.1635
 2812SOL    HW120072   1.562   1.811  15.764 -2.2113  0.6424 -0.9846
 2812SOL    HW220073   1.603   1.894  15.867 -1.5355  2.3631 -2.2316
 2813SOL     OW20074   0.092   0.926   6.149  0.2022 -0.1881  0.1655
 2813SOL    HW120075   0.128   0.969   6.226  0.4725 -1.9102  0.9877
 2813SOL    HW220076   0.095   0.983   6.072  1.6803  1.0377  1.1318
 2814SOL     OW20077   3.994   2.612   9.356  0.1564  0.1685  0.0477
 2814SOL    HW120078   3.998   2.622   9.452  0.5567  1.1453 -0.0703
 2814SOL    HW220079   4.028   2.524   9.340 -0.1184  0.1329 -0.3167
 2815SOL     OW20080   3.373   1.123  13.893 -0.2767 -0.2426 -0.0087
 2815SOL    HW120081   3.378   1.043  13.840  2.9985 -0.0317 -0.0347
 2815SOL    HW220082   3.464   1.132  13.921  0.9710  1.2750 -4.3807
 2816SOL     OW20083   4.444   3.391  15.123  0.7091  0.5616  0.5237
 2816SOL    HW120084   4.508   3.442  15.172 -0.0264 -1.3807  3.4847
 2816SOL    HW220085   4.499   3.351  15.056 -0.1294  0.5263 -0.1519
 2817SOL     OW20086   3.079   1.064   6.932  0.8154 -0.2831 -0.3438
 2817SOL    HW120087   3.068   1.004   6.858 -1.5238 -1.5817  1.0422
 2817SOL    HW220088   3.142   1.130   6.902  0.9274 -0.8735 -1.4033
 2818SOL     OW20089   0.445   1.722   7.053  0.1133  0.3208 -0.3600
 2818SOL    HW120090   0.481   1.634   7.037  0.1981  0.3334 -0.2407
 2818SOL    HW220091   0.475   1.772   6.978  0.9444  0.7280  0.2388
 2819SOL     OW20092   4.278   1.793   8.406 -0.3659 -0.2228  0.1077
 2819SOL    HW120093   4.241   1.748   8.331  1.3542 -1.8493  0.2370
 2819SOL    HW220094   4.219   1.864   8.432  0.4684  0.5976 -0.2107
 2820SOL     OW20095   4.592   3.471   8.011 -0.0555  0.0724  0.0807
 2820SOL    HW120096   4.658   3.450   7.946 -0.9867 -1.2594 -0.4384
 2820SOL    HW220097   4.582   3.566   8.006 -0.9535  0.0875  1.9503
 2821SOL     OW20098   2.679   0.348   6.289  0.0046 -0.1624  0.0639
 2821SOL    HW120099   2.600   0.302   6.318 -0.4832  0.8145  0.3037
 2821SOL    HW220100   2.752   0.300   6.328 -0.1280 -0.7645 -0.4262
 2822SOL     OW20101   4.319   3.006   6.219 -0.0653 -0.1230 -0.0261
 2822SOL    HW120102   4.366   2.934   6.262 -2.9540 -1.2389  1.3246
 2822SOL    HW220103   4.288   2.970   6.136  2.1920 -3.6330  0.6418
 2823SOL     OW20104   0.263   3.282   6.381  0.1541 -0.2853  0.2397
 2823SOL    HW120105   0.262   3.362   6.433 -0.0890 -1.4027  1.9327
 2823SOL    HW220106   0.267   3.311   6.290  0.1456 -1.1899 -0.0568
 2824SOL     OW20107   0.331   0.595  10.010  0.0768 -0.2439 -1.0528
 2824SOL    HW120108   0.351   0.562  10.098  1.2521 -0.5410 -1.4333
 2824SOL    HW220109   0.241   0.627  10.016  0.4497  0.5486  0.2291
 2825SOL     OW20110   2.589   1.756   7.421 -0.3025  0.4790  0.6249
 2825SOL    HW120111   2.639   1.700   7.481 -0.0374 -1.0862 -1.0346
 2825SOL    HW220112   2.517   1.699   7.396  0.4873 -0.8117  1.2781
 2826SOL     OW20113   2.066   1.086   7.087 -0.2475 -0.6093  0.1323
 2826SOL    HW120114   2.066   1.178   7.061  0.3614 -0.6336  0.0413
 2826SOL    HW220115   1.978   1.069   7.120 -0.6247  1.1675  0.0311
 2827SOL     OW20116   1.876   1.310   4.445  0.2957 -0.4919  0.2295
 2827SOL    HW120117   1.804   1.310   4.382 -0.5289 -1.0512  1.1709
 2827SOL    HW220118   1.903   1.222   4.419  1.1063  0.3813 -1.9368
 2828SOL     OW20119   1.090   3.680  15.139 -0.3160 -0.1814 -0.3508
 2828SOL    HW120120   1.004   3.667  15.178  1.0247  0.7726  2.9801
 2828SOL    HW220121   1.111   3.589  15.118 -2.0757 -1.2290  2.4317
 2829SOL     OW20122   1.280   1.843  17.474  0.1029 -0.4585 -0.4138
 2829SOL    HW120123   1.324   1.923  17.502  1.6973 -1.7384  0.7214
 2829SOL    HW220124   1.318   1.850  17.386  1.7955  0.1064  0.3587
 2830SOL     OW20125   0.105   2.475   8.705  0.4766  0.1689  0.1681
 2830SOL    HW120126   0.105   2.516   8.792 -1.1573 -2.9366  1.6460
 2830SOL    HW220127   0.063   2.392   8.725 -0.3270  0.0355 -2.0714
 2831SOL     OW20128   0.510   1.329  12.648 -0.6407  0.1396 -0.1522
 2831SOL    HW120129   0.588   1.334  12.703 -2.0121  2.0737  1.6146
 2831SOL    HW220130   0.473   1.417  12.659  0.2998  0.7132 -1.5354
 2832SOL     OW20131   0.027   1.877   3.302  0.1814  0.0001  0.7243
 2832SOL    HW120132   0.108   1.926   3.310  0.6209 -0.4154 -1.3358
 2832SOL    HW220133   0.031   1.803   3.363 -3.6301 -0.4727  0.4441
 2833SOL     OW20134   2.033   2.758   8.150 -0.4836  0.3424  0.0300
 2833SOL    HW120135   2.126   2.736   8.148 -0.2371  1.7239 -2.6734
 2833SOL    HW220136   2.036   2.851   8.173  1.0745 -0.0922  1.5606
 2834SOL     OW20137   2.689   0.996   7.508  0.2964  0.0075  0.1346
 2834SOL    HW120138   2.621   1.062   7.522 -0.7560 -1.1954  0.7442
 2834SOL    HW220139   2.650   0.928   7.454  0.4900  0.3117 -0.3859
 2835SOL     OW20140   1.632   3.465   0.006  0.2588 -0.1187  0.5053
 2835SOL    HW120141   1.704   3.431   0.058  0.6341 -0.4789 -0.2397
 2835SOL    HW220142   1.654   3.557   0.014 -0.4088  0.1259 -0.3734
 2836SOL     OW20143   4.233   2.925   6.821  0.5685 -0.3347  0.1590
 2836SOL    HW120144   4.223   3.016   6.790 -2.1930 -1.5763 -2.6667
 2836SOL    HW220145   4.313   2.887   6.785  0.2337  0.1059 -1.0577
 2837SOL     OW20146   1.538   0.470   5.170 -0.7148 -0.0748  0.0898
 2837SOL    HW120147   1.564   0.395   5.224 -1.4606 -0.8221 -0.5926
 2837SOL    HW220148   1.568   0.438   5.085  1.6888  1.1207  0.4738
 2838SOL     OW20149   1.394   2.874   4.454  0.2057  0.6312  0.1888
 2838SOL    HW120150   1.481   2.912   4.467  0.7431 -0.1568 -1.1227
 2838SOL    HW220151   1.360   2.882   4.543  0.0100 -3.2015  0.4479
 2839SOL     OW20152   1.948   3.544   3.952 -0.0092 -0.4769  0.0927
 2839SOL    HW120153   1.959   3.544   3.857 -0.4898  2.5776  0.0596
 2839SOL    HW220154   1.966   3.452   3.971  0.2302  0.1105  2.7204
 2840SOL     OW20155   0.784   1.090  14.500 -0.3990 -0.0501  0.5045
 2840SOL    HW120156   0.720   1.096  14.571 -1.6834  0.1451 -0.6709
 2840SOL    HW220157   0.797   1.182  14.476  1.1701 -0.4575 -0.1859
 2841SOL     OW20158   0.402   0.003   7.631 -0.3997 -0.0119 -0.0912
 2841SOL    HW120159   0.452   0.006   7.549 -1.7538  0.3663 -0.8985
 2841SOL    HW220160   0.310   0.000   7.606 -0.6179 -3.1801  1.0224
 2842SOL     OW20161   3.165   1.063   2.525 -0.0703 -0.1451  0.0725
 2842SOL    HW120162   3.195   1.120   2.596  0.6430  1.4425 -1.5255
 2842SOL    HW220163   3.128   1.113   2.452  0.2751  0.5232  0.3522
 2843SOL     OW20164   3.230   3.887   6.516  0.1945  0.6034  0.3439
 2843SOL    HW120165   3.273   3.822   6.461  0.9684 -0.5394  2.3016
 2843SOL    HW220166   3.272   3.878   6.602 -1.4288  0.1097  1.0967
 2844SOL     OW20167   1.051   3.019   5.457 -0.1161  0.0158  0.6789
 2844SOL    HW120168   1.068   2.990   5.547  0.9511 -0.2761  0.3929
 2844SOL    HW220169   1.117   2.971   5.406  0.4897  0.2357  1.2649
 2845SOL     OW20170   3.215   1.504  13.396 -0.0342 -0.0018 -0.3334
 2845SOL    HW120171   3.153   1.577  13.396 -1.0269 -0.8583 -2.0685
 2845SOL    HW220172   3.244   1.490  13.306 -1.7978  1.7674 -1.1848
 2846SOL     OW20173   1.917   0.357   7.869  0.0740  0.0757 -0.2516
 2846SOL    HW120174   2.005   0.359   7.906  0.4823 -1.4492 -1.1345
 2846SOL    HW220175   1.905   0.446   7.837 -0.9371 -0.5317 -1.5763
 2847SOL     OW20176   4.566   2.987   8.812 -0.3380 -0.1655 -0.0949
 2847SOL    HW120177   4.621   3.061   8.789  1.0211 -1.6139 -1.5076
 2847SOL    HW220178   4.554   2.946   8.726  0.3488 -1.8337  0.6015
 2848SOL     OW20179   3.151   2.085  17.662 -0.2442 -0.7108 -0.0978
 2848SOL    HW120180   3.097   2.164  17.667  1.9444  0.9461 -2.2366
 2848SOL    HW220181   3.225   2.118  17.610  0.1279 -1.1785  0.1299
 2849SOL     OW20182   2.603   3.988  10.757 -0.8386  0.2918  0.3028
 2849SOL    HW120183   2.688   4.012  10.793 -1.3555  0.3791  1.4701
 2849SOL    HW220184   2.557   4.071  10.760  0.1200  0.8973 -1.5768
 2850SOL     OW20185   2.507   4.594  16.087 -0.0791  0.4883 -0.1508
 2850SOL    HW120186   2.505   4.555  16.174 -0.2092 -0.6961 -0.6781
 2850SOL    HW220187   2.511   4.512  16.037 -0.0944 -0.9550  2.2596
 2851SOL     OW20188   4.718   3.700   3.649 -0.2736  0.7992 -0.7190
 2851SOL    HW120189   0.032   3.759   3.593 -0.8601  1.4443 -0.5757
 2851SOL    HW220190   0.053   3.638   3.662  0.0778  1.3554 -0.0019
 2852SOL     OW20191   4.515   0.013   8.139  0.5802 -0.5973  0.2593
 2852SOL    HW120192   4.444   0.060   8.183  0.2637 -0.3627 -0.4881
 2852SOL    HW220193   4.459   4.711   8.071  0.5841  0.3659 -0.2846
 2853SOL     OW20194   2.281   1.007   7.416  0.1718 -0.0979  0.0714
 2853SOL    HW120195   2.187   1.010   7.398  0.1166 -1.1894  0.1713
 2853SOL    HW220196   2.323   1.054   7.344  0.3413  1.0003  0.8886
 2854SOL     OW20197   3.880   4.609   2.968  0.5543  0.4205 -0.9394
 2854SOL    HW120198   3.962   4.610   3.017 -0.6868 -0.7727  1.1274
 2854SOL    HW220199   3.918   4.615   2.880 -0.1487  0.6789 -1.2231
 2855SOL     OW20200   3.395   2.134  13.944  0.0938 -0.3238  0.0814
 2855SOL    HW120201   3.485   2.128  13.977  0.0133 -0.5310  0.2646
 2855SOL    HW220202   3.386   2.045  13.912 -1.9803  0.7457 -2.2450
 2856SOL     OW20203   0.078   0.972  17.605 -0.5705  0.2505  0.1221
 2856SOL    HW120204   0.035   1.045  17.560 -0.0980  0.6632  0.3432
 2856SOL    HW220205   0.101   0.924  17.525 -0.6294  1.0244 -0.3598
 2857SOL     OW20206   1.719   1.830  17.258  0.3267 -0.0902 -0.1059
 2857SOL    HW120207   1.786   1.895  17.239  0.9352 -0.0797  2.1129
 2857SOL    HW220208   1.690   1.855  17.345  1.0028  3.0239 -0.7807
 2858SOL     OW20209   0.539   0.097   8.105  0.2744 -0.2987  0.3855
 2858SOL    HW120210   0.474   0.031   8.132 -0.8582  0.7664  0.2397
 2858SOL    HW220211   0.573   0.060   8.024 -0.0641  1.5887 -0.6048
 2859SOL     OW20212   4.107   1.196   3.440 -0.5859 -0.0208 -0.8176
 2859SOL    HW120213   4.158   1.132   3.392  2.5225  2.1459 -0.4126
 2859SOL    HW220214   4.049   1.230   3.372  0.2820  3.3643  0.1270
 2860SOL     OW20215   2.750   3.123   3.463 -0.0043 -0.2639  0.0187
 2860SOL    HW120216   2.656   3.140   3.460  0.3715  1.9351  0.9713
 2860SOL    HW220217   2.757   3.085   3.550  1.1920 -0.6782 -0.2464
 2861SOL     OW20218   3.950   0.909   7.888 -0.0064  0.2939  0.3445
 2861SOL    HW120219   4.042   0.934   7.877 -0.0329  0.3447  0.2352
 2861SOL    HW220220   3.950   0.865   7.973 -0.8970  1.9172  1.2027
 2862SOL     OW20221   4.384   1.725  15.510  0.5662  0.1765 -0.2815
 2862SOL    HW120222   4.412   1.780  15.584  0.9850  0.0476 -0.3419
 2862SOL    HW220223   4.471   1.690  15.493  0.6938  0.2283  0.2580
 2863SOL     OW20224   0.395   3.728  15.221 -0.1692  0.1385  0.2980
 2863SOL    HW120225   0.363   3.744  15.132  0.2686  0.4294  0.1922
 2863SOL    HW220226   0.482   3.768  15.224  0.2536 -0.6920 -1.0427
 2864SOL     OW20227   1.682   3.945   6.615 -0.0144  0.2260  0.0248
 2864SOL    HW120228   1.750   3.970   6.677  0.6982 -1.1578 -0.1883
 2864SOL    HW220229   1.632   3.886   6.671 -0.2194  0.4563  0.0816
 2865SOL     OW20230   3.578   4.141   8.439  0.3481  0.3862 -0.4362
 2865SOL    HW120231   3.655   4.159   8.493 -0.0396  1.4893 -0.2478
 2865SOL    HW220232   3.504   4.195   8.468  0.8963  1.1941 -0.5523
 2866SOL     OW20233   4.735   1.015  11.009 -0.7265 -0.5195  0.0665
 2866SOL    HW120234   4.736   0.944  11.073  1.4562  0.6148  1.2807
 2866SOL    HW220235   4.666   1.062  11.058 -1.1066 -2.8422  1.7871
 2867SOL     OW20236   1.121   2.409   2.584 -0.2561  0.3653 -0.5597
 2867SOL    HW120237   1.052   2.463   2.624  0.4113 -0.2754  1.4925
 2867SOL    HW220238   1.155   2.368   2.664  1.3864  1.8444 -0.5032
 2868SOL     OW20239   3.591   2.767   5.974  0.1122  0.1897  0.2472
 2868SOL    HW120240   3.649   2.826   5.925  1.5196 -0.2687  1.3628
 2868SOL    HW220241   3.637   2.757   6.057  0.1363 -0.9987  0.0912
 2869SOL     OW20242   2.441   2.456  10.783  0.2692  0.3483  0.0641
 2869SOL    HW120243   2.529   2.493  10.775 -0.0856  1.0328 -0.8099
 2869SOL    HW220244   2.392   2.505  10.716  0.0448 -0.1764 -0.1564
 2870SOL     OW20245   2.256   2.056   7.673  0.0169  0.1461  0.4069
 2870SOL    HW120246   2.339   2.059   7.721  0.2378  1.6824 -0.0501
 2870SOL    HW220247   2.267   1.985   7.609 -2.0204 -0.4394  0.7210
 2871SOL     OW20248   3.669   2.358  17.736 -0.4755 -0.0927 -0.0027
 2871SOL    HW120249   3.618   2.408  17.671 -0.9305  3.2757  2.9377
 2871SOL    HW220250   3.709   2.431   0.038 -0.3820 -0.6409  0.7555
 2872SOL     OW20251   0.836   4.245   5.871 -0.1289 -0.6846  0.3876
 2872SOL    HW120252   0.771   4.244   5.801  0.8625  2.4807 -0.5505
 2872SOL    HW220253   0.912   4.216   5.821 -0.7586 -0.7176 -0.5500
 2873SOL     OW20254   0.188   3.442  14.962  0.0645  0.8628 -0.1031
 2873SOL    HW120255   0.150   3.373  15.016 -0.4349  1.1634 -0.0621
 2873SOL    HW220256   0.282   3.427  14.965 -0.0234  0.7241  1.7645
 2874SOL     OW20257   0.609   4.329   4.718  0.7172 -0.0236  0.5090
 2874SOL    HW120258   0.614   4.327   4.622  0.3856  1.2966  0.4767
 2874SOL    HW220259   0.614   4.234   4.735 -0.5992 -0.3865 -1.1194
 2875SOL     OW20260   3.414   1.628  11.713 -0.0048 -0.0818 -0.0703
 2875SOL    HW120261   3.467   1.553  11.739 -0.4418 -0.5811 -0.6299
 2875SOL    HW220262   3.451   1.697  11.768 -0.2745 -1.6557  2.0546
 2876SOL     OW20263   2.394   3.151  14.557 -0.3615  0.4766 -0.0703
 2876SOL    HW120264   2.462   3.205  14.518  1.1598 -0.1885  1.6792
 2876SOL    HW220265   2.411   3.069  14.511  0.5623  0.2382  0.6873
 2877SOL     OW20266   1.179   4.358   3.137 -0.4417 -0.1120 -0.3074
 2877SOL    HW120267   1.159   4.451   3.121 -0.0301  0.0249 -0.0354
 2877SOL    HW220268   1.121   4.363   3.214 -0.8733 -1.2295 -0.5668
 2878SOL     OW20269   4.623   1.616  11.439 -0.0132 -0.1002  0.2355
 2878SOL    HW120270   4.718   1.630  11.442 -0.0943  0.4590  0.2976
 2878SOL    HW220271   4.587   1.693  11.396 -1.9925 -2.5809 -2.4897
 2879SOL     OW20272   1.381   0.630   8.318 -0.3292  0.2673  0.1632
 2879SOL    HW120273   1.362   0.571   8.246 -0.7751 -1.0600  1.3761
 2879SOL    HW220274   1.296   0.671   8.334  0.2946  0.0165  4.0311
 2880SOL     OW20275   2.913   0.176   1.810 -0.0462 -0.0923 -0.0392
 2880SOL    HW120276   2.996   0.217   1.789 -1.3908  2.8303  0.4325
 2880SOL    HW220277   2.929   0.094   1.762  0.1965 -0.6165  0.9380
 2881SOL     OW20278   2.941   1.869   8.610 -0.0083 -0.1423  0.3700
 2881SOL    HW120279   3.014   1.850   8.551  0.8110  1.4138  0.8706
 2881SOL    HW220280   2.866   1.878   8.551  1.6840 -0.3726 -1.8216
 2882SOL     OW20281   3.336   4.381   2.516  0.2409 -0.4346 -0.2376
 2882SOL    HW120282   3.256   4.376   2.464  0.5469 -2.1106 -0.5314
 2882SOL    HW220283   3.294   4.411   2.597  0.5894 -1.1048  0.1826
 2883SOL     OW20284   0.165   0.168   7.591  0.1197  0.1110 -0.0416
 2883SOL    HW120285   0.120   0.125   7.518 -0.1325 -1.9672  1.3509
 2883SOL    HW220286   0.132   0.116   7.664  1.6224 -1.4688 -0.4751
 2884SOL     OW20287   2.649   0.290  10.203 -0.0566 -0.1709  0.1954
 2884SOL    HW120288   2.672   0.340  10.124 -0.6720 -0.4505 -0.1607
 2884SOL    HW220289   2.718   0.328  10.257 -0.5009  2.6773 -1.2257
 2885SOL     OW20290   2.609   0.510   7.600 -0.1202  0.2307 -0.0569
 2885SOL    HW120291   2.595   0.603   7.618 -1.9232 -0.0545  0.0604
 2885SOL    HW220292   2.528   0.466   7.627 -1.4119  0.6744 -3.1709
 2886SOL     OW20293   2.482   1.035   5.717 -0.1036 -0.2256  0.1173
 2886SOL    HW120294   2.540   1.076   5.781 -0.3051 -0.7392  0.6308
 2886SOL    HW220295   2.528   0.951   5.725 -0.9765 -0.7990 -0.8413
 2887SOL     OW20296   4.002   1.833   8.840 -0.1874  0.1048  0.3114
 2887SOL    HW120297   3.999   1.827   8.745 -1.7891  4.2517  0.1135
 2887SOL    HW220298   4.095   1.829   8.862 -0.3823  1.3382  1.3630
 2888SOL     OW20299   3.402   3.328   2.938 -0.2854 -0.7995 -0.2223
 2888SOL    HW120300   3.324   3.381   2.954 -0.9806 -1.6076 -0.9129
 2888SOL    HW220301   3.380   3.275   2.861  1.3703  1.4197 -2.2434
 2889SOL     OW20302   4.335   0.876  14.400 -0.1774 -0.1501  0.8945
 2889SOL    HW120303   4.430   0.870  14.395 -0.2261  0.0755 -0.4271
 2889SOL    HW220304   4.315   0.792  14.442  0.8185 -1.1383 -0.5677
 2890SOL     OW20305   2.264   2.723   4.821 -0.1646 -0.0093 -0.2886
 2890SOL    HW120306   2.234   2.663   4.753 -1.4254  0.6828 -0.3439
 2890SOL    HW220307   2.254   2.808   4.778  1.4279  0.8752  1.0806
 2891SOL     OW20308   3.982   4.370   4.758  0.2540  0.2079  0.8439
 2891SOL    HW120309   4.013   4.282   4.736  1.9231  1.1117 -0.4379
 2891SOL    HW220310   3.890   4.345   4.743  0.5531 -0.0866 -0.5116
 2892SOL     OW20311   2.303   0.602  10.049 -0.7548  0.4048 -0.1061
 2892SOL    HW120312   2.246   0.654   9.992  1.5235  1.4345 -1.4030
 2892SOL    HW220313   2.315   0.672  10.114  0.5818 -0.7240  0.8636
 2893SOL     OW20314   0.813   0.697   4.339  0.0035  0.4030  0.6163
 2893SOL    HW120315   0.775   0.609   4.347  2.5834 -0.6846  0.6977
 2893SOL    HW220316   0.735   0.752   4.333  1.6303  2.2931 -3.1462
 2894SOL     OW20317   0.437   0.885  16.048 -0.1178 -0.4168 -0.1949
 2894SOL    HW120318   0.447   0.839  16.131 -1.3234  1.4021  0.9763
 2894SOL    HW220319   0.426   0.817  15.982  0.8202  0.1932 -0.9770
 2895SOL     OW20320   4.168   2.743   8.994  0.3294  0.0240  0.0821
 2895SOL    HW120321   4.178   2.835   8.969 -0.2152  0.1680  0.3892
 2895SOL    HW220322   4.203   2.694   8.920  1.6665 -0.0620  0.7815
 2896SOL     OW20323   3.284   3.197   1.882 -0.4826 -0.4038 -0.2821
 2896SOL    HW120324   3.251   3.232   1.799 -2.3715  1.1934  1.1598
 2896SOL    HW220325   3.356   3.138   1.859 -0.8488 -0.4012 -1.4676
 2897SOL     OW20326   2.842   0.313   0.546  0.2606 -0.5241 -0.1613
 2897SOL    HW120327   2.779   0.269   0.604  0.2562 -0.5278 -0.1688
 2897SOL    HW220328   2.781   0.335   0.476 -0.0762 -1.2573 -0.0983
 2898SOL     OW20329   0.145   3.481   1.424 -0.3958  0.6853  0.2533
 2898SOL    HW120330   0.181   3.488   1.336 -0.6750 -1.5787 -0.0586
 2898SOL    HW220331   0.066   3.535   1.415 -1.1840 -0.8021 -1.8864
 2899SOL     OW20332   0.797   0.084   9.803 -0.0271 -0.1123  0.4416
 2899SOL    HW120333   0.779   4.727   9.813 -2.3059  0.1552 -1.0326
 2899SOL    HW220334   0.717   0.109   9.757 -0.0295 -0.8357  0.0508
 2900SOL     OW20335   3.551   1.649   9.709 -0.3958 -0.8605 -0.2265
 2900SOL    HW120336   3.513   1.616   9.627  1.3490 -0.5245 -1.1675
 2900SOL    HW220337   3.478   1.693   9.754  2.3713  2.5346  0.9075
 2901SOL     OW20338   2.989   2.815  12.563 -0.2998  0.1632  0.0629
 2901SOL    HW120339   2.958   2.755  12.631 -1.2710 -0.9374 -1.3752
 2901SOL    HW220340   2.963   2.902  12.594 -1.1162 -0.1359  0.2099
 2902SOL     OW20341   0.841   0.597   3.802  0.3066  0.2531  0.1893
 2902SOL    HW120342   0.782   0.621   3.731  0.7094 -3.5176 -1.4439
 2902SOL    HW220343   0.800   0.523   3.847 -2.8543  2.4367  0.8870
 2903SOL     OW20344   0.005   0.137   7.365 -0.5346 -0.2874  0.0961
 2903SOL    HW120345   4.733   0.202   7.295  0.1917 -1.5347 -1.1549
 2903SOL    HW220346   0.018   0.060   7.310  2.7953  0.7890 -0.6505
 2904SOL     OW20347   4.470   0.970   6.700 -0.7997 -0.2104 -0.4486
 2904SOL    HW120348   4.547   1.015   6.666  0.5150 -1.2193  1.1849
 2904SOL    HW220349   4.473   0.998   6.792  1.2302  0.1109 -0.6185
 2905SOL     OW20350   0.461   0.028   2.115 -0.2247 -0.4459  0.1986
 2905SOL    HW120351   0.537   0.033   2.172 -1.0491 -1.0328  1.3616
 2905SOL    HW220352   0.513   0.012   2.036 -0.8128  0.0711 -0.2975
 2906SOL     OW20353   2.708   0.372  13.284  1.0006 -0.5409 -0.0986
 2906SOL    HW120354   2.750   0.458  13.276 -2.4064  1.2150  0.7019
 2906SOL    HW220355   2.615   0.394  13.286  0.7329 -1.8199  1.4427
 2907SOL     OW20356   0.549   1.773   7.313  0.4327  0.3505  0.5566
 2907SOL    HW120357   0.504   1.771   7.229  0.9274 -2.8179  0.3513
 2907SOL    HW220358   0.483   1.733   7.371  0.7309  1.1258  1.4299
 2908SOL     OW20359   1.177   4.249   5.274  0.7226 -0.2930 -0.2509
 2908SOL    HW120360   1.173   4.155   5.290 -1.5998 -0.4287 -1.5497
 2908SOL    HW220361   1.217   4.245   5.187 -0.9626  0.1548 -1.0567
 2909SOL     OW20362   2.259   4.454   3.725  0.0589  0.4440  0.6436
 2909SOL    HW120363   2.258   4.519   3.795 -1.6678  0.1679  0.8654
 2909SOL    HW220364   2.166   4.442   3.708  0.4168  1.7595 -2.2831
 2910SOL     OW20365   1.308   4.353   7.619  0.3396 -0.1088 -0.4665
 2910SOL    HW120366   1.362   4.334   7.543  0.3808 -0.3340 -0.3810
 2910SOL    HW220367   1.358   4.294   7.675  0.4155 -0.9156 -1.3766
 2911SOL     OW20368   0.343   2.351  12.240 -0.6586 -0.5200 -0.3640
 2911SOL    HW120369   0.351   2.255  12.238 -3.6266 -0.8453  2.0747
 2911SOL    HW220370   0.262   2.369  12.192  0.4610 -0.8773 -2.3478
 2912SOL     OW20371   4.526   3.562   3.084  0.5881 -0.1568  0.3015
 2912SOL    HW120372   4.523   3.604   2.998 -0.3643  0.1863  0.5036
 2912SOL    HW220373   4.486   3.622   3.147  0.1168  0.2397 -0.3781
 2913SOL     OW20374   1.213   4.033   4.286  0.0343 -0.3242  0.1185
 2913SOL    HW120375   1.297   4.070   4.262  0.1548 -1.1071 -0.6386
 2913SOL    HW220376   1.210   4.049   4.381 -0.1449 -1.9835  0.3998
 2914SOL     OW20377   2.592   2.650   6.399  0.1786  0.2196  0.0502
 2914SOL    HW120378   2.672   2.646   6.451  0.1174  0.4698  0.1665
 2914SOL    HW220379   2.608   2.572   6.347  2.6906 -0.5413  2.0008
 2915SOL     OW20380   4.594   3.775   7.061  0.8876 -0.3375 -0.0541
 2915SOL    HW120381   4.584   3.828   7.141 -1.6911 -1.7797  0.5661
 2915SOL    HW220382   4.558   3.836   6.996  0.3305 -1.2823 -0.6228
 2916SOL     OW20383   4.177   1.699   6.558  0.4028  0.1071  0.0614
 2916SOL    HW120384   4.121   1.774   6.537  0.6283 -0.3263 -2.1147
 2916SOL    HW220385   4.255   1.733   6.514  0.0366 -0.1783 -0.8267
 2917SOL     OW20386   3.676   4.344   3.617  0.3136 -0.6123 -0.0013
 2917SOL    HW120387   3.715   4.339   3.705 -0.7296  0.3400  0.5084
 2917SOL    HW220388   3.657   4.251   3.608 -2.4836 -0.3117  2.8589
 2918SOL     OW20389   3.759   3.150   2.599  0.2569  0.1103  0.3159
 2918SOL    HW120390   3.802   3.223   2.556 -0.9651  0.4684 -0.3084
 2918SOL    HW220391   3.754   3.083   2.531  0.8884 -0.0823  0.4647
 2919SOL     OW20392   2.638   1.687   7.143 -0.2049 -0.7427 -0.0706
 2919SOL    HW120393   2.627   1.727   7.230  1.3323  1.3655 -0.8558
 2919SOL    HW220394   2.707   1.624   7.164  0.6584  0.0897 -0.4059
 2920SOL     OW20395   0.680   3.721   1.849  0.1982  0.0297  0.1383
 2920SOL    HW120396   0.763   3.726   1.897 -0.5949 -1.3315  1.6325
 2920SOL    HW220397   0.717   3.718   1.760 -0.1830  2.5635 -0.1016
 2921SOL     OW20398   2.305   0.542   3.932 -0.2007  0.0023  0.5865
 2921SOL    HW120399   2.386   0.517   3.975  0.0264 -1.8328 -0.8926
 2921SOL    HW220400   2.337   0.546   3.842 -1.4006  0.5830  0.1777
 2922SOL     OW20401   0.360   3.199  10.810 -1.1642 -0.0890  0.3505
 2922SOL    HW120402   0.399   3.281  10.780  0.9486 -1.9609 -1.9679
 2922SOL    HW220403   0.438   3.143  10.805  0.1979  1.8939 -0.7332
 2923SOL     OW20404   1.225   1.169   5.251 -0.0104 -0.1680 -0.5731
 2923SOL    HW120405   1.135   1.198   5.236  0.1945  0.7935  0.1465
 2923SOL    HW220406   1.222   1.081   5.212  1.8880 -0.9087  0.9834
 2924SOL     OW20407   2.057   1.719   2.944 -0.1149  0.1825  0.0966
 2924SOL    HW120408   1.982   1.718   2.885  1.1588  1.5050 -1.5651
 2924SOL    HW220409   2.082   1.811   2.936  0.2202 -0.1176 -2.3484
 2925SOL     OW20410   2.439   1.724   3.538  0.3411 -0.1353 -0.5303
 2925SOL    HW120411   2.378   1.688   3.602 -0.0497 -1.4244 -1.6425
 2925SOL    HW220412   2.493   1.649   3.513  0.1722 -0.1468 -0.8676
 2926SOL     OW20413   0.183   2.011   9.334 -0.0445 -0.2836 -0.6160
 2926SOL    HW120414   0.160   2.022   9.426 -2.0989 -0.1365 -1.1442
 2926SOL    HW220415   0.179   2.096   9.291  1.5856  0.4561  0.7174
 2927SOL     OW20416   1.501   2.589   6.015  0.0397 -0.0075 -0.1256
 2927SOL    HW120417   1.457   2.504   6.022  0.3138 -0.1269  0.1633
 2927SOL    HW220418   1.574   2.558   5.961  0.2424  1.6479 -0.7902
 2928SOL     OW20419   2.267   4.499  17.165 -0.0126 -0.4913  0.1794
 2928SOL    HW120420   2.280   4.593  17.176 -0.8139 -0.4231  0.5048
 2928SOL    HW220421   2.228   4.500  17.078 -1.5626  2.9463  0.9511
 2929SOL     OW20422   3.710   0.612   6.189  0.0819 -0.1498 -0.1706
 2929SOL    HW120423   3.620   0.644   6.202  0.2974  0.9711 -1.4403
 2929SOL    HW220424   3.746   0.687   6.236  2.9602 -0.6781 -1.5486
 2930SOL     OW20425   0.547   2.285  17.300  0.4137 -0.9059 -0.4023
 2930SOL    HW120426   0.542   2.338  17.220 -0.4270  0.5467  0.6241
 2930SOL    HW220427   0.598   2.213  17.262 -0.7881 -1.0175 -1.8131
 2931SOL     OW20428   3.525   0.883   3.497  0.0964 -0.8189  0.4097
 2931SOL    HW120429   3.617   0.857   3.499 -0.0419 -1.1603  2.7504
 2931SOL    HW220430   3.515   0.858   3.405  0.3901  1.5760 -0.2693
 2932SOL     OW20431   2.981   1.238   1.648 -0.2285 -0.0756  0.0429
 2932SOL    HW120432   2.905   1.295   1.632 -0.7362 -0.0663  2.4194
 2932SOL    HW220433   3.033   1.232   1.568  1.2558  0.1260  1.0070
 2933SOL     OW20434   2.364   4.642  11.019  0.0269  0.3413 -0.3067
 2933SOL    HW120435   2.334   4.604  11.101 -0.9357 -0.3277 -0.9618
 2933SOL    HW220436   2.329   4.730  11.035 -0.7869  0.2544 -1.5866
 2934SOL     OW20437   3.340   1.723   9.926 -0.5340  0.0929 -0.4673
 2934SOL    HW120438   3.315   1.813   9.946  0.9160  0.0709  1.5046
 2934SOL    HW220439   3.366   1.693  10.013 -0.1133  1.3775 -0.1496
 2935SOL     OW20440   0.578   3.340   3.778  0.0024 -0.1029  0.5001
 2935SOL    HW120441   0.507   3.403   3.770  0.9871  0.8993 -0.2610
 2935SOL    HW220442   0.638   3.372   3.710 -0.8213  0.7404  0.1699
 2936SOL     OW20443   3.621   0.132   5.502  0.2913 -0.1123 -0.3278
 2936SOL    HW120444   3.700   0.133   5.448  0.3220 -2.2374 -0.3299
 2936SOL    HW220445   3.547   0.145   5.442 -0.7950  1.1676  1.2606
 2937SOL     OW20446   4.515   2.654  16.449 -0.0302  1.1336  0.4310
 2937SOL    HW120447   4.608   2.651  16.427 -0.6257 -1.8033 -1.7462
 2937SOL    HW220448   4.525   2.682  16.540  0.9458  1.2702  0.2790
 2938SOL     OW20449   3.379   1.801   3.140 -0.2411 -0.3821  0.0697
 2938SOL    HW120450   3.450   1.860   3.116  1.0027 -1.8608  0.1711
 2938SOL    HW220451   3.314   1.849   3.193  1.1963  1.2796  0.3362
 2939SOL     OW20452   4.218   3.193   8.631  0.2785 -0.0005 -1.0918
 2939SOL    HW120453   4.127   3.220   8.647  0.1456 -0.2482 -1.4198
 2939SOL    HW220454   4.206   3.160   8.542  0.9130 -0.7750 -0.8977
 2940SOL     OW20455   2.002   1.129   5.023  0.1437  0.1276 -0.6049
 2940SOL    HW120456   1.924   1.078   5.044 -0.7418  1.3917 -0.8208
 2940SOL    HW220457   1.962   1.212   5.049  2.1736  0.4232  1.5797
 2941SOL     OW20458   2.263   2.430   6.238 -0.5021 -0.3732 -0.1730
 2941SOL    HW120459   2.278   2.498   6.303 -0.1519  1.7223 -2.4244
 2941SOL    HW220460   2.248   2.352   6.291 -1.4983 -0.2861 -0.3161
 2942SOL     OW20461   0.541   4.157  13.762 -0.4572  0.4769 -0.0488
 2942SOL    HW120462   0.598   4.089  13.727  0.7355  1.0808  0.7019
 2942SOL    HW220463   0.582   4.161  13.848 -1.1018 -0.7869  0.3155
 2943SOL     OW20464   2.930   3.311   2.822 -0.0436  0.1240 -0.7006
 2943SOL    HW120465   2.910   3.283   2.732 -1.9102 -0.7403 -0.0135
 2943SOL    HW220466   2.972   3.230   2.851  1.1526  1.1623  0.4338
 2944SOL     OW20467   1.980   2.105   6.247 -0.2577 -0.3753 -0.1744
 2944SOL    HW120468   1.922   2.163   6.297 -0.4372  0.5284 -1.4481
 2944SOL    HW220469   2.003   2.152   6.167 -0.8492  1.0608  0.4966
 2945SOL     OW20470   2.295   2.448   2.168 -0.2763  0.3021  0.6119
 2945SOL    HW120471   2.260   2.457   2.080  2.0801 -0.7449 -0.4233
 2945SOL    HW220472   2.388   2.468   2.156 -0.4038  0.1418 -0.6291
 2946SOL     OW20473   1.456   0.333   2.656 -0.2386  0.1341  0.6737
 2946SOL    HW120474   1.433   0.416   2.698  0.7421  0.8022 -0.1175
 2946SOL    HW220475   1.386   0.337   2.591  1.6221  1.9707 -1.2413
 2947SOL     OW20476   2.288   0.085  12.229 -0.1249  0.2348 -0.2294
 2947SOL    HW120477   2.295   0.180  12.224  1.0057  0.1563 -0.1120
 2947SOL    HW220478   2.377   0.060  12.252  0.2323  2.1122  0.4190
 2948SOL     OW20479   0.008   3.893   4.432  0.2393 -0.7567 -0.0006
 2948SOL    HW120480   4.686   3.906   4.507  1.9708  0.7744  1.1084
 2948SOL    HW220481   0.095   3.927   4.453 -0.7315  1.4015  0.5638
 2949SOL     OW20482   3.572   2.933  11.569  0.0662  0.3410  0.1937
 2949SOL    HW120483   3.600   2.902  11.483  0.4871 -1.5033  0.9793
 2949SOL    HW220484   3.500   2.985  11.534  1.7553 -0.6538 -4.8045
 2950SOL     OW20485   4.058   4.409   2.175  0.9709 -0.0770  0.1434
 2950SOL    HW120486   4.130   4.419   2.113 -1.1460  1.7934 -2.0515
 2950SOL    HW220487   3.983   4.429   2.118  0.2635  0.1226  1.1487
 2951SOL     OW20488   4.733   4.208   2.992  0.6703  0.8358  0.4455
 2951SOL    HW120489   4.714   4.161   2.911  1.8411  3.0464 -1.0678
 2951SOL    HW220490   0.083   4.173   3.012  0.5340  0.2299 -0.0133
 2952SOL     OW20491   1.018   4.342   9.736  0.0071  0.1927  0.5714
 2952SOL    HW120492   1.048   4.281   9.803  1.0057  0.6496  0.5439
 2952SOL    HW220493   0.928   4.361   9.763 -1.1244 -0.8797 -2.3887
 2953SOL     OW20494   0.064   2.977   7.470 -0.3654 -0.4771  0.0033
 2953SOL    HW120495   4.721   3.015   7.434 -0.3418 -0.6387 -0.2176
 2953SOL    HW220496   0.110   2.925   7.404  0.3735  0.1928 -0.0023
 2954SOL     OW20497   1.808   2.817   7.271  0.0047 -0.0519  0.4066
 2954SOL    HW120498   1.720   2.803   7.235 -0.7537  1.0388  1.8261
 2954SOL    HW220499   1.847   2.738   7.235 -2.4124 -1.4220  0.7694
 2955SOL     OW20500   0.116   2.510   4.135 -0.4122  0.1147 -0.1847
 2955SOL    HW120501   0.090   2.592   4.178 -0.5166 -0.2991  0.5476
 2955SOL    HW220502   0.053   2.496   4.065 -0.7482  2.0981 -0.2645
 2956SOL     OW20503   1.330   2.185   9.491  0.1391 -0.6247 -0.0310
 2956SOL    HW120504   1.282   2.113   9.450  0.4382 -0.3917 -0.7827
 2956SOL    HW220505   1.361   2.141   9.571 -1.0047  1.8165  1.7520
 2957SOL     OW20506   2.469   2.413   7.861  0.0518 -0.4473  0.3839
 2957SOL    HW120507   2.391   2.465   7.843 -0.4477 -1.2408  0.2832
 2957SOL    HW220508   2.442   2.322   7.854  0.8000 -0.7771  1.8069
 2958SOL     OW20509   1.809   3.853   3.643 -0.0422  0.0804 -0.5509
 2958SOL    HW120510   1.734   3.883   3.694 -0.6188 -1.2785 -0.5901
 2958SOL    HW220511   1.775   3.846   3.554  0.8242 -1.1607 -0.7906
 2959SOL     OW20512   2.519   2.198   7.181 -0.6015 -0.6130  0.6878
 2959SOL    HW120513   2.442   2.179   7.126  0.6537 -0.1377 -1.2068
 2959SOL    HW220514   2.587   2.147   7.135 -1.3184 -1.5428  0.6406
 2960SOL     OW20515   3.952   1.523   6.023 -0.4918  0.3600 -0.1677
 2960SOL    HW120516   3.881   1.488   5.969 -0.7333 -0.1467  0.4859
 2960SOL    HW220517   3.997   1.442   6.047  1.2587  1.4411  0.2447
 2961SOL     OW20518   4.512   0.158  16.015 -0.4044 -0.3517 -0.0390
 2961SOL    HW120519   4.494   0.084  16.073 -1.8027  0.2088  0.2502
 2961SOL    HW220520   4.465   0.235  16.049  1.4123 -0.5646  2.9089
 2962SOL     OW20521   2.636   1.316   8.943 -0.4129  0.1796 -0.5412
 2962SOL    HW120522   2.709   1.370   8.913  1.0780 -1.4635  0.1380
 2962SOL    HW220523   2.609   1.370   9.017 -1.2709  0.4959 -1.0823
 2963SOL     OW20524   3.020   2.627   0.653  0.2678 -0.1954 -0.2051
 2963SOL    HW120525   3.009   2.571   0.730 -0.7212 -1.5406 -1.3402
 2963SOL    HW220526   3.037   2.708   0.701 -1.0603 -1.3883  2.2989
 2964SOL     OW20527   3.996   0.476   9.276  0.2482  0.3804 -0.6644
 2964SOL    HW120528   4.079   0.435   9.253  1.3393  1.8831  0.6265
 2964SOL    HW220529   4.003   0.553   9.219  1.0901 -1.2813 -2.7982
 2965SOL     OW20530   3.054   0.728  13.506 -0.4332  0.3735 -0.2521
 2965SOL    HW120531   3.032   0.644  13.547  1.5883  0.6471  1.4133
 2965SOL    HW220532   2.969   0.761  13.478 -1.0464 -1.1755 -0.1961
 2966SOL     OW20533   3.979   3.680  11.652  0.5182  0.4815 -0.3478
 2966SOL    HW120534   4.063   3.692  11.608  0.1713  0.0877 -1.1164
 2966SOL    HW220535   3.945   3.611  11.595  2.0224 -0.9026  0.4443
 2967SOL     OW20536   3.201   2.167   3.079  0.1470 -0.6606  0.0135
 2967SOL    HW120537   3.165   2.212   3.003 -0.0466  0.5845  0.8552
 2967SOL    HW220538   3.188   2.235   3.145  0.6725 -1.4257  0.9131
 2968SOL     OW20539   3.521   0.104  15.043 -0.2870  0.5654  0.0195
 2968SOL    HW120540   3.545   0.194  15.063 -0.4983  1.0209 -1.7391
 2968SOL    HW220541   3.594   0.058  15.084  1.0481  2.1392 -0.5924
 2969SOL     OW20542   1.089   3.376   6.229 -0.6446 -0.2004 -0.4346
 2969SOL    HW120543   1.005   3.364   6.274 -0.7467  0.5671 -0.4127
 2969SOL    HW220544   1.087   3.302   6.169 -0.4766 -0.6401  0.1057
 2970SOL     OW20545   0.224   3.532   7.801  0.3684  0.7700 -0.2836
 2970SOL    HW120546   0.303   3.521   7.747  0.6809  0.1871  0.2910
 2970SOL    HW220547   0.255   3.600   7.861 -1.4394 -1.8871  3.6463
 2971SOL     OW20548   2.463   4.299   1.696 -0.4313  0.5121 -0.3019
 2971SOL    HW120549   2.455   4.267   1.786  0.5288  1.7480  0.2276
 2971SOL    HW220550   2.442   4.221   1.645 -1.0648  1.1082 -0.9416
 2972SOL     OW20551   3.968   4.212   0.753  0.3900  0.0821  0.1539
 2972SOL    HW120552   3.965   4.140   0.690 -1.2349  1.4878 -1.3497
 2972SOL    HW220553   3.878   4.208   0.786 -0.1117 -1.0745 -1.3612
 2973SOL     OW20554   4.691   2.467   6.774  0.5162  0.0881 -0.1991
 2973SOL    HW120555   4.696   2.380   6.813  1.4203  0.3278  0.2263
 2973SOL    HW220556   4.640   2.510   6.843  2.0836  2.0963 -0.2835
 2974SOL     OW20557   1.847   1.489   4.876 -0.2408 -0.0508  0.1603
 2974SOL    HW120558   1.851   1.456   4.966  2.7067  0.3578  0.1777
 2974SOL    HW220559   1.837   1.408   4.827 -1.1130  0.5627 -0.6733
 2975SOL     OW20560   4.216   4.723  14.271  0.5992  0.0046 -0.1706
 2975SOL    HW120561   4.184   0.052  14.334  0.4860  0.4189 -0.6615
 2975SOL    HW220562   4.160   4.646  14.280 -0.6112  0.8036 -0.8344
 2976SOL     OW20563   1.376   4.521   5.595 -0.3503  0.4311 -0.0270
 2976SOL    HW120564   1.378   4.615   5.607 -3.9278  0.1825  2.5710
 2976SOL    HW220565   1.336   4.523   5.508 -0.4470  1.5522  0.0453
 2977SOL     OW20566   2.940   3.506  13.323  0.3473  0.0033  0.1477
 2977SOL    HW120567   3.016   3.468  13.367  1.0970  1.2906 -0.0170
 2977SOL    HW220568   2.870   3.486  13.385 -0.6236 -0.7988 -1.1930
 2978SOL     OW20569   4.056   2.669   2.728  0.4083 -0.1468 -0.4698
 2978SOL    HW120570   4.005   2.638   2.653 -1.4918  1.5970  0.0805
 2978SOL    HW220571   4.114   2.594   2.742  1.4332  0.9965  1.3880
 2979SOL     OW20572   1.929   3.425  12.158  0.5734 -0.6230  0.1021
 2979SOL    HW120573   2.019   3.392  12.168 -0.2288 -3.0436 -0.6426
 2979SOL    HW220574   1.878   3.344  12.150 -0.8643  0.5318 -2.6145
 2980SOL     OW20575   3.733   0.682   5.912 -0.1738 -0.2579  0.3489
 2980SOL    HW120576   3.689   0.647   5.990  0.9694  0.0454  1.1285
 2980SOL    HW220577   3.786   0.607   5.887 -1.5602 -0.5802 -1.6014
 2981SOL     OW20578   0.487   2.858   7.595 -0.4070 -0.5485 -0.0579
 2981SOL    HW120579   0.433   2.851   7.674  2.5188 -0.7038  1.9714
 2981SOL    HW220580   0.451   2.790   7.538 -1.6814 -0.6558  0.8944
 2982SOL     OW20581   1.684   2.643   9.419  0.0874  0.3466 -0.1438
 2982SOL    HW120582   1.768   2.690   9.422 -0.3704  1.1556  0.1086
 2982SOL    HW220583   1.711   2.571   9.363  0.5507  0.5712 -0.2157
 2983SOL     OW20584   2.344   2.875  15.475 -0.4374 -0.0544 -0.2123
 2983SOL    HW120585   2.253   2.892  15.450 -0.4241 -1.6849 -1.3457
 2983SOL    HW220586   2.383   2.961  15.456  0.8429 -0.7336 -0.6017
 2984SOL     OW20587   4.176   2.708   3.933  0.1008 -0.2333 -0.0912
 2984SOL    HW120588   4.215   2.740   4.014  1.8432 -0.5335 -0.8138
 2984SOL    HW220589   4.083   2.706   3.955 -0.2962 -0.5403 -1.8040
 2985SOL     OW20590   0.869   3.474   3.635  0.1480 -0.1893 -0.5324
 2985SOL    HW120591   0.937   3.532   3.670  0.6731 -1.3404  0.3441
 2985SOL    HW220592   0.898   3.484   3.544  0.9396 -1.3424 -0.4109
 2986SOL     OW20593   2.317   1.119  15.399  0.2927  0.4198  0.0600
 2986SOL    HW120594   2.241   1.151  15.448  1.3463  0.2829  1.7817
 2986SOL    HW220595   2.371   1.096  15.474 -0.3954  0.2356  0.5051
 2987SOL     OW20596   4.164   2.480   5.139 -0.1249 -0.0149 -0.1171
 2987SOL    HW120597   4.070   2.464   5.139 -0.0809 -0.2905 -1.3861
 2987SOL    HW220598   4.174   2.507   5.048  1.2737  1.1935  0.3887
 2988SOL     OW20599   0.300   0.729   2.431 -0.1163 -0.3326 -0.2671
 2988SOL    HW120600   0.271   0.647   2.471  2.6471 -0.4051  1.5543
 2988SOL    HW220601   0.360   0.760   2.499 -0.3038 -0.4307 -0.0595
 2989SOL     OW20602   0.607   3.767   8.773  0.0684  0.9141 -0.0737
 2989SOL    HW120603   0.520   3.807   8.772  0.9631  2.8753 -0.5618
 2989SOL    HW220604   0.635   3.798   8.859 -1.2336  0.8871  0.3552
 2990SOL     OW20605   0.204   0.070   2.066  0.4104  0.2389 -0.4945
 2990SOL    HW120606   0.151   0.008   2.116 -0.2475 -0.7057 -2.3533
 2990SOL    HW220607   0.294   0.048   2.091  0.8792  0.5577 -1.9194
 2991SOL     OW20608   1.913   0.437   8.260 -0.1269  0.5237 -0.1254
 2991SOL    HW120609   1.848   0.397   8.317  0.8288 -1.0140 -0.1228
 2991SOL    HW220610   1.899   0.390   8.178 -0.1802 -2.3939  1.5689
 2992SOL     OW20611   0.874   0.949   5.119 -0.0879  0.5621 -0.0071
 2992SOL    HW120612   0.865   0.983   5.030  2.5111  0.2857 -0.3672
 2992SOL    HW220613   0.918   0.868   5.095 -0.4230  0.5727 -0.6646
 2993SOL     OW20614   4.040   0.895   9.306  0.8394  0.0895 -1.0630
 2993SOL    HW120615   4.115   0.954   9.313 -0.7143  1.6598  2.0065
 2993SOL    HW220616   4.062   0.851   9.224  3.5015  2.9829 -1.8950
 2994SOL     OW20617   0.769   2.720   7.843  0.0923 -0.5462  0.0770
 2994SOL    HW120618   0.752   2.749   7.753  1.2000  0.9682  0.3448
 2994SOL    HW220619   0.781   2.802   7.891 -1.1599 -1.8383  2.6062
 2995SOL     OW20620   3.792   4.699   7.299  0.3822  0.5307  0.1933
 2995SOL    HW120621   3.836   4.634   7.245 -0.2069 -0.2654  0.6771
 2995SOL    HW220622   3.728   4.643   7.343  0.8214 -0.5246 -0.5195
 2996SOL     OW20623   1.308   0.137   2.778 -0.1224 -0.2140 -0.1663
 2996SOL    HW120624   1.376   0.088   2.823 -1.8160 -0.5302  2.0441
 2996SOL    HW220625   1.367   0.202   2.739  0.9790 -1.2414 -0.1929
 2997SOL     OW20626   4.033   1.592   5.699  0.0114  0.0278 -0.0029
 2997SOL    HW120627   4.014   1.516   5.754 -0.6385 -0.0141 -0.2840
 2997SOL    HW220628   3.970   1.582   5.627 -2.2072  1.8233  1.6728
 2998SOL     OW20629   3.511   3.864  15.198  0.2668 -0.0352 -0.1823
 2998SOL    HW120630   3.469   3.802  15.139 -0.7292 -0.5509  1.0651
 2998SOL    HW220631   3.450   3.877  15.271  1.7135 -0.7306  1.1535
 2999SOL     OW20632   3.499   4.417  16.676 -0.2037  0.1531  0.3778
 2999SOL    HW120633   3.461   4.468  16.748  1.4663  0.1530  1.2701
 2999SOL    HW220634   3.454   4.454  16.600  1.3314 -0.2128 -0.6981
 3000SOL     OW20635   0.449   2.723   5.036  0.3666  0.0737  0.1512
 3000SOL    HW120636   0.422   2.631   5.033 -1.9261  0.7857 -0.8994
 3000SOL    HW220637   0.452   2.739   5.131  1.1424 -1.0721  0.3200
 3001SOL     OW20638   0.043   0.117  16.994  0.2281 -0.1414 -0.4705
 3001SOL    HW120639   0.002   0.066  16.924 -2.0019 -0.3785  1.0278
 3001SOL    HW220640   4.729   0.196  16.977  1.0663  0.0723 -2.0374
 3002SOL     OW20641   1.550   3.623   7.820 -0.5295  0.9789 -0.6408
 3002SOL    HW120642   1.614   3.686   7.786 -0.1329  0.9994  0.1499
 3002SOL    HW220643   1.597   3.588   7.896 -0.5017 -1.1953 -1.6462
 3003SOL     OW20644   3.493   0.121   4.953 -0.7879  0.4027 -0.3750
 3003SOL    HW120645   3.478   0.206   4.913  1.5769  1.2354  0.5195
 3003SOL    HW220646   3.577   0.096   4.916 -2.2755 -2.4882 -1.8062
 3004SOL     OW20647   2.575   0.096   4.001 -0.2581  0.4126  0.2959
 3004SOL    HW120648   2.498   0.097   4.057  0.6223  1.9159  1.4897
 3004SOL    HW220649   2.610   0.010   4.023  1.4362  1.0892  0.3129
 3005SOL     OW20650   1.733   4.192   4.282  0.0924 -0.0161  0.1521
 3005SOL    HW120651   1.734   4.266   4.342  0.9452 -0.5096  0.7518
 3005SOL    HW220652   1.733   4.119   4.343  1.3512 -0.6477 -0.5827
 3006SOL     OW20653   1.545   2.864   7.199 -0.3619 -0.8584 -0.1902
 3006SOL    HW120654   1.522   2.952   7.228 -0.7546 -0.3978 -1.8857
 3006SOL    HW220655   1.535   2.879   7.105 -0.4532  0.4933  0.0394
 3007SOL     OW20656   1.840   0.139   0.681 -0.4000 -0.2400  0.2487
 3007SOL    HW120657   1.881   0.058   0.653 -1.2373 -0.2162 -1.0498
 3007SOL    HW220658   1.808   0.102   0.764  0.3053 -0.7906  0.2707
 3008SOL     OW20659   4.240   1.135  14.079 -0.0409  0.8586  0.2309
 3008SOL    HW120660   4.224   1.198  14.149  1.0614  2.6104 -1.1039
 3008SOL    HW220661   4.254   1.059  14.136  0.1074  1.0491  0.4450
 3009SOL     OW20662   3.033   4.441   5.002 -0.3660  0.4575  0.4125
 3009SOL    HW120663   2.943   4.470   5.017 -0.7547 -1.6566  2.1059
 3009SOL    HW220664   3.038   4.469   4.910  0.7930  1.1204  0.6774
 3010SOL     OW20665   3.450   0.609   4.432 -0.3483  0.2212  0.7909
 3010SOL    HW120666   3.399   0.576   4.358 -2.8463  1.4425  1.9943
 3010SOL    HW220667   3.514   0.668   4.393  0.3023  1.4346  3.7025
 3011SOL     OW20668   3.183   1.778   8.807 -0.7594  0.3718 -0.1602
 3011SOL    HW120669   3.110   1.824   8.765 -1.0240  0.4544  0.3921
 3011SOL    HW220670   3.195   1.699   8.754 -0.5923  0.8482 -0.8247
 3012SOL     OW20671   1.604   0.518   2.259 -0.2695  0.2117 -0.2578
 3012SOL    HW120672   1.588   0.613   2.259  0.0952  0.2697 -0.7148
 3012SOL    HW220673   1.527   0.488   2.307 -0.7087  1.6286 -0.0846
 3013SOL     OW20674   0.637   2.656  10.728  0.8738 -0.0421  0.7217
 3013SOL    HW120675   0.714   2.712  10.733  0.7146  0.4319 -1.9366
 3013SOL    HW220676   0.635   2.609  10.811  2.6190  0.9668  1.3296
 3014SOL     OW20677   4.134   2.468   8.483 -0.5507 -0.4915 -0.1389
 3014SOL    HW120678   4.139   2.373   8.494 -0.6981 -0.3527  1.1735
 3014SOL    HW220679   4.157   2.477   8.390 -1.5839 -0.3742 -0.3788
 3015SOL     OW20680   2.439   2.265   1.276 -0.6695  0.8234 -0.6385
 3015SOL    HW120681   2.427   2.360   1.280  1.3810  0.9784  1.6821
 3015SOL    HW220682   2.516   2.268   1.333 -1.2405  1.6240  0.0918
 3016SOL     OW20683   3.725   2.748  17.331 -0.6935 -0.1294  0.0646
 3016SOL    HW120684   3.665   2.820  17.311 -0.3223 -0.1834 -1.2500
 3016SOL    HW220685   3.802   2.775  17.280 -0.0988 -0.3461  0.8433
 3017SOL     OW20686   3.508   3.522   3.165 -0.1970 -0.1115  0.3750
 3017SOL    HW120687   3.458   3.462   3.110  1.7966 -2.8894  1.5903
 3017SOL    HW220688   3.442   3.588   3.185  1.8838  1.6184  1.5264
 3018SOL     OW20689   0.595   2.213   8.108  0.5951 -0.0211  0.2960
 3018SOL    HW120690   0.653   2.232   8.034 -0.5613 -0.9569 -0.8325
 3018SOL    HW220691   0.622   2.282   8.168  1.7037 -0.7221  0.6107
 3019SOL     OW20692   1.243   3.324   9.028  0.5000 -0.1018  0.4235
 3019SOL    HW120693   1.147   3.325   9.034  0.6671 -2.2341  3.2506
 3019SOL    HW220694   1.265   3.268   9.102  0.2883 -0.7299  0.0139
 3020SOL     OW20695   1.237   0.239   2.231  0.2436 -0.3582 -0.5283
 3020SOL    HW120696   1.301   0.212   2.298  0.0374  0.4568 -0.0074
 3020SOL    HW220697   1.154   0.216   2.272  0.3027  3.1954  1.6190
 3021SOL     OW20698   0.206   3.227   2.693 -0.1128  0.3178  0.3719
 3021SOL    HW120699   0.272   3.163   2.719  2.1285  1.3239 -2.8310
 3021SOL    HW220700   0.192   3.278   2.773  1.5551  0.2951  0.6709
 3022SOL     OW20701   1.012   4.353  12.063  0.4630 -0.2366  0.8857
 3022SOL    HW120702   0.991   4.423  12.001 -5.2476 -0.1201  2.8628
 3022SOL    HW220703   1.079   4.302  12.019  0.5137  0.6683 -0.0999
 3023SOL     OW20704   1.067   2.734   5.051 -1.1563 -0.2251 -0.2060
 3023SOL    HW120705   0.989   2.782   5.078  0.2661  1.7995  0.2919
 3023SOL    HW220706   1.027   2.650   5.029  1.3857 -1.2426 -1.0058
 3024SOL     OW20707   4.115   0.081  17.336 -0.3967  0.4287 -0.5583
 3024SOL    HW120708   4.034   0.126  17.315 -1.8575 -1.4492  1.0166
 3024SOL    HW220709   4.071   4.735  17.357  0.2067 -0.4219 -2.6146
 3025SOL     OW20710   2.861   0.883   8.192  0.2263 -0.3129  0.2999
 3025SOL    HW120711   2.895   0.965   8.230  1.9851 -1.7109  1.7433
 3025SOL    HW220712   2.811   0.924   8.121  1.9620  0.2067 -0.6310
 3026SOL     OW20713   0.472   3.387  15.998  0.0203  0.0237  0.0138
 3026SOL    HW120714   0.469   3.306  15.947  0.8998 -1.0416  1.6285
 3026SOL    HW220715   0.526   3.440  15.939  2.3629 -1.6570  0.6447
 3027SOL     OW20716   3.533   1.894   6.569 -0.3702  0.2560  0.1120
 3027SOL    HW120717   3.513   1.972   6.621  1.9051  0.4843  0.6409
 3027SOL    HW220718   3.622   1.876   6.599 -0.0743  2.9062  0.8581
 3028SOL     OW20719   4.563   1.559   5.368  0.0558 -0.1809 -0.1061
 3028SOL    HW120720   4.593   1.592   5.453 -1.5777  0.3043  0.2668
 3028SOL    HW220721   4.535   1.643   5.333 -2.5226 -1.6317 -1.4971
 3029SOL     OW20722   0.012   4.260  16.487  0.0933  0.1256  0.4508
 3029SOL    HW120723   4.710   4.254  16.574 -0.6707 -0.9443  0.0345
 3029SOL    HW220724   0.006   4.168  16.461  1.0381  1.4592 -4.4644
 3030SOL     OW20725   4.586   2.924  10.692 -0.5051 -0.4933 -0.3027
 3030SOL    HW120726   4.543   2.949  10.774 -1.1844 -2.7365  0.0504
 3030SOL    HW220727   4.662   2.980  10.704 -0.4446 -1.2172  2.5614
 3031SOL     OW20728   3.410   0.284   2.804  0.3065  0.1729  0.3571
 3031SOL    HW120729   3.345   0.264   2.737  0.5959  2.3189 -0.5841
 3031SOL    HW220730   3.445   0.199   2.828 -0.1275 -0.3869 -0.9882
 3032SOL     OW20731   1.594   0.212   7.778 -0.0774 -0.3021 -0.0940
 3032SOL    HW120732   1.681   0.178   7.760 -0.1541  0.1824 -1.3603
 3032SOL    HW220733   1.589   0.287   7.719  2.3060 -0.1076 -0.0114
 3033SOL     OW20734   0.165   2.982   4.094  0.1506 -0.4452  0.3439
 3033SOL    HW120735   0.200   3.058   4.048  0.6712 -1.1367 -0.3942
 3033SOL    HW220736   0.191   2.921   4.025  0.1235 -1.7366  1.4589
 3034SOL     OW20737   1.697   0.797  13.839  0.1101  0.0192 -0.3277
 3034SOL    HW120738   1.685   0.723  13.779 -1.5596 -1.0887  1.3830
 3034SOL    HW220739   1.765   0.851  13.799 -0.3969  2.6204  2.2723
 3035SOL     OW20740   2.092   4.134   6.918  0.1023  0.1849  0.4630
 3035SOL    HW120741   2.044   4.162   6.996 -1.3785 -0.9175 -0.0639
 3035SOL    HW220742   2.143   4.213   6.900 -0.2510  1.0375  3.2200
 3036SOL     OW20743   2.398   1.494   7.613  0.2823 -0.7074 -0.1830
 3036SOL    HW120744   2.375   1.531   7.528 -0.8222 -2.2961 -0.5534
 3036SOL    HW220745   2.432   1.573   7.656 -1.5306  0.5303 -1.0215
 3037SOL     OW20746   0.805   4.191   6.582  0.4380 -0.3968 -0.0860
 3037SOL    HW120747   0.835   4.099   6.582 -0.0083 -0.5245  2.7093
 3037SOL    HW220748   0.813   4.218   6.673 -3.9876  0.2575  0.0800
 3038SOL     OW20749   0.141   3.864  10.521  0.3789  0.4986 -0.8124
 3038SOL    HW120750   0.218   3.894  10.474  0.8355 -0.7882 -0.8807
 3038SOL    HW220751   0.145   3.914  10.602  1.1040 -0.2491 -0.3879
 3039SOL     OW20752   0.554   3.140  14.438  0.0051 -0.9613 -0.1228
 3039SOL    HW120753   0.512   3.097  14.364  0.3292  0.4157 -1.1097
 3039SOL    HW220754   0.473   3.152  14.488  0.9063 -0.0247  1.1141
 3040SOL     OW20755   2.813   4.352   5.389 -0.5041 -0.3724 -0.2955
 3040SOL    HW120756   2.758   4.428   5.407 -0.1689 -0.0375 -0.6742
 3040SOL    HW220757   2.790   4.338   5.297 -0.7456  1.0141 -0.4498
 3041SOL     OW20758   3.736   0.195  17.080  0.3883 -0.2484 -0.3731
 3041SOL    HW120759   3.690   0.243  17.011 -0.3788  1.4044  1.2908
 3041SOL    HW220760   3.823   0.234  17.074 -0.4718  1.2527 -3.4604
 3042SOL     OW20761   2.092   0.342   3.657  0.5278 -0.1822  0.0353
 3042SOL    HW120762   2.067   0.399   3.730  0.3922  1.0786 -0.9926
 3042SOL    HW220763   2.030   0.269   3.661 -0.0571  0.3327  0.4507
 3043SOL     OW20764   4.074   1.017   4.586  0.1077 -0.6212  0.4958
 3043SOL    HW120765   4.087   1.003   4.680 -0.6182  1.3250  0.9034
 3043SOL    HW220766   4.167   1.024   4.566 -0.0161 -1.4108 -0.3659
 3044SOL     OW20767   0.410   0.460  12.340  0.2422 -0.6752 -0.4579
 3044SOL    HW120768   0.405   0.487  12.248 -0.2215 -0.3843 -0.3487
 3044SOL    HW220769   0.488   0.405  12.335  0.0055 -1.1727  1.3118
 3045SOL     OW20770   4.223   3.647   6.601 -0.0369 -0.5732  0.5746
 3045SOL    HW120771   4.220   3.735   6.638 -0.8881 -0.1880 -0.3909
 3045SOL    HW220772   4.176   3.598   6.668  0.5715 -0.3235  1.1782
 3046SOL     OW20773   3.411   2.682  13.280  0.0317 -0.2854  0.2434
 3046SOL    HW120774   3.476   2.752  13.277 -0.4279  0.0757 -1.4398
 3046SOL    HW220775   3.455   2.606  13.319  1.4478  0.7639  0.6989
 3047SOL     OW20776   2.370   2.973   1.485 -0.1955  0.0097 -0.2619
 3047SOL    HW120777   2.348   3.038   1.552  1.1327 -0.4884  0.6581
 3047SOL    HW220778   2.426   3.023   1.425 -0.8036  1.4011  0.3265
 3048SOL     OW20779   1.900   3.343  12.414  0.7178  0.4077  0.1165
 3048SOL    HW120780   1.989   3.321  12.387  0.7072  1.5551 -0.8695
 3048SOL    HW220781   1.896   3.428  12.371 -1.3872  1.4858  2.4952
 3049SOL     OW20782   0.648   2.957  15.240  0.3956  0.4392 -0.4300
 3049SOL    HW120783   0.630   2.912  15.322 -0.4157  1.7859  0.1346
 3049SOL    HW220784   0.655   2.883  15.180  0.3601 -0.5560  0.8073
 3050SOL     OW20785   3.015   0.730   4.497  0.2353 -0.7786  0.5863
 3050SOL    HW120786   3.002   0.772   4.412 -0.9028 -0.3540  0.9809
 3050SOL    HW220787   3.103   0.759   4.521 -0.2223  2.8884 -2.2369
 3051SOL     OW20788   3.432   3.680  15.009 -0.1517 -0.2298 -0.9832
 3051SOL    HW120789   3.395   3.675  14.921 -0.1317 -1.2937 -0.9248
 3051SOL    HW220790   3.364   3.627  15.052  0.1153  0.3527  0.1645
 3052SOL     OW20791   2.219   0.462   7.348 -0.2939  0.2342  0.4833
 3052SOL    HW120792   2.123   0.463   7.349 -0.3545 -2.9055 -1.3733
 3052SOL    HW220793   2.227   0.412   7.267 -1.6232  0.5824  0.1330
 3053SOL     OW20794   4.191   2.653  12.209 -0.3406 -0.4075 -0.2860
 3053SOL    HW120795   4.177   2.562  12.235 -0.5440 -0.3760 -0.2868
 3053SOL    HW220796   4.109   2.694  12.237 -0.7763  0.6060 -2.9977
 3054SOL     OW20797   4.660   3.155   1.490 -0.0972  0.0497 -0.1140
 3054SOL    HW120798   4.573   3.193   1.487  0.0343  0.3015 -0.8420
 3054SOL    HW220799   4.646   3.061   1.477 -0.1283 -0.0081  0.3445
 3055SOL     OW20800   0.580   0.346   3.329  0.2162 -0.4323 -0.4405
 3055SOL    HW120801   0.572   0.349   3.234  1.4494 -0.3733 -0.5465
 3055SOL    HW220802   0.557   0.438   3.345  1.8177 -0.0172 -0.5666
 3056SOL     OW20803   0.589   4.504   6.089  0.8133 -0.6673  0.4652
 3056SOL    HW120804   0.646   4.579   6.078  0.3895 -0.2145  1.3932
 3056SOL    HW220805   0.649   4.431   6.104  1.9784 -0.0041 -0.9994
 3057SOL     OW20806   1.395   4.291   6.926 -0.5309  0.6733 -0.6335
 3057SOL    HW120807   1.328   4.269   6.861  0.5610 -1.4960 -1.0261
 3057SOL    HW220808   1.405   4.204   6.966  0.3971  0.2758 -1.7424
 3058SOL     OW20809   0.904   3.494  10.071 -0.4347  0.0498 -0.0768
 3058SOL    HW120810   0.974   3.439  10.038  1.0754  2.2100 -0.4679
 3058SOL    HW220811   0.916   3.496  10.166 -1.4979 -0.9933  0.0744
 3059SOL     OW20812   4.094   0.432  11.409 -0.6212 -0.2448  0.3328
 3059SOL    HW120813   4.061   0.356  11.456 -0.6545  0.0054  0.7148
 3059SOL    HW220814   4.187   0.408  11.416 -0.2843  0.8292 -0.4970
 3060SOL     OW20815   1.810   0.747   4.978 -1.0922  0.2756  0.3176
 3060SOL    HW120816   1.861   0.686   5.031  0.3310  1.7127  0.6326
 3060SOL    HW220817   1.863   0.750   4.897 -3.3754 -0.1100 -1.1832
 3061SOL     OW20818   2.475   4.569   9.332 -0.6401  0.3050 -0.2194
 3061SOL    HW120819   2.440   4.496   9.281  1.8225 -0.3475 -1.0201
 3061SOL    HW220820   2.493   4.526   9.416  0.1831  0.7328 -0.1704
 3062SOL     OW20821   3.998   3.175   7.617 -0.6516  0.0003  0.6042
 3062SOL    HW120822   3.924   3.153   7.560 -1.4543 -1.0644  2.0631
 3062SOL    HW220823   4.025   3.088   7.645 -0.7160 -0.9163 -2.1136
 3063SOL     OW20824   4.650   0.977   3.839  0.2061 -0.5138  0.1964
 3063SOL    HW120825   0.007   0.995   3.833  0.1944 -1.0911 -1.8757
 3063SOL    HW220826   4.626   0.961   3.747  1.0483  1.2778 -0.3392
 3064SOL     OW20827   0.507   2.957  14.011 -0.2520  0.3213  0.9457
 3064SOL    HW120828   0.500   3.052  14.004 -1.1816  0.2393  0.6754
 3064SOL    HW220829   0.574   2.923  13.951  1.0541 -0.6314  2.9624
 3065SOL     OW20830   1.643   2.768  17.311  0.1218 -0.3853  0.3204
 3065SOL    HW120831   1.655   2.837  17.247  0.2661  0.1938  0.9747
 3065SOL    HW220832   1.576   2.814  17.362  0.1818  0.0945 -0.0365
 3066SOL     OW20833   1.704   1.093  17.742 -0.6449  0.0599  0.3866
 3066SOL    HW120834   1.733   1.060   0.082 -1.6450  1.5315  1.2995
 3066SOL    HW220835   1.612   1.105   0.023 -0.0366  3.1667  1.0294
 3067SOL     OW20836   3.746   0.086   2.273 -0.0353 -0.1850 -0.0779
 3067SOL    HW120837   3.812   0.120   2.332 -0.4555  0.0132  0.2782
 3067SOL    HW220838   3.683   0.040   2.328  0.3343  0.6232  1.0155
 3068SOL     OW20839   4.730   1.801   6.505  0.7004  0.2501  0.2434
 3068SOL    HW120840   4.703   1.812   6.596  0.0143 -0.7418  0.1482
 3068SOL    HW220841   4.679   1.877   6.477 -0.5542 -0.1586  1.4272
 3069SOL     OW20842   1.957   3.097   5.091  0.1057 -0.3284  0.1900
 3069SOL    HW120843   1.996   3.022   5.044 -1.9402 -1.5285  0.4109
 3069SOL    HW220844   2.044   3.127   5.116 -0.1874  0.6006  0.1104
 3070SOL     OW20845   2.653   4.449   6.424 -0.1004 -0.1453 -0.1819
 3070SOL    HW120846   2.672   4.370   6.374 -1.0369 -1.7337  2.0149
 3070SOL    HW220847   2.704   4.442   6.504 -0.1241  2.2200  0.0575
 3071SOL     OW20848   3.472   1.467   6.501 -0.4991  0.0870 -0.2334
 3071SOL    HW120849   3.564   1.488   6.518 -0.4524  0.5408 -1.0058
 3071SOL    HW220850   3.437   1.553   6.479  0.9482  0.3722 -1.4768
 3072SOL     OW20851   1.039   1.523  13.418  0.0145 -0.5968  0.1018
 3072SOL    HW120852   1.123   1.567  13.409  0.3607 -1.1295  0.7871
 3072SOL    HW220853   1.057   1.451  13.479 -0.2394 -0.3817  0.4295
 3073SOL     OW20854   4.002   1.227   4.913  0.1229  0.3989 -0.2424
 3073SOL    HW120855   4.078   1.177   4.944  0.2797  0.2266 -0.9084
 3073SOL    HW220856   3.930   1.165   4.923 -0.6924  1.6987  1.7978
 3074SOL     OW20857   4.117   4.687   0.225 -0.2731 -1.1265 -0.0110
 3074SOL    HW120858   4.042   4.641   0.187 -1.9126  1.6255 -0.0776
 3074SOL    HW220859   4.099   0.041   0.202 -0.3001 -0.8541  1.1129
 3075SOL     OW20860   2.907   2.011  16.457 -0.7085 -0.3247 -0.0323
 3075SOL    HW120861   2.953   2.053  16.530 -4.8588  1.5453  1.5373
 3075SOL    HW220862   2.932   2.073  16.389  0.7660 -1.7020 -0.7365
 3076SOL     OW20863   1.259   0.201   5.492 -0.4354 -0.2533  0.0899
 3076SOL    HW120864   1.341   0.155   5.474 -1.0997 -1.9217  1.3449
 3076SOL    HW220865   1.290   0.292   5.488 -2.2044  0.3794  0.7492
 3077SOL     OW20866   3.726   4.390   9.072  0.0978  0.1274 -0.2920
 3077SOL    HW120867   3.767   4.444   9.004 -1.1217 -1.1085 -1.9999
 3077SOL    HW220868   3.708   4.454   9.141  1.3882 -0.8974  1.0123
 3078SOL     OW20869   2.859   2.690   0.420 -0.7417  0.0739  0.7196
 3078SOL    HW120870   2.810   2.770   0.402  0.6034  0.5469 -0.9428
 3078SOL    HW220871   2.853   2.680   0.515  1.8919  2.0703  1.0939
 3079SOL     OW20872   1.650   4.299   7.873  0.0391 -0.3687  0.3481
 3079SOL    HW120873   1.579   4.246   7.909 -0.4418 -0.4158 -0.6798
 3079SOL    HW220874   1.591   4.372   7.854  0.3595 -0.5507 -1.3719
 3080SOL     OW20875   1.791   1.653  10.765 -0.3057 -0.3451 -0.2589
 3080SOL    HW120876   1.714   1.705  10.744 -0.5113  0.8049  3.2234
 3080SOL    HW220877   1.766   1.567  10.800 -0.8431 -0.2525 -0.4188
 3081SOL     OW20878   3.651   1.800   8.467 -0.1988 -0.7398  0.2518
 3081SOL    HW120879   3.734   1.793   8.420  0.0282  0.4608  0.4754
 3081SOL    HW220880   3.647   1.715   8.509 -1.1979  0.0876  1.8432
 3082SOL     OW20881   4.209   0.869  14.151 -0.4227 -0.3920  0.4745
 3082SOL    HW120882   4.272   0.858  14.222 -1.1149  0.7116  1.2679
 3082SOL    HW220883   4.246   0.795  14.104 -1.7331  0.0178 -1.1935
 3083SOL     OW20884   3.959   0.993  12.040  1.3704 -0.8626  0.3983
 3083SOL    HW120885   3.901   0.925  12.007  1.0307  0.2844 -1.3590
 3083SOL    HW220886   4.046   0.954  12.038  0.4775 -2.8531  0.5575
 3084SOL     OW20887   0.572   4.535   2.366  0.4711  0.2047  0.1199
 3084SOL    HW120888   0.488   4.490   2.359  1.0778 -1.0840  0.9829
 3084SOL    HW220889   0.616   4.487   2.436 -0.7781 -0.2851  0.5740
 3085SOL     OW20890   2.840   0.410   7.635  0.5717 -0.0935  0.1631
 3085SOL    HW120891   2.753   0.444   7.613 -0.1344 -1.2042  1.2396
 3085SOL    HW220892   2.816   0.341   7.698  0.0855  1.0747  1.2468
 3086SOL     OW20893   1.784   1.358   8.344  0.5104  0.2717 -0.5767
 3086SOL    HW120894   1.848   1.425   8.322  0.0296  0.7922 -0.3959
 3086SOL    HW220895   1.703   1.406   8.325 -0.8084 -1.1807  1.3596
 3087SOL     OW20896   0.891   2.490   7.896 -0.6209  0.1405  0.0707
 3087SOL    HW120897   0.852   2.575   7.876 -0.3391  0.1786 -0.3220
 3087SOL    HW220898   0.978   2.517   7.925 -1.1963  0.5821  1.3531
 3088SOL     OW20899   2.874   4.131  13.729  0.5845 -0.6463 -0.2041
 3088SOL    HW120900   2.922   4.079  13.664 -0.4806 -0.7836 -0.8813
 3088SOL    HW220901   2.924   4.212  13.721 -0.0589 -0.2258 -0.0161
 3089SOL     OW20902   2.663   2.587   5.212 -0.8790  0.7819  0.2827
 3089SOL    HW120903   2.752   2.553   5.219 -1.2854 -0.0874  1.1262
 3089SOL    HW220904   2.653   2.602   5.118  0.2206  0.9782  0.1916
 3090SOL     OW20905   3.445   0.049   2.383 -0.8286 -0.1463 -0.2869
 3090SOL    HW120906   3.455   4.691   2.372  0.3287  0.1827 -2.0365
 3090SOL    HW220907   3.422   0.078   2.295  2.2971 -0.4942 -1.2077
 3091SOL     OW20908   1.999   0.272  11.516 -0.1896  0.9626  0.5883
 3091SOL    HW120909   2.005   0.211  11.590 -0.1947 -0.5954 -0.7021
 3091SOL    HW220910   1.907   0.257  11.492 -0.0972 -1.9523  1.9494
 3092SOL     OW20911   3.861   4.000   9.346 -0.4889 -0.0916 -0.0189
 3092SOL    HW120912   3.935   3.992   9.287  0.2339  0.0344  0.8690
 3092SOL    HW220913   3.790   3.986   9.282 -0.6455  1.4100 -0.1806
 3093SOL     OW20914   2.874   2.343   1.787 -0.0365  0.9439 -0.1735
 3093SOL    HW120915   2.952   2.397   1.795  0.2495  0.2527  1.5818
 3093SOL    HW220916   2.809   2.413   1.799 -1.0178  0.0992 -0.5820
 3094SOL     OW20917   1.262   2.227   5.066 -0.0867 -0.4418  0.7810
 3094SOL    HW120918   1.296   2.149   5.110  1.8640 -0.0070  0.0261
 3094SOL    HW220919   1.274   2.296   5.131  0.5037 -1.3084  1.5959
 3095SOL     OW20920   1.571   1.386   5.176  0.8206  0.5895 -0.0166
 3095SOL    HW120921   1.615   1.341   5.249  1.9378  0.2593 -0.8857
 3095SOL    HW220922   1.519   1.313   5.141  0.0862  1.6017 -1.0316
 3096SOL     OW20923   2.790   2.720   4.034 -0.3300 -0.3243  0.1939
 3096SOL    HW120924   2.734   2.648   4.064  0.7610 -1.3674 -0.2687
 3096SOL    HW220925   2.831   2.688   3.954  1.0808  1.2831  0.2668
 3097SOL     OW20926   0.949   4.321   4.069 -0.0144 -0.9778 -0.6937
 3097SOL    HW120927   0.859   4.300   4.093 -0.4461  1.5044 -0.1043
 3097SOL    HW220928   0.961   4.411   4.099 -1.3101 -1.3943  1.0923
 3098SOL     OW20929   2.065   1.470   2.190 -0.1658 -0.2616  0.2070
 3098SOL    HW120930   2.138   1.466   2.252  0.3598  1.2396 -0.3133
 3098SOL    HW220931   2.087   1.544   2.134  0.4614 -0.3176  0.3791
 3099SOL     OW20932   1.407   1.169   7.829  0.1525  0.3055  0.6369
 3099SOL    HW120933   1.415   1.173   7.734  2.4484  0.1635  0.8204
 3099SOL    HW220934   1.481   1.110   7.845 -1.9053 -3.0142 -2.1272
 3100SOL     OW20935   0.276   3.928  17.080 -0.0581  0.0934 -0.3532
 3100SOL    HW120936   0.302   3.984  17.007 -0.4241  0.5492 -0.1371
 3100SOL    HW220937   0.331   3.854  17.057  1.5104  0.5255  1.9126
 3101SOL     OW20938   4.551   2.862   8.567  0.1341  0.2948 -0.4018
 3101SOL    HW120939   4.551   2.913   8.486  1.9852  2.8120  1.1872
 3101SOL    HW220940   4.609   2.788   8.545  1.6636  1.8164 -1.4922
 3102SOL     OW20941   1.087   2.778   6.257  0.4663  0.2814  0.2077
 3102SOL    HW120942   1.180   2.800   6.264  0.3568  1.1965 -1.1808
 3102SOL    HW220943   1.047   2.852   6.301  0.5013 -1.0745  2.5074
 3103SOL     OW20944   3.259   3.641   2.399 -0.1304  0.0762 -0.6345
 3103SOL    HW120945   3.351   3.639   2.425 -0.6233  0.3871  1.1335
 3103SOL    HW220946   3.239   3.734   2.405  0.5359  0.1858 -0.1283
 3104SOL     OW20947   2.815   1.664   1.665  0.1458 -0.4623  0.2689
 3104SOL    HW120948   2.748   1.620   1.717 -1.3595  0.0235 -1.2514
 3104SOL    HW220949   2.883   1.676   1.731  0.8609 -1.1836 -0.3503
 3105SOL     OW20950   4.476   4.018   9.772  0.3131  0.2101  0.6474
 3105SOL    HW120951   4.506   4.102   9.807  1.2069  0.5759 -0.9926
 3105SOL    HW220952   4.408   3.993   9.835  0.9140  1.6354  1.8649
 3106SOL     OW20953   3.048   0.085   5.116 -0.4207  0.1159  0.3884
 3106SOL    HW120954   3.099   0.037   5.050 -1.5720 -0.0075 -0.4044
 3106SOL    HW220955   3.098   0.058   5.193 -1.1386  0.7088  1.0695
 3107SOL     OW20956   2.559   3.118   6.078  1.0773 -0.7152 -0.3024
 3107SOL    HW120957   2.554   3.027   6.107 -1.6911  0.7051  3.7120
 3107SOL    HW220958   2.526   3.155   6.160 -1.2021 -0.7562 -1.2164
 3108SOL     OW20959   2.111   2.283   3.335  0.1031  0.5095 -0.0148
 3108SOL    HW120960   2.201   2.315   3.334  0.3750 -0.2434 -0.1841
 3108SOL    HW220961   2.115   2.221   3.262 -2.2761 -1.1425  1.2662
 3109SOL     OW20962   1.188   1.237   7.521  0.2449  0.2138  0.1665
 3109SOL    HW120963   1.271   1.205   7.557 -0.7535 -1.7457  0.6932
 3109SOL    HW220964   1.130   1.165   7.545 -0.2163  0.4518 -0.2531
 3110SOL     OW20965   2.508   1.228   8.659 -0.0556  0.1776 -0.3231
 3110SOL    HW120966   2.563   1.234   8.737 -1.4594 -0.7749  0.7372
 3110SOL    HW220967   2.532   1.302   8.602 -1.7705 -0.3906 -1.7822
 3111SOL     OW20968   0.780   0.440  16.018 -0.2013 -0.5580  0.1494
 3111SOL    HW120969   0.788   0.391  15.936  2.4831 -1.2600  0.8251
 3111SOL    HW220970   0.768   0.529  15.985 -0.4710  0.0739  1.9230
 3112SOL     OW20971   4.230   1.520   1.721  0.0602 -0.7534  0.4326
 3112SOL    HW120972   4.160   1.502   1.659 -0.1266 -0.1788  0.4820
 3112SOL    HW220973   4.241   1.433   1.759 -0.7560 -0.9690  0.1595
 3113SOL     OW20974   1.118   4.342  10.721 -0.3426  0.1809  0.5085
 3113SOL    HW120975   1.043   4.284  10.738 -2.3915  3.1322  1.5142
 3113SOL    HW220976   1.158   4.356  10.806  1.0337 -0.9450  0.0618
 3114SOL     OW20977   0.999   4.693  11.006 -0.0005  0.0308 -0.3220
 3114SOL    HW120978   0.998   4.617  11.064  1.9288  0.5863  0.4144
 3114SOL    HW220979   0.945   4.658  10.935 -1.4059  2.8402 -0.6260
 3115SOL     OW20980   1.441   4.204  12.851  0.3672 -0.9719  0.5799
 3115SOL    HW120981   1.464   4.249  12.769  1.5774 -1.3211  0.7272
 3115SOL    HW220982   1.346   4.199  12.845  0.2955  0.5328  0.3826
 3116SOL     OW20983   0.440   2.447  14.787  0.3711 -0.4356 -0.5184
 3116SOL    HW120984   0.428   2.441  14.693  1.1752  0.4887 -0.6902
 3116SOL    HW220985   0.507   2.381  14.808  0.4283  0.1083  1.0606
 3117SOL     OW20986   2.785   0.346   3.312  0.7765 -0.1667  0.1464
 3117SOL    HW120987   2.702   0.311   3.345 -0.4348  1.7525 -0.8718
 3117SOL    HW220988   2.758   0.436   3.332 -0.8636 -0.2937 -1.5444
 3118SOL     OW20989   4.640   3.094  13.746  0.1949  0.0170  0.1215
 3118SOL    HW120990   4.616   3.019  13.800  0.0098  0.3406  0.4910
 3118SOL    HW220991   4.735   3.085  13.745  0.1848 -0.1980  1.1521
 3119SOL     OW20992   4.631   3.601   4.533  0.2054  0.1950 -0.0074
 3119SOL    HW120993   4.710   3.625   4.582  0.0855  0.9047 -0.1575
 3119SOL    HW220994   4.562   3.661   4.564 -0.3006  1.5124 -3.6834
 3120SOL     OW20995   0.679   4.407  12.071 -0.7244 -0.7096  0.3108
 3120SOL    HW120996   0.596   4.363  12.088 -1.2854  0.1737 -0.1413
 3120SOL    HW220997   0.654   4.453  11.991  0.2388 -1.3989 -0.3883
 3121SOL     OW20998   1.619   4.698  12.349  0.6037 -0.0631 -0.7303
 3121SOL    HW120999   1.687   4.694  12.416  0.6253 -0.5157 -0.7766
 3121SOL    HW221000   1.543   4.675  12.403  1.4829  0.6627  0.8136
 3122SOL     OW21001   2.397   3.299   5.296  0.8824 -0.0487  0.7045
 3122SOL    HW121002   2.479   3.310   5.344  1.2323  0.4513 -0.0057
 3122SOL    HW221003   2.387   3.205   5.285  2.7837  0.2159 -3.0778
 3123SOL     OW21004   2.115   2.974   6.495  0.2384 -0.5086  0.1817
 3123SOL    HW121005   2.090   3.067   6.491  1.2545 -0.2640 -0.7093
 3123SOL    HW221006   2.197   2.977   6.544  0.3085  0.8295  0.0006
 3124SOL     OW21007   0.100   0.702  13.095  0.7586  0.2899  0.5876
 3124SOL    HW121008   0.170   0.767  13.093 -0.3529  1.5663  2.4972
 3124SOL    HW221009   0.026   0.762  13.103  1.1114  0.7606  0.2659
 3125SOL     OW21010   1.361   4.244  11.155  0.4870 -0.0898 -0.2605
 3125SOL    HW121011   1.418   4.321  11.155  0.6416 -0.1940 -2.2644
 3125SOL    HW221012   1.422   4.175  11.128 -0.0231 -0.1203 -1.3725
 3126SOL     OW21013   3.724   4.401   2.278  0.5055 -0.6835  0.1817
 3126SOL    HW121014   3.635   4.422   2.250  0.8723 -0.0849 -0.5425
 3126SOL    HW221015   3.762   4.412   2.191  1.1661 -0.5258  0.4870
 3127SOL     OW21016   1.837   1.021  17.519  0.2412  0.1245  0.1670
 3127SOL    HW121017   1.795   1.051  17.600  1.9326  0.6874  0.8374
 3127SOL    HW221018   1.773   0.954  17.499  2.6407 -2.0331 -0.3051
 3128SOL     OW21019   0.140   0.544  15.382 -0.2442  0.4408 -0.0442
 3128SOL    HW121020   0.078   0.549  15.310 -2.0837 -1.9692  1.3704
 3128SOL    HW221021   0.084   0.509  15.451  2.2237 -0.6731  1.4127
 3129SOL     OW21022   2.338   2.705   1.487  0.1503 -0.7514  0.2244
 3129SOL    HW121023   2.250   2.708   1.527  0.0884 -0.8959  0.0976
 3129SOL    HW221024   2.347   2.795   1.457  0.2549 -1.1939 -1.0613
 3130SOL     OW21025   2.539   3.421   2.947 -0.1539 -0.2134  0.8870
 3130SOL    HW121026   2.628   3.387   2.942 -1.1361 -2.3553 -1.4409
 3130SOL    HW221027   2.553   3.498   3.003 -0.9745 -0.0737  0.8980
 3131SOL     OW21028   1.570   2.696   3.291 -0.1844 -0.0036  0.5409
 3131SOL    HW121029   1.539   2.736   3.372  0.0216  0.6359  0.3034
 3131SOL    HW221030   1.611   2.769   3.244 -1.9421  0.9915  0.5690
 3132SOL     OW21031   2.050   4.313  15.135 -0.1284 -0.2544  0.5165
 3132SOL    HW121032   2.116   4.338  15.199 -1.6582  0.1869  1.9209
 3132SOL    HW221033   1.974   4.368  15.156  1.5846  1.9729  0.8783
 3133SOL     OW21034   0.731   3.272   9.707 -0.2611  0.4638  0.0865
 3133SOL    HW121035   0.813   3.291   9.753 -1.3118  1.5316  1.5255
 3133SOL    HW221036   0.726   3.177   9.709  1.4654  0.3695  0.3080
 3134SOL     OW21037   0.244   2.135   7.316 -0.2534  0.3739  0.4081
 3134SOL    HW121038   0.292   2.215   7.297 -0.9386  0.6423 -0.1958
 3134SOL    HW221039   0.166   2.158   7.265  0.7934  0.3721 -1.2181
 3135SOL     OW21040   1.674   0.233   5.020 -0.1306 -0.3295 -0.4338
 3135SOL    HW121041   1.729   0.263   4.948 -0.1205 -0.4450 -0.4742
 3135SOL    HW221042   1.741   0.187   5.071  0.2314  0.6912  0.0215
 3136SOL     OW21043   3.438   3.307   8.495  0.2172  0.1256  0.4700
 3136SOL    HW121044   3.416   3.220   8.461  0.2314  1.7467 -3.7564
 3136SOL    HW221045   3.529   3.320   8.468 -0.0607  1.1856  0.0347
 3137SOL     OW21046   4.574   1.748   0.377  0.0012  0.2790  0.1586
 3137SOL    HW121047   4.548   1.825   0.429  1.8353  0.8646  0.2135
 3137SOL    HW221048   4.638   1.715   0.440 -0.7914  0.0066  0.8155
 3138SOL     OW21049   1.553   2.045   7.895 -0.9426 -0.5193  0.2091
 3138SOL    HW121050   1.550   2.140   7.906  0.1156 -0.5614  0.9371
 3138SOL    HW221051   1.590   2.044   7.807 -0.0414 -1.1026  0.5921
 3139SOL     OW21052   1.289   4.548   0.371  0.1477  0.0616  0.1096
 3139SOL    HW121053   1.280   4.616   0.305  2.1372 -1.0479 -1.2809
 3139SOL    HW221054   1.203   4.540   0.413 -0.1956  0.3718 -0.5354
 3140SOL     OW21055   0.524   2.914   9.410  0.1225  0.2608 -0.2549
 3140SOL    HW121056   0.531   2.821   9.432  0.7339  0.2301 -0.5938
 3140SOL    HW221057   0.455   2.930   9.345 -1.0782 -1.4819  0.6056
 3141SOL     OW21058   3.069   3.459  11.422  0.7680 -0.2360  0.3801
 3141SOL    HW121059   3.154   3.426  11.451  0.2916 -0.6885  1.2477
 3141SOL    HW221060   3.095   3.550  11.419 -0.8432  0.1891 -0.8375
 3142SOL     OW21061   4.541   1.778   9.340 -0.0928 -0.1168 -0.7812
 3142SOL    HW121062   4.590   1.843   9.390 -0.3048 -0.8675  0.3925
 3142SOL    HW221063   4.479   1.746   9.405  2.2102 -1.5484  0.7140
 3143SOL     OW21064   3.877   1.245   1.764 -0.1130 -0.4306 -0.3715
 3143SOL    HW121065   3.900   1.273   1.852 -0.5529 -1.6737  0.1400
 3143SOL    HW221066   3.783   1.258   1.755 -0.2888 -0.3171  1.5865
 3144SOL     OW21067   2.963   2.756   3.287  0.6081 -0.1987 -0.4473
 3144SOL    HW121068   2.945   2.847   3.264  0.2729 -0.1963 -0.1728
 3144SOL    HW221069   2.966   2.764   3.382 -1.7100 -4.0476 -0.0409
 3145SOL     OW21070   0.837   0.318   9.654 -0.9219 -0.0631  0.1017
 3145SOL    HW121071   0.832   0.228   9.685 -1.3416 -0.0201  0.1539
 3145SOL    HW221072   0.745   0.327   9.630 -1.8068 -0.6339  3.3735
 3146SOL     OW21073   3.152   4.232   5.101 -0.2361 -0.0830 -0.3763
 3146SOL    HW121074   3.139   4.186   5.018  1.4823 -0.7238 -0.2905
 3146SOL    HW221075   3.110   4.311   5.066  0.1209  1.3918  2.5283
 3147SOL     OW21076   1.220   1.260   6.802 -0.1214  0.1472 -0.3909
 3147SOL    HW121077   1.125   1.272   6.792 -0.1155  0.5400  0.0386
 3147SOL    HW221078   1.242   1.347   6.770  1.4902 -0.8058 -1.8582
 3148SOL     OW21079   2.651   3.010   4.244  0.2133 -0.6272 -0.2586
 3148SOL    HW121080   2.630   3.051   4.328 -1.0170  0.8526 -1.2987
 3148SOL    HW221081   2.573   2.957   4.227 -0.4786 -0.1924  1.5413
 3149SOL     OW21082   4.734   3.291  12.815 -0.4059 -0.6894  0.0291
 3149SOL    HW121083   4.708   3.290  12.908  0.3325  1.7203  0.2606
 3149SOL    HW221084   4.647   3.303  12.777  0.1535  0.5180 -0.8544
 3150SOL     OW21085   1.639   2.198   4.043  0.2446  0.4483  0.2346
 3150SOL    HW121086   1.623   2.119   3.991 -0.0151  0.3005  0.5426
 3150SOL    HW221087   1.585   2.242   3.977  0.0738  2.2906  1.6052
 3151SOL     OW21088   4.602   1.832  10.085 -0.0445  0.1262 -0.1845
 3151SOL    HW121089   4.551   1.759  10.121  1.6871 -1.4440 -0.8729
 3151SOL    HW221090   4.548   1.906  10.060 -1.8668 -2.0216 -2.5935
 3152SOL     OW21091   1.508   2.236   3.088 -0.0468  0.4180 -0.0411
 3152SOL    HW121092   1.475   2.319   3.120 -0.3549 -0.1316  1.0496
 3152SOL    HW221093   1.492   2.179   3.163  3.4969 -0.3440  0.1232
 3153SOL     OW21094   4.597   0.198   6.504  0.2906 -0.5545 -0.8545
 3153SOL    HW121095   4.640   0.115   6.485 -0.9234 -1.1989 -0.7435
 3153SOL    HW221096   4.670   0.260   6.512 -2.0401  2.2754 -1.2523
 3154SOL     OW21097   2.109   1.898   6.883  0.1585  0.2885 -0.1862
 3154SOL    HW121098   2.137   1.910   6.793  1.4149  3.1829  0.6103
 3154SOL    HW221099   2.045   1.827   6.870  0.2188  0.0317  0.8265
 3155SOL     OW21100   2.096   0.479   2.081  0.7848  0.2487 -0.6199
 3155SOL    HW121101   2.184   0.516   2.091  0.0362  1.4195  1.5320
 3155SOL    HW221102   2.101   0.436   2.166 -1.6106  0.1063 -0.5679
 3156SOL     OW21103   3.369   3.657  10.318 -0.3410 -0.0717  0.2316
 3156SOL    HW121104   3.375   3.615  10.232 -1.3545 -0.3757  0.3198
 3156SOL    HW221105   3.441   3.719  10.310 -0.0751 -0.4277 -0.1878
 3157SOL     OW21106   3.302   0.770  10.261 -0.1750 -0.3723  0.5871
 3157SOL    HW121107   3.363   0.813  10.201 -1.2712  1.5913  0.8667
 3157SOL    HW221108   3.226   0.760  10.204 -1.5852 -1.1875  2.6231
 3158SOL     OW21109   1.256   0.204   1.623 -0.3536  0.2779 -0.0491
 3158SOL    HW121110   1.176   0.235   1.667 -0.6995  1.9656 -1.8611
 3158SOL    HW221111   1.325   0.270   1.631  0.5598 -0.6449 -0.3681
 3159SOL     OW21112   3.686   2.498   4.636  0.0847 -0.3835  0.0975
 3159SOL    HW121113   3.682   2.517   4.730 -1.7079  0.2365 -0.1002
 3159SOL    HW221114   3.776   2.472   4.616 -0.1295 -0.2487 -1.0230
 3160SOL     OW21115   0.730   0.888   4.707  0.3965  0.0586 -0.2252
 3160SOL    HW121116   0.815   0.882   4.665 -0.9299  0.6787 -2.9780
 3160SOL    HW221117   0.758   0.957   4.767 -0.9586  2.0769 -1.9369
 3161SOL     OW21118   4.404   0.073   4.628 -0.0945 -0.0188 -0.5257
 3161SOL    HW121119   4.364   0.030   4.553  0.4669 -0.4225 -0.5927
 3161SOL    HW221120   4.490   0.031   4.623  0.3079  0.7868 -0.2671
 3162SOL     OW21121   0.517   0.595   6.460 -0.5636 -0.5182  0.3215
 3162SOL    HW121122   0.562   0.539   6.397 -0.8712  1.0099 -1.2758
 3162SOL    HW221123   0.518   0.533   6.532 -4.7667 -0.0768  0.7341
 3163SOL     OW21124   3.573   4.457   2.727 -0.0512 -0.0947 -0.0707
 3163SOL    HW121125   3.580   4.363   2.717  0.6935 -0.2164  1.7107
 3163SOL    HW221126   3.655   4.480   2.769 -0.9443 -1.2926  2.2845
 3164SOL     OW21127   2.249   2.102   2.133 -0.2686 -0.5160 -0.4156
 3164SOL    HW121128   2.266   2.023   2.082 -0.4874 -1.1053  0.4181
 3164SOL    HW221129   2.283   2.164   2.068 -1.8056 -0.7391 -1.4278
 3165SOL     OW21130   4.061   1.231  11.885  0.1893  0.0873  0.1685
 3165SOL    HW121131   3.986   1.172  11.896  2.0339 -1.9767  1.7206
 3165SOL    HW221132   4.122   1.158  11.870  0.7466  1.4613 -4.1293
 3166SOL     OW21133   2.501   3.066   2.711 -0.0732 -0.3669 -0.0425
 3166SOL    HW121134   2.465   3.122   2.780  2.0568  0.7323  0.2118
 3166SOL    HW221135   2.594   3.092   2.710 -0.4921  1.2025  2.2393
 3167SOL     OW21136   2.658   3.803   3.721  0.0064 -0.2532  0.4618
 3167SOL    HW121137   2.689   3.742   3.655 -0.3780  0.0266  0.0196
 3167SOL    HW221138   2.567   3.817   3.693 -0.4309 -0.9036  1.5459
 3168SOL     OW21139   1.690   3.805   8.331 -0.5666  0.1607 -0.1485
 3168SOL    HW121140   1.608   3.764   8.304  0.2453  0.8641 -3.6362
 3168SOL    HW221141   1.736   3.814   8.247  0.0330  0.1794  0.1809
 3169SOL     OW21142   0.361   4.084  12.529  0.2913  0.4004  0.3788
 3169SOL    HW121143   0.427   4.040  12.583  1.0490 -0.9906 -1.6594
 3169SOL    HW221144   0.370   4.170  12.568 -0.5889  0.8170 -0.3464
 3170SOL     OW21145   0.900   3.323   4.395 -0.3138  0.1446 -0.4320
 3170SOL    HW121146   0.937   3.408   4.420 -0.9287  0.0230  0.9000
 3170SOL    HW221147   0.978   3.268   4.389 -0.6397 -0.4169  0.4283
 3171SOL     OW21148   2.967   0.826   5.572 -0.6157 -0.4137 -0.2432
 3171SOL    HW121149   2.938   0.854   5.485 -1.8323  2.9344  1.2338
 3171SOL    HW221150   2.918   0.745   5.560  1.1130 -2.0546  3.7956
 3172SOL     OW21151   2.012   2.238   8.034 -0.2595 -0.4328  0.3544
 3172SOL    HW121152   1.980   2.317   7.991 -1.4015 -1.5674 -0.8322
 3172SOL    HW221153   1.986   2.172   7.971  0.6704  0.2677 -0.7640
 3173SOL     OW21154   0.539   3.898  12.638 -0.3154  0.5040  0.1804
 3173SOL    HW121155   0.519   3.807  12.657  0.6234  0.6303  1.8205
 3173SOL    HW221156   0.589   3.889  12.557  0.6542  0.3098  0.7935
 3174SOL     OW21157   2.063   1.890   4.802  0.2148  0.0853 -0.0068
 3174SOL    HW121158   2.101   1.871   4.887 -0.4195  3.6125  1.0203
 3174SOL    HW221159   1.981   1.841   4.807 -0.9871  2.2380  1.0630
 3175SOL     OW21160   2.378   4.727  12.541 -0.0741  0.3622  0.4611
 3175SOL    HW121161   2.308   0.053  12.527  0.5276  1.2564  1.4548
 3175SOL    HW221162   2.440   0.021  12.608  0.5395  2.0830 -0.9008
 3176SOL     OW21163   2.460   2.939   5.779 -0.1354 -0.3917  0.6019
 3176SOL    HW121164   2.472   2.849   5.810  1.1352 -0.2206  0.5997
 3176SOL    HW221165   2.392   2.977   5.835 -0.4781  1.8930 -1.3507
 3177SOL     OW21166   1.491   2.813   9.308 -0.0080 -0.0804 -0.4730
 3177SOL    HW121167   1.570   2.760   9.313 -0.1832 -0.4381 -1.5614
 3177SOL    HW221168   1.502   2.891   9.362 -1.0786  1.3032 -2.2271
 3178SOL     OW21169   2.077   1.345   0.039  0.0498  0.2127  0.6881
 3178SOL    HW121170   2.117   1.261   0.060 -1.5674 -0.5770  0.5424
 3178SOL    HW221171   1.992   1.321   0.003 -0.3195  0.4066  1.4292
 3179SOL     OW21172   4.166   1.101   5.305  0.1607 -0.4202  0.5718
 3179SOL    HW121173   4.114   1.034   5.350 -1.0582 -1.0088 -1.7082
 3179SOL    HW221174   4.244   1.093   5.359 -0.6697 -1.0683  1.6907
 3180SOL     OW21175   1.494   4.182   8.067 -0.0840  0.1087 -0.0206
 3180SOL    HW121176   1.532   4.144   8.147 -1.3088 -0.5776  0.2437
 3180SOL    HW221177   1.421   4.120   8.066  0.8275 -0.9548 -0.9406
 3181SOL     OW21178   1.509   1.341   4.561  0.0721 -0.0130 -0.4390
 3181SOL    HW121179   1.603   1.358   4.561  0.1679 -0.4715  2.5860
 3181SOL    HW221180   1.489   1.403   4.491  0.5921 -0.2041 -0.7528
 3182SOL     OW21181   0.460   2.027  15.399  0.0149  0.0967  1.0553
 3182SOL    HW121182   0.458   1.988  15.312 -0.9895 -0.1916  1.1957
 3182SOL    HW221183   0.555   2.036  15.404  0.0678  1.0527 -2.0987
 3183SOL     OW21184   0.503   2.790   5.988  0.2591  0.5142 -0.2149
 3183SOL    HW121185   0.409   2.771   5.984  0.0010  2.0503 -1.1365
 3183SOL    HW221186   0.503   2.864   5.927  0.7021 -1.0304 -2.0768
 3184SOL     OW21187   0.529   1.620  16.879 -0.4952 -0.1641  0.3238
 3184SOL    HW121188   0.437   1.634  16.899  0.0761  2.5915  1.0902
 3184SOL    HW221189   0.579   1.650  16.955 -2.0812  0.1011  1.2527
 3185SOL     OW21190   0.514   2.735   4.733 -0.1283  0.5895 -0.2027
 3185SOL    HW121191   0.456   2.681   4.679 -0.6388 -0.7992  1.7106
 3185SOL    HW221192   0.450   2.768   4.796  0.3536 -0.8820  1.0646
 3186SOL     OW21193   3.000   4.265   1.727 -0.4351  0.5450  0.2032
 3186SOL    HW121194   2.914   4.271   1.770  0.0199  2.7513  0.8062
 3186SOL    HW221195   2.999   4.353   1.689 -0.5322  1.1464  1.5838
 3187SOL     OW21196   0.337   0.632   9.707  0.3504 -0.1880  0.4797
 3187SOL    HW121197   0.365   0.691   9.777 -0.8452 -0.5823  1.2918
 3187SOL    HW221198   0.251   0.671   9.692  1.5732  2.0278 -0.7464
 3188SOL     OW21199   1.398   2.578   9.149 -0.4584  0.2256  0.2598
 3188SOL    HW121200   1.417   2.656   9.200  2.9164  0.2412 -0.9903
 3188SOL    HW221201   1.382   2.526   9.228 -1.0079 -1.8100 -1.1692
 3189SOL     OW21202   4.277   0.845   5.925  0.4784  0.1942  0.1096
 3189SOL    HW121203   4.187   0.817   5.910  0.4754  2.2522 -3.5502
 3189SOL    HW221204   4.316   0.778   5.982 -0.9286  1.1492  2.1988
 3190SOL     OW21205   2.081   0.606  15.654 -0.4142  0.0562  0.0571
 3190SOL    HW121206   2.168   0.639  15.678 -0.5418  1.1921 -1.1079
 3190SOL    HW221207   2.102   0.601  15.561 -1.8967 -1.0946 -0.2229
 3191SOL     OW21208   4.175   0.537   0.943 -0.2586 -0.5001 -0.5148
 3191SOL    HW121209   4.118   0.491   0.882 -0.6232 -0.1596 -0.4312
 3191SOL    HW221210   4.205   0.605   0.882 -2.7018 -0.1689 -1.3477
 3192SOL     OW21211   2.082   3.999   1.552  0.3645  0.1086 -0.1097
 3192SOL    HW121212   2.169   4.018   1.518  0.0028  0.6984 -0.7101
 3192SOL    HW221213   2.088   3.907   1.578  1.2695  0.3774  0.6408
 3193SOL     OW21214   1.268   2.167   7.649 -0.2342 -0.2453  0.0383
 3193SOL    HW121215   1.228   2.148   7.734 -0.8561 -1.2237 -0.4658
 3193SOL    HW221216   1.253   2.261   7.643  0.5340 -0.2336 -1.6114
 3194SOL     OW21217   1.257   2.402   2.082 -0.4276  0.3638 -0.0247
 3194SOL    HW121218   1.304   2.479   2.112  0.2508 -1.0580  2.5974
 3194SOL    HW221219   1.169   2.441   2.078 -0.3325  0.6788  1.0103
 3195SOL     OW21220   0.218   3.503   5.171  0.3433 -0.2113  0.5770
 3195SOL    HW121221   0.256   3.516   5.258  3.0835  3.1256 -1.0800
 3195SOL    HW221222   0.139   3.459   5.202  0.1423  0.9507  1.6724
 3196SOL     OW21223   4.658   4.490   6.888 -0.2746  0.1697 -0.2291
 3196SOL    HW121224   4.689   4.490   6.797 -0.1490 -0.3193 -0.1905
 3196SOL    HW221225   4.577   4.438   6.881  0.8336 -1.5170 -0.6888
 3197SOL     OW21226   1.067   1.385  10.764  0.0064  0.1243  0.8906
 3197SOL    HW121227   1.108   1.299  10.767 -1.7917 -0.7006  1.5850
 3197SOL    HW221228   1.053   1.390  10.669 -0.1323  0.8008  0.9487
 3198SOL     OW21229   4.037   0.740   5.716 -0.2578 -0.0669  0.3049
 3198SOL    HW121230   4.082   0.669   5.762  1.8244  0.3152 -1.1410
 3198SOL    HW221231   3.944   0.717   5.724 -0.2836  0.4242  1.3493
 3199SOL     OW21232   1.127   0.412   7.750 -0.2996 -0.0577  0.3586
 3199SOL    HW121233   1.087   0.388   7.667 -0.1948 -2.1473  0.9152
 3199SOL    HW221234   1.165   0.328   7.776 -0.7760  0.1322  1.6534
 3200SOL     OW21235   3.443   4.629   8.466 -0.4497  0.3253  0.2820
 3200SOL    HW121236   3.410   4.543   8.439  0.6167  0.3695 -1.1901
 3200SOL    HW221237   3.367   4.675   8.432 -0.4464 -0.0419 -0.2320
 3201SOL     OW21238   1.246   3.895   5.811  0.0200  0.7246  0.6305
 3201SOL    HW121239   1.288   3.809   5.813  0.6533  1.0825  3.4530
 3201SOL    HW221240   1.311   3.964   5.823  0.6226 -0.1464  2.5116
 3202SOL     OW21241   4.400   0.355   6.572 -0.1920 -0.2273  0.1210
 3202SOL    HW121242   4.469   0.291   6.561  1.3197  1.3684  0.3561
 3202SOL    HW221243   4.444   0.438   6.558  2.1006 -1.9202 -2.5038
 3203SOL     OW21244   3.702   1.526  15.560 -0.3904  0.1887  0.0957
 3203SOL    HW121245   3.683   1.615  15.592  0.5925 -0.4348  2.4715
 3203SOL    HW221246   3.770   1.560  15.502 -0.5664  2.4563  1.2169
 3204SOL     OW21247   4.264   1.461   0.424 -0.2357 -0.0706 -0.4531
 3204SOL    HW121248   4.310   1.378   0.435 -1.1446 -0.3940  0.8860
 3204SOL    HW221249   4.192   1.444   0.363 -0.2635 -1.2048 -0.0989
 3205SOL     OW21250   0.007   3.978  12.153  0.1775  0.0742  0.0256
 3205SOL    HW121251   0.064   3.993  12.077  0.5744  0.3585  0.3746
 3205SOL    HW221252   0.072   3.979  12.224 -1.2011  0.9116  1.2615
 3206SOL     OW21253   2.876   4.223   2.533 -0.2621 -0.0707 -0.5480
 3206SOL    HW121254   2.864   4.315   2.513  0.0820  0.6959  2.6480
 3206SOL    HW221255   2.808   4.171   2.490 -1.0230  1.0278 -0.6761
 3207SOL     OW21256   2.627   0.233   4.737 -0.6641  0.3108  0.0471
 3207SOL    HW121257   2.627   0.153   4.685  1.0142 -0.1064  0.6805
 3207SOL    HW221258   2.709   0.221   4.786 -2.4266 -1.6329  2.5677
 3208SOL     OW21259   1.900   3.891  14.746  0.0303  0.6907  0.2810
 3208SOL    HW121260   1.902   3.831  14.821 -0.7494 -3.0071 -2.6915
 3208SOL    HW221261   1.985   3.876  14.704 -0.4567  1.0512 -0.8335
 3209SOL     OW21262   1.636   4.225   7.098  0.4433 -0.4553 -0.9978
 3209SOL    HW121263   1.550   4.229   7.142 -0.5896 -2.0917 -2.9075
 3209SOL    HW221264   1.639   4.134   7.069  2.1024 -0.8532  0.4378
 3210SOL     OW21265   3.432   0.992   4.712 -0.1721 -0.1632 -0.5362
 3210SOL    HW121266   3.355   0.997   4.770  0.7040  1.5345  0.4771
 3210SOL    HW221267   3.487   1.057   4.755 -0.8060  0.9267 -1.3605
 3211SOL     OW21268   4.274   4.482   2.675 -0.1460 -0.0497 -0.2259
 3211SOL    HW121269   4.183   4.471   2.648 -0.7374 -0.5132  1.9826
 3211SOL    HW221270   4.256   4.529   2.756 -0.3912 -0.4587 -0.0439
 3212SOL     OW21271   2.000   3.219   1.692 -0.5807  0.2438  0.0810
 3212SOL    HW121272   1.979   3.303   1.734 -0.6138  0.3812 -0.2115
 3212SOL    HW221273   1.922   3.204   1.638  0.3226 -0.1307 -1.1105
 3213SOL     OW21274   0.477   2.972   4.080  0.1368  0.1549 -0.0110
 3213SOL    HW121275   0.464   2.978   4.175 -3.2279 -0.3894 -0.4668
 3213SOL    HW221276   0.420   3.042   4.048  0.9621  0.3300 -1.0999
 3214SOL     OW21277   2.782   3.312   2.181  0.0875 -0.2961 -0.2403
 3214SOL    HW121278   2.803   3.312   2.274  0.1597  3.0586 -0.2845
 3214SOL    HW221279   2.701   3.261   2.180 -1.3482  1.9538  1.8892
 3215SOL     OW21280   0.249   2.886   8.352  0.5452  0.1501 -0.2053
 3215SOL    HW121281   0.196   2.807   8.367  0.4958  0.1124 -0.5662
 3215SOL    HW221282   0.309   2.858   8.282  0.7712 -0.7985  0.3664
 3216SOL     OW21283   3.063   0.536   2.024 -0.1322  0.3471 -0.1953
 3216SOL    HW121284   3.087   0.622   1.988 -0.8396  0.1750 -1.0580
 3216SOL    HW221285   3.035   0.550   2.115 -1.8665  2.0320 -0.9924
 3217SOL     OW21286   2.781   4.460   6.958  0.1276  0.0271  0.2726
 3217SOL    HW121287   2.835   4.539   6.964 -0.7442  0.8205 -2.3150
 3217SOL    HW221288   2.692   4.495   6.969 -0.4110 -0.8260 -1.4551
 3218SOL     OW21289   2.290   4.499   5.267  0.3495 -0.3828  0.2941
 3218SOL    HW121290   2.350   4.525   5.197  0.7447 -1.8877  0.0688
 3218SOL    HW221291   2.298   4.566   5.335  0.7202 -0.3781  0.2432
 3219SOL     OW21292   0.336   0.537   7.843 -0.7484 -0.1065 -0.1217
 3219SOL    HW121293   0.399   0.493   7.901 -0.4254 -1.6434 -1.6713
 3219SOL    HW221294   0.265   0.474   7.852 -1.9409  1.4302  1.4561
 3220SOL     OW21295   4.528   1.436   1.730 -0.3238  0.3409 -0.0785
 3220SOL    HW121296   4.449   1.470   1.688  0.4402 -0.2880 -2.0489
 3220SOL    HW221297   4.585   1.421   1.654  0.4193 -1.1304  0.7711
 3221SOL     OW21298   1.635   4.411  13.308  0.3934 -0.3396  0.1398
 3221SOL    HW121299   1.682   4.331  13.332  2.4837  0.9351  0.3563
 3221SOL    HW221300   1.552   4.393  13.351 -0.4542 -0.1115 -1.3997
 3222SOL     OW21301   2.129   0.174   0.507  0.1178  0.6523 -0.3684
 3222SOL    HW121302   2.206   0.117   0.512 -1.5349 -1.4863  0.9293
 3222SOL    HW221303   2.061   0.108   0.520  1.1488 -0.8688 -2.6911
 3223SOL     OW21304   1.956   2.634   6.480 -0.0853 -0.4073 -0.5271
 3223SOL    HW121305   1.999   2.704   6.431 -1.0481 -0.0258 -0.8315
 3223SOL    HW221306   1.865   2.664   6.483  0.2416  0.9077 -3.9968
 3224SOL     OW21307   3.323   3.155  14.490 -0.3006  0.4309  0.0986
 3224SOL    HW121308   3.394   3.146  14.426  1.9399  2.2821  2.2692
 3224SOL    HW221309   3.335   3.069  14.530  2.0456  1.1748  1.0555
 3225SOL     OW21310   3.325   2.549   6.635 -0.3624 -0.1368  0.5535
 3225SOL    HW121311   3.382   2.614   6.675  1.1716 -1.9133  1.2602
 3225SOL    HW221312   3.379   2.527   6.558  0.2442  1.7088  0.4656
 3226SOL     OW21313   1.094   3.940   2.412 -0.1410 -0.3827 -0.3247
 3226SOL    HW121314   1.146   4.004   2.363 -0.7805  0.2066 -0.2426
 3226SOL    HW221315   1.156   3.898   2.472 -0.0786  0.2741  0.0760
 3227SOL     OW21316   0.213   1.438  14.789 -0.1546 -0.2222  0.0831
 3227SOL    HW121317   0.309   1.436  14.785 -0.0539  1.9464  1.1280
 3227SOL    HW221318   0.182   1.412  14.702 -2.0632  0.0026  0.6907
 3228SOL     OW21319   0.294   0.972   6.881  0.1922  0.4419 -0.5237
 3228SOL    HW121320   0.326   0.884   6.858  0.1274  0.1726  0.4057
 3228SOL    HW221321   0.302   0.979   6.976 -2.4206  2.6491 -0.4944
 3229SOL     OW21322   1.305   0.414   8.172  0.3425 -0.1876  0.0393
 3229SOL    HW121323   1.364   0.379   8.105 -0.2465 -1.5810  0.2329
 3229SOL    HW221324   1.296   0.335   8.225 -0.8037  1.8050  2.7800
 3230SOL     OW21325   0.952   1.807   2.319  0.3527  0.7487 -0.8084
 3230SOL    HW121326   1.042   1.787   2.292 -0.1556 -1.4959 -0.8626
 3230SOL    HW221327   0.955   1.901   2.336  3.0845  0.4124  0.4836
 3231SOL     OW21328   4.418   2.157   1.858 -0.8203  0.8732 -0.2674
 3231SOL    HW121329   4.380   2.234   1.901  1.9246  1.8338  0.4363
 3231SOL    HW221330   4.349   2.128   1.798  0.0863 -0.8234 -0.4793
 3232SOL     OW21331   2.600   2.049  12.052 -0.2080  0.2234 -0.0895
 3232SOL    HW121332   2.618   2.139  12.026 -0.9875  0.2748 -0.4284
 3232SOL    HW221333   2.509   2.041  12.024 -0.0135 -1.5900 -0.2304
 3233SOL     OW21334   4.054   3.035   9.644 -0.2220 -0.2219 -0.1150
 3233SOL    HW121335   4.111   3.023   9.568  1.5200  1.3164  0.9480
 3233SOL    HW221336   3.974   2.996   9.609  1.5306 -2.7098 -1.3654
 3234SOL     OW21337   3.881   2.777   3.934  0.2558 -0.5910  0.2244
 3234SOL    HW121338   3.876   2.865   3.898  0.0098  0.1847  2.1332
 3234SOL    HW221339   3.792   2.741   3.935 -0.4911  1.2632 -0.1307
 3235SOL     OW21340   1.953   4.023   4.506 -0.1126 -0.4065  0.4967
 3235SOL    HW121341   2.018   3.955   4.524  1.8130  1.4824  0.6161
 3235SOL    HW221342   1.926   3.988   4.421  1.1441 -0.3128  0.0584
 3236SOL     OW21343   1.493   3.186   2.411 -0.3922 -0.6257  0.2772
 3236SOL    HW121344   1.467   3.237   2.335 -0.1358  0.2719  0.7944
 3236SOL    HW221345   1.435   3.110   2.402 -0.8047 -0.4453  1.5089
 3237SOL     OW21346   3.301   3.561   3.978 -0.4315  0.4164  0.6009
 3237SOL    HW121347   3.220   3.535   3.935  1.2934  0.2078 -2.4920
 3237SOL    HW221348   3.276   3.550   4.070  0.6002  2.6849  1.1542
 3238SOL     OW21349   1.791   3.878   2.256 -0.4209 -0.0225 -0.4899
 3238SOL    HW121350   1.803   3.799   2.203 -1.2889 -0.3753 -0.1534
 3238SOL    HW221351   1.766   3.844   2.342  1.8357  1.6903  0.8504
 3239SOL     OW21352   1.436   0.063   9.016 -0.2147 -0.0318  0.1496
 3239SOL    HW121353   1.459   4.707   9.028  1.5897  0.5696  1.3229
 3239SOL    HW221354   1.346   0.058   8.984 -0.3967 -0.4287  0.7077
 3240SOL     OW21355   1.871   3.928   4.799  0.3382 -0.3682  0.1478
 3240SOL    HW121356   1.942   3.882   4.755 -0.3121 -0.2413 -1.0140
 3240SOL    HW221357   1.873   3.879   4.881 -2.0525 -1.5188 -0.5088
 3241SOL     OW21358   3.723   3.871   7.355  0.1112 -0.1159  0.0974
 3241SOL    HW121359   3.678   3.787   7.361  0.6106 -0.4154 -0.3399
 3241SOL    HW221360   3.649   3.921   7.387 -0.0958 -0.8941  0.8369
 3242SOL     OW21361   2.854   0.395   2.731  0.0804 -0.5317 -0.3120
 3242SOL    HW121362   2.857   0.299   2.736  1.8599 -0.4418  0.3606
 3242SOL    HW221363   2.947   0.416   2.739  0.0136  0.0690 -1.1466
 3243SOL     OW21364   3.490   0.672  14.148 -0.5017  0.1144  0.4329
 3243SOL    HW121365   3.568   0.723  14.168 -1.2690  0.6558  1.9756
 3243SOL    HW221366   3.451   0.728  14.080  1.1923 -1.5451 -1.8958
 3244SOL     OW21367   1.302   0.234   6.170  0.5557 -0.2974 -0.0876
 3244SOL    HW121368   1.395   0.215   6.159  0.8497  1.4893 -0.6018
 3244SOL    HW221369   1.287   0.273   6.084 -0.9600 -1.3183 -0.2837
 3245SOL     OW21370   2.997   0.627   8.105 -0.2351 -0.1316  0.1459
 3245SOL    HW121371   3.069   0.621   8.167 -0.3313  1.1154  0.3679
 3245SOL    HW221372   2.940   0.689   8.150 -1.2718 -1.1897  0.3131
 3246SOL     OW21373   2.960   2.541   5.839  0.1391 -0.4583  0.2207
 3246SOL    HW121374   2.914   2.495   5.910  2.6067 -2.7704  0.2962
 3246SOL    HW221375   2.887   2.586   5.796 -0.0883  0.8086  1.9009
 3247SOL     OW21376   0.866   1.726   4.302  0.3340  0.3384  0.0751
 3247SOL    HW121377   0.808   1.650   4.301  0.9704 -0.1471 -0.0772
 3247SOL    HW221378   0.861   1.753   4.210  4.3811 -0.0540 -0.2634
 3248SOL     OW21379   0.413   4.317  10.522  0.3098 -0.3176 -0.1465
 3248SOL    HW121380   0.393   4.379  10.592 -1.3057  0.0887 -0.9619
 3248SOL    HW221381   0.328   4.289  10.488 -0.9699 -0.4752  3.1358
 3249SOL     OW21382   0.129   2.487  11.494  0.4176  0.8853  0.0353
 3249SOL    HW121383   0.150   2.580  11.501  0.1785  0.9940 -0.6489
 3249SOL    HW221384   0.047   2.476  11.542  0.5211 -2.2743 -0.5482
 3250SOL     OW21385   2.990   4.355  16.948 -0.2229 -0.0852  0.6855
 3250SOL    HW121386   2.976   4.299  17.024  2.1695 -0.4402  0.8626
 3250SOL    HW221387   3.085   4.366  16.942 -0.3373  1.6309  1.8718
 3251SOL     OW21388   3.383   4.380   8.162  0.5581  0.0681 -0.5935
 3251SOL    HW121389   3.338   4.395   8.245 -0.2717  0.2240 -1.0736
 3251SOL    HW221390   3.330   4.441   8.111 -1.1007  1.3065  2.5631
 3252SOL     OW21391   1.786   0.056   2.493  0.2996  0.5600  0.5956
 3252SOL    HW121392   1.829   0.085   2.574 -2.6598  0.2588  2.2525
 3252SOL    HW221393   1.850   4.730   2.461 -0.7209 -1.0579  1.7475
 3253SOL     OW21394   4.447   3.864   6.862 -0.8213 -0.4202  0.0835
 3253SOL    HW121395   4.379   3.870   6.929 -0.2467  2.7315  0.3692
 3253SOL    HW221396   4.393   3.883   6.785 -0.4053  3.6802  0.8041
 3254SOL     OW21397   0.100   1.448   7.457 -0.2661 -0.0280 -0.1259
 3254SOL    HW121398   0.166   1.461   7.525 -0.7403  0.9089  0.1606
 3254SOL    HW221399   0.135   1.364   7.427  1.2632 -0.7025  3.4574
 3255SOL     OW21400   4.191   0.346   3.616  0.4992  0.1628  0.3598
 3255SOL    HW121401   4.186   0.260   3.658 -1.7739 -0.2910 -0.8145
 3255SOL    HW221402   4.282   0.369   3.632  0.3637  0.7663  0.2647
 3256SOL     OW21403   1.720   3.540   3.155 -0.5129 -0.5432 -0.6822
 3256SOL    HW121404   1.750   3.556   3.244 -1.8324  1.9649 -0.6907
 3256SOL    HW221405   1.635   3.584   3.154 -0.0475  0.3935 -0.0479
 3257SOL     OW21406   1.219   0.661   7.799 -0.0450 -0.2925 -0.0503
 3257SOL    HW121407   1.197   0.578   7.758  0.4545 -1.8780  2.9302
 3257SOL    HW221408   1.138   0.690   7.841 -0.5130  0.4437 -1.4643
 3258SOL     OW21409   2.364   3.520   7.579 -0.2067  0.0656  0.6339
 3258SOL    HW121410   2.328   3.521   7.490  1.4890 -0.5977 -0.0678
 3258SOL    HW221411   2.421   3.443   7.585  0.9518  0.9354  0.8067
 3259SOL     OW21412   2.726   1.548   2.265  0.1899 -0.3192 -0.9881
 3259SOL    HW121413   2.720   1.593   2.349  0.7838 -3.4414  0.7272
 3259SOL    HW221414   2.759   1.619   2.210 -0.6491  1.4778  0.8226
 3260SOL     OW21415   0.527   3.839  14.169  0.2172  0.2369 -0.7057
 3260SOL    HW121416   0.491   3.794  14.093 -1.1982 -1.0521  0.7357
 3260SOL    HW221417   0.453   3.825  14.227  1.0095 -2.7643 -0.3990
 3261SOL     OW21418   1.002   3.680   4.906  0.1711  0.1912  0.2138
 3261SOL    HW121419   0.969   3.763   4.940 -0.3928  0.1910 -0.3188
 3261SOL    HW221420   0.992   3.622   4.981 -0.0207 -0.4769 -0.3297
 3262SOL     OW21421   4.621   3.432   5.819 -0.0355 -0.8097 -0.6057
 3262SOL    HW121422   4.713   3.459   5.825 -0.5198  0.7521 -0.3554
 3262SOL    HW221423   4.605   3.416   5.726 -2.1371  0.4414 -0.4657
 3263SOL     OW21424   3.620   0.336   6.849  0.2657  0.4546 -0.0797
 3263SOL    HW121425   3.578   0.401   6.792  0.9076 -0.1188 -1.1974
 3263SOL    HW221426   3.669   0.396   6.905  0.1562  0.3754  0.1013
 3264SOL     OW21427   2.170   1.716   2.100 -0.2735  0.0075 -0.3333
 3264SOL    HW121428   2.224   1.787   2.065  0.7612 -0.8563 -0.4673
 3264SOL    HW221429   2.090   1.731   2.050  0.5119 -0.8021 -1.8170
 3265SOL     OW21430   1.993   2.952   1.747  0.1128  0.3097  0.0261
 3265SOL    HW121431   1.939   2.980   1.822  0.2383 -1.4773  0.7894
 3265SOL    HW221432   2.015   3.041   1.721  1.2844  0.1863  0.6070
 3266SOL     OW21433   4.396   1.402   1.115 -0.1219  0.4207  0.3030
 3266SOL    HW121434   4.481   1.361   1.131 -0.5726  0.2837  2.2971
 3266SOL    HW221435   4.334   1.345   1.159  0.5909 -0.0958  0.6388
 3267SOL     OW21436   3.697   3.829   8.383 -0.0404  0.2740  0.3299
 3267SOL    HW121437   3.605   3.845   8.403 -0.2429 -2.2816  1.4438
 3267SOL    HW221438   3.698   3.861   8.293 -0.0927 -1.9269 -0.4407
 3268SOL     OW21439   3.541   4.565   4.743 -0.2955 -0.5452  0.4370
 3268SOL    HW121440   3.493   4.646   4.727  0.3150 -0.1243  0.7052
 3268SOL    HW221441   3.472   4.507   4.773 -1.0061  0.0766 -0.0000
 3269SOL     OW21442   2.949   1.797   7.029  0.5827 -0.4493 -0.0208
 3269SOL    HW121443   2.950   1.817   6.935  0.1399 -2.1300 -0.3977
 3269SOL    HW221444   3.043   1.784   7.040  0.8544  0.3381 -1.3619
 3270SOL     OW21445   3.763   4.364   6.673 -0.2970 -0.2932  0.5543
 3270SOL    HW121446   3.849   4.388   6.638 -1.9020  3.1525 -0.9839
 3270SOL    HW221447   3.782   4.278   6.711  0.9510 -0.0345  0.5289
 3271SOL     OW21448   1.441   2.365   7.512 -0.0273  0.2903 -0.6242
 3271SOL    HW121449   1.367   2.364   7.451 -0.7607  1.8370  0.2448
 3271SOL    HW221450   1.409   2.430   7.575 -0.5233 -0.5523 -0.0023
 3272SOL     OW21451   1.038   2.077   3.015  0.4400 -0.6656  0.3402
 3272SOL    HW121452   0.967   2.115   2.962  0.7052 -0.1288  0.3695
 3272SOL    HW221453   1.004   2.067   3.104 -1.4538 -0.9389 -0.4199
 3273SOL     OW21454   3.276   4.201  16.621  0.1752 -0.0836  0.7373
 3273SOL    HW121455   3.332   4.151  16.562  0.7108 -0.2886  1.4109
 3273SOL    HW221456   3.237   4.128  16.669  0.2859 -0.1969  0.6531
 3274SOL     OW21457   1.618   3.010   5.359  0.2461 -0.1132 -0.1780
 3274SOL    HW121458   1.662   3.081   5.311 -1.3615  1.9287  1.4037
 3274SOL    HW221459   1.682   2.999   5.430  0.3252 -0.5858 -0.3190
 3275SOL     OW21460   3.560   1.087   9.008 -0.5449  0.3935  0.5556
 3275SOL    HW121461   3.478   1.041   8.991  0.3648 -0.7105 -0.8685
 3275SOL    HW221462   3.538   1.174   8.974 -1.9047  0.1775  0.8795
 3276SOL     OW21463   2.215   2.241   4.014 -0.2328  0.3930  0.0259
 3276SOL    HW121464   2.229   2.277   3.926 -2.4107  2.0520  0.3591
 3276SOL    HW221465   2.136   2.189   4.005 -0.7472  1.2532 -0.4129
 3277SOL     OW21466   3.425   1.775   1.402 -0.1020 -0.6495  0.0267
 3277SOL    HW121467   3.473   1.846   1.446  1.7391  0.3403 -3.5640
 3277SOL    HW221468   3.335   1.806   1.414  0.4986  0.9703  0.4309
 3278SOL     OW21469   2.932   3.603   1.907  0.2977 -0.1296  0.3875
 3278SOL    HW121470   2.951   3.664   1.978  1.3598 -2.3165  1.9782
 3278SOL    HW221471   2.872   3.654   1.852  3.4876  2.9717 -0.2465
 3279SOL     OW21472   0.779   2.512   5.728  0.1874  0.4447 -0.2926
 3279SOL    HW121473   0.789   2.607   5.724 -0.5156  0.6117  1.9443
 3279SOL    HW221474   0.759   2.494   5.820  2.9202  2.4682  0.6945
 3280SOL     OW21475   2.252   3.322   2.481 -0.2907 -0.5403 -0.1076
 3280SOL    HW121476   2.224   3.235   2.507 -3.1567  0.9137  1.6735
 3280SOL    HW221477   2.215   3.328   2.394 -1.8996  1.9270  0.7460
 3281SOL     OW21478   1.650   1.660   3.498  0.3650 -0.3232 -0.2408
 3281SOL    HW121479   1.656   1.644   3.404 -1.7524  1.2484 -0.6430
 3281SOL    HW221480   1.680   1.751   3.504  1.4256 -0.7568  0.9211
 3282SOL     OW21481   4.665   1.727  10.515  0.5664 -0.1497 -0.2954
 3282SOL    HW121482   4.669   1.677  10.597 -4.3162 -0.3054 -0.1598
 3282SOL    HW221483   4.705   1.810  10.539 -1.5129  0.9063 -0.4461
 3283SOL     OW21484   3.810   1.217   7.617  0.2917  0.2666  0.4504
 3283SOL    HW121485   3.811   1.254   7.529  0.4791 -0.6657  0.0584
 3283SOL    HW221486   3.735   1.160   7.600  0.7683 -0.3808  0.5203
 3284SOL     OW21487   2.844   3.998   3.524  0.1610  0.3372  0.1208
 3284SOL    HW121488   2.811   3.993   3.434 -2.1479 -0.4613  1.0251
 3284SOL    HW221489   2.796   3.925   3.562 -0.0595 -0.1756 -1.1230
 3285SOL     OW21490   0.573   3.527   4.591  0.0189 -0.1297  0.1510
 3285SOL    HW121491   0.653   3.487   4.626  0.6052  0.5871 -0.3510
 3285SOL    HW221492   0.612   3.602   4.545 -1.1131  0.4167  0.0726
 3286SOL     OW21493   4.715   1.637   0.673 -0.2030  0.1837  0.1311
 3286SOL    HW121494   0.029   1.712   0.643  0.9811 -1.4644 -1.9649
 3286SOL    HW221495   0.047   1.574   0.693 -0.3500  0.1178  0.4261
 3287SOL     OW21496   0.620   3.923   6.271  0.4844  0.3043 -0.5612
 3287SOL    HW121497   0.711   3.951   6.260 -0.5410  2.8276 -2.4615
 3287SOL    HW221498   0.615   3.855   6.203  1.3686  0.2499 -0.5746
 3288SOL     OW21499   0.795   2.718   1.913  0.2112 -0.2645 -0.3067
 3288SOL    HW121500   0.740   2.759   1.980 -0.2385 -0.1445 -0.7452
 3288SOL    HW221501   0.728   2.672   1.862 -0.8364  0.5510  0.3151
 3289SOL     OW21502   2.695   3.364   2.488  0.4350 -0.0448  1.0900
 3289SOL    HW121503   2.750   3.295   2.527  0.5123  0.2967  1.5778
 3289SOL    HW221504   2.630   3.317   2.436  2.1599 -1.4149  0.1606
 3290SOL     OW21505   2.031   3.071  15.898  0.6177  0.1571 -0.0027
 3290SOL    HW121506   2.126   3.065  15.892  0.5867  0.4347 -0.7965
 3290SOL    HW221507   2.009   2.978  15.908 -1.6132  0.4677 -2.0658
 3291SOL     OW21508   3.676   4.558   6.833 -0.1839 -0.4621 -0.0110
 3291SOL    HW121509   3.666   4.500   6.908  0.1875 -0.7163 -0.1610
 3291SOL    HW221510   3.690   4.491   6.766 -0.8642 -1.7752  1.1587
 3292SOL     OW21511   4.382   2.900   2.148 -0.2017  0.2427 -0.7510
 3292SOL    HW121512   4.307   2.959   2.154 -0.9232 -0.4508 -3.2587
 3292SOL    HW221513   4.457   2.960   2.153  0.5211 -0.6484 -1.0116
 3293SOL     OW21514   2.046   2.105  14.758 -0.4872  0.5114 -0.1361
 3293SOL    HW121515   2.042   2.036  14.824  0.0381  0.6066 -0.0050
 3293SOL    HW221516   2.130   2.137  14.789 -0.4205 -0.4697  0.6778
 3294SOL     OW21517   1.839   3.288   7.979 -0.2732 -0.1567 -0.0326
 3294SOL    HW121518   1.782   3.340   8.035  0.8880 -2.2519  3.0536
 3294SOL    HW221519   1.854   3.346   7.904 -0.9980  0.3830  0.2409
 3295SOL     OW21520   1.572   2.677  12.007 -0.1841 -0.1143 -0.1817
 3295SOL    HW121521   1.552   2.709  11.919  1.3856 -1.8602 -1.1638
 3295SOL    HW221522   1.542   2.752  12.060 -0.3554  1.2226 -2.1736
 3296SOL     OW21523   3.691   2.652   4.901 -0.0945  0.1732 -0.4541
 3296SOL    HW121524   3.776   2.677   4.936 -1.2640 -0.6464  2.9955
 3296SOL    HW221525   3.619   2.687   4.953  0.6097  1.2221 -0.1970
 3297SOL     OW21526   3.651   1.895  12.073  0.7396 -0.2576 -0.2499
 3297SOL    HW121527   3.655   1.825  12.138  1.2238 -1.0136 -1.0932
 3297SOL    HW221528   3.736   1.939  12.060 -1.2322  3.5925 -0.1244
 3298SOL     OW21529   0.798   4.501  10.814  0.2237 -0.5517  0.0470
 3298SOL    HW121530   0.729   4.545  10.864  0.6211 -1.8387  1.7553
 3298SOL    HW221531   0.773   4.538  10.730 -0.1156  0.1052  0.4369
 3299SOL     OW21532   4.658   3.233   8.728 -0.4488 -0.8943 -0.3851
 3299SOL    HW121533   4.644   3.320   8.766 -1.6610 -1.8433  1.3537
 3299SOL    HW221534   4.620   3.233   8.640 -0.0293 -2.7385 -0.5641
 3300SOL     OW21535   0.753   0.313   2.347 -0.5795 -0.2539  0.2849
 3300SOL    HW121536   0.713   0.227   2.364  1.3568 -0.7784  2.1181
 3300SOL    HW221537   0.680   0.372   2.365 -0.8939 -0.2752 -0.8991
 3301SOL     OW21538   1.840   2.119   8.211  0.0005  0.6922  0.6687
 3301SOL    HW121539   1.891   2.120   8.292 -0.5445 -1.6739  1.0690
 3301SOL    HW221540   1.902   2.170   8.160 -0.0786  1.5531  1.4416
 3302SOL     OW21541   0.266   0.502   4.774 -1.0414  0.2368  0.5027
 3302SOL    HW121542   0.318   0.581   4.786  0.2655 -1.0062  3.1738
 3302SOL    HW221543   0.331   0.436   4.799  0.1134  1.6712  1.2707
 3303SOL     OW21544   1.862   2.521   8.235  0.5110  0.1841  0.1541
 3303SOL    HW121545   1.878   2.615   8.235  2.1788 -0.1014 -1.5030
 3303SOL    HW221546   1.927   2.483   8.176  0.7436 -0.5754  0.9021
 3304SOL     OW21547   0.683   1.942   8.669  0.2382 -0.0483  0.2731
 3304SOL    HW121548   0.596   1.981   8.668 -0.3784 -1.4575 -0.7107
 3304SOL    HW221549   0.678   1.872   8.604  1.7442  1.0766 -1.0558
 3305SOL     OW21550   2.613   1.519   4.557  0.3580  0.6641 -0.1492
 3305SOL    HW121551   2.519   1.534   4.569  0.1988 -0.8901  0.4535
 3305SOL    HW221552   2.600   1.455   4.487  1.7803 -0.9600  1.1053
 3306SOL     OW21553   4.309   1.695   4.110  0.7890 -0.8080 -0.1920
 3306SOL    HW121554   4.304   1.636   4.185  2.0659 -0.5868  0.0749
 3306SOL    HW221555   4.328   1.631   4.042 -1.5529 -0.5603 -1.0435
 3307SOL     OW21556   0.398   3.711   1.805  0.9807 -0.4088 -0.2276
 3307SOL    HW121557   0.485   3.747   1.820  0.8165 -0.9822  2.0117
 3307SOL    HW221558   0.352   3.790   1.774  2.7872  0.7066 -0.0751
 3308SOL     OW21559   0.649   2.537   2.687 -0.1592  0.0908  0.1252
 3308SOL    HW121560   0.662   2.443   2.675  0.6767  0.1987  0.2033
 3308SOL    HW221561   0.569   2.556   2.637  0.1831 -0.5333 -0.6604
 3309SOL     OW21562   0.184   4.565  13.486  0.0072  0.2299  0.4225
 3309SOL    HW121563   0.135   4.644  13.510 -0.0237  0.0772  0.8715
 3309SOL    HW221564   0.114   4.502  13.500  0.1192  0.3443  1.4869
 3310SOL     OW21565   3.512   1.016   2.702 -0.1696 -0.1281 -0.7014
 3310SOL    HW121566   3.499   1.106   2.674  0.0874 -0.1821 -1.0010
 3310SOL    HW221567   3.543   0.965   2.627 -1.3189  0.7622 -1.7796
 3311SOL     OW21568   2.687   4.003   4.624  0.5679 -0.6715 -0.6484
 3311SOL    HW121569   2.610   4.053   4.600  0.5563 -0.5948 -0.4499
 3311SOL    HW221570   2.683   3.962   4.710 -2.9268  1.1315  0.0303
 3312SOL     OW21571   1.354   0.871   2.016 -0.3854  0.2225 -0.3603
 3312SOL    HW121572   1.309   0.811   1.957  0.9069  0.4062 -1.5539
 3312SOL    HW221573   1.363   0.821   2.097 -1.1421  0.1512 -0.3268
 3313SOL     OW21574   3.387   2.917   6.094  0.2397  0.1952 -0.5079
 3313SOL    HW121575   3.344   2.869   6.165 -0.6857  1.3167 -0.3078
 3313SOL    HW221576   3.441   2.853   6.048  0.7875  0.7541 -0.6391
 3314SOL     OW21577   0.555   1.662   4.945 -0.0262  0.3678 -0.0674
 3314SOL    HW121578   0.504   1.739   4.969 -0.4450  0.5731 -1.6284
 3314SOL    HW221579   0.558   1.669   4.850  0.4507  1.1456  0.0069
 3315SOL     OW21580   4.239   3.879  11.980 -0.2655  0.2282 -0.0440
 3315SOL    HW121581   4.206   3.967  11.999 -1.5248 -0.2543  0.0116
 3315SOL    HW221582   4.206   3.876  11.891 -1.3794  0.2160  0.3652
 3316SOL     OW21583   4.550   4.269   4.873 -0.3487  0.5928  0.6435
 3316SOL    HW121584   4.515   4.356   4.891 -0.5138  0.6355  0.1174
 3316SOL    HW221585   4.498   4.215   4.933  0.9089 -1.6894 -0.3266
 3317SOL     OW21586   1.505   1.412   6.018  0.4018  0.2681 -0.0334
 3317SOL    HW121587   1.549   1.379   5.940 -0.5278 -1.7159  0.3014
 3317SOL    HW221588   1.417   1.379   6.001  0.7297 -1.1761  1.1036
 3318SOL     OW21589   4.548   4.422   7.838  0.0531  0.1385 -0.1024
 3318SOL    HW121590   4.547   4.327   7.829  0.2832 -0.1053  2.3008
 3318SOL    HW221591   4.531   4.434   7.932  1.0098 -0.5834  0.1565
 3319SOL     OW21592   4.713   2.820   3.850  0.1585  0.3302 -0.4158
 3319SOL    HW121593   4.724   2.899   3.797  0.1802  1.0901  0.7310
 3319SOL    HW221594   0.070   2.804   3.862  0.3824  1.2339 -0.9382
 3320SOL     OW21595   3.630   2.760   1.081 -0.0043 -0.2563 -0.0076
 3320SOL    HW121596   3.683   2.680   1.083  0.9260  0.3525 -0.4671
 3320SOL    HW221597   3.648   2.791   1.169 -0.4315  0.6764 -0.2539
 3321SOL     OW21598   4.507   0.149   1.879 -0.2680  0.1194 -0.4173
 3321SOL    HW121599   4.588   0.172   1.833 -0.5073  0.8958 -0.4527
 3321SOL    HW221600   4.498   0.216   1.947  1.5674  1.0300 -1.0760
 3322SOL     OW21601   1.705   0.956   5.417  0.0028  0.4113 -0.5253
 3322SOL    HW121602   1.703   0.893   5.346 -1.7367 -1.0099  0.7923
 3322SOL    HW221603   1.611   0.960   5.430  0.2768 -1.3401  1.9430
 3323SOL     OW21604   2.667   0.411   8.562  0.8413  0.0470 -0.3693
 3323SOL    HW121605   2.592   0.360   8.594  2.0634 -0.7713  1.1768
 3323SOL    HW221606   2.734   0.345   8.577  0.0953 -0.5722  0.2416
 3324SOL     OW21607   0.097   4.621   1.596 -0.2766 -0.5384  0.0699
 3324SOL    HW121608   0.183   4.664   1.593 -0.5975  0.2425  1.8089
 3324SOL    HW221609   0.043   4.699   1.609  1.8506  0.9437  0.1693
 3325SOL     OW21610   0.933   1.564   6.104  0.0354 -0.6530  0.1237
 3325SOL    HW121611   0.965   1.483   6.065 -0.6112  0.1909 -2.1511
 3325SOL    HW221612   0.957   1.546   6.195  1.3864  0.8850  0.0912
 3326SOL     OW21613   3.794   0.662   6.543  0.0708 -0.4622  0.1262
 3326SOL    HW121614   3.800   0.742   6.490 -1.4809  0.3062  1.1313
 3326SOL    HW221615   3.765   0.704   6.624  0.9209  1.1385 -0.3914
 3327SOL     OW21616   0.120   1.322  11.599 -0.5471 -0.5019 -0.4663
 3327SOL    HW121617   0.162   1.279  11.674  0.1575  0.6144 -0.2228
 3327SOL    HW221618   0.028   1.295  11.604 -1.1325  1.5127 -0.2368
 3328SOL     OW21619   1.511   0.570  10.742  0.0233  0.4246  0.0993
 3328SOL    HW121620   1.442   0.574  10.809  2.2689 -1.1167  2.4965
 3328SOL    HW221621   1.569   0.503  10.777 -2.7517 -2.0083  0.0301
 3329SOL     OW21622   3.368   3.242   7.718 -0.3069 -0.4151 -0.1664
 3329SOL    HW121623   3.355   3.167   7.776  1.9752 -1.4631 -1.0298
 3329SOL    HW221624   3.370   3.194   7.635  1.4076  0.4430 -0.6218
 3330SOL     OW21625   0.536   1.262   9.468 -0.2235 -0.2632  0.1016
 3330SOL    HW121626   0.498   1.199   9.528  1.1941 -0.1042  1.1557
 3330SOL    HW221627   0.540   1.340   9.523 -0.3143 -0.5355  0.4919
 3331SOL     OW21628   3.334   0.484   4.203  0.2618 -0.3804  0.0495
 3331SOL    HW121629   3.388   0.481   4.125  0.9109  0.5253  0.4644
 3331SOL    HW221630   3.335   0.393   4.233  0.8242 -0.0176  1.1065
 3332SOL     OW21631   4.690   2.565   2.278  0.0810  0.4680  0.1943
 3332SOL    HW121632   4.679   2.651   2.238  4.3731  1.6749  1.5685
 3332SOL    HW221633   4.615   2.515   2.245  0.3956 -0.9159  1.5720
 3333SOL     OW21634   2.097   0.252   6.360 -0.2184 -0.2791  1.0568
 3333SOL    HW121635   2.141   0.191   6.420 -0.6858 -0.9269  0.7348
 3333SOL    HW221636   2.034   0.295   6.418 -1.9930 -3.1521  1.2517
 3334SOL     OW21637   1.306   0.738   2.940 -0.1704 -0.5862 -0.7757
 3334SOL    HW121638   1.224   0.691   2.957  0.0160  0.3638  2.6500
 3334SOL    HW221639   1.353   0.722   3.022 -1.2322  0.6813  0.0878
 3335SOL     OW21640   2.429   1.679   5.343  0.4602  0.1897 -0.2785
 3335SOL    HW121641   2.365   1.666   5.273  0.1334  1.3789 -0.1899
 3335SOL    HW221642   2.452   1.588   5.362  1.3318  0.1910 -1.3491
 3336SOL     OW21643   2.144   2.707   4.012  0.5129 -0.5514  0.4102
 3336SOL    HW121644   2.100   2.627   4.042 -2.0970  0.8902  0.4933
 3336SOL    HW221645   2.233   2.686   4.039  0.5852  0.1240  0.7052
 3337SOL     OW21646   3.875   4.649   0.877  0.0108  0.2333  0.2595
 3337SOL    HW121647   3.908   4.570   0.834 -2.4571  0.0050 -1.2365
 3337SOL    HW221648   3.924   4.641   0.959  0.3446 -0.5232 -0.0141
 3338SOL     OW21649   3.794   3.568   6.819 -0.1919  0.1278 -0.0955
 3338SOL    HW121650   3.744   3.625   6.760 -0.6773 -0.8696 -0.6569
 3338SOL    HW221651   3.744   3.541   6.896  1.5405 -0.8025  0.6936
 3339SOL     OW21652   1.709   0.328  14.655 -0.5510  0.1585 -0.3597
 3339SOL    HW121653   1.790   0.310  14.608 -1.1200  1.4811 -1.8635
 3339SOL    HW221654   1.642   0.285  14.601 -1.5288  0.8391  0.3132
 3340SOL     OW21655   4.611   1.927   2.226  1.1285  0.4616  0.1023
 3340SOL    HW121656   4.664   2.006   2.238 -0.2114  1.5851 -1.3190
 3340SOL    HW221657   4.620   1.921   2.131  0.5573  0.7289  0.0342
 3341SOL     OW21658   2.247   0.194   8.218 -0.9589 -0.7908 -0.0520
 3341SOL    HW121659   2.254   0.271   8.274 -1.2258 -0.4804 -0.4438
 3341SOL    HW221660   2.329   0.145   8.227 -0.5281 -0.2688 -1.1545
 3342SOL     OW21661   1.812   2.782   9.864  0.1506  0.1735 -0.6287
 3342SOL    HW121662   1.805   2.830   9.947  0.3644  0.6337 -0.8750
 3342SOL    HW221663   1.902   2.749   9.866 -0.4667 -1.4636  0.6047
 3343SOL     OW21664   1.150   0.407   9.815  0.0647 -0.2668 -0.2680
 3343SOL    HW121665   1.096   0.329   9.833  0.4600 -1.0093 -2.2963
 3343SOL    HW221666   1.215   0.365   9.759  1.6673  0.0420  1.3855
 3344SOL     OW21667   3.051   3.240   3.150  0.1891 -0.3518  0.0419
 3344SOL    HW121668   3.067   3.306   3.217 -2.0784  0.5364 -0.3093
 3344SOL    HW221669   3.126   3.181   3.159  1.4913  1.4441  0.9107
 3345SOL     OW21670   4.218   0.636   6.167  0.2993 -0.0607  0.2899
 3345SOL    HW121671   4.267   0.708   6.209 -0.4573 -0.8784  2.5329
 3345SOL    HW221672   4.290   0.593   6.120  0.0819 -2.0139  1.7921
 3346SOL     OW21673   3.573   1.667   9.230  0.2336  0.2971  0.2993
 3346SOL    HW121674   3.646   1.671   9.292 -1.5137  2.3638  2.2104
 3346SOL    HW221675   3.584   1.754   9.191  1.1523 -0.6075 -1.4724
 3347SOL     OW21676   0.163   3.174   1.384  0.7232 -0.3531  0.5629
 3347SOL    HW121677   0.085   3.146   1.431  0.1565  1.5231  0.7362
 3347SOL    HW221678   0.172   3.267   1.402  0.3910 -0.1010 -0.5590
 3348SOL     OW21679   3.973   1.858   7.627  0.0197  0.2690 -0.2590
 3348SOL    HW121680   4.004   1.775   7.663 -0.4304 -0.0452 -0.5967
 3348SOL    HW221681   3.971   1.831   7.535 -1.3553 -2.6658  0.6308
 3349SOL     OW21682   0.569   2.426  10.565 -0.0598 -0.3516  0.1337
 3349SOL    HW121683   0.558   2.507  10.615  1.1634 -1.2806  1.8904
 3349SOL    HW221684   0.510   2.368  10.613 -1.7480 -0.3427 -1.9307
 3350SOL     OW21685   2.664   2.345   4.613 -0.0825 -0.6651 -0.1018
 3350SOL    HW121686   2.707   2.275   4.564 -0.9617 -0.0043 -1.7995
 3350SOL    HW221687   2.670   2.333   4.708 -1.0793  0.8944  0.1465
 3351SOL     OW21688   0.010   0.452  16.882  0.0679 -0.0474 -0.4681
 3351SOL    HW121689   0.062   0.436  16.960  0.2898 -1.9561 -1.0128
 3351SOL    HW221690   4.676   0.499  16.926  1.5858  2.0892 -0.3376
 3352SOL     OW21691   2.522   1.104   6.561  0.6171  0.5385  0.1471
 3352SOL    HW121692   2.433   1.069   6.569  0.5992 -0.1241 -2.9177
 3352SOL    HW221693   2.568   1.042   6.617 -2.7799 -1.5793  0.6306
 3353SOL     OW21694   1.904   4.093   3.999  0.0933  0.2372 -0.0137
 3353SOL    HW121695   1.812   4.114   3.983 -0.0979  0.7337  1.7289
 3353SOL    HW221696   1.913   4.007   3.958 -0.9958  0.4224 -0.6315
 3354SOL     OW21697   1.761   4.264   8.385 -0.0925 -0.5677  0.2616
 3354SOL    HW121698   1.767   4.238   8.477 -2.7580 -1.3431  0.2071
 3354SOL    HW221699   1.687   4.208   8.363  0.1269 -0.2306 -1.3371
 3355SOL     OW21700   0.148   3.109   8.887 -0.0970  0.4793 -0.1610
 3355SOL    HW121701   0.145   3.069   8.973 -0.4198 -1.0117 -0.8658
 3355SOL    HW221702   0.061   3.150   8.879 -0.4530 -0.3183 -0.3656
 3356SOL     OW21703   0.197   4.071   3.678 -0.2730  0.5103  0.2132
 3356SOL    HW121704   0.170   3.989   3.637  1.6510  0.6379 -1.3267
 3356SOL    HW221705   0.151   4.140   3.630 -1.7747 -0.4044  0.3302
 3357SOL     OW21706   3.235   4.608   3.191 -0.0571  0.2959  0.0326
 3357SOL    HW121707   3.220   4.535   3.131 -1.3135  0.7800 -0.2407
 3357SOL    HW221708   3.325   4.624   3.164  0.1288 -1.7463 -0.5702
 3358SOL     OW21709   3.986   1.064  13.708  0.1837 -0.0281 -0.1944
 3358SOL    HW121710   4.039   1.132  13.749  1.8593 -1.9476  0.8582
 3358SOL    HW221711   3.987   1.087  13.615  2.0445 -1.0155 -0.4407
 3359SOL     OW21712   2.347   0.624   7.008 -0.9818  0.0122  0.2793
 3359SOL    HW121713   2.251   0.622   7.010 -1.0353 -0.0499 -2.8583
 3359SOL    HW221714   2.374   0.669   7.088  1.8548 -1.1522 -0.0337
 3360SOL     OW21715   4.648   2.024   5.086  0.1179 -0.4208  0.2670
 3360SOL    HW121716   4.696   2.093   5.131 -0.0130  0.1376 -0.4347
 3360SOL    HW221717   4.557   2.052   5.101  0.1017 -0.7534  0.8006
 3361SOL     OW21718   1.551   4.381  16.168 -0.3957 -0.2733 -0.0656
 3361SOL    HW121719   1.631   4.336  16.194 -0.9232 -1.1498  0.0323
 3361SOL    HW221720   1.533   4.341  16.083  0.6648  0.6814 -0.7466
 3362SOL     OW21721   2.963   0.541   9.352  0.1476  0.5613  0.1441
 3362SOL    HW121722   2.887   0.484   9.341 -0.3542  1.4488 -1.0680
 3362SOL    HW221723   2.933   0.604   9.417 -1.2510 -1.2730  1.2683
 3363SOL     OW21724   4.719   4.425   4.399 -0.3159  0.0582 -0.0992
 3363SOL    HW121725   4.629   4.453   4.377  0.8597  4.1885  0.3051
 3363SOL    HW221726   4.726   4.333   4.374  0.1414 -0.2818  1.2442
 3364SOL     OW21727   4.044   2.043   4.634 -0.3146 -0.3141  0.1137
 3364SOL    HW121728   4.002   2.096   4.566 -2.1504  1.0679  2.3233
 3364SOL    HW221729   4.022   2.087   4.716  2.0036  0.6241  0.2338
 3365SOL     OW21730   4.424   2.821   6.633  0.0777  0.1565  0.2170
 3365SOL    HW121731   4.517   2.802   6.647 -0.0487  0.2467  1.1620
 3365SOL    HW221732   4.414   2.776   6.549 -0.5145  0.7825 -0.0498
 3366SOL     OW21733   2.845   2.821   5.656  0.5686 -0.2047  0.0296
 3366SOL    HW121734   2.820   2.883   5.724 -1.0260 -1.4408  0.5764
 3366SOL    HW221735   2.922   2.863   5.618 -0.8398 -0.5326 -3.1857
 3367SOL     OW21736   0.759   1.612   2.319 -0.0260 -0.0722 -0.6911
 3367SOL    HW121737   0.825   1.681   2.314 -0.2597  0.2296  0.4403
 3367SOL    HW221738   0.679   1.663   2.307  0.7020  1.4342  0.7842
 3368SOL     OW21739   2.483   1.819   8.433 -0.0124 -0.0235 -0.0242
 3368SOL    HW121740   2.486   1.910   8.401 -1.3918  0.2024  0.4978
 3368SOL    HW221741   2.389   1.813   8.451 -0.5350 -0.1160 -2.6860
 3369SOL     OW21742   2.785   2.593   9.856 -0.0184  0.1014 -0.1066
 3369SOL    HW121743   2.707   2.560   9.902  0.4156 -1.8081 -0.7445
 3369SOL    HW221744   2.775   2.565   9.765 -1.9695 -2.3894  0.8872
 3370SOL     OW21745   1.439   3.920   5.506 -0.4527  0.1356 -0.4473
 3370SOL    HW121746   1.422   3.993   5.565 -0.1930 -1.8959  2.1155
 3370SOL    HW221747   1.506   3.876   5.557 -1.6044  0.5351  1.4083
 3371SOL     OW21748   0.751   3.304  14.534 -0.0944  0.3983  0.4293
 3371SOL    HW121749   0.686   3.234  14.525  1.3252 -0.9764  0.8406
 3371SOL    HW221750   0.727   3.361  14.461 -2.6208  0.0725  1.0080
 3372SOL     OW21751   1.377   4.280  17.519 -0.1374  0.3682  0.2043
 3372SOL    HW121752   1.396   4.200  17.568  0.2606  0.3736  0.0662
 3372SOL    HW221753   1.282   4.276  17.518 -0.0574 -0.9220 -1.9523
 3373SOL     OW21754   2.142   1.330   4.178 -0.4361 -0.0181 -0.1300
 3373SOL    HW121755   2.058   1.317   4.135 -0.1403 -2.1948 -0.0458
 3373SOL    HW221756   2.129   1.394   4.248  3.2756  0.8818 -0.2489
 3374SOL     OW21757   1.261   0.488   0.379  0.1166 -0.3066  0.1383
 3374SOL    HW121758   1.268   0.426   0.306 -0.0785 -1.7808  1.3995
 3374SOL    HW221759   1.318   0.558   0.346 -0.5684 -0.3084 -1.0500
 3375SOL     OW21760   4.490   0.198   7.695 -0.2625 -0.4877 -0.0417
 3375SOL    HW121761   4.457   0.135   7.760 -0.4626  0.5305  0.8524
 3375SOL    HW221762   4.509   0.141   7.621  1.0056 -0.6647  0.4139
 3376SOL     OW21763   2.811   2.500  15.293 -0.3552  0.4915  0.2509
 3376SOL    HW121764   2.768   2.527  15.374  0.7041  0.2799  0.8739
 3376SOL    HW221765   2.872   2.439  15.333 -1.0216 -0.9420 -0.8928
 3377SOL     OW21766   1.357   3.225  17.680  0.5040  0.6387  0.3696
 3377SOL    HW121767   1.398   3.233   0.020  0.8130 -1.9047  0.4611
 3377SOL    HW221768   1.378   3.305  17.631  0.7870 -1.0641 -2.3100
 3378SOL     OW21769   2.665   3.481   0.181  0.7102  0.1775 -0.2180
 3378SOL    HW121770   2.585   3.478   0.129  0.2752  1.7485  0.3789
 3378SOL    HW221771   2.683   3.389   0.163  0.9305  0.5499 -2.0092
 3379SOL     OW21772   4.404   2.201   8.300 -0.3624 -0.6894  0.2764
 3379SOL    HW121773   4.366   2.187   8.213  1.0777 -0.2956 -0.4088
 3379SOL    HW221774   4.451   2.119   8.313 -0.4312 -0.9778 -1.2332
 3380SOL     OW21775   3.089   4.126  11.049 -0.1238  0.4315  0.0353
 3380SOL    HW121776   3.084   4.066  10.974 -0.5390  0.1767  0.2725
 3380SOL    HW221777   3.011   4.108  11.101 -1.4853  0.2719 -2.0459
 3381SOL     OW21778   3.781   2.608   2.639  0.0703  0.1738  0.3060
 3381SOL    HW121779   3.706   2.655   2.602 -1.4539 -0.6876  2.3437
 3381SOL    HW221780   3.825   2.573   2.561  0.7933  0.1363  0.7304
 3382SOL     OW21781   2.549   0.986   6.015  0.0564  0.1913  0.2522
 3382SOL    HW121782   2.579   1.041   6.087  2.5874  0.3959 -0.9444
 3382SOL    HW221783   2.474   1.037   5.984 -1.5040 -0.4994  2.9485
 3383SOL     OW21784   3.075   3.404   8.350 -0.0091  0.6480  0.6815
 3383SOL    HW121785   3.003   3.416   8.412 -0.6158 -1.8944  0.4635
 3383SOL    HW221786   3.084   3.482   8.295  1.5119  0.1917  0.2967
 3384SOL     OW21787   2.590   2.216   3.241  0.0845  0.1596  0.5341
 3384SOL    HW121788   2.623   2.230   3.152 -0.0646 -1.4130  0.2268
 3384SOL    HW221789   2.671   2.224   3.292  1.3810 -0.9562 -1.3163
 3385SOL     OW21790   1.890   0.213   4.316 -0.0446 -0.0978  0.7577
 3385SOL    HW121791   1.948   0.185   4.246  0.1918  1.1197  0.4590
 3385SOL    HW221792   1.812   0.235   4.265  1.0400 -1.9472 -1.6733
 3386SOL     OW21793   0.251   1.883   5.789 -0.1067 -0.0924 -0.1330
 3386SOL    HW121794   0.276   1.861   5.700  0.2426  1.9558 -0.5531
 3386SOL    HW221795   0.181   1.822   5.813 -0.2698  0.1216 -0.0550
 3387SOL     OW21796   0.798   3.133   2.081 -0.2361  0.5331  0.0655
 3387SOL    HW121797   0.872   3.184   2.113 -0.6577 -0.1647  2.1698
 3387SOL    HW221798   0.801   3.161   1.989  0.3626  1.5135  0.3834
 3388SOL     OW21799   4.719   0.585   5.835  0.0829  0.5181  0.5385
 3388SOL    HW121800   0.060   0.627   5.799 -0.1114 -0.5398 -1.1216
 3388SOL    HW221801   4.731   0.614   5.925 -0.1514 -0.8531  1.0161
 3389SOL     OW21802   0.142   2.673   7.661  0.1173 -0.2415  0.0844
 3389SOL    HW121803   0.064   2.726   7.672 -0.1655  0.0657 -3.4657
 3389SOL    HW221804   0.197   2.710   7.731  0.8017  0.8170 -1.0092
 3390SOL     OW21805   2.471   4.543   5.004  0.5785 -0.5393  0.4399
 3390SOL    HW121806   2.414   4.530   4.928  2.1009 -0.6910 -0.6604
 3390SOL    HW221807   2.464   4.450   5.028 -0.9633 -0.3287  0.8445
 3391SOL     OW21808   2.244   3.015   5.940  0.1806 -0.0543  0.2162
 3391SOL    HW121809   2.175   2.967   5.895 -0.5499  0.3663  0.8951
 3391SOL    HW221810   2.206   3.026   6.028  0.9943 -1.2557  0.7192
 3392SOL     OW21811   2.174   1.210  13.386 -0.0362 -0.3956 -0.5249
 3392SOL    HW121812   2.146   1.242  13.472  1.2230 -2.0914  0.5277
 3392SOL    HW221813   2.094   1.217  13.334 -0.5940  0.0545  0.3911
 3393SOL     OW21814   0.637   0.717   7.912  0.1738  0.3005 -0.0209
 3393SOL    HW121815   0.647   0.751   8.001 -0.0205 -2.0555  0.8893
 3393SOL    HW221816   0.581   0.642   7.927  1.0052 -0.4528 -0.6646
 3394SOL     OW21817   4.400   0.218   5.222 -0.6489 -0.5781 -0.5957
 3394SOL    HW121818   4.391   0.228   5.317  3.3021 -1.3346 -0.1505
 3394SOL    HW221819   4.494   0.203   5.213 -0.7252  0.0291 -2.4583
 3395SOL     OW21820   2.647   1.985   6.699  0.4552 -0.5389 -0.4391
 3395SOL    HW121821   2.647   1.904   6.750 -1.6613  0.7415  1.5877
 3395SOL    HW221822   2.713   1.959   6.634  0.8334  1.3851 -0.8265
 3396SOL     OW21823   2.177   0.809   7.198  0.0016  0.3530 -0.1543
 3396SOL    HW121824   2.159   0.808   7.104  0.1569  0.6876 -0.1892
 3396SOL    HW221825   2.112   0.873   7.228 -1.2621 -1.9692  2.0850
 3397SOL     OW21826   3.851   2.632   5.378  0.2082  0.2222  0.0843
 3397SOL    HW121827   3.924   2.649   5.436 -0.9805  1.0200  1.3397
 3397SOL    HW221828   3.858   2.547   5.334 -0.9403  1.0227 -1.6709
 3398SOL     OW21829   3.621   0.293  14.104 -0.1547 -0.0965 -0.6606
 3398SOL    HW121830   3.710   0.292  14.071  0.2646  2.3124  0.3930
 3398SOL    HW221831   3.573   0.213  14.080 -0.8385 -0.4175  1.7085
 3399SOL     OW21832   4.572   1.399   4.374 -0.4589  0.0602 -0.4042
 3399SOL    HW121833   4.520   1.436   4.446  0.6618  2.9575 -1.0844
 3399SOL    HW221834   4.506   1.389   4.305  1.0771 -2.5057 -1.4924
 3400SOL     OW21835   1.925   1.977   2.636  0.0663  0.0923 -0.1247
 3400SOL    HW121836   1.901   2.047   2.697 -0.4906  0.3568 -0.6494
 3400SOL    HW221837   2.005   2.011   2.596  0.1636  1.2208  1.0337
 3401SOL     OW21838   1.574   3.323   1.535  0.5142  0.3633 -0.5400
 3401SOL    HW121839   1.498   3.265   1.526 -0.9864  2.2086  0.1368
 3401SOL    HW221840   1.545   3.405   1.493 -3.3321  0.5178  2.4933
 3402SOL     OW21841   2.053   4.560   6.910 -0.0882  0.6587 -0.3121
 3402SOL    HW121842   2.113   4.491   6.880  1.1620  1.4413  0.3838
 3402SOL    HW221843   2.095   4.598   6.987  0.2324 -0.5033  0.0919
 3403SOL     OW21844   2.239   4.621   4.264 -0.2557 -0.0066 -0.9184
 3403SOL    HW121845   2.199   4.615   4.350  0.1940 -3.1648 -0.9282
 3403SOL    HW221846   2.165   4.583   4.216 -3.2862  1.6491  2.4946
 3404SOL     OW21847   0.822   0.962   1.315 -0.2752 -0.4595 -0.2946
 3404SOL    HW121848   0.739   0.997   1.349 -0.4922  0.2109 -1.5147
 3404SOL    HW221849   0.859   1.043   1.281  0.4622  1.4617  5.0048
 3405SOL     OW21850   3.365   0.480   7.138  0.2803  0.1436 -0.9129
 3405SOL    HW121851   3.304   0.425   7.187  0.4551  2.4816  1.9521
 3405SOL    HW221852   3.307   0.512   7.067  0.6478 -0.1700 -1.3515
 3406SOL     OW21853   1.989   2.334  13.053 -0.2280  0.5395 -0.2687
 3406SOL    HW121854   2.062   2.396  13.051 -0.7367  1.1701  0.6449
 3406SOL    HW221855   2.023   2.257  13.008  1.6047  0.9686  0.3727
 3407SOL     OW21856   4.413   3.788   8.605 -0.0947  0.5060 -0.2937
 3407SOL    HW121857   4.338   3.756   8.654  0.5367 -0.2442  0.1964
 3407SOL    HW221858   4.385   3.877   8.585  0.6973  0.5265 -1.3343
 3408SOL     OW21859   0.668   3.823  15.073 -0.0867  0.5160 -0.3818
 3408SOL    HW121860   0.675   3.895  15.009 -2.0848 -0.3835 -1.5845
 3408SOL    HW221861   0.647   3.876  15.150  0.6674  2.1923 -1.3188
 3409SOL     OW21862   1.882   3.259   2.113 -0.2818 -0.1384  0.6703
 3409SOL    HW121863   1.791   3.281   2.132 -0.7251 -3.0474  1.8548
 3409SOL    HW221864   1.889   3.296   2.025 -1.2252  1.3271  1.2072
 3410SOL     OW21865   0.617   4.271   5.628  0.2673 -0.0308  0.3889
 3410SOL    HW121866   0.607   4.293   5.535  1.1540  3.5146  1.1447
 3410SOL    HW221867   0.629   4.176   5.624  2.9183  0.2760  1.3644
 3411SOL     OW21868   3.500   2.503   6.419  0.3403 -0.6249  0.0750
 3411SOL    HW121869   3.429   2.490   6.356  1.0194  0.5323 -0.9364
 3411SOL    HW221870   3.578   2.494   6.364  1.1542 -1.4027  1.3684
 3412SOL     OW21871   4.597   3.514  13.258 -0.2353  0.1319 -0.1419
 3412SOL    HW121872   4.576   3.527  13.350  2.6513 -0.3474  0.5903
 3412SOL    HW221873   4.544   3.437  13.238 -0.7872  1.1012 -2.4296
 3413SOL     OW21874   3.155   1.901   1.413  0.1657  0.5623  0.8240
 3413SOL    HW121875   3.172   1.965   1.344 -1.2744  0.3640  0.2699
 3413SOL    HW221876   3.059   1.898   1.406 -0.0173  2.9064  2.4328
 3414SOL     OW21877   2.637   4.458   0.601 -0.0698  0.0080  0.0180
 3414SOL    HW121878   2.595   4.414   0.527  2.0753  1.1144 -1.8620
 3414SOL    HW221879   2.667   4.540   0.561 -3.1374  2.0996  1.9404
 3415SOL     OW21880   2.312   1.252   1.206 -0.4880  0.7348 -0.1300
 3415SOL    HW121881   2.241   1.212   1.255 -0.4877 -0.4604 -1.0899
 3415SOL    HW221882   2.265   1.319   1.156 -0.8252 -1.3867 -2.7229
 3416SOL     OW21883   3.562   0.012   3.854 -0.1578  0.5198 -0.2489
 3416SOL    HW121884   3.650   0.017   3.817  1.6223 -0.9060  3.8426
 3416SOL    HW221885   3.520   0.093   3.824 -0.9672  1.1035  2.4816
 3417SOL     OW21886   0.917   1.909   6.288 -0.4110  0.7615  0.2318
 3417SOL    HW121887   1.008   1.913   6.259 -0.2856 -3.3901  0.1376
 3417SOL    HW221888   0.924   1.862   6.371  0.7625 -0.8274 -0.7751
 3418SOL     OW21889   1.432   4.474   4.974 -0.8138 -0.7128  0.3256
 3418SOL    HW121890   1.528   4.473   4.971 -0.8137  1.0983 -0.3556
 3418SOL    HW221891   1.415   4.549   4.917  1.0560  1.2023  2.2633
 3419SOL     OW21892   1.247   2.998   3.990  0.3154 -0.4573 -0.0710
 3419SOL    HW121893   1.260   3.030   3.901  2.0368 -2.2491 -0.4556
 3419SOL    HW221894   1.153   2.991   3.976  0.1745  1.8925 -0.2933
 3420SOL     OW21895   0.436   4.226   6.830 -0.4466  0.2876 -0.7444
 3420SOL    HW121896   0.494   4.166   6.876  0.8440  2.5033  0.4760
 3420SOL    HW221897   0.422   4.183   6.745  1.3357 -0.5914 -0.5812
 3421SOL     OW21898   0.897   4.230  10.800 -0.2517 -0.1027 -0.6163
 3421SOL    HW121899   0.818   4.191  10.763 -1.1277  0.5540  0.5714
 3421SOL    HW221900   0.871   4.320  10.819  0.0688 -0.4410  1.4206
 3422SOL     OW21901   1.100   1.623   9.340 -0.1763  0.1961 -0.0006
 3422SOL    HW121902   1.108   1.667   9.425  0.2267 -1.9012  1.0466
 3422SOL    HW221903   1.064   1.692   9.284  1.1084  1.4374  0.7065
 3423SOL     OW21904   1.866   0.181  12.371  0.3390  0.0859  0.5563
 3423SOL    HW121905   1.793   0.205  12.428 -0.1963  1.0398 -0.5133
 3423SOL    HW221906   1.882   0.089  12.389  0.3145 -0.1989 -0.8982
 3424SOL     OW21907   2.410   4.595  12.885 -0.5647 -0.0391  0.2901
 3424SOL    HW121908   2.353   4.519  12.894 -0.2588 -0.3940 -0.7795
 3424SOL    HW221909   2.476   4.562  12.825 -2.5144 -1.6462 -0.9929
 3425SOL     OW21910   1.048   1.632   8.380 -0.2668 -0.3569 -0.1521
 3425SOL    HW121911   0.954   1.619   8.368  0.0518 -1.5383 -1.4023
 3425SOL    HW221912   1.048   1.728   8.373 -0.5836 -0.4025 -0.7902
 3426SOL     OW21913   3.730   0.114   9.305 -0.2004 -0.1897  1.0964
 3426SOL    HW121914   3.637   0.136   9.311  0.1023  2.1389 -3.0468
 3426SOL    HW221915   3.711   0.022   9.286 -0.9119  0.1178  0.2858
 3427SOL     OW21916   2.754   1.582   7.984 -0.3561 -0.0256 -0.3225
 3427SOL    HW121917   2.800   1.666   7.992 -0.4555 -0.3052  3.3910
 3427SOL    HW221918   2.699   1.581   8.063 -1.4670  0.0711 -1.0871
 3428SOL     OW21919   1.247   2.669   2.532 -0.5878  0.3991  0.1877
 3428SOL    HW121920   1.342   2.656   2.537 -0.8179 -1.2661  0.4709
 3428SOL    HW221921   1.207   2.586   2.505  0.7301 -0.1031 -0.2296
 3429SOL     OW21922   2.769   3.779   0.641 -0.6055  0.2099 -0.2434
 3429SOL    HW121923   2.678   3.797   0.617 -0.3757  0.9982 -0.5198
 3429SOL    HW221924   2.815   3.845   0.590  1.1528 -1.0277 -0.2489
 3430SOL     OW21925   1.223   1.758   2.318  0.1422  1.3218 -0.1238
 3430SOL    HW121926   1.269   1.841   2.307 -0.1972  1.7136  1.4368
 3430SOL    HW221927   1.266   1.696   2.259  0.6186  1.1516  0.4010
 3431SOL     OW21928   0.427   0.596   7.362 -0.1259 -0.4715 -0.0897
 3431SOL    HW121929   0.376   0.675   7.376 -1.8278 -1.1287 -2.6655
 3431SOL    HW221930   0.394   0.571   7.276  1.2093  1.0082 -1.0387
 3432SOL     OW21931   1.162   2.994  16.484 -0.1942 -0.0600 -0.2485
 3432SOL    HW121932   1.182   3.083  16.454  1.4336 -1.3006 -2.8212
 3432SOL    HW221933   1.112   3.003  16.565  0.8927 -0.4866  0.4512
 3433SOL     OW21934   2.513   1.265   3.472 -0.1731 -0.0588  0.5086
 3433SOL    HW121935   2.555   1.200   3.528 -1.5154 -1.3886 -0.0325
 3433SOL    HW221936   2.420   1.242   3.475 -0.6937  2.0380  0.7560
 3434SOL     OW21937   3.563   0.178   6.199  0.3072  0.3880  0.4131
 3434SOL    HW121938   3.529   0.089   6.189 -0.0236  0.9261 -3.0652
 3434SOL    HW221939   3.593   0.203   6.112 -0.8504  0.0963 -0.0605
 3435SOL     OW21940   2.510   0.479   8.937 -0.0527  0.1868 -0.6998
 3435SOL    HW121941   2.435   0.422   8.954 -2.1461  3.0594 -0.3182
 3435SOL    HW221942   2.464   0.531   8.871  0.5327 -1.2697 -2.2729
 3436SOL     OW21943   2.100   0.253   3.273 -0.6126 -0.1647 -0.3082
 3436SOL    HW121944   2.007   0.271   3.258 -0.4321  2.6250  1.8279
 3436SOL    HW221945   2.136   0.335   3.239  2.8671 -0.7540  1.9182
 3437SOL     OW21946   2.615   2.810  11.841  0.3105 -0.5092  0.1408
 3437SOL    HW121947   2.540   2.796  11.784  0.6352  2.2554 -0.9264
 3437SOL    HW221948   2.629   2.716  11.857 -1.2254 -0.8498 -0.5595
 3438SOL     OW21949   1.265   0.507  16.215  0.7414 -0.3274 -0.3977
 3438SOL    HW121950   1.197   0.537  16.276  0.2256 -0.7868 -0.7460
 3438SOL    HW221951   1.335   0.570  16.229  1.4469 -1.2979  0.4416
 3439SOL     OW21952   3.924   1.325   7.941  0.1586  0.3200 -0.1134
 3439SOL    HW121953   3.878   1.242   7.951  1.0152  0.0350  1.4239
 3439SOL    HW221954   3.868   1.368   7.876  0.6680  2.0336  0.5841
 3440SOL     OW21955   2.054   3.739   7.381  0.3482  0.3369  0.0816
 3440SOL    HW121956   2.072   3.806   7.447  1.4216  1.4437 -1.3542
 3440SOL    HW221957   2.019   3.666   7.432  0.2441  0.6235  0.4246
 3441SOL     OW21958   2.016   0.166  10.706  0.2821  0.2750 -0.5364
 3441SOL    HW121959   2.038   0.163  10.799 -1.9427 -1.0242 -0.0285
 3441SOL    HW221960   2.064   0.247  10.690 -0.0342  0.5472 -0.1070
 3442SOL     OW21961   0.830   1.088   4.880 -0.2911 -0.1331 -0.0333
 3442SOL    HW121962   0.895   1.152   4.852  0.6024 -0.8009  0.5368
 3442SOL    HW221963   0.764   1.140   4.926 -0.6376  0.2978 -1.0015
 3443SOL     OW21964   4.022   4.377   6.576  0.4611 -0.2806 -0.5053
 3443SOL    HW121965   4.028   4.394   6.482 -0.4044  0.2993 -0.4555
 3443SOL    HW221966   4.075   4.451   6.604 -0.5737  0.8029 -1.4266
 3444SOL     OW21967   4.253   1.379   9.500 -0.3847  0.8120  0.0122
 3444SOL    HW121968   4.239   1.462   9.545 -0.4773  0.9577 -0.2848
 3444SOL    HW221969   4.170   1.356   9.460 -0.8379  1.0194  0.8338
 3445SOL     OW21970   0.551   0.615   5.849  0.0927 -0.0197 -0.6363
 3445SOL    HW121971   0.634   0.621   5.802  1.1590  0.7364  1.3625
 3445SOL    HW221972   0.493   0.672   5.798  0.1471  0.1615 -0.4963
 3446SOL     OW21973   0.602   0.627   4.705  0.4856 -0.1476 -0.4013
 3446SOL    HW121974   0.633   0.717   4.694 -0.4959  0.5501  2.5592
 3446SOL    HW221975   0.521   0.658   4.747 -0.1067 -2.9701  0.5147
 3447SOL     OW21976   2.299   0.402   4.327 -0.1433  0.1794  0.2250
 3447SOL    HW121977   2.388   0.415   4.295  1.1103 -3.4101  2.1631
 3447SOL    HW221978   2.307   0.378   4.419 -0.6695 -1.8110 -0.2376
 3448SOL     OW21979   2.047   2.358   9.191  0.7424  0.0487 -0.2509
 3448SOL    HW121980   2.019   2.284   9.137  1.7751 -1.3707  1.1883
 3448SOL    HW221981   2.010   2.338   9.277  1.3641 -1.7002 -0.3924
 3449SOL     OW21982   2.610   0.406   1.589 -0.1845 -0.3157 -0.2783
 3449SOL    HW121983   2.601   0.460   1.511  1.2636 -0.9871 -0.9111
 3449SOL    HW221984   2.522   0.425   1.621 -0.0757 -0.0822 -0.1133
 3450SOL     OW21985   1.591   3.771  15.949 -0.3799 -0.0668  0.0995
 3450SOL    HW121986   1.595   3.860  15.984  0.8692 -0.1254  0.1032
 3450SOL    HW221987   1.678   3.773  15.908  0.6123  1.4883  2.2776
 3451SOL     OW21988   1.378   2.597   7.806 -0.2358 -0.4258 -0.8066
 3451SOL    HW121989   1.356   2.687   7.781 -1.7814 -0.6715 -0.3263
 3451SOL    HW221990   1.470   2.598   7.782  0.3987  0.8332  1.6565
 3452SOL     OW21991   0.309   0.633   5.071  0.3965  0.3342 -0.0774
 3452SOL    HW121992   0.380   0.602   5.015 -1.5117  1.9849 -3.3533
 3452SOL    HW221993   0.328   0.589   5.154 -0.8704 -0.2153 -0.0755
 3453SOL     OW21994   4.289   0.265   3.153  0.0207 -0.1308 -0.7509
 3453SOL    HW121995   4.194   0.274   3.145 -0.0253 -0.3426 -0.4168
 3453SOL    HW221996   4.311   0.355   3.178  0.8136  0.1668 -2.4789
 3454SOL     OW21997   1.543   0.884   8.378  0.3047  0.3413  0.4703
 3454SOL    HW121998   1.541   0.980   8.378 -1.5932  0.3010  1.8635
 3454SOL    HW221999   1.457   0.855   8.347  1.3610 -0.4711 -1.6721
 3455SOL     OW22000   1.633   4.481   1.402 -0.8198 -0.0167  0.7941
 3455SOL    HW122001   1.571   4.409   1.406 -2.1543  1.1149  0.3062
 3455SOL    HW222002   1.573   4.555   1.389 -2.4315 -0.8918  3.3409
 3456SOL     OW22003   0.249   0.166   1.814  0.0700 -0.6689 -0.3172
 3456SOL    HW122004   0.248   0.134   1.904  1.6400 -2.6864 -1.0119
 3456SOL    HW222005   0.156   0.186   1.810 -0.0350 -1.0524  0.3062
 3457SOL     OW22006   4.625   4.352  12.621  0.1652  0.6369  0.4600
 3457SOL    HW122007   4.587   4.358  12.708 -1.7751  3.6792 -0.5758
 3457SOL    HW222008   4.680   4.276  12.638 -0.5940 -0.1372 -0.5344
 3458SOL     OW22009   1.669   0.541   4.472 -0.5019 -0.3452 -0.0702
 3458SOL    HW122010   1.663   0.579   4.385  2.2925  1.1678  0.4093
 3458SOL    HW222011   1.585   0.566   4.511  0.4440 -0.4328  2.0414
 3459SOL     OW22012   0.695   1.118   4.446  0.7574 -0.4260 -0.2517
 3459SOL    HW122013   0.683   1.170   4.526 -0.3914 -0.4697 -0.3932
 3459SOL    HW222014   0.778   1.150   4.412 -0.7323  2.7138 -0.8952
 3460SOL     OW22015   1.552   0.014   2.836 -0.1712 -0.0892  0.3177
 3460SOL    HW122016   1.558   4.698   2.915  0.0654  0.8521  0.9215
 3460SOL    HW222017   1.639   0.053   2.845 -0.2799 -0.0089  0.9925
 3461SOL     OW22018   4.185   1.962   9.928  0.0672  0.3214 -0.6049
 3461SOL    HW122019   4.249   1.985   9.861  1.0344  1.9574  0.8635
 3461SOL    HW222020   4.147   2.048   9.950  1.3724  1.1321 -1.5099
 3462SOL     OW22021   1.996   0.117  11.953 -0.2285  0.0117 -0.2874
 3462SOL    HW122022   1.925   0.120  12.018 -0.6942 -0.6377 -0.7603
 3462SOL    HW222023   2.004   0.208  11.927  1.7973  0.8742  3.4062
 3463SOL     OW22024   3.891   2.378   9.697  0.5026 -0.5462  0.4261
 3463SOL    HW122025   3.890   2.405   9.605  0.4945  0.3432  0.6813
 3463SOL    HW222026   3.892   2.467   9.732 -1.9987  0.4932 -2.1482
 3464SOL     OW22027   3.681   1.892   7.111  0.0986  0.5320  0.0661
 3464SOL    HW122028   3.653   1.952   7.180 -1.3353  0.6406 -0.6137
 3464SOL    HW222029   3.775   1.885   7.123  0.3143 -1.2245 -2.6410
 3465SOL     OW22030   3.348   4.719   9.685  0.5221  0.7047 -0.0357
 3465SOL    HW122031   3.397   0.039   9.625 -0.4652 -1.2373 -2.6805
 3465SOL    HW222032   3.294   0.044   9.734 -2.2967 -1.4786 -0.3257
 3466SOL     OW22033   3.459   4.140   9.749  0.1688  0.4351 -0.0788
 3466SOL    HW122034   3.473   4.227   9.712 -1.7087  0.7512 -0.0283
 3466SOL    HW222035   3.540   4.131   9.800 -0.3125  1.2150  0.8376
 3467SOL     OW22036   3.531   2.225   9.968  0.2988  0.0157  0.1145
 3467SOL    HW122037   3.513   2.168  10.043  0.1483  2.5564  2.0251
 3467SOL    HW222038   3.626   2.238   9.970  0.3828 -0.4760 -0.7665
 3468SOL     OW22039   3.014   3.902   8.925  0.1932 -0.5081 -0.4471
 3468SOL    HW122040   2.926   3.926   8.897  0.9087  1.0423 -1.3846
 3468SOL    HW222041   3.013   3.936   9.015 -0.7286  0.6534 -0.8951
 3469SOL     OW22042   2.819   3.904   7.417  0.6080 -0.2571  0.0502
 3469SOL    HW122043   2.754   3.921   7.348 -0.5233 -1.2527  0.8862
 3469SOL    HW222044   2.845   3.994   7.437 -1.3223  0.3965 -0.4109
 3470SOL     OW22045   0.939   4.533   3.815  0.0154  0.2523 -0.0246
 3470SOL    HW122046   0.898   4.613   3.849  1.0381  0.2647  1.1888
 3470SOL    HW222047   1.020   4.527   3.865 -0.4162  0.1248  0.6578
 3471SOL     OW22048   1.565   1.816   3.819 -0.0255 -0.3219 -0.4674
 3471SOL    HW122049   1.552   1.843   3.910  0.6944 -1.6828  0.0314
 3471SOL    HW222050   1.487   1.840   3.769  1.2406  1.0875 -1.7467
 3472SOL     OW22051   4.153   4.015   8.812 -0.4871 -0.5915 -0.2616
 3472SOL    HW122052   4.077   3.990   8.759 -1.6097  1.5402  0.3671
 3472SOL    HW222053   4.166   3.945   8.876 -1.0792 -1.4119 -1.0357
 3473SOL     OW22054   0.208   3.158   4.753  0.1964  0.1852 -0.1217
 3473SOL    HW122055   0.158   3.235   4.727 -0.9014 -0.6508 -0.4935
 3473SOL    HW222056   0.215   3.183   4.845  0.2204  2.7281 -0.8233
 3474SOL     OW22057   3.189   1.075   8.390  0.3042  0.0349 -0.4294
 3474SOL    HW122058   3.169   1.168   8.399 -2.2617 -0.4718 -0.9344
 3474SOL    HW222059   3.279   1.079   8.358  0.3575  1.0036 -0.1640
 3475SOL     OW22060   3.637   3.214   3.511  0.1132 -0.0059  0.5971
 3475SOL    HW122061   3.581   3.230   3.586  0.8389 -3.0249  1.8115
 3475SOL    HW222062   3.663   3.123   3.526 -1.9191 -0.6443  0.2252
 3476SOL     OW22063   2.640   3.266  11.600 -0.2904  0.4368  0.5355
 3476SOL    HW122064   2.674   3.283  11.688 -1.4996 -0.1145  1.0937
 3476SOL    HW222065   2.680   3.342  11.556 -0.7536 -0.4218 -1.3613
 3477SOL     OW22066   3.299   4.345  13.653 -0.6894 -0.3048 -0.5523
 3477SOL    HW122067   3.229   4.338  13.718  0.5607 -2.5175  0.5362
 3477SOL    HW222068   3.275   4.428  13.611 -0.3474  0.4397  0.7340
 3478SOL     OW22069   3.415   4.142   2.170  0.2266 -0.8696 -0.4922
 3478SOL    HW122070   3.501   4.117   2.136  0.8467  2.0298 -1.0052
 3478SOL    HW222071   3.437   4.171   2.258  0.1120 -2.4498  0.0674
 3479SOL     OW22072   4.501   1.541  10.097  0.3289  0.0467 -0.2861
 3479SOL    HW122073   4.485   1.459  10.142 -0.2447  0.9573  1.1585
 3479SOL    HW222074   4.590   1.557  10.127  0.4939 -1.3300 -0.0745
 3480SOL     OW22075   0.913   1.398   2.828  0.0501 -0.2221 -0.0889
 3480SOL    HW122076   0.897   1.408   2.922 -0.0917  3.0290 -0.4531
 3480SOL    HW222077   1.008   1.389   2.828  0.0502 -0.2138  0.4667
 3481SOL     OW22078   3.620   1.142   3.790 -0.4567 -0.3110 -0.6126
 3481SOL    HW122079   3.546   1.117   3.845 -0.4350  1.8102  0.3972
 3481SOL    HW222080   3.599   1.097   3.709  1.2319 -1.5649 -0.3473
 3482SOL     OW22081   3.204   1.249   9.441  0.6009 -0.1612  0.1368
 3482SOL    HW122082   3.272   1.256   9.375  1.4221  0.9123  1.0931
 3482SOL    HW222083   3.198   1.342   9.465  1.0279  0.5736 -2.5614
 3483SOL     OW22084   0.703   0.114  14.261  0.1636 -0.0911 -0.2107
 3483SOL    HW122085   0.735   0.047  14.321  1.6316  0.6300 -0.1836
 3483SOL    HW222086   0.779   0.128  14.204  0.0160 -2.9503 -1.0902
 3484SOL     OW22087   3.210   3.337   0.961  0.5639  0.1391 -0.2983
 3484SOL    HW122088   3.166   3.418   0.937 -1.1233 -1.0816 -1.3182
 3484SOL    HW222089   3.140   3.286   1.003 -0.1052  0.9566 -0.4286
 3485SOL     OW22090   3.550   2.192   6.281 -0.3538  0.1507  0.1198
 3485SOL    HW122091   3.643   2.172   6.296 -0.0129 -1.1041 -3.5069
 3485SOL    HW222092   3.560   2.256   6.211  3.6088 -1.9239 -1.2505
 3486SOL     OW22093   1.297   2.205   4.205 -0.5589 -0.5819 -0.0140
 3486SOL    HW122094   1.363   2.227   4.270  0.6597 -0.2699 -1.3576
 3486SOL    HW222095   1.228   2.173   4.264  0.1575 -2.6366 -0.2821
 3487SOL     OW22096   3.412   2.135   5.644 -0.1349 -0.1877  0.6813
 3487SOL    HW122097   3.399   2.057   5.591 -2.4078  1.0111 -0.5025
 3487SOL    HW222098   3.476   2.101   5.708  0.1009 -0.4403  0.3120
 3488SOL     OW22099   1.970   0.596   5.503  0.1396 -0.2703  0.1695
 3488SOL    HW122100   2.022   0.660   5.454 -0.4397  0.3800  0.4142
 3488SOL    HW222101   1.914   0.553   5.439 -0.3104 -1.9201  1.6583
 3489SOL     OW22102   0.545   1.366  13.720  0.3383 -0.1619  0.0437
 3489SOL    HW122103   0.567   1.353  13.813  0.0819  0.6353  0.2109
 3489SOL    HW222104   0.634   1.369  13.684  1.1183 -0.3366  1.9494
 3490SOL     OW22105   1.384   1.678   7.985  0.2779 -0.4847  0.1165
 3490SOL    HW122106   1.417   1.703   8.071 -0.4809  0.3361  0.1742
 3490SOL    HW222107   1.314   1.621   8.017  0.6000 -1.8282 -1.5999
 3491SOL     OW22108   2.089   2.460  10.340  0.4556  0.0661  0.2476
 3491SOL    HW122109   2.111   2.461  10.247  0.2754 -3.2182  0.1610
 3491SOL    HW222110   2.168   2.435  10.387  0.0201  0.5579  1.2459
 3492SOL     OW22111   4.513   0.451  17.370  0.5424 -0.2110 -0.2575
 3492SOL    HW122112   4.514   0.477  17.462 -2.6560 -0.5333 -0.1550
 3492SOL    HW222113   4.451   0.379  17.364  0.6889 -0.3524 -0.1002
 3493SOL     OW22114   1.468   2.759   8.057  0.0472 -0.2059 -0.4955
 3493SOL    HW122115   1.506   2.701   7.991  0.2271  0.3273 -0.8607
 3493SOL    HW222116   1.543   2.813   8.081 -0.2135  0.6654 -1.6708
 3494SOL     OW22117   4.459   2.467   9.508  0.4730  0.3851 -0.3644
 3494SOL    HW122118   4.544   2.502   9.482  0.1753  0.9245 -0.6062
 3494SOL    HW222119   4.464   2.457   9.603  0.8547  1.0025 -0.3181
 3495SOL     OW22120   1.022   4.372   9.406  0.0821  0.7254  0.3278
 3495SOL    HW122121   1.091   4.434   9.378  0.0296  0.9817  0.7677
 3495SOL    HW222122   1.062   4.288   9.385 -0.4818  0.4802  0.2530
 3496SOL     OW22123   0.333   2.449   4.994 -0.4085  0.0168  0.2408
 3496SOL    HW122124   0.307   2.406   4.913  1.0852  0.8157 -0.6720
 3496SOL    HW222125   0.250   2.479   5.030 -1.1320 -0.3714 -1.0815
 3497SOL     OW22126   2.774   2.181   3.034  0.0138  0.3285 -0.2312
 3497SOL    HW122127   2.752   2.103   3.086 -1.3441  1.5136  0.9835
 3497SOL    HW222128   2.780   2.148   2.945 -0.5015 -1.6719  0.4742
 3498SOL     OW22129   0.004   1.723   7.612 -0.2802 -0.3658  0.5507
 3498SOL    HW122130   0.015   1.650   7.674  1.6484 -0.9300 -0.4830
 3498SOL    HW222131   0.060   1.788   7.654 -0.8522  1.0651 -0.9276
 3499SOL     OW22132   1.489   2.617   9.620 -0.1085  0.3639  0.4051
 3499SOL    HW122133   1.506   2.523   9.608 -0.1655  0.1214  2.1048
 3499SOL    HW222134   1.504   2.638   9.528  0.4285  1.3488  0.7196
 3500SOL     OW22135   1.695   2.957   8.054 -0.5289 -0.6342  0.1818
 3500SOL    HW122136   1.636   3.031   8.045 -0.6730 -0.7000  0.5854
 3500SOL    HW222137   1.688   2.944   8.149  2.4899  1.4393  0.6905
 3501SOL     OW22138   4.360   3.855   3.575 -0.2213 -0.2024 -1.2430
 3501SOL    HW122139   4.284   3.804   3.549 -0.0363 -1.4842  0.7441
 3501SOL    HW222140   4.402   3.862   3.489  1.8196  1.2079 -0.1332
 3502SOL     OW22141   2.680   4.017   2.824  0.0404  0.3283  0.6056
 3502SOL    HW122142   2.645   4.007   2.913  2.7772  0.4199  1.6968
 3502SOL    HW222143   2.625   4.091   2.800  0.6695  0.0513 -1.6939
 3503SOL     OW22144   0.509   4.227   1.018  0.1405  0.2577 -0.1410
 3503SOL    HW122145   0.568   4.300   1.036 -1.0848  1.4313 -0.9470
 3503SOL    HW222146   0.559   4.207   0.939 -0.9406  2.6900 -1.4337
 3504SOL     OW22147   0.827   4.189  11.862  0.5724 -0.0224 -0.6300
 3504SOL    HW122148   0.916   4.159  11.840 -0.5760 -1.4565 -3.3292
 3504SOL    HW222149   0.842   4.250  11.933 -1.2418  1.6989 -1.7334
 3505SOL     OW22150   4.064   2.305   9.280 -0.1563 -0.4723  0.3415
 3505SOL    HW122151   4.069   2.210   9.274  1.9978 -0.4600  2.0211
 3505SOL    HW222152   4.128   2.328   9.347 -2.8467  1.8498  2.1499
 3506SOL     OW22153   2.406   1.110   8.066  0.1569  0.3057  0.2269
 3506SOL    HW122154   2.420   1.040   8.001  1.5447 -0.7676  1.6801
 3506SOL    HW222155   2.367   1.057   8.135  1.6248 -0.2593  0.6248
 3507SOL     OW22156   2.022   3.522   2.247 -0.4341 -0.8190 -0.7690
 3507SOL    HW122157   2.019   3.427   2.261 -0.4044 -0.4664  1.5634
 3507SOL    HW222158   2.020   3.532   2.151  1.4556  0.9004 -0.6169
 3508SOL     OW22159   0.200   2.726  11.641  0.5430  0.2105 -0.0984
 3508SOL    HW122160   0.295   2.728  11.641  0.5557 -0.3137  2.3845
 3508SOL    HW222161   0.184   2.817  11.665 -0.5651  0.2746 -1.0556
 3509SOL     OW22162   2.032   0.631  12.353  0.0713 -0.0896 -0.1382
 3509SOL    HW122163   2.124   0.653  12.368 -0.5770  2.8138 -0.4770
 3509SOL    HW222164   1.995   0.697  12.296 -0.8594  0.0364  0.6018
 3510SOL     OW22165   3.690   4.248   2.916 -0.2601  0.1717  0.0194
 3510SOL    HW122166   3.695   4.166   2.867 -0.3254 -0.5696  1.2589
 3510SOL    HW222167   3.761   4.244   2.980 -1.9089 -0.1317  1.7910
 3511SOL     OW22168   2.920   0.289   8.576 -0.7148  0.8694 -0.0811
 3511SOL    HW122169   2.988   0.223   8.591 -1.3073  0.0510 -1.0268
 3511SOL    HW222170   2.920   0.340   8.657 -0.1772  0.0071  0.4675
 3512SOL     OW22171   0.322   4.538  16.112 -0.2173 -0.7456 -0.2866
 3512SOL    HW122172   0.303   4.632  16.119  1.6763 -0.3900  0.2164
 3512SOL    HW222173   0.257   4.499  16.170 -1.2667  1.6030  0.1175
 3513SOL     OW22174   3.360   1.769   4.454 -0.3234  0.0557  0.3667
 3513SOL    HW122175   3.431   1.786   4.392 -1.2201  3.0374  0.1346
 3513SOL    HW222176   3.284   1.813   4.416  0.3483  0.8205 -0.0891
 3514SOL     OW22177   2.051   2.654   4.338 -0.3884  0.8987  0.9749
 3514SOL    HW122178   2.022   2.572   4.298  1.6012 -0.3184  2.0206
 3514SOL    HW222179   2.101   2.621   4.413 -0.7082 -1.0758  0.3231
 3515SOL     OW22180   3.522   0.572   1.541 -0.1268  0.7178  0.0241
 3515SOL    HW122181   3.492   0.605   1.626 -0.0684 -0.6089  0.5753
 3515SOL    HW222182   3.615   0.559   1.559 -0.4571  0.8444  1.8706
 3516SOL     OW22183   1.590   4.632   3.942 -0.4406  0.1296  0.0515
 3516SOL    HW122184   1.671   4.677   3.919 -1.6231  0.4374 -3.4480
 3516SOL    HW222185   1.534   4.700   3.981 -0.3104 -0.7029  1.7079
 3517SOL     OW22186   2.353   4.203   8.563 -0.6152 -0.5708 -0.1375
 3517SOL    HW122187   2.313   4.134   8.510  1.1699 -0.6009 -1.4403
 3517SOL    HW222188   2.283   4.244   8.613  0.5399  1.2476 -0.0351
 3518SOL     OW22189   4.184   0.081  16.438 -0.2059  0.6934  0.3417
 3518SOL    HW122190   4.254   0.019  16.459 -0.6509 -0.0479 -0.3840
 3518SOL    HW222191   4.101   0.034  16.430  0.9151 -1.0040 -1.5037
 3519SOL     OW22192   2.707   2.136   9.801 -0.4318  0.2016  0.6088
 3519SOL    HW122193   2.654   2.104   9.874  0.3031 -0.8217  0.6926
 3519SOL    HW222194   2.689   2.060   9.746 -0.3995  0.3398  0.4061
 3520SOL     OW22195   3.043   4.655  13.234  0.1781  0.4303  0.3392
 3520SOL    HW122196   3.099   4.660  13.156  1.4727  0.8891  1.3053
 3520SOL    HW222197   3.090   4.601  13.297  2.4497  3.9975  1.6921
 3521SOL     OW22198   3.816   2.115   8.338  0.1937  0.6645  0.3130
 3521SOL    HW122199   3.763   2.165   8.276  0.2657  0.0070 -0.2819
 3521SOL    HW222200   3.902   2.112   8.297  0.6041  2.7671  1.0274
 3522SOL     OW22201   3.007   1.585  15.447 -0.0883  0.0841 -0.3930
 3522SOL    HW122202   3.043   1.617  15.364 -0.4048 -0.8870 -0.9065
 3522SOL    HW222203   3.001   1.669  15.492 -0.3998  1.1771 -2.4597
 3523SOL     OW22204   1.771   2.736   6.972 -0.0889  0.0599  0.4845
 3523SOL    HW122205   1.835   2.696   7.030  0.6457  0.4397 -0.0728
 3523SOL    HW222206   1.744   2.659   6.921  1.4197 -0.9591  1.2367
 3524SOL     OW22207   3.617   3.732  13.225 -0.1624 -0.0685 -0.4693
 3524SOL    HW122208   3.697   3.693  13.189  0.1311  2.6354 -2.7530
 3524SOL    HW222209   3.563   3.745  13.148  2.2483 -2.7254 -2.5966
 3525SOL     OW22210   0.321   3.770   8.458 -0.0441 -0.0278  0.8699
 3525SOL    HW122211   0.291   3.854   8.424  3.5641  0.4929 -1.0051
 3525SOL    HW222212   0.415   3.787   8.465  0.2670 -1.4076  0.0008
 3526SOL     OW22213   0.773   2.047   7.782 -0.3393  0.2345  0.5922
 3526SOL    HW122214   0.734   2.121   7.828 -0.1696  0.1311  0.9013
 3526SOL    HW222215   0.838   2.100   7.736 -2.9041  1.5555 -1.5301
 3527SOL     OW22216   4.544   3.712  12.640  0.3811 -0.7215  0.1582
 3527SOL    HW122217   4.495   3.634  12.613 -0.6870 -0.4530  1.3063
 3527SOL    HW222218   4.564   3.710  12.734 -1.2515  0.1813  0.5098
 3528SOL     OW22219   2.704   2.217  17.091  0.5444  0.5098  0.0568
 3528SOL    HW122220   2.729   2.130  17.061 -0.5111 -0.0403  0.7786
 3528SOL    HW222221   2.643   2.242  17.021  0.9052 -1.2903 -0.8976
 3529SOL     OW22222   3.158   2.702   3.667 -0.2724  0.1874 -0.4367
 3529SOL    HW122223   3.251   2.688   3.647 -0.5229 -0.4057 -1.1984
 3529SOL    HW222224   3.161   2.792   3.699 -0.5055 -0.5506  1.6472
 3530SOL     OW22225   1.278   1.134   2.603  0.4325 -0.5406 -0.1856
 3530SOL    HW122226   1.213   1.157   2.536  0.4215  0.3423  0.1303
 3530SOL    HW222227   1.252   1.048   2.636 -0.2202  0.0212  0.7753
 3531SOL     OW22228   2.324   1.017   4.713  0.3504 -0.1054 -0.4330
 3531SOL    HW122229   2.362   1.088   4.765  0.4281 -1.0225  0.7548
 3531SOL    HW222230   2.397   0.955   4.711  1.1862  0.8129  3.5692
 3532SOL     OW22231   1.107   0.639   2.024  0.7177 -0.0573  0.1722
 3532SOL    HW122232   1.037   0.702   2.040 -0.8937 -1.4983 -1.1003
 3532SOL    HW222233   1.055   0.575   1.975 -0.0138  2.0248 -1.7518
 3533SOL     OW22234   3.336   3.995   6.069 -0.2132 -0.0349 -0.4454
 3533SOL    HW122235   3.418   3.977   6.024  0.0084  0.4514 -0.2440
 3533SOL    HW222236   3.312   3.904   6.085  1.7679 -0.0594  2.4152
 3534SOL     OW22237   1.564   0.663   8.504  0.6541 -0.0765 -0.0464
 3534SOL    HW122238   1.576   0.757   8.489  0.9321 -0.1422 -0.2240
 3534SOL    HW222239   1.491   0.647   8.444  0.0387 -0.2658  0.7383
 3535SOL     OW22240   4.179   0.818   4.970  0.6153  0.5815 -0.5092
 3535SOL    HW122241   4.121   0.742   4.975  0.9216  0.3012 -1.2537
 3535SOL    HW222242   4.228   0.797   4.891  1.6360 -1.1752  0.5910
 3536SOL     OW22243   4.058   4.593  16.327 -0.1001 -0.3154 -0.0601
 3536SOL    HW122244   4.110   4.513  16.329  0.1820 -0.1457 -0.9827
 3536SOL    HW222245   3.977   4.569  16.373  0.2969  0.4024  1.0244
 3537SOL     OW22246   4.006   1.016   6.614 -0.5151 -0.6851  0.3348
 3537SOL    HW122247   4.043   1.094   6.656  0.1279 -0.6091 -0.3733
 3537SOL    HW222248   4.041   0.941   6.662 -0.5388 -0.0228  1.3972
 3538SOL     OW22249   1.010   4.263   1.762 -0.6992  0.3967  0.4849
 3538SOL    HW122250   1.028   4.314   1.841  0.0876  1.2595 -0.2494
 3538SOL    HW222251   0.987   4.334   1.702  0.8675 -0.8201 -1.5825
 3539SOL     OW22252   2.256   0.046   3.178  0.4068  0.0427 -0.1771
 3539SOL    HW122253   2.200   0.095   3.238  0.2322 -2.4281  1.6673
 3539SOL    HW222254   2.254   0.115   3.111 -0.1084 -0.8256 -1.0502
 3540SOL     OW22255   3.764   1.756   8.791  0.0550  0.3469  0.5349
 3540SOL    HW122256   3.723   1.843   8.798  0.5549  0.5779  0.6096
 3540SOL    HW222257   3.852   1.779   8.821 -1.1142  2.8290  2.1177
 3541SOL     OW22258   0.612   3.706   5.589 -0.0056  0.1676  0.4572
 3541SOL    HW122259   0.696   3.660   5.585 -0.6357 -0.9593  0.1501
 3541SOL    HW222260   0.583   3.660   5.510 -2.0853 -1.0178  1.9243
 3542SOL     OW22261   0.599   2.618  15.902  0.1721 -0.0228  0.4168
 3542SOL    HW122262   0.569   2.707  15.918  0.2162 -0.0776  0.7910
 3542SOL    HW222263   0.634   2.639  15.815  1.0870  0.5383  0.9265
 3543SOL     OW22264   3.997   4.723   2.161 -0.1306 -0.2279 -0.0354
 3543SOL    HW122265   3.902   4.727   2.147 -0.0656 -0.4250 -0.5142
 3543SOL    HW222266   4.000   4.716   2.257  1.0763 -2.3836 -0.2255
 3544SOL     OW22267   0.525   2.699   7.921  0.0392  0.4657  0.4164
 3544SOL    HW122268   0.621   2.694   7.917  0.0540 -0.7154  2.4468
 3544SOL    HW222269   0.506   2.656   7.837  0.4562 -0.2149  0.6756
 3545SOL     OW22270   2.573   4.611  15.397  0.1738  0.1472  0.6938
 3545SOL    HW122271   2.539   4.535  15.443 -0.5115 -0.2789 -0.5275
 3545SOL    HW222272   2.531   4.683  15.445 -1.6385  1.4754 -2.8789
 3546SOL     OW22273   3.190   0.278   5.818  0.2518 -0.7260 -0.2432
 3546SOL    HW122274   3.189   0.216   5.891  0.0801 -2.3391 -1.6052
 3546SOL    HW222275   3.112   0.329   5.840  1.2024 -0.3902  2.3095
 3547SOL     OW22276   4.646   4.494  11.016 -0.5919 -0.2913 -0.3395
 3547SOL    HW122277   4.649   4.479  11.110  0.5703 -2.4309 -0.6977
 3547SOL    HW222278   4.597   4.414  10.993 -0.3893 -0.8820  1.2738
 3548SOL     OW22279   3.934   0.661   0.561 -0.1839  0.1900  0.3102
 3548SOL    HW122280   3.854   0.641   0.610 -0.2292 -0.3651  0.0139
 3548SOL    HW222281   3.978   0.728   0.614 -1.6747  0.3581  1.3441
 3549SOL     OW22282   3.604   1.340  16.771  0.5924 -0.9137 -0.2014
 3549SOL    HW122283   3.618   1.370  16.861  0.1398 -0.2631 -0.3475
 3549SOL    HW222284   3.578   1.249  16.778 -0.3133 -0.6057  0.3615
 3550SOL     OW22285   1.051   1.876   7.753 -0.2107  0.0249 -0.4867
 3550SOL    HW122286   1.146   1.874   7.770 -0.2100 -1.9365 -0.7779
 3550SOL    HW222287   1.023   1.964   7.780 -0.1151  0.4895 -1.8913
 3551SOL     OW22288   3.875   3.034   6.517 -0.4299 -0.7563  0.1748
 3551SOL    HW122289   3.906   3.125   6.515  1.6074 -1.4697 -0.8293
 3551SOL    HW222290   3.955   2.987   6.497  0.2258  1.3975 -2.3228
 3552SOL     OW22291   3.075   0.912   7.989  0.2362 -0.2514  0.4926
 3552SOL    HW122292   3.130   0.867   8.054  1.8298 -0.6365 -1.1136
 3552SOL    HW222293   2.994   0.898   8.038  1.0232  0.4097  1.9713
 3553SOL     OW22294   1.978   4.142   3.594 -0.0514 -0.6927  0.0150
 3553SOL    HW122295   2.037   4.152   3.520 -0.2203 -2.0639 -0.3233
 3553SOL    HW222296   1.989   4.050   3.620 -1.1108 -1.2717 -1.5452
 3554SOL     OW22297   0.242   3.362   2.018 -0.3144 -0.2102  0.1340
 3554SOL    HW122298   0.216   3.298   2.084 -0.6494  0.2441  0.4400
 3554SOL    HW222299   0.331   3.328   2.004 -0.1947  0.9875 -2.0024
 3555SOL     OW22300   3.652   2.585   4.035 -0.5637  0.2773 -0.5011
 3555SOL    HW122301   3.618   2.541   3.957  0.3683 -2.2698  0.5325
 3555SOL    HW222302   3.571   2.575   4.085  0.0811 -2.0010  0.0703
 3556SOL     OW22303   2.373   2.976   2.317  0.3180  0.0226 -0.7531
 3556SOL    HW122304   2.384   2.920   2.394 -1.6216  1.1338  0.3447
 3556SOL    HW222305   2.313   2.926   2.262  0.9152 -1.2355 -0.2704
 3557SOL     OW22306   3.169   2.211   5.753 -0.4109 -0.0128  0.2767
 3557SOL    HW122307   3.178   2.303   5.730  0.3570  0.1570  1.3100
 3557SOL    HW222308   3.257   2.176   5.742 -0.3212 -0.4793  2.4924
 3558SOL     OW22309   3.211   1.745   7.055  0.1741  0.1735 -0.1631
 3558SOL    HW122310   3.221   1.662   7.008 -0.6086  0.1140 -0.2265
 3558SOL    HW222311   3.305   1.756   7.066 -0.0520  2.2098 -0.1893
 3559SOL     OW22312   0.422   0.491   2.826 -0.5467  0.1166 -0.0296
 3559SOL    HW122313   0.354   0.424   2.823 -1.2686  0.8071  0.7108
 3559SOL    HW222314   0.386   0.532   2.905 -2.3956 -0.9473 -0.3205
 3560SOL     OW22315   1.153   1.776   9.603  0.1615 -0.1807 -0.4922
 3560SOL    HW122316   1.140   1.738   9.690  1.6661  0.5653  0.0547
 3560SOL    HW222317   1.248   1.767   9.595 -0.0375 -1.7548 -0.8629
 3561SOL     OW22318   1.845   4.540   1.195  0.3851  0.4987  0.4336
 3561SOL    HW122319   1.869   4.629   1.223 -2.7563  0.9448  1.6726
 3561SOL    HW222320   1.751   4.557   1.204  0.1482 -2.1685  2.6545
 3562SOL     OW22321   3.246   3.561  16.385 -0.1666  0.9071 -0.3417
 3562SOL    HW122322   3.261   3.500  16.458  3.2904  1.1157 -0.8971
 3562SOL    HW222323   3.252   3.653  16.411 -0.2238  1.3243 -1.8144
 3563SOL     OW22324   4.068   1.126   0.536 -0.5170  0.0845 -0.0673
 3563SOL    HW122325   4.029   1.080   0.610 -2.0970 -1.0318 -1.6000
 3563SOL    HW222326   4.020   1.208   0.552  0.4451  0.4153  1.1414
 3564SOL     OW22327   0.389   4.600  10.142  0.5156  0.5639  0.4029
 3564SOL    HW122328   0.403   4.692  10.121 -0.8493  0.6557 -0.1232
 3564SOL    HW222329   0.326   4.586  10.071 -0.2170  1.0708  0.9539
 3565SOL     OW22330   3.740   3.681   5.815  0.6620  0.3402 -0.0957
 3565SOL    HW122331   3.758   3.587   5.811  1.1009  0.4691 -1.0375
 3565SOL    HW222332   3.707   3.697   5.727 -1.0800  1.2593  0.7221
 3566SOL     OW22333   1.568   3.032  10.069 -0.1705  0.1992 -0.5164
 3566SOL    HW122334   1.629   2.982  10.123 -1.2756 -0.4007  0.1945
 3566SOL    HW222335   1.629   3.093  10.029 -0.9528  2.4574  1.7223
 3567SOL     OW22336   4.561   4.444   8.126  0.3637  0.0630 -0.2333
 3567SOL    HW122337   4.484   4.387   8.118  0.5844 -0.1398 -0.9035
 3567SOL    HW222338   4.523   4.530   8.142 -3.0120 -1.2902 -1.0737
 3568SOL     OW22339   3.101   0.306   5.530  0.5544 -0.3614  0.0185
 3568SOL    HW122340   3.114   0.304   5.625  2.1986 -0.3321 -0.2021
 3568SOL    HW222341   3.100   0.401   5.519  0.2836 -0.3299  0.2865
 3569SOL     OW22342   3.587   2.199  14.941 -0.0719  0.1728  0.3568
 3569SOL    HW122343   3.609   2.289  14.966 -2.1340  1.3401 -2.1056
 3569SOL    HW222344   3.615   2.155  15.022  0.9024 -0.8712 -0.5443
 3570SOL     OW22345   2.848   2.362  15.043 -0.5344 -0.7066 -0.0324
 3570SOL    HW122346   2.852   2.423  15.116 -2.0816 -0.1703 -0.3993
 3570SOL    HW222347   2.788   2.410  14.986  1.9125  3.2542  0.7349
 3571SOL     OW22348   4.544   2.825   8.194 -0.1476 -0.6201  0.1945
 3571SOL    HW122349   4.631   2.792   8.171  0.8401  1.8596  0.4125
 3571SOL    HW222350   4.515   2.834   8.103  0.3119 -1.3988 -0.0291
 3572SOL     OW22351   2.351   0.376   6.624  0.5024 -0.4538 -0.1407
 3572SOL    HW122352   2.409   0.395   6.698 -0.1284  1.1683 -0.0538
 3572SOL    HW222353   2.264   0.403   6.654  0.6366 -0.1711 -0.0075
 3573SOL     OW22354   2.374   2.388   8.312  0.8679 -0.1359  1.2208
 3573SOL    HW122355   2.294   2.406   8.362  0.1191 -0.9394  0.3099
 3573SOL    HW222356   2.341   2.319   8.255  1.8938 -0.4194  0.9664
 3574SOL     OW22357   2.823   0.247   4.022  0.2147 -0.5093 -0.4738
 3574SOL    HW122358   2.852   0.262   3.932  1.0237  0.6254 -0.0135
 3574SOL    HW222359   2.734   0.213   4.007  1.1764 -2.6723 -1.2910
 3575SOL     OW22360   3.564   1.589   1.986  0.0881  0.1049 -0.4423
 3575SOL    HW122361   3.569   1.604   1.892 -0.2621  0.1435 -0.4563
 3575SOL    HW222362   3.478   1.546   1.991 -0.1428  0.5982 -0.2391
 3576SOL     OW22363   4.685   2.754   2.002  0.0903  0.1265 -0.0069
 3576SOL    HW122364   0.018   2.770   2.065  1.0952 -0.4128 -0.9801
 3576SOL    HW222365   4.700   2.668   1.965 -0.5407  0.0853 -0.1797
 3577SOL     OW22366   4.250   1.062   9.327  0.7645  0.7454 -0.1921
 3577SOL    HW122367   4.307   1.052   9.404  1.7375 -1.9815 -1.2889
 3577SOL    HW222368   4.223   1.153   9.341  0.2887  0.5367  0.2405
 3578SOL     OW22369   2.721   1.870   1.236  0.1890 -0.1881 -0.2585
 3578SOL    HW122370   2.786   1.806   1.267  3.9354  2.9220 -1.6398
 3578SOL    HW222371   2.740   1.953   1.279 -1.0638  0.5370 -1.1038
 3579SOL     OW22372   0.389   4.131   6.597  0.4906  0.0643 -0.2938
 3579SOL    HW122373   0.455   4.184   6.552 -0.1310  1.0945  0.0121
 3579SOL    HW222374   0.399   4.048   6.551 -0.8346 -0.6571  0.7240
 3580SOL     OW22375   2.446   1.651  10.213  0.3404  0.1640 -0.1620
 3580SOL    HW122376   2.404   1.669  10.129 -1.3456  3.1193  1.3018
 3580SOL    HW222377   2.429   1.736  10.256 -1.1615 -0.1853 -0.0507
 3581SOL     OW22378   4.573   0.532   6.378 -0.2906  0.3625 -0.0360
 3581SOL    HW122379   4.550   0.470   6.309  0.8523  1.4078 -1.3603
 3581SOL    HW222380   4.603   0.604   6.323  0.3670 -0.5959 -0.9359
 3582SOL     OW22381   1.416   0.093   4.057  0.5509 -0.5151  0.3720
 3582SOL    HW122382   1.395   0.163   4.119  1.1969 -0.8662  0.9768
 3582SOL    HW222383   1.436   0.148   3.982 -1.3569 -0.1565  0.1276
 3583SOL     OW22384   2.854   4.139   2.082 -0.2670  0.6605 -0.5184
 3583SOL    HW122385   2.848   4.234   2.080 -0.7980  0.6228 -0.6135
 3583SOL    HW222386   2.824   4.122   1.993 -1.6905  0.3491  0.0211
 3584SOL     OW22387   0.138   3.928  12.422  0.5324 -0.5544 -0.3454
 3584SOL    HW122388   0.209   3.983  12.456  0.2507 -1.0082  0.9502
 3584SOL    HW222389   0.117   3.879  12.501  0.1777  2.6170  1.5204
 3585SOL     OW22390   2.333   4.251   5.332 -0.3721  0.0407  0.0249
 3585SOL    HW122391   2.315   4.221   5.422  2.2299  0.4758  0.7051
 3585SOL    HW222392   2.326   4.346   5.339 -0.7253 -0.1928  3.1460
 3586SOL     OW22393   3.453   2.189   9.067  0.1271  0.2374 -0.5277
 3586SOL    HW122394   3.386   2.207   9.133  1.8178  3.5580  0.2359
 3586SOL    HW222395   3.401   2.136   9.006 -0.3138 -1.7884  1.5912
 3587SOL     OW22396   3.797   4.605   8.900 -0.7557  0.6637  0.5806
 3587SOL    HW122397   3.758   4.673   8.955  0.7809 -0.4501  3.0725
 3587SOL    HW222398   3.758   4.616   8.813  0.1590  1.0821  0.2205
 3588SOL     OW22399   3.433   0.350   4.719  0.1794  0.0822 -0.0199
 3588SOL    HW122400   3.487   0.396   4.783  2.5191 -1.6420 -0.7485
 3588SOL    HW222401   3.348   0.393   4.732 -1.3276 -2.1974 -2.3151
 3589SOL     OW22402   1.189   1.976   8.808  0.0572  0.2221 -0.6186
 3589SOL    HW122403   1.205   1.941   8.720  1.6228  1.3467 -0.7687
 3589SOL    HW222404   1.160   2.066   8.792  2.6720  1.4929  1.8467
 3590SOL     OW22405   4.335   3.293  16.434 -0.0543 -0.1642  0.1297
 3590SOL    HW122406   4.382   3.262  16.511 -1.0244 -1.1503  0.3246
 3590SOL    HW222407   4.246   3.289  16.471 -0.2701 -1.4607 -0.5592
 3591SOL     OW22408   3.059   1.690   4.847 -0.0486 -0.4480 -0.3593
 3591SOL    HW122409   3.032   1.642   4.769  1.6717  0.5313 -1.5425
 3591SOL    HW222410   3.025   1.644   4.924  2.8983 -1.0916  0.5607
 3592SOL     OW22411   1.106   4.223   1.293  0.3663  0.5146 -0.5855
 3592SOL    HW122412   1.129   4.180   1.376  0.8919  1.6850 -0.1293
 3592SOL    HW222413   1.119   4.310   1.330  0.2942 -0.5296  1.9591
 3593SOL     OW22414   1.189   1.569   1.226  0.2749 -0.1433 -0.2935
 3593SOL    HW122415   1.204   1.657   1.192  0.0647  0.4676  1.1899
 3593SOL    HW222416   1.249   1.517   1.172 -0.2914  0.1799 -1.2347
 3594SOL     OW22417   0.791   1.515   8.305 -0.0442 -0.3065 -0.3845
 3594SOL    HW122418   0.807   1.496   8.213 -2.7328 -3.2512 -0.2632
 3594SOL    HW222419   0.714   1.570   8.295 -0.2796 -0.2317  1.7005
 3595SOL     OW22420   0.234   0.298   4.087  0.0080  0.4083 -0.6729
 3595SOL    HW122421   0.185   0.232   4.136  1.1377  0.6268  0.7500
 3595SOL    HW222422   0.177   0.374   4.102 -1.0954 -0.3707 -0.8988
 3596SOL     OW22423   2.640   0.907   6.797 -0.4510  0.3708  0.1858
 3596SOL    HW122424   2.557   0.901   6.844 -0.2319 -1.9064  0.3061
 3596SOL    HW222425   2.685   0.987   6.825 -1.6895  0.8744  0.6989
 3597SOL     OW22426   3.677   0.880  13.508 -0.3021  0.4990  0.3440
 3597SOL    HW122427   3.739   0.950  13.486  0.6772 -0.5432 -0.1648
 3597SOL    HW222428   3.649   0.861  13.419 -0.4136 -2.0903  0.9390
 3598SOL     OW22429   0.753   4.226   5.222 -0.6693  0.1316  0.1823
 3598SOL    HW122430   0.799   4.295   5.176  1.0339  0.4278  2.3617
 3598SOL    HW222431   0.816   4.154   5.214  1.0806  1.5832  1.1984
 3599SOL     OW22432   4.028   0.299   3.166  0.2261  0.1915  0.1623
 3599SOL    HW122433   3.947   0.250   3.149 -0.2184  1.0223 -0.1054
 3599SOL    HW222434   4.012   0.377   3.114  1.7291  1.5327  1.7434
 3600SOL     OW22435   4.592   3.100   7.359  0.1653 -0.0648 -0.4724
 3600SOL    HW122436   4.594   3.191   7.387 -0.3997 -0.4259  0.7621
 3600SOL    HW222437   4.616   3.117   7.268  2.4156 -1.5915 -0.1552
 3601SOL     OW22438   1.737   0.568  16.854  0.3529  0.4283  0.2169
 3601SOL    HW122439   1.817   0.540  16.899  0.5995 -0.1323 -0.5551
 3601SOL    HW222440   1.682   0.491  16.839  0.9893  0.2634 -1.2710
 3602SOL     OW22441   0.005   4.417   9.291 -0.5738 -0.1500 -0.2895
 3602SOL    HW122442   0.023   4.323   9.283  2.2719  0.2192  1.6442
 3602SOL    HW222443   4.683   4.436   9.218 -2.0658  0.2466  1.0327
 3603SOL     OW22444   2.522   0.791   9.027  0.7105  0.0944  0.6784
 3603SOL    HW122445   2.509   0.765   8.936 -1.7669 -0.6521  1.2498
 3603SOL    HW222446   2.501   0.708   9.070  1.1050 -0.8971 -1.0583
 3604SOL     OW22447   0.756   0.926   4.103  0.6650  0.6490  0.3974
 3604SOL    HW122448   0.804   0.848   4.130 -0.7272 -0.3902 -0.1671
 3604SOL    HW222449   0.775   0.935   4.010  0.6932  1.4444  0.4743
 3605SOL     OW22450   2.630   0.381   2.292 -0.3368 -0.8643 -0.0918
 3605SOL    HW122451   2.600   0.293   2.313 -0.1617 -0.0874  3.3985
 3605SOL    HW222452   2.703   0.397   2.351  0.4894  2.3915 -1.9784
 3606SOL     OW22453   1.024   0.317   7.515  0.1004 -0.0915  0.9751
 3606SOL    HW122454   0.979   0.235   7.494 -2.1292  0.5976  3.1804
 3606SOL    HW222455   1.069   0.342   7.434 -0.6624  1.1620  0.9377
 3607SOL     OW22456   0.796   1.305   3.276  0.1493 -0.0378  0.1078
 3607SOL    HW122457   0.731   1.373   3.291 -1.4258 -1.7350  0.9629
 3607SOL    HW222458   0.830   1.287   3.364  2.8855 -0.4693 -1.0269
 3608SOL     OW22459   1.341   3.311   3.612  0.3142 -0.3493  0.2368
 3608SOL    HW122460   1.400   3.296   3.686 -1.2184 -1.7677  1.2096
 3608SOL    HW222461   1.319   3.404   3.617  2.1897  0.1607 -1.2925
 3609SOL     OW22462   0.629   2.236   5.684  0.3849 -0.1368  0.0404
 3609SOL    HW122463   0.580   2.195   5.756  0.6648  3.3408  2.1771
 3609SOL    HW222464   0.606   2.328   5.698 -0.4999 -0.5961  1.6918
 3610SOL     OW22465   3.145   2.907  16.659  0.1669  0.1261 -0.0550
 3610SOL    HW122466   3.171   2.954  16.579  0.7441  0.7090  0.4664
 3610SOL    HW222467   3.151   2.976  16.726  0.8640 -0.4128  0.4404
 3611SOL     OW22468   3.632   4.577   9.282 -0.2614 -0.2353  0.5062
 3611SOL    HW122469   3.676   4.517   9.342  0.0472 -1.1039 -0.6031
 3611SOL    HW222470   3.542   4.546   9.292  0.2002 -2.0816 -1.2904
 3612SOL     OW22471   0.874   0.779   3.049 -0.1034  0.7834 -0.4044
 3612SOL    HW122472   0.891   0.775   2.955 -0.3616 -1.0910 -0.3594
 3612SOL    HW222473   0.863   0.875   3.050 -2.2441  0.5311  1.6858
 3613SOL     OW22474   2.514   2.956   7.930  0.3261  0.0482  0.0512
 3613SOL    HW122475   2.510   3.050   7.915  1.6860 -0.2648 -2.1504
 3613SOL    HW222476   2.521   2.921   7.842 -0.2351  0.0423  0.0063
 3614SOL     OW22477   0.163   2.896   6.522 -0.1618  0.4132 -0.1926
 3614SOL    HW122478   0.218   2.893   6.444  0.4758 -1.0125  0.3155
 3614SOL    HW222479   0.087   2.947   6.493 -0.0853  0.2297 -0.7146
 3615SOL     OW22480   0.936   3.740   7.806 -0.3894 -0.4233 -0.5790
 3615SOL    HW122481   1.006   3.685   7.771  0.1997 -0.5442  0.7790
 3615SOL    HW222482   0.965   3.826   7.776  0.4386 -1.3005 -2.2868
 3616SOL     OW22483   0.163   3.486   5.972 -0.2869 -0.2263 -0.2584
 3616SOL    HW122484   0.100   3.423   6.006  0.5123 -1.4947 -1.1318
 3616SOL    HW222485   0.237   3.461   6.026  0.0880 -2.3456 -1.7731
 3617SOL     OW22486   3.709   4.173   3.856 -0.2162  0.6677 -0.5484
 3617SOL    HW122487   3.703   4.125   3.773 -0.2452 -1.6729  0.8272
 3617SOL    HW222488   3.711   4.099   3.916  0.2922  1.4681  0.4123
 3618SOL     OW22489   0.754   2.483   4.844  0.0989  0.0841 -0.1021
 3618SOL    HW122490   0.743   2.577   4.828  4.0106  0.7193  1.0300
 3618SOL    HW222491   0.762   2.451   4.754  0.6548 -0.0470 -0.0017
 3619SOL     OW22492   1.662   1.839   5.519 -0.5227 -0.3962  0.0074
 3619SOL    HW122493   1.747   1.879   5.537 -0.0187  0.5979 -4.5650
 3619SOL    HW222494   1.603   1.909   5.547  1.4953  0.7264  1.4700
 3620SOL     OW22495   1.707   3.337   7.367 -0.1408 -0.2930  0.2562
 3620SOL    HW122496   1.731   3.375   7.283  0.8674  0.6475  0.9775
 3620SOL    HW222497   1.727   3.243   7.369 -2.2827 -0.7350  0.3848
 3621SOL     OW22498   3.627   1.716   6.215 -0.0662 -0.3367  0.0394
 3621SOL    HW122499   3.700   1.727   6.275  1.7611 -0.9414 -2.0820
 3621SOL    HW222500   3.617   1.621   6.214  2.3373 -0.5739 -0.9670
 3622SOL     OW22501   3.821   3.721   6.174 -0.3221  0.1714 -0.4679
 3622SOL    HW122502   3.881   3.739   6.101 -0.9551 -0.0170 -1.0295
 3622SOL    HW222503   3.886   3.743   6.240 -1.0203 -0.5179  0.4357
 3623SOL     OW22504   1.868   3.857   8.590 -0.2784 -0.3340 -0.5573
 3623SOL    HW122505   1.792   3.806   8.620  0.5331 -0.5416  1.1515
 3623SOL    HW222506   1.833   3.879   8.504  1.1883  0.9650 -0.8116
 3624SOL     OW22507   4.269   3.318   5.238 -0.3136  0.1046 -0.0568
 3624SOL    HW122508   4.242   3.349   5.152 -2.0244  0.4777  0.6066
 3624SOL    HW222509   4.324   3.392   5.262 -0.7506  0.7143 -0.9769
 3625SOL     OW22510   4.662   3.723  17.235 -0.4351 -0.3110  0.3083
 3625SOL    HW122511   4.736   3.703  17.292 -3.3891 -2.7303  3.2628
 3625SOL    HW222512   4.645   3.639  17.192  0.9612  0.1197 -1.1146
 3626SOL     OW22513   1.609   2.120   2.712  0.4698 -0.1048 -0.1907
 3626SOL    HW122514   1.646   2.076   2.788 -1.5360 -1.2413  0.1204
 3626SOL    HW222515   1.521   2.083   2.709  0.0766  0.7199  1.3458
 3627SOL     OW22516   1.034   3.498   3.044 -0.2178  0.1878 -0.6092
 3627SOL    HW122517   1.107   3.450   3.085  0.1156  0.7325 -0.5630
 3627SOL    HW222518   1.043   3.579   3.094  0.7037 -0.7091  0.6993
 3628SOL     OW22519   0.057   2.320   3.277  0.0538 -0.4022 -0.6422
 3628SOL    HW122520   0.027   2.380   3.209  2.1446  1.5148  0.1301
 3628SOL    HW222521   4.716   2.272   3.305 -0.9915  1.2650 -0.7396
 3629SOL     OW22522   3.664   1.360  16.463  0.1899 -0.2379 -0.3881
 3629SOL    HW122523   3.712   1.301  16.404 -0.1826 -3.1056  2.2020
 3629SOL    HW222524   3.710   1.351  16.547 -1.0148 -0.5511  0.2319
 3630SOL     OW22525   1.344   3.217   6.147  0.6488  0.0807 -0.2753
 3630SOL    HW122526   1.320   3.221   6.055 -2.6941  0.6359  0.6159
 3630SOL    HW222527   1.440   3.211   6.146  0.6909  0.5887  0.6557
 3631SOL     OW22528   0.997   0.755   7.460  0.2465 -0.0734 -0.4689
 3631SOL    HW122529   1.087   0.723   7.463  0.4358  0.6780  1.9517
 3631SOL    HW222530   1.004   0.816   7.533  1.6996  0.4616 -1.0661
 3632SOL     OW22531   2.556   3.386   8.867  0.4723  0.7647 -0.2278
 3632SOL    HW122532   2.637   3.435   8.881  1.7344 -1.1865 -0.6656
 3632SOL    HW222533   2.532   3.362   8.957 -1.2175 -1.9256 -1.3934
 3633SOL     OW22534   4.602   0.453   4.775  0.1735  0.8161 -0.3811
 3633SOL    HW122535   4.648   0.390   4.831 -0.5886  1.5209  1.0360
 3633SOL    HW222536   4.664   0.456   4.702  1.5157  2.2312  0.8454
 3634SOL     OW22537   2.666   3.678   9.312  0.1630  0.0455  0.0527
 3634SOL    HW122538   2.650   3.749   9.375  1.9173 -0.9393  1.5750
 3634SOL    HW222539   2.583   3.634   9.291 -1.2011  1.7574  1.8477
 3635SOL     OW22540   1.508   4.049   3.585  0.4037  0.2463  0.3439
 3635SOL    HW122541   1.523   4.060   3.679 -0.4247 -0.7996  0.6008
 3635SOL    HW222542   1.578   4.105   3.551 -0.0596  1.3541  1.2201
 3636SOL     OW22543   3.446   0.102   0.991  0.0092  0.1219  0.2189
 3636SOL    HW122544   3.437   0.190   0.954  1.5126  1.0478  2.0804
 3636SOL    HW222545   3.442   0.047   0.913  0.2831  0.2932  0.0829
 3637SOL     OW22546   0.193   3.778   0.319 -0.2643  0.1063 -0.1221
 3637SOL    HW122547   0.130   3.832   0.272 -1.5543  0.0591  1.5492
 3637SOL    HW222548   0.158   3.787   0.408  1.9500  0.9057  0.6641
 3638SOL     OW22549   0.003   3.791   8.219  0.6157 -1.2122 -0.5413
 3638SOL    HW122550   4.690   3.731   8.165  0.1199 -1.1792 -0.1174
 3638SOL    HW222551   4.696   3.769   8.302 -1.9446 -1.4893 -1.9826
 3639SOL     OW22552   3.615   2.407  10.446 -0.1061 -0.2823 -0.1324
 3639SOL    HW122553   3.564   2.457  10.510 -2.5377 -1.4837 -1.0965
 3639SOL    HW222554   3.700   2.450  10.445  0.8597 -2.2256 -0.7432
 3640SOL     OW22555   1.843   3.714   7.722  0.6587  0.4156 -0.0287
 3640SOL    HW122556   1.899   3.714   7.644 -0.4328 -0.9461 -0.8263
 3640SOL    HW222557   1.875   3.798   7.754 -0.4985  0.2706  1.5062
 3641SOL     OW22558   4.677   2.891   9.610 -0.0535 -0.2309 -0.0616
 3641SOL    HW122559   4.674   2.875   9.704 -0.2718  0.0886 -0.0149
 3641SOL    HW222560   0.020   2.942   9.602 -0.7472  0.3673 -3.4639
 3642SOL     OW22561   1.162   2.458   7.620 -1.4134  0.1142  0.5652
 3642SOL    HW122562   1.102   2.448   7.546  0.0185  1.9655 -0.8244
 3642SOL    HW222563   1.174   2.552   7.607 -1.0751  0.0749  0.5948
 3643SOL     OW22564   1.984   4.184  17.672  0.3658 -0.0078 -0.2335
 3643SOL    HW122565   2.001   4.256  17.733  2.1719  0.2704 -1.0896
 3643SOL    HW222566   1.895   4.204  17.643  0.3542 -0.1737 -0.3141
 3644SOL     OW22567   0.485   0.008   3.773 -0.3587 -0.9866  0.1790
 3644SOL    HW122568   0.474   0.100   3.750  0.0360 -0.6804  1.1955
 3644SOL    HW222569   0.466   4.698   3.692  0.3882  1.4866 -1.4392
 3645SOL     OW22570   0.309   1.928  15.632 -0.0466  0.1941  0.2651
 3645SOL    HW122571   0.330   2.020  15.649  3.1088 -0.5538  0.4148
 3645SOL    HW222572   0.360   1.897  15.557 -0.4406  0.9107 -0.3052
 3646SOL     OW22573   3.675   1.685   4.875  0.1353  0.1611 -0.1774
 3646SOL    HW122574   3.744   1.739   4.838  1.4746 -0.3333  1.6163
 3646SOL    HW222575   3.606   1.699   4.810 -1.6458 -0.3199  1.6080
 3647SOL     OW22576   4.093   4.375  12.031  0.1762  0.7945 -0.0734
 3647SOL    HW122577   4.059   4.410  11.949 -1.0659 -1.7995 -0.6656
 3647SOL    HW222578   4.183   4.403  12.015  1.2907 -2.1989  0.7885
 3648SOL     OW22579   4.237   4.397   3.798  0.2360  0.1001  0.1433
 3648SOL    HW122580   4.248   4.405   3.703 -0.7461 -0.7746 -0.0429
 3648SOL    HW222581   4.147   4.426   3.814  1.0794  2.2298  1.1208
 3649SOL     OW22582   2.463   0.792   4.716  0.8307  0.1410 -0.2700
 3649SOL    HW122583   2.530   0.798   4.785  0.8065  0.1571 -0.2477
 3649SOL    HW222584   2.519   0.776   4.640  0.7898 -0.3430 -0.2023
 3650SOL     OW22585   2.073   2.683  17.463 -0.1794 -0.1453 -0.1629
 3650SOL    HW122586   2.102   2.593  17.473 -1.6526 -0.3551  2.4396
 3650SOL    HW222587   2.160   2.721  17.475  0.5005 -2.2288  1.4894
 3651SOL     OW22588   3.592   0.418  17.331 -0.2917  0.3589  0.7011
 3651SOL    HW122589   3.596   0.417  17.236 -1.9814  2.6953  0.6194
 3651SOL    HW222590   3.570   0.509  17.350 -0.7804  0.2987  0.4182
 3652SOL     OW22591   4.169   1.737  16.599 -0.2314  0.0102  0.4715
 3652SOL    HW122592   4.162   1.830  16.618 -3.9054 -0.5886  2.0643
 3652SOL    HW222593   4.190   1.699  16.684  0.3444  1.6672  1.0704
 3653SOL     OW22594   1.030   2.838   5.994  0.5099  0.2210  0.5420
 3653SOL    HW122595   1.109   2.793   5.964 -1.6042 -2.8631 -0.3991
 3653SOL    HW222596   1.053   2.856   6.085  1.7898  1.6651 -0.0751
 3654SOL     OW22597   1.130   4.734   5.867 -0.3115  0.6800 -0.0156
 3654SOL    HW122598   1.119   4.652   5.819  2.0524  0.0053  0.6066
 3654SOL    HW222599   1.094   0.065   5.810 -0.0461 -0.2908 -1.3310
 3655SOL     OW22600   4.044   2.988   7.939 -0.4034  0.2889  0.0528
 3655SOL    HW122601   3.981   2.956   8.002  0.0792  1.6126  1.2131
 3655SOL    HW222602   4.064   3.069   7.985  1.7552 -0.8576  1.1409
 3656SOL     OW22603   0.869   3.413   6.360  0.0977 -0.3503 -0.4933
 3656SOL    HW122604   0.789   3.391   6.312  0.3475 -4.3852  0.9523
 3656SOL    HW222605   0.840   3.395   6.449  0.0382  1.5346 -0.1344
 3657SOL     OW22606   0.484   1.750  16.386 -0.2118 -0.0993 -0.1247
 3657SOL    HW122607   0.571   1.752  16.347 -0.2606 -0.2061 -0.2412
 3657SOL    HW222608   0.427   1.732  16.311 -0.0260 -1.3249  0.0184
 3658SOL     OW22609   0.730   0.071   9.167 -0.4390  0.6879  0.1480
 3658SOL    HW122610   0.718   0.103   9.077 -0.5027 -3.9447 -1.4887
 3658SOL    HW222611   0.704   0.143   9.224  0.3485  0.0904  1.2638
 3659SOL     OW22612   2.200   3.164   3.418  0.0266  0.3211  0.0359
 3659SOL    HW122613   2.185   3.100   3.349  1.1866 -1.7534  1.6899
 3659SOL    HW222614   2.223   3.111   3.495  0.9515  2.2704  1.0777
 3660SOL     OW22615   0.022   3.284   1.709 -0.0051 -0.0310 -0.9506
 3660SOL    HW122616   4.735   3.221   1.777  1.1989  3.2173  2.4710
 3660SOL    HW222617   0.010   3.231   1.630  0.3102  0.1985 -1.1538
 3661SOL     OW22618   1.859   2.445   7.938  0.3178  0.3020  0.9279
 3661SOL    HW122619   1.849   2.540   7.936 -1.0278  0.1608  1.1895
 3661SOL    HW222620   1.777   2.415   7.977 -1.8564 -0.3485 -4.1135
 3662SOL     OW22621   2.230   4.714  15.320 -0.0268  0.0135 -0.0366
 3662SOL    HW122622   2.175   0.031  15.378  1.7603  0.3102  1.3744
 3662SOL    HW222623   2.209   0.014  15.234 -1.0042  0.2118  0.2858
 3663SOL     OW22624   3.633   2.825   4.176 -0.3794 -0.2841  0.1261
 3663SOL    HW122625   3.637   2.741   4.131  1.1434  0.1616 -0.5398
 3663SOL    HW222626   3.714   2.807   4.223 -1.3498 -1.1136  1.4867
 3664SOL     OW22627   0.671   1.186   0.227 -0.2405 -0.0460 -0.1794
 3664SOL    HW122628   0.766   1.186   0.215  0.0756 -0.4576  2.3989
 3664SOL    HW222629   0.653   1.275   0.199  1.4316  0.9771  2.0017
 3665SOL     OW22630   1.990   2.436   5.390  0.3153 -0.0918  0.2587
 3665SOL    HW122631   1.930   2.505   5.419  1.2169  0.1948  1.4258
 3665SOL    HW222632   1.980   2.452   5.296  1.9990 -3.7093 -0.5475
 3666SOL     OW22633   3.922   3.388  12.626 -0.1913  0.3762  1.0403
 3666SOL    HW122634   3.902   3.332  12.551 -0.5021  0.2351  1.2259
 3666SOL    HW222635   3.957   3.318  12.682 -0.9310  0.0217  1.0589
 3667SOL     OW22636   3.996   2.196   5.075  0.2120  0.3675 -0.1067
 3667SOL    HW122637   3.937   2.144   5.130  1.6633 -0.2527  0.8730
 3667SOL    HW222638   4.057   2.127   5.048  0.6827  2.1832 -3.6569
 3668SOL     OW22639   2.389   0.856  10.200  0.0389  0.2771  0.2190
 3668SOL    HW122640   2.346   0.918  10.259 -1.0880 -1.8575  1.6671
 3668SOL    HW222641   2.413   0.908  10.124 -1.0076 -0.1559 -0.4055
 3669SOL     OW22642   4.081   1.525   3.702  0.1862  0.1624 -0.0790
 3669SOL    HW122643   4.015   1.505   3.635  1.5318  0.3323 -1.4783
 3669SOL    HW222644   4.036   1.493   3.780 -1.5658  1.1837 -0.6615
 3670SOL     OW22645   1.353   2.288  17.208  0.0135  0.4026 -0.6635
 3670SOL    HW122646   1.334   2.353  17.276  0.8006  1.1168 -1.1258
 3670SOL    HW222647   1.422   2.248  17.262 -2.9071 -1.6891  1.4990
 3671SOL     OW22648   2.045   0.713   7.581 -0.0119  0.5753 -0.2955
 3671SOL    HW122649   2.048   0.802   7.545  1.4355  0.2105 -1.0697
 3671SOL    HW222650   2.136   0.685   7.590 -0.0611  1.4148  2.7865
 3672SOL     OW22651   4.609   2.345  17.515  0.1394 -0.0428 -0.2878
 3672SOL    HW122652   4.606   2.411  17.445 -1.8236  1.1848  0.9528
 3672SOL    HW222653   4.522   2.355  17.553  2.1511  0.3121  4.1921
 3673SOL     OW22654   4.094   0.212   7.880 -0.3652 -0.0577 -0.4132
 3673SOL    HW122655   4.044   0.290   7.901  0.7898  0.1748  1.4592
 3673SOL    HW222656   4.125   0.222   7.790  0.7051 -5.6775 -0.6680
 3674SOL     OW22657   0.357   4.238  12.771  0.3384 -0.1543  0.0595
 3674SOL    HW122658   0.347   4.295  12.847 -0.4715 -1.4553  0.9504
 3674SOL    HW222659   0.424   4.175  12.797 -0.3572 -1.2139 -0.6854
 3675SOL     OW22660   3.213   2.095   5.196 -0.1794 -0.1393 -0.3106
 3675SOL    HW122661   3.126   2.129   5.174  0.3429  1.2550 -0.1983
 3675SOL    HW222662   3.187   2.060   5.281 -1.3366 -0.2081 -0.6801
 3676SOL     OW22663   3.219   4.130   9.049  0.2528  0.2443 -0.4453
 3676SOL    HW122664   3.209   4.052   9.103 -2.7445  0.7557 -0.2483
 3676SOL    HW222665   3.160   4.192   9.090  0.7324  0.4084 -0.0117
 3677SOL     OW22666   3.943   1.836   5.766 -0.0789  0.0512 -0.0046
 3677SOL    HW122667   3.894   1.818   5.846 -2.6537  1.6802 -1.1916
 3677SOL    HW222668   3.945   1.746   5.734 -0.1509 -0.0405  0.2489
 3678SOL     OW22669   0.772   0.310  12.767  0.1090 -0.6337  0.0849
 3678SOL    HW122670   0.835   0.239  12.756  1.8178  1.2830 -2.4371
 3678SOL    HW222671   0.826   0.388  12.762  1.9657 -1.8793  0.7810
 3679SOL     OW22672   0.432   2.979   2.963  0.0724 -0.0510  0.1403
 3679SOL    HW122673   0.450   3.040   2.892 -1.5440 -0.8854 -0.9863
 3679SOL    HW222674   0.519   2.941   2.975 -1.5875 -2.8751  3.3455
 3680SOL     OW22675   2.114   4.554   9.201 -0.1060  0.5181  0.2498
 3680SOL    HW122676   2.075   4.589   9.281 -0.5830  0.5886 -0.0172
 3680SOL    HW222677   2.061   4.597   9.134  1.5949 -1.0643 -2.1012
 3681SOL     OW22678   0.028   4.696   7.142  0.0196  0.1623 -0.4791
 3681SOL    HW122679   4.730   4.607   7.133 -3.7545  1.4914  0.7383
 3681SOL    HW222680   0.039   4.721   7.050 -0.2829 -1.4793 -0.9537
 3682SOL     OW22681   1.981   0.086   8.158  0.2925  0.3552  0.2737
 3682SOL    HW122682   2.060   0.135   8.182  0.6159 -0.5772  1.0999
 3682SOL    HW222683   2.006   4.735   8.186  0.0513  0.8416  2.0215
 3683SOL     OW22684   2.269   1.963   3.430 -0.1649  0.1544 -0.6784
 3683SOL    HW122685   2.342   1.995   3.376 -0.5677  1.3842 -0.4917
 3683SOL    HW222686   2.295   1.877   3.463 -1.8330 -0.7596 -1.7230
 3684SOL     OW22687   1.305   2.932   3.098  0.0222  0.1605  0.1955
 3684SOL    HW122688   1.370   2.981   3.148  0.4474 -0.9138  0.6910
 3684SOL    HW222689   1.312   2.982   3.017 -0.8292 -1.6517 -1.0003
 3685SOL     OW22690   0.293   3.474  15.731  0.7681 -0.2945  0.0003
 3685SOL    HW122691   0.296   3.431  15.817  1.1527 -0.6165 -0.1724
 3685SOL    HW222692   0.262   3.403  15.675 -0.4906  1.1024 -1.0509
 3686SOL     OW22693   2.315   3.344  12.978 -0.6050 -0.2716  0.5327
 3686SOL    HW122694   2.349   3.255  12.967 -2.9607 -0.9960 -0.9487
 3686SOL    HW222695   2.225   3.328  12.949 -1.4699  3.3765  1.1325
 3687SOL     OW22696   4.230   4.703  17.555 -0.1678 -0.1058  0.3663
 3687SOL    HW122697   4.233   4.732  17.463 -0.3021 -1.7732 -0.1670
 3687SOL    HW222698   4.180   0.040  17.590  0.7888  1.1831 -1.0078
 3688SOL     OW22699   2.691   1.158  13.812 -0.3720  0.0459 -0.3063
 3688SOL    HW122700   2.735   1.202  13.740 -2.3086  0.8559 -1.0092
 3688SOL    HW222701   2.767   1.130  13.862 -0.1675  1.8887  0.4182
 3689SOL     OW22702   2.720   1.342   1.636  0.1238  0.1137  0.0605
 3689SOL    HW122703   2.699   1.412   1.698  1.8226 -0.1755  0.9763
 3689SOL    HW222704   2.670   1.269   1.673 -0.9608 -0.2697 -2.1748
 3690SOL     OW22705   0.264   4.432   4.566  0.1983  0.1102 -0.2027
 3690SOL    HW122706   0.326   4.362   4.546 -0.7400 -0.8891  0.4282
 3690SOL    HW222707   0.272   4.479   4.483 -1.1724  0.2446 -0.2577
 3691SOL     OW22708   2.726   1.384   3.757  0.0328  0.4673 -0.1581
 3691SOL    HW122709   2.662   1.332   3.806  0.2501 -0.1079 -0.4909
 3691SOL    HW222710   2.725   1.465   3.808  0.4579 -0.7179  1.7420
 3692SOL     OW22711   3.331   3.325   4.866 -0.5255  0.0941 -0.6053
 3692SOL    HW122712   3.424   3.347   4.853 -0.6986  1.0345 -0.2192
 3692SOL    HW222713   3.336   3.245   4.918 -1.9836  0.9286  0.8066
 3693SOL     OW22714   0.216   2.580   6.362  0.2715  0.2345 -0.5188
 3693SOL    HW122715   0.167   2.541   6.434  0.2574 -0.8804 -1.1255
 3693SOL    HW222716   0.163   2.542   6.292  1.4934 -3.0164  0.3450
 3694SOL     OW22717   4.401   0.486   3.286 -0.7258  0.2823  0.0233
 3694SOL    HW122718   4.335   0.522   3.345 -1.2793  0.9976 -1.0330
 3694SOL    HW222719   4.441   0.564   3.248  0.2336 -0.1811  0.0787
 3695SOL     OW22720   4.125   2.113  15.359 -0.5734  0.4677  0.0266
 3695SOL    HW122721   4.151   2.203  15.340 -0.4355  0.4192 -0.0151
 3695SOL    HW222722   4.184   2.086  15.429  1.7826 -2.1025 -2.9420
 3696SOL     OW22723   3.019   2.019   1.050  0.5231  0.2498  0.8350
 3696SOL    HW122724   3.072   2.059   1.118  0.2762  0.7739  0.7166
 3696SOL    HW222725   3.023   1.926   1.073  0.3817  0.2841  1.0032
 3697SOL     OW22726   2.221   0.162   8.564  0.2839  0.2771 -0.0460
 3697SOL    HW122727   2.137   0.118   8.549  0.8404 -0.2493 -1.6872
 3697SOL    HW222728   2.271   0.082   8.582 -1.2082 -0.6248  0.1521
 3698SOL     OW22729   2.044   0.868  16.886  0.0943  0.3383 -0.4177
 3698SOL    HW122730   2.020   0.801  16.950 -0.0509  1.0561  0.2721
 3698SOL    HW222731   2.044   0.817  16.805  0.3678 -1.6895  0.8338
 3699SOL     OW22732   3.638   3.486   6.103 -0.1887  0.0579  0.8948
 3699SOL    HW122733   3.568   3.552   6.105 -0.2812  0.0035 -0.7889
 3699SOL    HW222734   3.610   3.427   6.174 -1.8248  0.2846  0.4421
 3700SOL     OW22735   0.403   3.084   7.948  0.8085 -0.5521 -0.1872
 3700SOL    HW122736   0.326   3.141   7.947 -0.7095 -2.5990 -0.2959
 3700SOL    HW222737   0.471   3.150   7.937  2.4247 -2.2312 -0.2861
 3701SOL     OW22738   3.778   3.485   3.654  0.1324 -0.2955  0.3057
 3701SOL    HW122739   3.826   3.547   3.599 -3.2536  1.9869 -0.0628
 3701SOL    HW222740   3.793   3.404   3.606 -0.6891  0.3075 -0.9650
 3702SOL     OW22741   4.726   3.237  17.272 -0.1984  0.1119 -0.4178
 3702SOL    HW122742   4.708   3.159  17.220 -1.4264  0.2744 -0.2371
 3702SOL    HW222743   4.689   3.225  17.360 -1.6294  2.7575 -0.6551
 3703SOL     OW22744   0.483   1.903  16.631 -0.5342  0.0378 -0.6909
 3703SOL    HW122745   0.495   1.992  16.600  3.1484  0.2794  1.4878
 3703SOL    HW222746   0.485   1.854  16.549  0.6841 -1.4467  0.2184
 3704SOL     OW22747   3.287   2.816   9.675  0.0130  0.4895 -0.0074
 3704SOL    HW122748   3.260   2.828   9.767  0.5786 -2.4834  0.5282
 3704SOL    HW222749   3.269   2.723   9.666 -0.7867  0.6326  0.0320
 3705SOL     OW22750   3.753   3.898   2.357  0.0554  0.0228  0.3152
 3705SOL    HW122751   3.760   3.930   2.267  1.8015 -0.6593  0.2133
 3705SOL    HW222752   3.717   3.977   2.398 -0.8578  0.7724 -1.9843
 3706SOL     OW22753   0.451   0.134  14.387 -0.7650 -0.3237  0.4931
 3706SOL    HW122754   0.434   0.073  14.316 -0.0692 -0.4681  0.4570
 3706SOL    HW222755   0.541   0.159  14.368 -0.9216  0.1022  0.3153
 3707SOL     OW22756   2.100   0.363  15.263  0.1202 -0.6031  0.3412
 3707SOL    HW122757   2.168   0.407  15.213 -0.3036 -0.1924  0.1364
 3707SOL    HW222758   2.062   0.439  15.306 -0.0879  0.1320 -1.1572
 3708SOL     OW22759   2.666   1.451  17.030 -0.1684 -0.1130  1.0451
 3708SOL    HW122760   2.703   1.363  17.021 -0.2193 -0.0147 -0.2031
 3708SOL    HW222761   2.623   1.437  17.114 -0.2134 -0.2073  1.0068
 3709SOL     OW22762   1.387   3.262  10.140  0.8367 -0.0840 -0.5999
 3709SOL    HW122763   1.443   3.187  10.123  1.2029 -0.2550  1.2815
 3709SOL    HW222764   1.390   3.275  10.235 -0.0991 -1.2667 -0.4177
 3710SOL     OW22765   2.614   2.363   6.551  0.3093  0.4883  0.4454
 3710SOL    HW122766   2.708   2.346   6.539 -0.1290 -1.6331  0.0056
 3710SOL    HW222767   2.580   2.274   6.542 -0.2025  0.7553 -0.3143
 3711SOL     OW22768   1.460   2.481   3.195  0.2528  0.4630  0.0515
 3711SOL    HW122769   1.516   2.552   3.227 -0.0017  0.9354 -0.5547
 3711SOL    HW222770   1.405   2.533   3.136 -0.8753 -0.7342  0.0281
 3712SOL     OW22771   0.007   1.770  14.885 -0.7591 -0.3130 -0.7492
 3712SOL    HW122772   4.681   1.814  14.828 -1.6531  0.4169  0.7947
 3712SOL    HW222773   0.002   1.834  14.956 -2.0604  0.5331 -1.6140
 3713SOL     OW22774   2.853   0.081   7.247  0.0593 -0.4012 -0.1879
 3713SOL    HW122775   2.774   0.111   7.291 -0.2293  0.6734 -1.4697
 3713SOL    HW222776   2.863   0.139   7.172 -0.3025  1.2014  1.0022
 3714SOL     OW22777   3.513   3.009   2.065  0.1352  0.0891 -0.0291
 3714SOL    HW122778   3.439   3.063   2.093 -0.6976 -1.2988  0.4802
 3714SOL    HW222779   3.533   3.033   1.974  1.7997  2.0426  0.8707
 3715SOL     OW22780   2.377   4.086   6.368  0.2196  0.0709  0.2322
 3715SOL    HW122781   2.380   4.158   6.431 -1.1647  1.1925 -0.9659
 3715SOL    HW222782   2.370   4.133   6.284 -2.8383  0.4170  0.6699
 3716SOL     OW22783   2.474   3.236   2.026  0.2013  0.3136 -0.5784
 3716SOL    HW122784   2.382   3.220   2.003 -0.4325  0.1724  2.0696
 3716SOL    HW222785   2.517   3.205   1.946  0.1811 -2.1207  0.3432
 3717SOL     OW22786   3.408   1.864  13.910 -0.4117 -0.4027  0.1647
 3717SOL    HW122787   3.330   1.831  13.866 -1.2561  2.9680 -0.9038
 3717SOL    HW222788   3.462   1.790  13.937 -1.4925 -1.3643 -0.2736
 3718SOL     OW22789   0.582   2.541   0.336 -0.7030  0.0213 -0.0904
 3718SOL    HW122790   0.557   2.559   0.245 -1.1106  3.0587  0.6141
 3718SOL    HW222791   0.619   2.628   0.354  1.9538 -1.2736  0.7480
 3719SOL     OW22792   3.748   2.421   2.325  0.0632  0.2418  0.6547
 3719SOL    HW122793   3.784   2.334   2.310  3.1525  1.8126 -1.0424
 3719SOL    HW222794   3.827   2.474   2.339 -0.0706  0.3939  0.8201
 3720SOL     OW22795   3.356   1.602  10.950  0.5841 -0.6003 -0.5671
 3720SOL    HW122796   3.274   1.649  10.936  0.5651 -0.2625  0.6711
 3720SOL    HW222797   3.324   1.513  10.961 -3.1229  0.9972  1.2087
 3721SOL     OW22798   3.258   2.032   8.193 -0.2276 -0.2177  0.7398
 3721SOL    HW122799   3.180   2.015   8.139 -0.6857 -0.2517  1.4145
 3721SOL    HW222800   3.250   1.954   8.247 -0.7698  0.6515  1.8992
 3722SOL     OW22801   1.403   1.137   2.149  0.1287 -0.0143 -0.3286
 3722SOL    HW122802   1.311   1.162   2.161 -0.2122 -0.8822 -1.1275
 3722SOL    HW222803   1.391   1.043   2.137  1.0119 -0.1860  0.0850
 3723SOL     OW22804   4.623   0.062   8.849 -0.7077 -0.0205  0.5012
 3723SOL    HW122805   4.686   4.730   8.874  3.2989  2.6429 -2.2971
 3723SOL    HW222806   4.570   0.073   8.928  0.2052 -0.7648  1.2211
 3724SOL     OW22807   3.507   3.286  10.239  0.6922 -0.3477  0.2879
 3724SOL    HW122808   3.536   3.310  10.327 -0.8437 -1.2575  1.0349
 3724SOL    HW222809   3.589   3.313  10.196  0.2302 -0.2036 -0.5024
 3725SOL     OW22810   4.158   4.732   6.124  0.3312 -0.2101 -0.1590
 3725SOL    HW122811   4.105   0.059   6.172 -0.9388 -1.2178 -0.2084
 3725SOL    HW222812   4.105   4.661   6.086  0.6040 -0.3832 -0.2197
 3726SOL     OW22813   2.839   2.302   5.730  0.0691 -0.3292  0.3212
 3726SOL    HW122814   2.924   2.258   5.731  1.6804  2.7862  0.1367
 3726SOL    HW222815   2.832   2.351   5.648  2.9344 -1.1299 -0.3868
 3727SOL     OW22816   1.033   3.039  16.735 -0.3101 -0.2294  0.2817
 3727SOL    HW122817   0.980   3.034  16.815 -2.9630 -0.3449 -1.4624
 3727SOL    HW222818   1.119   3.048  16.776  0.6124 -1.8407 -1.3300
 3728SOL     OW22819   3.192   3.911   3.525 -0.1776 -0.5360  0.5709
 3728SOL    HW122820   3.206   3.818   3.541  0.7693 -0.5179 -0.1874
 3728SOL    HW222821   3.135   3.909   3.448 -0.2759  1.4104  0.6032
 3729SOL     OW22822   4.213   0.890   7.746  0.3459 -0.5578 -0.2779
 3729SOL    HW122823   4.145   0.872   7.682  1.2203  0.3507 -1.4766
 3729SOL    HW222824   4.283   0.923   7.689 -0.2944  2.1622  0.5065
 3730SOL     OW22825   0.330   1.544   9.365  0.0312 -0.3063 -0.0815
 3730SOL    HW122826   0.269   1.608   9.402 -0.5789 -0.2305 -1.2082
 3730SOL    HW222827   0.313   1.474   9.428  2.6874  0.1791  1.2036
 3731SOL     OW22828   4.508   2.564   5.522  0.2439 -0.2292  0.3714
 3731SOL    HW122829   4.460   2.496   5.569 -2.3979  0.6366 -1.0621
 3731SOL    HW222830   4.452   2.566   5.444  1.3903 -0.8955 -0.4668
 3732SOL     OW22831   1.388   2.193   7.167 -0.2234  0.1997 -0.5595
 3732SOL    HW122832   1.453   2.252   7.128  0.8279 -2.0004 -2.1893
 3732SOL    HW222833   1.370   2.250   7.241  0.0863  0.1723 -0.4636
 3733SOL     OW22834   0.130   2.655   5.298  0.4019 -0.0038  0.2872
 3733SOL    HW122835   0.152   2.570   5.336  0.6733 -0.4409 -0.8479
 3733SOL    HW222836   0.092   2.623   5.216  2.4509 -0.3022 -0.5434
 3734SOL     OW22837   1.462   4.667  10.640  0.4722 -0.2279  0.4862
 3734SOL    HW122838   1.453   4.572  10.642  0.4838 -0.2523 -1.2766
 3734SOL    HW222839   1.395   4.683  10.706 -0.6366  2.3910 -1.2732
 3735SOL     OW22840   3.967   4.676   3.650 -0.0058 -0.1492  0.2247
 3735SOL    HW122841   3.961   4.695   3.557  1.2593  0.8187  0.3561
 3735SOL    HW222842   3.975   4.580   3.654 -1.2874 -0.3029 -0.8883
 3736SOL     OW22843   1.832   1.000   7.219  0.2913 -0.2713 -0.2414
 3736SOL    HW122844   1.737   1.016   7.218  0.5871  1.3903 -1.2916
 3736SOL    HW222845   1.829   0.904   7.229 -0.5676 -0.3369 -1.1465
 3737SOL     OW22846   1.847   2.928   6.641  0.3627  0.6050  0.6431
 3737SOL    HW122847   1.804   2.846   6.616 -0.0059  1.5763 -1.9325
 3737SOL    HW222848   1.938   2.920   6.615  0.0419  0.2750 -0.3923
 3738SOL     OW22849   2.700   3.941  17.579 -0.4086  0.6943 -0.3655
 3738SOL    HW122850   2.631   4.004  17.600 -0.6813  0.3628 -0.2587
 3738SOL    HW222851   2.657   3.857  17.598  1.9818 -0.1849  1.1678
 3739SOL     OW22852   2.924   4.459   7.534 -0.4046 -0.4407  0.0414
 3739SOL    HW122853   2.907   4.480   7.442  0.6869 -1.3994 -0.3706
 3739SOL    HW222854   2.891   4.542   7.569 -1.9118 -0.6393 -0.8955
 3740SOL     OW22855   3.797   4.597   2.468 -0.5025 -0.0495 -0.4635
 3740SOL    HW122856   3.765   4.529   2.410  0.7553  1.0448 -2.4264
 3740SOL    HW222857   3.889   4.582   2.447 -0.1349  0.6134  0.6491
 3741SOL     OW22858   3.717   3.940  16.830 -0.0401 -0.3281  0.0493
 3741SOL    HW122859   3.798   3.970  16.871 -0.6286  0.1825  0.8433
 3741SOL    HW222860   3.681   4.024  16.804 -0.9917 -0.5947  0.5153
 3742SOL     OW22861   0.858   3.009  16.951 -0.0464  0.3951  0.2592
 3742SOL    HW122862   0.766   3.008  16.977 -0.3754 -0.0886 -0.9667
 3742SOL    HW222863   0.889   2.969  17.033 -0.7411 -0.2914  0.1840
 3743SOL     OW22864   4.428   3.197   8.964  0.2806  0.6906 -0.0713
 3743SOL    HW122865   4.464   3.125   8.912  0.4504  0.4861  0.3370
 3743SOL    HW222866   4.384   3.245   8.893  0.5692  1.1557  0.0637
 3744SOL     OW22867   3.273   2.845   5.579  0.7893  0.1540 -0.1710
 3744SOL    HW122868   3.227   2.924   5.605  2.6913  1.1188  0.2700
 3744SOL    HW222869   3.209   2.807   5.519  1.7624 -1.3602 -0.2587
 3745SOL     OW22870   2.393   3.924   9.469 -0.1203  0.8762 -0.2846
 3745SOL    HW122871   2.475   3.888   9.502 -0.5329  0.8588  0.7031
 3745SOL    HW222872   2.328   3.863   9.504 -0.1727 -0.1563 -2.1798
 3746SOL     OW22873   3.908   3.012  16.753  0.5445 -0.2434 -0.1509
 3746SOL    HW122874   3.946   3.090  16.793  0.4357  0.2471 -1.0006
 3746SOL    HW222875   3.855   3.050  16.683  0.3373 -0.7019 -0.2466
 3747SOL     OW22876   0.153   3.616   8.900  0.0570 -0.2396 -0.3397
 3747SOL    HW122877   0.088   3.661   8.953  0.6091  0.3188 -0.1320
 3747SOL    HW222878   0.225   3.680   8.892 -1.2126  1.0257 -1.7823
 3748SOL     OW22879   3.379   4.532   8.844  0.0790 -0.1424  0.6217
 3748SOL    HW122880   3.445   4.465   8.833 -0.4120 -0.3476 -1.2383
 3748SOL    HW222881   3.408   4.610   8.795  1.1214 -2.4307 -2.4118
 3749SOL     OW22882   1.127   1.622   2.683 -0.0287  0.3813  0.2067
 3749SOL    HW122883   1.211   1.669   2.684 -0.8615  1.9152 -2.4325
 3749SOL    HW222884   1.081   1.675   2.748 -0.5561  2.2555 -1.6783
 3750SOL     OW22885   2.326   3.419   8.747 -0.0579 -0.1982 -0.4078
 3750SOL    HW122886   2.303   3.510   8.768  1.9116  0.7492 -2.3250
 3750SOL    HW222887   2.404   3.409   8.802  0.1510  3.6188  0.0120
 3751SOL     OW22888   1.265   0.822   8.066  0.1126  0.0417 -0.6711
 3751SOL    HW122889   1.311   0.765   8.004  1.3541  1.5961 -1.1890
 3751SOL    HW222890   1.175   0.818   8.034  1.0697 -2.2282 -3.1292
 3752SOL     OW22891   4.470   0.573   9.902  0.2500  0.2850  0.1052
 3752SOL    HW122892   4.434   0.486   9.882  0.7148  0.4597 -1.5159
 3752SOL    HW222893   4.550   0.562   9.849  0.2451  2.0157 -0.2599
 3753SOL     OW22894   4.459   2.854   2.586 -0.1302 -0.6757 -0.3424
 3753SOL    HW122895   4.498   2.874   2.501  1.1059 -1.3764  0.0648
 3753SOL    HW222896   4.486   2.762   2.585 -1.2274 -1.0205  2.8669
 3754SOL     OW22897   2.766   4.705  13.156  0.2783 -0.9111  0.2500
 3754SOL    HW122898   2.850   4.682  13.196 -0.0549 -4.1804 -0.9387
 3754SOL    HW222899   2.791   0.003  13.070 -0.9930 -0.4394  0.0743
 3755SOL     OW22900   3.602   4.311  13.166 -0.3976 -0.1501 -0.3549
 3755SOL    HW122901   3.680   4.267  13.200 -0.7482 -1.0529 -0.7294
 3755SOL    HW222902   3.545   4.235  13.157  0.4183 -0.5888 -1.8007
 3756SOL     OW22903   4.135   4.417  11.404 -0.1213 -0.1557  0.4284
 3756SOL    HW122904   4.165   4.336  11.363  2.1682  1.1925 -0.5856
 3756SOL    HW222905   4.198   4.419  11.475  0.1831 -1.3398  0.1925
 3757SOL     OW22906   1.969   3.254   9.242 -0.0094  0.1291 -0.1935
 3757SOL    HW122907   1.919   3.329   9.274  0.7587 -0.1136  1.6046
 3757SOL    HW222908   2.033   3.298   9.186  0.3444  1.0928  0.9591
 3758SOL     OW22909   4.330   2.895   4.277 -0.2278  0.0907 -0.4075
 3758SOL    HW122910   4.325   2.962   4.209 -1.3052 -1.1887 -1.5516
 3758SOL    HW222911   4.359   2.819   4.227  1.9488  0.5428  0.1368
 3759SOL     OW22912   4.230   1.264   1.275 -0.2227 -0.3903  0.3202
 3759SOL    HW122913   4.142   1.266   1.314  0.4595  0.7681  1.7824
 3759SOL    HW222914   4.264   1.179   1.303  1.3171  0.6196  1.5366
 3760SOL     OW22915   0.509   4.048  12.875  0.1826  0.3598  0.1544
 3760SOL    HW122916   0.440   3.988  12.901  0.6356 -0.9735 -1.7023
 3760SOL    HW222917   0.539   4.017  12.789 -2.7243  0.0919 -0.7476
 3761SOL     OW22918   4.679   3.691   5.570  0.1744  0.0548 -0.2084
 3761SOL    HW122919   4.686   3.691   5.666 -0.6176 -1.3203 -0.1571
 3761SOL    HW222920   4.641   3.776   5.550 -0.5436 -0.1435  0.3267
 3762SOL     OW22921   3.576   2.740   2.520 -0.1196 -0.0868 -0.1296
 3762SOL    HW122922   3.547   2.774   2.435 -0.0189  1.2776  0.3758
 3762SOL    HW222923   3.504   2.768   2.577 -0.5638 -1.2479 -0.1304
 3763SOL     OW22924   1.698   3.400  17.181  0.5680 -0.2728  0.4792
 3763SOL    HW122925   1.659   3.377  17.097  1.8889 -2.3112  0.4321
 3763SOL    HW222926   1.746   3.321  17.204  0.2679 -0.9661 -1.3123
 3764SOL     OW22927   3.858   2.620   3.656 -0.5729 -0.1680  0.5580
 3764SOL    HW122928   3.832   2.584   3.571  1.1271  1.6966 -0.7867
 3764SOL    HW222929   3.954   2.623   3.649 -0.5457  0.3209  1.0844
 3765SOL     OW22930   2.642   0.455  14.727 -0.0552  0.3469 -0.2143
 3765SOL    HW122931   2.695   0.461  14.648 -2.2443 -0.5224 -1.7306
 3765SOL    HW222932   2.675   0.372  14.761 -1.7482 -0.1801  0.1502
 3766SOL     OW22933   0.684   0.222   4.685 -0.1344 -0.1291 -0.3238
 3766SOL    HW122934   0.742   0.297   4.700  0.1572 -0.1969 -1.0898
 3766SOL    HW222935   0.633   0.245   4.607 -1.4778 -2.1199 -0.0470
 3767SOL     OW22936   1.076   2.970   5.732  0.4526  0.3142  0.3549
 3767SOL    HW122937   1.058   2.881   5.700  0.4174  0.3355  0.3159
 3767SOL    HW222938   1.054   2.959   5.824  2.5081 -0.1019  0.7964
 3768SOL     OW22939   1.958   4.539  10.933  0.3386 -0.7738 -0.0191
 3768SOL    HW122940   1.911   4.525  11.014  1.2559  0.1214  0.6810
 3768SOL    HW222941   2.029   4.475  10.927 -1.4958 -2.8043  0.4451
 3769SOL     OW22942   2.873   0.708   7.485 -0.4645 -0.3242 -0.2344
 3769SOL    HW122943   2.851   0.637   7.545  0.6985 -0.4431  0.0508
 3769SOL    HW222944   2.791   0.737   7.445 -1.0967 -1.9000 -0.0630
 3770SOL     OW22945   0.485   1.391  17.120 -0.2378 -0.8372 -0.0612
 3770SOL    HW122946   0.501   1.304  17.155  1.4478 -0.2594  0.5938
 3770SOL    HW222947   0.458   1.362  17.033  1.5935 -0.4822 -0.7374
 3771SOL     OW22948   2.695   2.677  13.452  0.1569 -0.4916  0.6978
 3771SOL    HW122949   2.730   2.600  13.409  1.6754  0.3862  0.3808
 3771SOL    HW222950   2.753   2.672  13.528  0.4117  0.7556  0.5852
 3772SOL     OW22951   2.789   1.988   7.136  1.1389 -0.1739  0.8843
 3772SOL    HW122952   2.778   2.042   7.058 -0.3138 -0.3666  0.9478
 3772SOL    HW222953   2.852   1.928   7.096 -0.1706 -0.9000 -0.0689
 3773SOL     OW22954   3.090   3.755   1.732 -0.1124 -0.0101  0.3633
 3773SOL    HW122955   3.049   3.687   1.679 -0.2540 -0.8015  1.4752
 3773SOL    HW222956   3.090   3.834   1.677  4.2352 -0.6224 -0.4623
 3774SOL     OW22957   2.739   0.442  14.448  0.4284  0.4702  0.5208
 3774SOL    HW122958   2.827   0.474  14.427 -0.0685  0.3792 -1.6871
 3774SOL    HW222959   2.719   0.386  14.374  0.7943  1.9347 -0.6876
 3775SOL     OW22960   1.751   3.600   2.833  0.2412 -0.6120 -0.3686
 3775SOL    HW122961   1.732   3.566   2.746 -0.8448 -0.5768 -0.1409
 3775SOL    HW222962   1.724   3.526   2.887 -0.3459  2.1561  3.1302
 3776SOL     OW22963   0.611   1.812   7.817 -0.1311  0.1685 -0.7463
 3776SOL    HW122964   0.689   1.766   7.786 -0.3485  0.1895 -1.3293
 3776SOL    HW222965   0.646   1.901   7.815 -1.7120  0.7384 -3.3614
 3777SOL     OW22966   1.771   0.679   6.999  0.2618  0.0722 -0.5612
 3777SOL    HW122967   1.793   0.586   6.987 -1.0620 -0.3411  0.2538
 3777SOL    HW222968   1.809   0.717   6.919 -1.7131  0.7090 -1.1868
 3778SOL     OW22969   0.125   0.878   8.167 -0.2835  0.0519 -0.2075
 3778SOL    HW122970   0.177   0.840   8.096 -1.5923 -1.4314 -0.3937
 3778SOL    HW222971   0.187   0.920   8.226 -0.0293 -2.5965  1.3937
 3779SOL     OW22972   3.872   2.270   4.843 -0.2701  0.1308  0.6904
 3779SOL    HW122973   3.790   2.301   4.880 -0.2767  0.2896  0.5436
 3779SOL    HW222974   3.923   2.250   4.922  1.9304  1.0680 -0.4777
 3780SOL     OW22975   1.452   3.883  13.965  0.1744 -0.3026 -0.2599
 3780SOL    HW122976   1.392   3.860  14.035  0.5133 -1.1453 -0.2445
 3780SOL    HW222977   1.498   3.799  13.961 -0.6614 -0.7353 -0.6232
 3781SOL     OW22978   3.676   3.188   5.003  0.2120  0.0098 -0.2434
 3781SOL    HW122979   3.624   3.186   5.083  2.0383  0.0273  0.9655
 3781SOL    HW222980   3.661   3.101   4.966  1.4440 -0.2104 -0.2479
 3782SOL     OW22981   0.923   2.848   0.498  0.1242  0.1358 -0.0607
 3782SOL    HW122982   0.971   2.765   0.494  0.6806  0.4345  0.5270
 3782SOL    HW222983   0.960   2.880   0.415  0.9557 -1.0026 -0.1370
 3783SOL     OW22984   3.818   4.208  14.093 -0.2226  0.1307  0.6277
 3783SOL    HW122985   3.837   4.173  14.006 -0.7261  1.4047 -0.0070
 3783SOL    HW222986   3.724   4.222  14.084 -0.3864 -1.3603 -0.0036
 3784SOL     OW22987   0.074   3.882   8.966  0.0143 -0.0170  0.0697
 3784SOL    HW122988   0.037   3.966   8.993 -1.3197 -0.5152 -0.1804
 3784SOL    HW222989   0.001   3.820   8.966  0.4081 -0.4778  1.2676
 3785SOL     OW22990   4.653   0.027   6.898 -0.1024 -0.6071 -0.0952
 3785SOL    HW122991   4.638   4.671   6.912 -3.9929 -0.4256 -3.3090
 3785SOL    HW222992   4.673   0.029   6.805 -0.5595  0.4200 -0.1735
 3786SOL     OW22993   0.113   0.111   6.555  0.1091 -0.1145 -0.1144
 3786SOL    HW122994   0.142   0.203   6.555  2.5208 -0.8860 -4.0329
 3786SOL    HW222995   0.142   0.097   6.465  2.3339  0.0286  0.5734
 3787SOL     OW22996   0.932   3.519   7.457 -0.8883  0.4432  0.3294
 3787SOL    HW122997   0.888   3.603   7.471  1.2400  1.7674 -0.7454
 3787SOL    HW222998   0.879   3.489   7.383 -1.3276  1.6422  0.1681
 3788SOL     OW22999   1.665   3.529   2.588 -0.2280  0.4083  0.1194
 3788SOL    HW123000   1.580   3.546   2.547  0.3598  3.8162  0.3480
 3788SOL    HW223001   1.664   3.433   2.586 -1.8420  0.3856  0.9248
 3789SOL     OW23002   2.546   2.869   3.521 -0.6537  0.6786  0.3296
 3789SOL    HW123003   2.487   2.793   3.525 -1.2840  1.0792 -1.6217
 3789SOL    HW223004   2.544   2.901   3.431  0.6985 -0.5353 -0.1362
 3790SOL     OW23005   0.479   2.184   3.320 -0.0047  0.4878  0.0452
 3790SOL    HW123006   0.532   2.219   3.392 -3.2576  1.8147  1.7882
 3790SOL    HW223007   0.541   2.119   3.287 -1.4194 -0.3039 -1.0066
 3791SOL     OW23008   3.979   0.172   9.168 -0.8781 -0.5629 -0.1973
 3791SOL    HW123009   3.948   0.228   9.097 -0.0039  0.4398  0.2318
 3791SOL    HW223010   3.893   0.138   9.193 -0.5564 -0.5665  0.9346
 3792SOL     OW23011   3.342   0.580   7.836  0.4546 -0.5197 -0.1732
 3792SOL    HW123012   3.261   0.538   7.805 -0.0196 -1.3746  2.1673
 3792SOL    HW223013   3.312   0.613   7.921 -2.8997 -2.5653 -0.5327
 3793SOL     OW23014   0.652   2.961  10.538  0.0300 -0.6725  0.1735
 3793SOL    HW123015   0.700   2.889  10.579  0.3902 -0.4337  0.1657
 3793SOL    HW223016   0.589   2.921  10.478  1.8992 -3.5133  0.1351
 3794SOL     OW23017   1.611   0.581   6.092  0.6243  0.6015 -0.1000
 3794SOL    HW123018   1.598   0.510   6.029  0.5230  0.4913  0.0448
 3794SOL    HW223019   1.581   0.550   6.178 -2.7552  0.1591 -1.4694
 3795SOL     OW23020   1.644   2.188   1.411  0.4683 -0.0662 -0.1429
 3795SOL    HW123021   1.693   2.187   1.329 -2.6270  0.2752 -2.0167
 3795SOL    HW223022   1.591   2.266   1.394  0.6112  0.0608 -0.0077
 3796SOL     OW23023   3.824   3.858   2.881 -0.2752  0.1393 -0.3589
 3796SOL    HW123024   3.894   3.876   2.943 -0.0054 -0.0473 -0.6094
 3796SOL    HW223025   3.805   3.766   2.900  0.4028 -0.0260 -0.4914
 3797SOL     OW23026   3.736   4.578   3.266  0.3633  0.4467 -0.6566
 3797SOL    HW123027   3.660   4.552   3.319  1.3222 -0.2884  0.3465
 3797SOL    HW223028   3.694   4.591   3.181 -2.7329  0.0254  0.7942
 3798SOL     OW23029   3.774   3.375   1.815 -0.3956 -0.0893 -0.1594
 3798SOL    HW123030   3.792   3.412   1.729 -0.8600 -1.0336 -0.6603
 3798SOL    HW223031   3.790   3.281   1.802 -2.2795 -0.2609 -1.1723
 3799SOL     OW23032   3.591   3.622   0.586  0.3183  0.7191 -0.2201
 3799SOL    HW123033   3.562   3.670   0.509 -0.7866  0.4954  0.0546
 3799SOL    HW223034   3.630   3.538   0.560 -0.2106 -0.1611  1.8680
 3800SOL     OW23035   0.267   2.305   4.774 -0.2757  0.1199 -0.1090
 3800SOL    HW123036   0.305   2.369   4.714  0.5971 -0.5766 -0.3006
 3800SOL    HW223037   0.173   2.308   4.756 -0.6355  1.0096  1.8316
 3801SOL     OW23038   0.658   2.024   3.200 -0.3762  0.5975 -0.3058
 3801SOL    HW123039   0.637   2.062   3.115  1.7881  0.7822 -0.7784
 3801SOL    HW223040   0.747   2.060   3.210 -0.5158  0.7153  0.4839
 3802SOL     OW23041   4.505   1.603  16.867 -0.2077 -0.2092  0.0205
 3802SOL    HW123042   4.410   1.597  16.856 -0.0948 -0.3287 -0.8812
 3802SOL    HW223043   4.541   1.623  16.780  0.4827  1.2168  0.6370
 3803SOL     OW23044   3.102   2.079   4.775 -0.8357  0.0398  0.2041
 3803SOL    HW123045   3.086   2.009   4.712  0.3757 -1.2907  1.3678
 3803SOL    HW223046   3.151   2.033   4.844  0.9357  0.6108 -0.6833
 3804SOL     OW23047   1.158   4.564  15.608 -0.4177 -0.2345 -0.1870
 3804SOL    HW123048   1.118   4.611  15.534 -3.9631 -0.0236  1.8461
 3804SOL    HW223049   1.080   4.514  15.633 -1.8890  1.4616 -1.3471
 3805SOL     OW23050   4.714   0.193   2.993 -0.0243 -0.2542  0.3812
 3805SOL    HW123051   4.672   0.120   3.039 -0.2727 -0.2827  0.1131
 3805SOL    HW223052   0.022   0.248   3.057 -1.1357  1.0453  0.0672
 3806SOL     OW23053   0.748   4.638   8.568  0.1714  0.5323 -0.0893
 3806SOL    HW123054   0.657   4.627   8.594 -0.7282  1.4948 -2.7911
 3806SOL    HW223055   0.742   4.669   8.477  1.1364 -0.7386 -0.5862
 3807SOL     OW23056   4.487   0.806   5.301  0.1583 -0.2572  0.2020
 3807SOL    HW123057   4.566   0.753   5.285  1.0502  1.0676  0.2595
 3807SOL    HW223058   4.428   0.732   5.317  0.1859 -0.3722 -0.2306
 3808SOL     OW23059   0.109   1.253   3.091 -0.3345 -0.2536  0.0566
 3808SOL    HW123060   0.161   1.249   3.010 -0.3712  0.1282  0.0139
 3808SOL    HW223061   0.017   1.257   3.065 -0.0488 -0.0088 -0.9328
 3809SOL     OW23062   1.914   1.970   5.566 -0.4377 -0.1209  0.0390
 3809SOL    HW123063   1.937   2.008   5.481  0.8406  1.1423  0.9491
 3809SOL    HW223064   1.968   2.012   5.633 -1.4917 -2.1341  2.1595
 3810SOL     OW23065   4.423   2.188   8.685  0.0233 -0.0086 -0.7893
 3810SOL    HW123066   4.510   2.149   8.697  0.1302  0.9893  1.7049
 3810SOL    HW223067   4.445   2.280   8.697 -0.9211  0.1803 -0.4877
 3811SOL     OW23068   2.725   4.151   5.876 -0.7096  0.2232  1.0952
 3811SOL    HW123069   2.657   4.192   5.823  0.9845  1.1953 -0.3128
 3811SOL    HW223070   2.796   4.212   5.854  0.5110 -1.1569  1.2085
 3812SOL     OW23071   3.556   3.756   6.222 -0.3515 -0.3388 -0.2594
 3812SOL    HW123072   3.544   3.809   6.144 -1.8239  1.3831  1.1334
 3812SOL    HW223073   3.650   3.738   6.212 -0.2865 -0.8340  1.1162
 3813SOL     OW23074   4.581   4.232   6.224  0.2185 -0.2770  0.2905
 3813SOL    HW123075   4.586   4.150   6.175  2.2861 -0.3172  0.5944
 3813SOL    HW223076   4.670   4.252   6.254 -0.2398 -0.4307  1.7900
 3814SOL     OW23077   0.673   2.736   8.573 -0.1385 -0.0651  0.1490
 3814SOL    HW123078   0.724   2.812   8.600  1.0976 -0.5984 -0.6852
 3814SOL    HW223079   0.621   2.765   8.497  1.0406  1.6743  0.0087
 3815SOL     OW23080   2.965   1.224   4.281  0.1060 -0.1310 -0.1120
 3815SOL    HW123081   2.953   1.264   4.367 -0.3846 -0.9193  0.1833
 3815SOL    HW223082   3.040   1.167   4.298  2.0646  2.4666  0.1054
 3816SOL     OW23083   3.624   1.559  10.964 -0.2702 -0.1255  0.5147
 3816SOL    HW123084   3.531   1.573  10.947 -0.6385 -1.2240  1.5860
 3816SOL    HW223085   3.625   1.503  11.042  1.5980 -0.3367  0.3515
 3817SOL     OW23086   4.643   4.621   0.001 -0.4029 -0.4264  0.3362
 3817SOL    HW123087   4.554   4.625   0.038 -0.1546  3.0535  0.6143
 3817SOL    HW223088   4.655   4.714  17.725  0.4181 -0.2316  1.6299
 3818SOL     OW23089   0.361   2.497  11.855 -0.2327 -0.1923 -0.3631
 3818SOL    HW123090   0.351   2.558  11.928 -1.2123 -2.6893  1.5673
 3818SOL    HW223091   0.375   2.559  11.783  0.5290 -0.4157 -0.4051
 3819SOL     OW23092   2.804   1.705   9.094  0.4492  0.2450  0.0326
 3819SOL    HW123093   2.855   1.658   9.160  1.6199 -1.6957 -2.2656
 3819SOL    HW223094   2.869   1.716   9.025  1.0506  0.7555  0.6827
 3820SOL     OW23095   0.276   0.863  10.892 -0.1216  0.2053  0.2469
 3820SOL    HW123096   0.317   0.892  10.973  1.9203 -1.4128 -0.2095
 3820SOL    HW223097   0.190   0.902  10.909 -0.9171 -2.1585  1.7373
 3821SOL     OW23098   3.381   1.036   3.692  0.2375 -0.9901  0.0220
 3821SOL    HW123099   3.369   0.955   3.742 -0.9519  0.1233  1.5201
 3821SOL    HW223100   3.446   1.005   3.629  0.2301  1.0339 -0.9670
 3822SOL     OW23101   4.545   3.195   4.201 -0.1991  0.3585 -0.1860
 3822SOL    HW123102   4.512   3.273   4.245 -1.6697 -1.0274  1.1426
 3822SOL    HW223103   4.638   3.215   4.189 -0.0470  0.0437  0.4942
 3823SOL     OW23104   0.830   3.008   6.878  0.0385  0.8300 -0.3733
 3823SOL    HW123105   0.767   2.965   6.937  2.3451 -3.5327 -1.0630
 3823SOL    HW223106   0.907   2.982   6.929 -0.7344 -0.3954  0.1987
 3824SOL     OW23107   3.702   2.834   6.235 -0.4086 -0.1147 -0.1716
 3824SOL    HW123108   3.656   2.917   6.250  0.3668  0.1218  0.8771
 3824SOL    HW223109   3.744   2.822   6.320 -0.5620  0.4351 -0.0143
 3825SOL     OW23110   3.126   0.568   5.182 -0.2353 -0.2832 -0.1536
 3825SOL    HW123111   3.087   0.495   5.134 -1.9194 -1.3458  2.7979
 3825SOL    HW223112   3.098   0.649   5.138  1.9702  0.9530  0.6981
 3826SOL     OW23113   3.226   0.388  17.270  0.1828 -0.3895  0.5749
 3826SOL    HW123114   3.191   0.316  17.217  1.1208  1.7405 -2.8667
 3826SOL    HW223115   3.190   0.364  17.356  1.6475  1.6344  1.7494
 3827SOL     OW23116   3.526   0.281   7.877  0.4064  0.2016 -0.0808
 3827SOL    HW123117   3.535   0.326   7.793  2.3454  0.5487  0.3053
 3827SOL    HW223118   3.532   0.354   7.939 -1.2981  0.0496  0.2441
 3828SOL     OW23119   1.501   3.004   2.091  0.1760 -0.3629  0.0397
 3828SOL    HW123120   1.468   3.092   2.106 -0.0174 -0.7043  1.6311
 3828SOL    HW223121   1.593   3.010   2.067 -0.1672 -0.3366 -1.2660
 3829SOL     OW23122   3.191   2.723   8.860  0.1595  0.0720  0.1157
 3829SOL    HW123123   3.242   2.709   8.940  3.9948 -0.1468 -2.3583
 3829SOL    HW223124   3.263   2.760   8.808 -0.6214  0.6675 -0.5377
 3830SOL     OW23125   2.841   4.447   4.569  0.2198  0.1465 -0.4420
 3830SOL    HW123126   2.874   4.470   4.482  2.5105 -2.4873 -0.2624
 3830SOL    HW223127   2.747   4.434   4.553 -0.1833  1.4442  0.9186
 3831SOL     OW23128   3.339   1.989   4.961  0.3279 -0.1057  0.5838
 3831SOL    HW123129   3.297   2.022   5.040  0.4059 -0.3168  0.7142
 3831SOL    HW223130   3.431   1.987   4.987  0.3148 -0.6299  0.5903
 3832SOL     OW23131   0.181   1.118   0.612  0.1655 -0.2009 -0.0936
 3832SOL    HW123132   0.261   1.124   0.664  0.4351 -1.7181 -0.3394
 3832SOL    HW223133   0.200   1.173   0.537 -2.0852 -1.3860 -1.5396
 3833SOL     OW23134   3.468   4.259  15.386  0.3356  0.3633 -0.2813
 3833SOL    HW123135   3.481   4.195  15.316  0.9319  0.7817 -0.5602
 3833SOL    HW223136   3.374   4.272  15.379 -0.2432 -2.8791  2.0592
 3834SOL     OW23137   0.922   0.790   2.159  0.2880  0.2961 -0.0959
 3834SOL    HW123138   0.935   0.874   2.204  2.6197 -0.6266  1.0042
 3834SOL    HW223139   0.882   0.826   2.080  1.8892 -1.0786 -1.5444
 3835SOL     OW23140   2.622   1.227   8.201 -0.2271  0.2187 -0.2001
 3835SOL    HW123141   2.549   1.188   8.152 -0.3744 -2.3076  2.0136
 3835SOL    HW223142   2.619   1.322   8.189  3.9390  0.6455  1.9939
 3836SOL     OW23143   1.091   0.674   2.381 -0.0928 -0.8585  0.8307
 3836SOL    HW123144   1.012   0.652   2.430 -0.9004 -0.5156 -0.3329
 3836SOL    HW223145   1.051   0.701   2.299  1.8077  0.8533  0.4822
 3837SOL     OW23146   1.671   2.825  16.610 -0.5523  0.1106  0.4393
 3837SOL    HW123147   1.610   2.778  16.554  0.6340 -2.9473  1.7681
 3837SOL    HW223148   1.753   2.778  16.594  0.0997  1.7693 -1.1973
 3838SOL     OW23149   1.579   0.484   4.831  0.3943 -0.6767 -0.0665
 3838SOL    HW123150   1.617   0.546   4.769  0.2686 -1.5369 -0.9920
 3838SOL    HW223151   1.630   0.405   4.811  1.3979 -0.6852  2.4562
 3839SOL     OW23152   4.605   2.245   3.960  0.3654  0.0875 -0.0749
 3839SOL    HW123153   4.582   2.237   4.053  0.9802 -1.0374 -0.0148
 3839SOL    HW223154   4.548   2.170   3.944 -0.0716  0.1049  1.4104
 3840SOL     OW23155   2.332   3.786  10.615 -0.0973 -0.1625  0.7198
 3840SOL    HW123156   2.368   3.808  10.529 -4.3281 -0.2880 -1.0981
 3840SOL    HW223157   2.248   3.751  10.585  0.5613 -2.4973  1.5989
 3841SOL     OW23158   4.606   3.225   5.450 -0.2803  0.0086 -0.4981
 3841SOL    HW123159   4.574   3.139   5.479  0.1214  0.0780  0.1538
 3841SOL    HW223160   4.542   3.280   5.495  1.4169 -1.8376  4.1673
 3842SOL     OW23161   1.956   0.578   5.117  0.0970 -0.2529  0.2176
 3842SOL    HW123162   1.989   0.523   5.046  0.4063  1.1892 -0.7545
 3842SOL    HW223163   1.910   0.512   5.169 -0.3782  1.1888  1.6361
 3843SOL     OW23164   0.589   0.668   8.997 -0.1858 -0.2168  0.2640
 3843SOL    HW123165   0.573   0.574   9.012 -0.1611 -0.4984 -1.5436
 3843SOL    HW223166   0.642   0.660   8.918  0.5136 -1.7502  0.8757
 3844SOL     OW23167   4.200   4.442   3.314  0.1710 -0.1908 -0.5857
 3844SOL    HW123168   4.113   4.408   3.292 -0.7781  1.7638  0.0802
 3844SOL    HW223169   4.222   4.367   3.370 -0.6418 -0.7449 -1.0141
 3845SOL     OW23170   3.488   2.810   2.259 -0.3508 -0.1823 -0.1025
 3845SOL    HW123171   3.518   2.869   2.190  3.7244 -0.5501  1.3759
 3845SOL    HW223172   3.515   2.726   2.223  0.2138  0.7215 -1.7916
 3846SOL     OW23173   3.490   4.606   1.988  0.0129 -0.0949  0.2666
 3846SOL    HW123174   3.552   4.679   1.982 -2.2965  1.7484 -1.3077
 3846SOL    HW223175   3.414   4.660   2.012  0.2402  0.5278 -0.4087
 3847SOL     OW23176   4.048   2.318   3.233  0.1114  0.5805  0.1795
 3847SOL    HW123177   4.072   2.290   3.144  2.0871  2.2088  0.2122
 3847SOL    HW223178   4.134   2.306   3.272  0.2067  1.0302  0.1084
 3848SOL     OW23179   1.886   3.181   2.944  0.4296 -0.3029  0.6915
 3848SOL    HW123180   1.899   3.086   2.935  2.6202  0.0796 -0.1433
 3848SOL    HW223181   1.961   3.225   2.983 -0.7029  0.2046  2.2691
 3849SOL     OW23182   0.990   2.895   9.942 -0.1713  0.0693  0.2932
 3849SOL    HW123183   0.978   2.820   9.883  0.3053 -0.1073  0.4249
 3849SOL    HW223184   1.080   2.918   9.919  0.6124 -0.6710  2.6907
 3850SOL     OW23185   3.274   0.766   6.379 -0.8297 -0.1746  0.1109
 3850SOL    HW123186   3.355   0.798   6.339 -1.9486  0.7363 -1.4192
 3850SOL    HW223187   3.302   0.675   6.384  0.5149  0.3576  2.7735
 3851SOL     OW23188   0.872   1.418   1.082  0.6581 -0.2365  0.0314
 3851SOL    HW123189   0.799   1.476   1.058  0.6064  0.0325  0.8690
 3851SOL    HW223190   0.916   1.491   1.125  0.0279 -2.1991  3.9622
 3852SOL     OW23191   2.835   2.240   3.918 -0.1927  0.1423 -0.5377
 3852SOL    HW123192   2.774   2.193   3.975  1.0496 -1.6423 -0.6808
 3852SOL    HW223193   2.847   2.182   3.843  3.2027  1.3185 -0.8607
 3853SOL     OW23194   3.293   3.702  13.469 -0.3201  0.1968  0.0527
 3853SOL    HW123195   3.287   3.610  13.445 -2.0726  0.2086  0.4721
 3853SOL    HW223196   3.200   3.722  13.481 -0.3474  1.2914 -1.9585
 3854SOL     OW23197   3.149   0.341   9.321 -0.1022  0.3938  0.2571
 3854SOL    HW123198   3.225   0.349   9.378  1.2191 -1.4741 -1.2271
 3854SOL    HW223199   3.110   0.428   9.316  1.0215  0.6984 -3.3476
 3855SOL     OW23200   0.037   4.551  10.782 -0.3358 -0.1162 -0.1166
 3855SOL    HW123201   0.107   4.491  10.808  0.5092  0.9475  0.0105
 3855SOL    HW223202   4.719   4.531  10.858 -0.6790  1.6762  0.0992
 3856SOL     OW23203   1.354   2.564  13.784 -0.1001 -0.0910  0.4172
 3856SOL    HW123204   1.438   2.610  13.792 -0.9060  1.6302 -0.8239
 3856SOL    HW223205   1.343   2.569  13.689 -1.3069  0.9773  0.6035
 3857SOL     OW23206   0.607   2.346  16.521  0.0072  0.1022  0.1092
 3857SOL    HW123207   0.561   2.405  16.581  0.0978  0.3152 -0.0305
 3857SOL    HW223208   0.666   2.312  16.588  0.5768 -0.9427 -0.9263
 3858SOL     OW23209   2.062   1.327  14.649 -0.2011  0.4873 -0.1252
 3858SOL    HW123210   2.152   1.296  14.657 -0.1249  0.6067 -0.5364
 3858SOL    HW223211   2.062   1.346  14.555  1.7362  1.6505  0.1239
 3859SOL     OW23212   3.082   3.426   6.026 -0.6733 -0.3455 -0.0265
 3859SOL    HW123213   3.074   3.493   5.959 -1.9350 -0.1777  0.3016
 3859SOL    HW223214   2.994   3.391   6.012 -0.7690 -0.2107  0.2380
 3860SOL     OW23215   3.122   4.014   5.417 -0.3745  0.3781 -0.2257
 3860SOL    HW123216   3.174   4.093   5.405  0.5748 -0.3512 -0.9171
 3860SOL    HW223217   3.050   4.046   5.362 -0.5830 -0.0029 -0.1750
 3861SOL     OW23218   0.236   1.175   3.955 -0.3145 -0.1813 -0.3615
 3861SOL    HW123219   0.173   1.131   4.013  0.3759  0.1778  0.6685
 3861SOL    HW223220   0.234   1.107   3.888  0.6398 -0.6546  0.0904
 3862SOL     OW23221   1.778   1.344   2.668 -0.1119  0.4686 -0.1485
 3862SOL    HW123222   1.801   1.367   2.578  0.0389  1.2392  0.0855
 3862SOL    HW223223   1.689   1.310   2.656  0.8796 -2.6508  1.3715
 3863SOL     OW23224   2.050   3.017   6.147 -0.0394  0.2518 -0.8035
 3863SOL    HW123225   2.017   2.934   6.113  0.0358  0.5055 -1.5011
 3863SOL    HW223226   2.009   3.019   6.233 -0.9672 -2.3297 -1.1739
 3864SOL     OW23227   0.708   2.937   3.939  0.0218 -0.1887 -0.4537
 3864SOL    HW123228   0.656   2.886   3.878  2.6987 -2.6752 -0.6380
 3864SOL    HW223229   0.647   2.949   4.012 -0.0820  0.8698 -0.7131
 3865SOL     OW23230   2.477   3.999  15.826 -0.7500 -0.3560  0.6857
 3865SOL    HW123231   2.504   4.089  15.806 -0.6561 -0.3812  0.6979
 3865SOL    HW223232   2.556   3.969  15.871 -0.8725 -2.0289 -0.2344
 3866SOL     OW23233   1.730   1.921   3.238 -0.0728  0.0765  0.5228
 3866SOL    HW123234   1.820   1.903   3.264  0.2642  0.0587 -0.6457
 3866SOL    HW223235   1.701   1.837   3.202 -1.9380 -0.7144  3.8487
 3867SOL     OW23236   0.918   0.346   0.736  0.2296  0.3106 -0.6773
 3867SOL    HW123237   0.909   0.430   0.780 -1.6062 -0.7890  1.0656
 3867SOL    HW223238   0.997   0.359   0.684  1.5895 -1.8412  0.8519
 3868SOL     OW23239   1.270   2.467   5.237  0.0841 -0.1189 -0.8163
 3868SOL    HW123240   1.342   2.512   5.192 -1.0673  0.8417 -1.6624
 3868SOL    HW223241   1.218   2.540   5.269 -0.6604 -1.2520  0.5447
 3869SOL     OW23242   1.303   3.873   2.606 -0.0594  0.5846  0.4134
 3869SOL    HW123243   1.395   3.894   2.587  0.0101  0.0352  0.1464
 3869SOL    HW223244   1.299   3.890   2.700 -0.1862 -0.3509  0.5738
 3870SOL     OW23245   3.640   0.677   9.613 -0.3358 -0.1383 -0.3084
 3870SOL    HW123246   3.615   0.596   9.568 -0.3532  0.6471 -1.7170
 3870SOL    HW223247   3.685   0.708   9.535 -1.2866  0.8285 -0.4618
 3871SOL     OW23248   3.784   3.783   5.033  0.0953  0.6748 -0.4586
 3871SOL    HW123249   3.696   3.795   4.997  0.6194  2.0323 -1.2522
 3871SOL    HW223250   3.781   3.842   5.109  1.5186  2.1991 -1.5958
 3872SOL     OW23251   4.486   4.489   0.653 -0.3451  0.1251  0.0115
 3872SOL    HW123252   4.468   4.412   0.707 -1.3847  0.3832  0.0217
 3872SOL    HW223253   4.521   4.441   0.577 -2.1303 -1.5973  0.2939
 3873SOL     OW23254   2.583   1.044   3.633 -0.0517 -0.3685 -0.4160
 3873SOL    HW123255   2.589   0.983   3.559 -1.3272 -3.5775  2.1560
 3873SOL    HW223256   2.655   1.027   3.694  0.3139  0.6815 -0.5544
 3874SOL     OW23257   2.959   2.821  12.059  0.0639  0.3487  0.1503
 3874SOL    HW123258   3.046   2.793  12.029  0.9510  0.3309  2.7253
 3874SOL    HW223259   2.955   2.908  12.020  2.2075 -0.0849 -1.0373
 3875SOL     OW23260   4.607   4.579   5.318 -0.3925 -0.2624 -0.0430
 3875SOL    HW123261   4.686   4.630   5.338 -1.6153  1.2402  0.9137
 3875SOL    HW223262   4.651   4.507   5.272 -1.4004 -0.6123 -0.4537
 3876SOL     OW23263   1.059   0.711  12.227 -0.3299 -0.0259 -0.3012
 3876SOL    HW123264   1.060   0.763  12.147 -0.4723  0.9455  0.3354
 3876SOL    HW223265   1.077   0.623  12.192  0.4328  0.3823 -0.9379
 3877SOL     OW23266   0.316   4.034   0.966  0.2861 -0.0616  0.1883
 3877SOL    HW123267   0.390   4.094   0.968  0.4648 -0.1732 -2.3244
 3877SOL    HW223268   0.273   4.049   1.050 -0.5094 -1.6061  0.0519
 3878SOL     OW23269   3.113   4.429  12.413 -0.0032 -0.0602 -0.2281
 3878SOL    HW123270   3.067   4.475  12.342  2.4288 -0.2420 -1.9054
 3878SOL    HW223271   3.109   4.495  12.483  1.3265  2.2086 -2.2759
 3879SOL     OW23272   1.922   3.428   1.877  0.2445 -0.2467 -0.1797
 3879SOL    HW123273   2.008   3.465   1.891 -0.8098  2.7978 -1.7426
 3879SOL    HW223274   1.895   3.484   1.804  0.9746 -1.0479 -1.0652
 3880SOL     OW23275   4.588   1.298   9.604 -0.3412 -0.5335 -0.1758
 3880SOL    HW123276   4.553   1.350   9.677  1.3143 -0.3580  0.4836
 3880SOL    HW223277   4.623   1.367   9.548 -2.8479  0.5560 -0.4150
 3881SOL     OW23278   4.568   3.910   1.965 -0.6902 -0.3440 -0.1417
 3881SOL    HW123279   4.600   3.842   1.905 -1.1207  0.1498 -0.9397
 3881SOL    HW223280   4.646   3.966   1.973 -2.1087  1.3773  1.5584
 3882SOL     OW23281   4.377   2.650   2.059  0.5589 -0.3279  0.1401
 3882SOL    HW123282   4.459   2.657   2.009  1.0546  1.1230  1.1387
 3882SOL    HW223283   4.377   2.740   2.091 -0.9733  0.3658 -1.7837
 3883SOL     OW23284   3.744   3.013   0.255 -0.0680 -0.4391  0.2500
 3883SOL    HW123285   3.780   3.098   0.280 -0.5004 -0.9291  2.5740
 3883SOL    HW223286   3.748   2.966   0.338  1.1081 -0.0717  0.4019
 3884SOL     OW23287   0.242   1.222   2.843  0.1203  1.1469  0.7529
 3884SOL    HW123288   0.237   1.257   2.755  0.2664  0.2645  0.3914
 3884SOL    HW223289   0.235   1.132   2.813 -0.6370  1.0417  1.2355
 3885SOL     OW23290   0.174   1.100  12.662 -0.4379  0.1702  0.0682
 3885SOL    HW123291   0.224   1.030  12.620  0.3005  0.8816 -0.2265
 3885SOL    HW223292   0.095   1.070  12.616  0.7397 -0.4247 -1.5462
 3886SOL     OW23293   0.156   0.008   3.532 -0.2659  0.4472 -0.4240
 3886SOL    HW123294   0.187   0.089   3.491 -0.9223 -0.6263 -3.0313
 3886SOL    HW223295   0.198   4.673   3.485  0.1924  0.4014  0.0619
 3887SOL     OW23296   4.304   3.251   2.755 -0.1609  0.4539  0.1464
 3887SOL    HW123297   4.211   3.272   2.749 -0.3423 -0.6406 -0.8744
 3887SOL    HW223298   4.302   3.206   2.839 -1.0799  1.7963  0.8417
 3888SOL     OW23299   2.634   1.790  17.406 -0.6795 -0.0860  0.0221
 3888SOL    HW123300   2.597   1.878  17.419 -1.5824 -0.1113 -2.4415
 3888SOL    HW223301   2.564   1.734  17.440  0.1980 -1.0997  0.1188
 3889SOL     OW23302   3.967   4.124   6.456  0.5440 -0.2621 -0.0764
 3889SOL    HW123303   3.959   4.216   6.481 -1.7441 -0.5816  0.3729
 3889SOL    HW223304   3.923   4.085   6.532 -1.9215  2.6570 -0.0115
 3890SOL     OW23305   0.542   0.902   2.951  0.6575  0.3455  0.0221
 3890SOL    HW123306   0.576   0.820   2.916 -0.4252  0.5330 -1.4572
 3890SOL    HW223307   0.516   0.947   2.870 -1.1891  0.6582  0.7974
 3891SOL     OW23308   2.859   1.690   1.386 -0.0503 -0.0459  0.3378
 3891SOL    HW123309   2.901   1.604   1.391 -0.4531 -0.3018 -0.7222
 3891SOL    HW223310   2.829   1.688   1.477 -0.2980  0.1979  0.2607
 3892SOL     OW23311   1.579   0.089   4.494 -0.9518  0.8960 -0.0856
 3892SOL    HW123312   1.488   0.106   4.470 -1.0719  0.7400  0.2587
 3892SOL    HW223313   1.621   0.174   4.504 -1.6531  1.2240  0.0536
 3893SOL     OW23314   1.793   4.421   2.856 -0.3430 -0.0493 -0.2868
 3893SOL    HW123315   1.713   4.377   2.825 -0.6763  1.6418 -1.7748
 3893SOL    HW223316   1.867   4.361   2.846 -0.5992 -0.3510 -0.3820
 3894SOL     OW23317   4.425   3.391   3.762  0.3207 -0.5903  0.1268
 3894SOL    HW123318   4.450   3.474   3.803 -0.5595 -0.9282  1.3325
 3894SOL    HW223319   4.363   3.365   3.830  1.7312 -0.4655  1.4762
 3895SOL     OW23320   2.796   3.031   2.255  0.3523  0.0656  0.0487
 3895SOL    HW123321   2.854   3.046   2.180 -1.1199 -0.3249 -1.1625
 3895SOL    HW223322   2.750   2.963   2.205 -0.6602  0.4908  0.4038
 3896SOL     OW23323   0.107   3.932  12.782 -0.2708 -0.3638  0.0471
 3896SOL    HW123324   0.142   3.901  12.866 -1.6719  0.1773  0.8421
 3896SOL    HW223325   0.126   3.857  12.727 -0.7826  1.5962 -2.7744
 3897SOL     OW23326   0.067   0.303   1.983 -0.6388  0.7347  0.7550
 3897SOL    HW123327   0.018   0.350   2.051 -1.7507  0.1819  0.3238
 3897SOL    HW223328   0.103   0.226   2.027 -1.7606  0.5684  1.3654
 3898SOL     OW23329   2.921   1.524  11.629 -0.2574 -0.7349 -0.2524
 3898SOL    HW123330   2.901   1.457  11.694 -1.6049 -0.3723 -0.2917
 3898SOL    HW223331   3.013   1.537  11.655  0.2857 -3.4284 -0.8060
 3899SOL     OW23332   1.235   3.056   3.729  0.2749 -0.3013  0.5076
 3899SOL    HW123333   1.144   3.071   3.703  0.7399 -2.5986 -2.5101
 3899SOL    HW223334   1.265   3.144   3.703 -0.1830 -0.1272  0.5762
 3900SOL     OW23335   4.460   1.400  12.370 -0.1160 -0.1741  0.2515
 3900SOL    HW123336   4.505   1.453  12.303  0.7744 -1.8495 -0.4705
 3900SOL    HW223337   4.464   1.313  12.330 -1.9764  0.4375 -1.2936
 3901SOL     OW23338   3.273   4.457   6.921  0.3549 -0.0882  0.2145
 3901SOL    HW123339   3.204   4.416   6.869  0.2355  0.6430 -0.2034
 3901SOL    HW223340   3.350   4.418   6.880 -1.0576 -0.1548 -2.3958
 3902SOL     OW23341   3.551   4.016   6.631 -0.2627 -0.4050 -0.4861
 3902SOL    HW123342   3.517   4.052   6.549 -0.0177 -2.3010 -1.4083
 3902SOL    HW223343   3.483   4.041   6.694  0.2876 -0.2558  0.0429
 3903SOL     OW23344   2.106   0.112  10.947 -0.3404  0.2281  0.0617
 3903SOL    HW123345   2.052   0.083  11.021  2.6753 -1.4750  1.5944
 3903SOL    HW223346   2.156   0.173  11.002  2.7094 -3.5364  1.4269
 3904SOL     OW23347   3.985   2.665   7.357  0.5961 -0.3372 -0.1554
 3904SOL    HW123348   3.966   2.666   7.450 -0.9510  1.7819 -0.4952
 3904SOL    HW223349   4.081   2.673   7.356  0.4761  1.0288 -1.7233
 3905SOL     OW23350   2.425   2.675  11.094  0.3324  0.9871 -0.5271
 3905SOL    HW123351   2.364   2.608  11.064  2.2636 -0.0461 -2.1740
 3905SOL    HW223352   2.477   2.627  11.159 -1.9249 -1.8914 -0.8643
 3906SOL     OW23353   2.473   2.378   6.063  0.0285  0.5635  0.2040
 3906SOL    HW123354   2.388   2.398   6.102 -1.0045 -2.3590 -0.6016
 3906SOL    HW223355   2.522   2.362   6.143 -1.4588  1.0334  1.1954
 3907SOL     OW23356   4.613   2.158   1.615  0.0292  0.1159  0.0657
 3907SOL    HW123357   4.613   2.063   1.626 -0.2540 -0.0255 -1.1736
 3907SOL    HW223358   4.544   2.189   1.674 -0.9707 -0.2462 -0.8922
 3908SOL     OW23359   0.686   1.572   6.956 -0.2239  0.5246  0.6900
 3908SOL    HW123360   0.678   1.667   6.948 -0.9415  0.7356  3.9837
 3908SOL    HW223361   0.715   1.568   7.047  0.1401  2.0755  0.6430
 3909SOL     OW23362   3.287   0.806   4.545  0.0822  0.6047 -0.1526
 3909SOL    HW123363   3.348   0.737   4.517 -2.2842 -1.0072 -1.2773
 3909SOL    HW223364   3.337   0.855   4.610  0.3880  1.8346 -1.3163
 3910SOL     OW23365   4.430   2.277   9.274  0.4680 -0.0574  0.5234
 3910SOL    HW123366   4.494   2.292   9.205 -1.2202  1.3157 -0.7610
 3910SOL    HW223367   4.410   2.367   9.300  2.2374 -0.2309  2.5293
 3911SOL     OW23368   4.209   0.758  10.516 -0.0250 -0.2389  0.4947
 3911SOL    HW123369   4.230   0.759  10.422 -0.8459 -2.1526  0.2972
 3911SOL    HW223370   4.117   0.780  10.504  0.5328  2.3210  0.8781
 3912SOL     OW23371   3.908   4.639   0.060 -0.2070  0.0844  0.0717
 3912SOL    HW123372   3.856   4.711   0.023  0.2088  1.4272  2.1288
 3912SOL    HW223373   3.832   4.591   0.093  1.1214 -1.4535  0.8703
 3913SOL     OW23374   2.633   2.123   4.053  0.3210 -0.3665 -0.1338
 3913SOL    HW123375   2.610   2.034   4.026  0.1208 -0.9039  1.8132
 3913SOL    HW223376   2.548   2.159   4.074  0.9997  0.7500  0.6804
 3914SOL     OW23377   0.427   1.907   4.992 -0.1703  0.6521  0.5247
 3914SOL    HW123378   0.359   1.956   4.945 -0.1466  0.2844  0.1105
 3914SOL    HW223379   0.499   1.968   4.976  0.2490 -0.2193 -1.0089
 3915SOL     OW23380   4.315   2.084   9.125  0.0689  0.5608  0.2943
 3915SOL    HW123381   4.353   2.162   9.165  1.1143  0.1797  0.0383
 3915SOL    HW223382   4.284   2.043   9.206 -0.7629  0.1128 -0.2590
 3916SOL     OW23383   4.441   1.697   3.177  0.0093  0.3855  0.1624
 3916SOL    HW123384   4.517   1.653   3.140  2.3135  3.2254  1.6265
 3916SOL    HW223385   4.400   1.630   3.233 -0.8083  1.6063  1.0407
 3917SOL     OW23386   0.551   3.441   2.869 -0.2757 -0.3537 -0.0813
 3917SOL    HW123387   0.628   3.396   2.903 -0.0099  0.2053  0.0611
 3917SOL    HW223388   0.507   3.462   2.952 -0.9672  1.5110 -0.8976
 3918SOL     OW23389   2.085   0.784   6.915  0.1730 -0.1722  0.4725
 3918SOL    HW123390   2.106   0.723   6.845 -4.6878 -0.6307 -0.5942
 3918SOL    HW223391   1.991   0.799   6.905  0.1629 -0.2889  0.3907
 3919SOL     OW23392   0.165   4.327   0.724  0.2117  0.4887  0.2434
 3919SOL    HW123393   0.205   4.344   0.809 -1.3099  2.2142  0.6187
 3919SOL    HW223394   0.149   4.418   0.701 -0.6428 -0.3621 -2.5003
 3920SOL     OW23395   3.066   3.200   6.666  0.1031  0.0213  0.4975
 3920SOL    HW123396   3.075   3.283   6.619 -2.6248  0.8563  1.4885
 3920SOL    HW223397   3.033   3.223   6.753 -2.7777 -2.0032 -0.0784
 3921SOL     OW23398   1.436   3.025  11.220  0.1102  0.2691 -0.4696
 3921SOL    HW123399   1.433   2.930  11.231  0.8919  0.4804  1.5564
 3921SOL    HW223400   1.528   3.038  11.244  0.0063 -1.9502  1.1102
 3922SOL     OW23401   4.664   2.474   5.806  0.0651 -0.3606 -0.5487
 3922SOL    HW123402   4.675   2.384   5.836  1.1765 -0.2961 -0.7677
 3922SOL    HW223403   4.605   2.505   5.875 -1.4474 -1.1389 -1.4891
 3923SOL     OW23404   3.770   0.261  16.659  0.4729  0.3764 -0.3236
 3923SOL    HW123405   3.712   0.256  16.735 -0.2662  1.2555 -0.8313
 3923SOL    HW223406   3.801   0.171  16.655  1.3657  0.6487  0.3605
 3924SOL     OW23407   2.377   4.262   8.197  0.6225  0.3134 -0.1742
 3924SOL    HW123408   2.446   4.282   8.260  0.0995  1.9067 -0.0961
 3924SOL    HW223409   2.426   4.260   8.115  0.5782  3.2307 -0.2763
 3925SOL     OW23410   1.944   0.496   7.400  0.8209 -0.2111 -0.0614
 3925SOL    HW123411   1.969   0.426   7.461  0.8313 -1.2067 -1.1873
 3925SOL    HW223412   1.962   0.572   7.455  1.0658 -0.4173  0.1447
 3926SOL     OW23413   1.400   4.011  17.594 -0.9012 -0.0024 -0.2592
 3926SOL    HW123414   1.346   3.964  17.659  0.8254  0.9712  1.8836
 3926SOL    HW223415   1.375   3.952  17.523  3.7008 -1.3664 -0.7413
 3927SOL     OW23416   2.264   0.512   2.899  0.3088  0.3495  0.0555
 3927SOL    HW123417   2.238   0.602   2.915  2.9992  1.5651 -2.3294
 3927SOL    HW223418   2.199   0.488   2.832 -1.1228  0.8206  1.2792
 3928SOL     OW23419   1.450   2.744   8.714 -0.0459 -0.5021 -0.4934
 3928SOL    HW123420   1.411   2.831   8.708 -1.1229 -1.1521 -2.9130
 3928SOL    HW223421   1.383   2.695   8.761 -0.5974  0.6404 -0.0847
 3929SOL     OW23422   2.104   2.872   5.758 -0.8759  0.0283  0.4505
 3929SOL    HW123423   2.151   2.806   5.707  1.4221  1.0527  1.2434
 3929SOL    HW223424   2.055   2.806   5.807  1.4242 -0.7956  1.6614
 3930SOL     OW23425   0.203   0.398   5.706  0.0839  0.5400 -0.1181
 3930SOL    HW123426   0.249   0.426   5.785  1.0893 -0.5509 -0.3053
 3930SOL    HW223427   0.191   0.304   5.721  2.9324  0.5172  2.0609
 3931SOL     OW23428   1.392   0.418   8.646 -0.3033 -0.3151  0.0396
 3931SOL    HW123429   1.433   0.351   8.591 -1.1431 -0.1915 -0.7409
 3931SOL    HW223430   1.466   0.470   8.677 -1.2537  2.3164 -2.1226
 3932SOL     OW23431   1.702   0.085  15.499  0.1380 -0.3371  0.3146
 3932SOL    HW123432   1.788   0.114  15.468  0.1579 -1.6425 -0.8450
 3932SOL    HW223433   1.705   0.109  15.592  3.8188 -1.1006  0.3747
 3933SOL     OW23434   3.153   3.563   7.624 -0.0760  0.6377 -0.6009
 3933SOL    HW123435   3.124   3.530   7.709  0.9762  2.5802  0.5052
 3933SOL    HW223436   3.081   3.624   7.611  0.3184  0.9220 -1.4388
 3934SOL     OW23437   4.364   0.531   5.266 -0.3510 -0.0940  0.6925
 3934SOL    HW123438   4.401   0.470   5.330 -1.8856 -2.1521 -0.3667
 3934SOL    HW223439   4.403   0.501   5.185 -0.4292 -1.1795  1.0576
 3935SOL     OW23440   2.510   1.340   2.642  0.3902  0.2839 -0.0275
 3935SOL    HW123441   2.529   1.348   2.548  5.3879  0.0337  0.9627
 3935SOL    HW223442   2.414   1.341   2.648  0.3422 -0.6270 -0.6036
 3936SOL     OW23443   3.139   0.505   2.750  0.1961  0.0148  0.3642
 3936SOL    HW123444   3.218   0.527   2.701 -0.1558  3.1902  1.2441
 3936SOL    HW223445   3.114   0.585   2.796 -0.4789 -0.3273  0.5933
 3937SOL     OW23446   0.343   2.060   5.312  0.0638  0.2229 -0.4499
 3937SOL    HW123447   0.262   2.079   5.264 -0.5133 -0.7799  0.1336
 3937SOL    HW223448   0.400   2.131   5.282 -0.6958  1.3691  0.8310
 3938SOL     OW23449   3.101   0.500   7.730 -0.3741 -0.2795 -0.5084
 3938SOL    HW123450   3.074   0.592   7.733 -0.0077 -0.1760 -0.3954
 3938SOL    HW223451   3.018   0.459   7.706  1.4248 -4.0317 -0.2586
 3939SOL     OW23452   0.135   1.105   8.875  0.5320  0.3234 -0.1181
 3939SOL    HW123453   0.165   1.196   8.881  3.4107 -0.6326 -0.0307
 3939SOL    HW223454   0.056   1.103   8.929  0.4910 -1.4573 -0.2323
 3940SOL     OW23455   4.665   2.749  15.130  0.1206  0.4410  0.0451
 3940SOL    HW123456   4.734   2.792  15.079 -0.9592  1.2239 -0.7532
 3940SOL    HW223457   4.699   2.776  15.215 -1.3408  1.9159  0.1574
 3941SOL     OW23458   0.599   1.318   5.695 -0.3825 -0.1754  0.3195
 3941SOL    HW123459   0.650   1.372   5.756 -2.3857  1.8931  0.1367
 3941SOL    HW223460   0.652   1.314   5.616  2.1650  2.7151  1.8917
 3942SOL     OW23461   2.630   0.031   5.864  0.4679 -0.0422 -0.1858
 3942SOL    HW123462   2.580   4.689   5.842 -1.8294  1.5235 -0.4731
 3942SOL    HW223463   2.617   0.026   5.959  1.7309 -1.3793 -0.0804
 3943SOL     OW23464   1.314   0.192   4.473  0.2662 -0.6164  0.2872
 3943SOL    HW123465   1.254   0.150   4.411 -0.0683  0.0051  0.1878
 3943SOL    HW223466   1.284   0.282   4.461 -1.6952 -1.0090  2.2873
 3944SOL     OW23467   2.757   1.553  13.989 -0.2691 -0.2255 -0.1116
 3944SOL    HW123468   2.683   1.495  13.970 -0.3786  0.5647 -2.1176
 3944SOL    HW223469   2.719   1.598  14.064  1.9140  0.4649  0.5669
 3945SOL     OW23470   1.361   4.182   7.236 -0.6250 -0.0589  0.5596
 3945SOL    HW123471   1.274   4.204   7.203 -1.0448 -2.6044 -0.0609
 3945SOL    HW223472   1.345   4.096   7.276  1.7011  0.5541  2.7965
 3946SOL     OW23473   3.153   3.380  10.967  0.1428 -0.3263  0.5131
 3946SOL    HW123474   3.225   3.377  11.029  1.2262 -1.0679 -0.7951
 3946SOL    HW223475   3.080   3.415  11.019 -0.7347 -2.2676  0.6268
 3947SOL     OW23476   4.182   1.639   7.001  0.5753  0.3232  0.0991
 3947SOL    HW123477   4.087   1.631   7.013  0.6393  2.7222  2.2199
 3947SOL    HW223478   4.194   1.604   6.913 -1.3210  1.2933 -0.5498
 3948SOL     OW23479   0.886   4.357   0.818 -1.2058  0.3482 -0.3570
 3948SOL    HW123480   0.864   4.447   0.840 -1.2639  0.3090 -0.2518
 3948SOL    HW223481   0.934   4.329   0.896 -1.0689  3.3246  0.6062
 3949SOL     OW23482   0.162   0.278   0.789  0.3218 -0.3108 -0.0861
 3949SOL    HW123483   0.188   0.267   0.697  1.6854 -2.2599  0.5327
 3949SOL    HW223484   0.098   0.208   0.805 -0.0260 -0.0791 -0.4545
 3950SOL     OW23485   4.276   0.637   3.472  0.7355  0.1030  0.0688
 3950SOL    HW123486   4.285   0.730   3.489  1.5172 -0.0859  0.7184
 3950SOL    HW223487   4.207   0.619   3.537  0.9443  0.9557  0.5305
 3951SOL     OW23488   1.890   3.131   1.280 -0.4652 -0.0313  0.4575
 3951SOL    HW123489   1.851   3.141   1.367  1.1335  2.2972  0.9136
 3951SOL    HW223490   1.973   3.093   1.307 -0.2921  0.4335  0.5850
 3952SOL     OW23491   3.696   3.242   7.449  0.7359  0.2741 -0.3847
 3952SOL    HW123492   3.699   3.331   7.484  0.9199  0.6644 -1.3757
 3952SOL    HW223493   3.713   3.184   7.523  2.9811  0.5319 -0.7249
 3953SOL     OW23494   3.479   3.688   6.469 -0.5073  0.3948  0.6138
 3953SOL    HW123495   3.491   3.740   6.390  0.1078 -1.4941 -0.5455
 3953SOL    HW223496   3.447   3.602   6.440  0.1639  0.4084 -0.1617
 3954SOL     OW23497   3.596   2.925   4.884  0.3350 -0.4083 -0.4419
 3954SOL    HW123498   3.519   2.870   4.868 -1.8379  1.6713  2.8660
 3954SOL    HW223499   3.649   2.902   4.808  0.3900  0.4827 -0.6742
 3955SOL     OW23500   2.923   2.016   3.393 -0.2289 -0.6878 -0.5105
 3955SOL    HW123501   2.847   1.958   3.395  0.7076 -1.9623 -1.7431
 3955SOL    HW223502   2.895   2.105   3.410  0.0733 -0.5411 -0.7714
 3956SOL     OW23503   2.527   4.142   6.658  0.1310 -0.2238  0.3643
 3956SOL    HW123504   2.459   4.078   6.640  0.0431  0.6120 -2.3165
 3956SOL    HW223505   2.579   4.092   6.721  1.5787  1.1169  0.2582
 3957SOL     OW23506   3.634   4.034   3.632  0.0309  0.0750  0.0615
 3957SOL    HW123507   3.661   3.946   3.658  0.1231 -0.8010 -3.0327
 3957SOL    HW223508   3.543   4.022   3.607 -0.0958 -0.4762  0.7851
 3958SOL     OW23509   1.068   0.121   3.433 -0.4088 -0.0062  0.0006
 3958SOL    HW123510   1.097   0.209   3.456  0.4829  0.4212 -2.6523
 3958SOL    HW223511   1.003   0.101   3.500 -2.3491  0.9837 -1.6055
 3959SOL     OW23512   1.188   2.383   9.009  0.6442 -0.3812  0.1337
 3959SOL    HW123513   1.236   2.404   9.090  1.6400  3.1518 -1.3584
 3959SOL    HW223514   1.103   2.354   9.042 -0.1061  1.5740 -0.0912
 3960SOL     OW23515   3.878   1.768   6.431 -0.2749 -0.2194  0.3297
 3960SOL    HW123516   3.862   1.843   6.373  1.6443  1.0886  1.4953
 3960SOL    HW223517   3.970   1.757   6.409 -0.2606  0.1942  0.1693
 3961SOL     OW23518   0.813   0.377   6.404 -0.0465 -0.0732 -0.0521
 3961SOL    HW123519   0.836   0.338   6.319 -0.3667 -1.3503  0.4498
 3961SOL    HW223520   0.755   0.309   6.438 -0.3206 -0.1545 -0.6823
 3962SOL     OW23521   0.963   2.233   6.548  0.9450 -0.1605 -0.4060
 3962SOL    HW123522   1.007   2.316   6.527  0.6799  0.2070  0.4958
 3962SOL    HW223523   0.953   2.202   6.458  2.1916  0.0919 -0.6347
 3963SOL     OW23524   2.339   0.025   1.279 -0.0741  0.3598  0.2345
 3963SOL    HW123525   2.317   4.717   1.361 -1.2916  2.1947  0.9170
 3963SOL    HW223526   2.310   4.696   1.216 -2.4167  0.8336  0.8065
 3964SOL     OW23527   0.372   1.714  13.779 -0.7029  0.0485  0.4074
 3964SOL    HW123528   0.426   1.689  13.704  0.4770  0.8791  0.9871
 3964SOL    HW223529   0.371   1.638  13.838  0.0932 -1.8173 -1.9635
 3965SOL     OW23530   3.232   1.510   1.536 -0.5306  0.0172  0.4111
 3965SOL    HW123531   3.307   1.550   1.492 -0.0401 -0.0298  1.2021
 3965SOL    HW223532   3.168   1.512   1.466  0.5313 -0.2002 -0.5701
 3966SOL     OW23533   0.151   3.696   4.649  0.0507  0.7381  0.1941
 3966SOL    HW123534   0.162   3.658   4.736 -0.2593  0.0378 -0.0755
 3966SOL    HW223535   0.140   3.789   4.671 -0.6110  1.0259 -1.2935
 3967SOL     OW23536   0.374   1.696   2.623 -0.3481 -0.0162  0.1428
 3967SOL    HW123537   0.468   1.707   2.619 -0.5877  2.3519  1.5155
 3967SOL    HW223538   0.362   1.714   2.716  1.8944 -0.3187  0.4810
 3968SOL     OW23539   1.651   2.153   9.149 -0.5135  0.0612 -0.1659
 3968SOL    HW123540   1.586   2.088   9.175 -1.3353  1.4038  1.1540
 3968SOL    HW223541   1.634   2.162   9.055 -3.8342  0.9138  0.5156
 3969SOL     OW23542   3.960   2.377   7.290 -0.1024  0.0651  0.3264
 3969SOL    HW123543   3.939   2.470   7.303 -0.6398 -0.3243  2.3893
 3969SOL    HW223544   4.007   2.368   7.373  0.5554  0.0887 -0.0488
 3970SOL     OW23545   4.704   3.521   2.858  0.9314  0.0277  0.2193
 3970SOL    HW123546   4.643   3.467   2.810  2.0907  0.4218 -1.6853
 3970SOL    HW223547   4.720   3.589   2.793 -2.1275  0.2075 -0.3275
 3971SOL     OW23548   4.498   4.663  12.172  0.1938 -0.3501  0.3870
 3971SOL    HW123549   4.516   4.593  12.234  0.0285 -0.3474  0.4377
 3971SOL    HW223550   4.550   0.002  12.201 -0.6474  0.0152  0.9386
 3972SOL     OW23551   3.691   1.985   1.221 -0.5928  0.2729  0.3039
 3972SOL    HW123552   3.691   2.053   1.154  2.6073 -0.0106  0.0341
 3972SOL    HW223553   3.642   1.916   1.176  0.4422 -0.4782  0.3251
 3973SOL     OW23554   4.037   0.116   5.034  0.1674  0.1571 -0.3307
 3973SOL    HW123555   3.985   0.166   4.971  1.3719  2.7479  0.7375
 3973SOL    HW223556   3.966   0.059   5.061 -0.5016  0.9447 -0.4191
 3974SOL     OW23557   2.532   2.561   4.510 -0.0298  0.3588  0.1496
 3974SOL    HW123558   2.594   2.623   4.548 -1.6325 -0.5683  4.2898
 3974SOL    HW223559   2.575   2.477   4.525  0.8083  0.7319 -0.1437
 3975SOL     OW23560   3.857   4.146   3.122  0.4971  0.1962 -0.1812
 3975SOL    HW123561   3.915   4.098   3.064  0.3813  0.9411 -0.9103
 3975SOL    HW223562   3.813   4.072   3.164 -0.1768 -0.0159 -1.2591
 3976SOL     OW23563   0.061   3.744  11.931 -0.7175  0.6426 -0.3446
 3976SOL    HW123564   0.117   3.789  11.993  3.1434 -1.0861 -2.5851
 3976SOL    HW223565   0.094   3.654  11.940 -0.6204  0.5777 -1.3062
 3977SOL     OW23566   0.392   0.054   4.524  0.3898 -0.1814 -0.4941
 3977SOL    HW123567   0.337   4.733   4.576  2.2627 -1.7712 -0.2940
 3977SOL    HW223568   0.326   0.120   4.505  1.3908  0.6659 -1.0564
 3978SOL     OW23569   0.078   2.486  12.071 -0.8472 -0.0949  0.1709
 3978SOL    HW123570   0.071   2.515  11.980  1.5443 -0.9804 -0.2912
 3978SOL    HW223571   0.059   2.574  12.105  1.7457  0.8257 -0.8166
 3979SOL     OW23572   4.130   2.523   9.921  0.5246  0.5320  0.5101
 3979SOL    HW123573   4.154   2.439   9.961 -0.5465 -0.3731 -0.7284
 3979SOL    HW223574   4.207   2.552   9.873  0.6211  0.4149  0.5913
 3980SOL     OW23575   3.815   1.994   6.268 -0.2961  0.5749  0.0097
 3980SOL    HW123576   3.866   2.028   6.195 -1.3016  2.3690  0.1176
 3980SOL    HW223577   3.831   2.060   6.336 -0.7163  1.2683 -0.5677
 3981SOL     OW23578   1.197   4.346   3.933  0.1093  0.2170 -0.3803
 3981SOL    HW123579   1.151   4.315   4.011  1.2313 -2.2788 -0.7235
 3981SOL    HW223580   1.142   4.329   3.857 -0.0898 -0.2440 -0.1264
 3982SOL     OW23581   4.244   1.000   0.716  0.1240  0.6079 -0.0273
 3982SOL    HW123582   4.278   1.084   0.748  0.3701 -0.2880  2.0992
 3982SOL    HW223583   4.177   1.011   0.649 -1.3604  1.7364  1.6373
 3983SOL     OW23584   1.645   4.033   0.467  0.3735 -0.0640 -0.3094
 3983SOL    HW123585   1.618   4.098   0.403 -1.6937 -1.1146 -0.5087
 3983SOL    HW223586   1.732   4.010   0.433  0.7439  0.4161  0.3202
 3984SOL     OW23587   4.290   1.786   7.378 -0.2609  0.4963  0.0647
 3984SOL    HW123588   4.321   1.776   7.288 -0.7046 -0.9374  0.0613
 3984SOL    HW223589   4.373   1.812   7.417  1.1628 -1.3695 -1.7232
 3985SOL     OW23590   0.844   1.877  12.548 -0.1816 -0.2600  0.5209
 3985SOL    HW123591   0.809   1.804  12.599 -0.2766 -0.9384 -0.5274
 3985SOL    HW223592   0.893   1.826  12.484  1.7964  0.2354  1.6533
 3986SOL     OW23593   4.339   1.964   4.244 -0.5085 -0.2987  0.0270
 3986SOL    HW123594   4.338   1.874   4.212 -1.2094 -0.1562 -0.3564
 3986SOL    HW223595   4.249   1.996   4.239 -0.3835 -0.0505 -0.7276
 3987SOL     OW23596   2.266   0.837  16.676  0.5469  0.1622 -0.3431
 3987SOL    HW123597   2.267   0.932  16.664  0.6726 -0.0755 -2.1332
 3987SOL    HW223598   2.222   0.813  16.595 -2.4405  1.7156  0.7928
 3988SOL     OW23599   4.524   4.272  10.947  0.0430  0.1265  0.2667
 3988SOL    HW123600   4.483   4.186  10.937 -1.3847  0.5440  2.4630
 3988SOL    HW223601   4.464   4.319  10.890  0.2579 -0.8796 -0.7729
 3989SOL     OW23602   2.064   0.384   4.453 -0.2158 -0.9041 -0.0619
 3989SOL    HW123603   2.125   0.426   4.393  0.1148 -0.0206  0.9021
 3989SOL    HW223604   2.000   0.344   4.394 -1.8969 -1.0871  1.8920
 3990SOL     OW23605   3.965   4.275   9.196  0.1784  0.0277 -0.5503
 3990SOL    HW123606   3.955   4.180   9.198 -0.0464  0.0828  0.9385
 3990SOL    HW223607   4.002   4.285   9.109  0.8156 -0.4306 -0.3339
 3991SOL     OW23608   0.784   3.782   4.576  0.8929 -0.0513 -0.9671
 3991SOL    HW123609   0.798   3.718   4.645 -1.1923  2.7353  2.0356
 3991SOL    HW223610   0.857   3.841   4.592  0.6164  0.1637 -0.4921
 3992SOL     OW23611   2.982   0.309   7.429 -0.0402 -0.0359 -0.2613
 3992SOL    HW123612   2.974   0.234   7.488 -0.3983 -0.1202 -0.4159
 3992SOL    HW223613   2.936   0.367   7.489 -1.1675 -1.1462 -0.0609
 3993SOL     OW23614   0.150   0.624  17.659 -0.0352 -0.2830  0.4757
 3993SOL    HW123615   0.240   0.623  17.627 -0.5051 -0.3050 -0.8244
 3993SOL    HW223616   0.162   0.699  17.718  0.6625  1.0080 -1.3026
 3994SOL     OW23617   4.137   4.462   6.111  0.6863 -0.5596  0.6715
 3994SOL    HW123618   4.228   4.431   6.109  0.3669 -1.4857  0.5156
 3994SOL    HW223619   4.108   4.479   6.200 -0.7134 -1.7790  0.4457
 3995SOL     OW23620   4.448   0.991  13.000 -0.0842 -0.4728  0.0855
 3995SOL    HW123621   4.522   0.952  13.046 -0.7028 -0.4230  1.1437
 3995SOL    HW223622   4.431   1.061  13.063 -0.2426 -1.7704  1.5086
 3996SOL     OW23623   0.837   3.885   4.979 -0.3280 -0.7784 -0.2434
 3996SOL    HW123624   0.838   3.947   4.906  2.6994  0.5330  0.9075
 3996SOL    HW223625   0.831   3.947   5.052  0.8231 -1.1646  0.1678
 3997SOL     OW23626   2.666   1.514   6.520  0.0379 -0.7629  0.0544
 3997SOL    HW123627   2.638   1.463   6.444 -3.0749  0.6107  0.2529
 3997SOL    HW223628   2.700   1.442   6.572  1.6568  0.0057  0.0716
 3998SOL     OW23629   0.006   3.741   5.161 -0.1550 -0.1002  0.2750
 3998SOL    HW123630   0.065   3.680   5.207  1.2669 -0.2509 -1.7582
 3998SOL    HW223631   4.677   3.686   5.118 -0.6939 -1.2836  2.5863
 3999SOL     OW23632   0.787   0.374   2.753  0.7407  0.1317  0.1212
 3999SOL    HW123633   0.876   0.372   2.719  1.4323  2.2303  1.8512
 3999SOL    HW223634   0.801   0.435   2.825 -1.0129  0.8996 -0.1792
 4000SOL     OW23635   0.016   0.289   5.360 -0.4699  0.1227  0.1240
 4000SOL    HW123636   4.724   0.332   5.279  0.2195  0.2629 -0.0461
 4000SOL    HW223637   0.016   0.359   5.425 -0.9222  0.2397 -0.0046
 4001SOL     OW23638   3.570   3.442   1.984 -0.0816  0.0454 -0.0772
 4001SOL    HW123639   3.601   3.483   2.064 -0.6695  0.3242  0.0079
 4001SOL    HW223640   3.648   3.416   1.934 -0.8870 -0.1438 -1.2458
 4002SOL     OW23641   1.666   1.169   0.395 -0.2417 -0.1352 -0.0886
 4002SOL    HW123642   1.692   1.125   0.314  1.7993 -3.0637  2.1080
 4002SOL    HW223643   1.580   1.132   0.417 -1.0523  1.8687  0.0302
 4003SOL     OW23644   1.299   1.811  16.577  0.3808 -0.1920 -0.3608
 4003SOL    HW123645   1.372   1.848  16.528 -0.6827  0.8411 -1.1894
 4003SOL    HW223646   1.323   1.832  16.667  0.6591  1.1695 -0.7554
 4004SOL     OW23647   3.726   0.117   9.016 -0.0066 -0.5199  0.1179
 4004SOL    HW123648   3.678   0.156   9.089 -1.5552  0.5036 -1.4605
 4004SOL    HW223649   3.758   0.202   8.985  2.5377 -1.4320  0.2760
 4005SOL     OW23650   4.430   2.692  12.845 -0.0675  0.3324  0.5239
 4005SOL    HW123651   4.509   2.744  12.830  0.6151 -0.0623  2.7576
 4005SOL    HW223652   4.381   2.746  12.907 -0.6568  2.1775 -1.5656
 4006SOL     OW23653   3.906   0.928   1.783  0.3362 -0.3197 -0.2122
 4006SOL    HW123654   3.963   0.915   1.707 -0.8256  1.5779 -1.4229
 4006SOL    HW223655   3.909   1.023   1.795 -4.3882 -0.5825  3.0091
 4007SOL     OW23656   0.809   4.005   2.164 -0.5211 -0.0583 -0.5555
 4007SOL    HW123657   0.871   4.036   2.098 -0.0621 -1.5371 -0.8238
 4007SOL    HW223658   0.851   3.934   2.213  0.8293  0.8637 -0.3837
 4008SOL     OW23659   0.456   4.145   2.892 -0.1412 -0.4610  0.2453
 4008SOL    HW123660   0.397   4.206   2.847 -0.3684  0.3242  1.6025
 4008SOL    HW223661   0.542   4.162   2.852 -0.2562  0.4652  0.3991
 4009SOL     OW23662   0.356   3.811   5.447 -0.3187 -0.9547 -0.1816
 4009SOL    HW123663   0.404   3.775   5.372  0.3191  1.8535 -1.1093
 4009SOL    HW223664   0.430   3.850   5.494 -0.7054 -1.8942  1.2143
 4010SOL     OW23665   2.879   2.973   7.490  0.7811  0.3140 -0.0891
 4010SOL    HW123666   2.794   2.929   7.479  0.3480  1.0803  0.1760
 4010SOL    HW223667   2.918   2.911   7.552  0.5529 -1.4775 -1.7377
 4011SOL     OW23668   3.089   2.985   3.485  0.2816  0.1097 -0.5283
 4011SOL    HW123669   3.165   2.946   3.442  1.5502  0.8841  0.9994
 4011SOL    HW223670   3.025   2.972   3.415 -0.2818 -2.6570  0.4937
 4012SOL     OW23671   2.420   4.255  15.193 -0.3217  0.1188  0.8944
 4012SOL    HW123672   2.445   4.182  15.250  0.4940 -0.2928  0.0062
 4012SOL    HW223673   2.366   4.312  15.248 -0.0107  0.4535  0.8482
 4013SOL     OW23674   3.522   0.494   7.402  0.1298  0.2677  0.0294
 4013SOL    HW123675   3.461   0.477   7.330  0.6623 -3.5336  0.4571
 4013SOL    HW223676   3.595   0.433   7.390 -1.4867 -1.3503 -1.5553
 4014SOL     OW23677   1.926   3.644  15.450 -0.2124  1.1689  0.5562
 4014SOL    HW123678   1.862   3.649  15.379 -0.8696 -2.8057  0.8685
 4014SOL    HW223679   1.882   3.586  15.512  1.9846  0.2273  1.2221
 4015SOL     OW23680   2.118   1.511   3.386 -0.1281  0.4496 -0.3006
 4015SOL    HW123681   2.180   1.540   3.319  1.6028  1.0462  1.5581
 4015SOL    HW223682   2.175   1.514   3.462  0.4569  0.3521 -0.7341
 4016SOL     OW23683   0.826   0.668   3.525 -0.6218 -0.2497  0.1301
 4016SOL    HW123684   0.811   0.761   3.535 -1.5748 -0.7718  3.3169
 4016SOL    HW223685   0.917   0.673   3.496  0.2528  0.6300  3.0510
 4017SOL     OW23686   0.953   2.831   1.000 -0.2494 -0.5658 -0.2751
 4017SOL    HW123687   0.883   2.871   0.949  0.6922  0.6609 -0.6113
 4017SOL    HW223688   0.997   2.906   1.041 -0.3785 -1.0078  0.6733
 4018SOL     OW23689   0.179   4.628   5.635  0.1041 -0.6627  0.0217
 4018SOL    HW123690   0.249   4.591   5.582 -0.5885 -0.1397 -1.2653
 4018SOL    HW223691   0.116   4.650   5.566 -0.7235  0.1402  1.0186
 4019SOL     OW23692   3.325   3.496   2.013 -0.2090  0.4678 -0.2916
 4019SOL    HW123693   3.298   3.409   1.985 -0.5316  1.1666 -2.1602
 4019SOL    HW223694   3.420   3.487   2.008 -0.2285  0.4333 -0.5953
 4020SOL     OW23695   3.336   1.299   3.704 -0.3443  0.0065  0.1435
 4020SOL    HW123696   3.246   1.304   3.673 -0.6558  2.5643  1.4958
 4020SOL    HW223697   3.345   1.204   3.711  0.9774  0.0534 -0.7838
 4021SOL     OW23698   3.182   1.890   2.724  0.3704  0.2067  0.2530
 4021SOL    HW123699   3.236   1.845   2.660  0.7256 -0.3809  0.9557
 4021SOL    HW223700   3.173   1.983   2.706 -0.9060  0.4494  2.0566
 4022SOL     OW23701   0.327   2.641  14.937 -0.1692  0.2887 -0.1096
 4022SOL    HW123702   0.370   2.566  14.897 -4.2245 -2.0797  0.0693
 4022SOL    HW223703   0.324   2.705  14.865 -0.9835  0.8594  0.4367
 4023SOL     OW23704   4.266   0.534   7.828  0.3688  0.0058  0.1726
 4023SOL    HW123705   4.209   0.577   7.764 -0.9168  1.4303  2.2770
 4023SOL    HW223706   4.348   0.528   7.779  0.5530  1.5151  0.2821
 4024SOL     OW23707   3.066   3.674   5.414 -0.1569 -0.2220 -0.1593
 4024SOL    HW123708   3.137   3.613   5.396 -0.4322 -0.1202 -1.6017
 4024SOL    HW223709   3.105   3.761   5.404  0.2484 -0.6706 -2.6457
 4025SOL     OW23710   3.002   4.174  17.139  0.0660 -0.1397 -0.0390
 4025SOL    HW123711   3.009   4.220  17.223 -0.8689 -0.2183  0.0810
 4025SOL    HW223712   3.083   4.125  17.121 -0.2700 -0.7052  0.0015
 4026SOL     OW23713   2.670   1.880   2.796 -0.5876  0.4575 -0.5517
 4026SOL    HW123714   2.698   1.805   2.848 -0.2828  1.5293  0.8427
 4026SOL    HW223715   2.580   1.848   2.787 -0.1612 -0.8172 -0.2201
 4027SOL     OW23716   4.413   2.085   5.204  0.4826  0.1524 -0.1725
 4027SOL    HW123717   4.343   2.047   5.256 -0.9448 -0.0441 -2.2261
 4027SOL    HW223718   4.405   2.173   5.240 -0.5294  0.4137 -1.0039
 4028SOL     OW23719   3.614   0.965  10.520 -0.8273  0.2110  0.0279
 4028SOL    HW123720   3.628   1.058  10.536  1.6175  0.0851 -1.4823
 4028SOL    HW223721   3.625   0.950  10.426  0.9355 -0.0894  0.2896
 4029SOL     OW23722   2.185   1.492  17.550 -0.3576  0.1965  0.0293
 4029SOL    HW123723   2.133   1.451  17.481  1.6601 -2.7427  0.2641
 4029SOL    HW223724   2.148   1.444  17.625  1.2239  0.3792  0.9167
 4030SOL     OW23725   4.734   4.334   5.273 -0.4601 -0.1700 -0.1408
 4030SOL    HW123726   0.038   4.309   5.356 -0.4259  0.2958 -0.0156
 4030SOL    HW223727   4.652   4.286   5.283 -0.3487 -0.4950 -0.8175
 4031SOL     OW23728   1.506   1.792   4.310  0.4597  0.3287 -0.3242
 4031SOL    HW123729   1.558   1.871   4.327 -2.1462  2.3503 -1.6454
 4031SOL    HW223730   1.444   1.817   4.241  1.6071 -0.8594 -1.7786
 4032SOL     OW23731   1.137   1.030  13.561 -0.0108 -0.0032 -0.2843
 4032SOL    HW123732   1.203   1.042  13.493 -0.8587  1.1840 -0.8837
 4032SOL    HW223733   1.123   0.935  13.554  0.3438 -0.1180  0.5154
 4033SOL     OW23734   3.609   4.456   7.814  0.0877 -0.0726 -0.6946
 4033SOL    HW123735   3.700   4.449   7.784  0.6434 -1.3424  1.2741
 4033SOL    HW223736   3.610   4.483   7.906 -0.8452 -1.1991 -0.3645
 4034SOL     OW23737   1.469   1.138   5.069 -0.2605  0.2409  0.4151
 4034SOL    HW123738   1.418   1.091   5.135 -1.8488  0.0790 -0.9331
 4034SOL    HW223739   1.551   1.087   5.074 -1.0416 -1.1045 -0.4978
 4035SOL     OW23740   1.036   2.702   6.611 -0.4385  0.4792  0.2664
 4035SOL    HW123741   1.089   2.754   6.671  0.5405  1.3481 -1.3523
 4035SOL    HW223742   1.008   2.776   6.557  1.5048 -0.2146 -1.7272
 4036SOL     OW23743   1.284   2.502  17.357 -0.1830 -1.0228 -0.3338
 4036SOL    HW123744   1.350   2.571  17.367 -1.0765 -0.4294  1.3850
 4036SOL    HW223745   1.237   2.535  17.281  3.1506 -1.1039 -2.4654
 4037SOL     OW23746   0.154   2.720   9.180 -0.0395 -0.4469  0.1024
 4037SOL    HW123747   0.079   2.736   9.237  0.8077  0.5996  0.9411
 4037SOL    HW223748   0.227   2.733   9.241  0.1105  0.7948 -0.3254
 4038SOL     OW23749   1.898   3.732  14.420  0.3802 -0.0144  0.3301
 4038SOL    HW123750   1.826   3.673  14.442  0.4348 -0.0776  0.3409
 4038SOL    HW223751   1.958   3.681  14.365 -0.2463  1.4311 -1.7123
 4039SOL     OW23752   3.202   0.739   4.100  0.5703  0.2058  0.2576
 4039SOL    HW123753   3.230   0.668   4.158 -0.4013  1.6469  2.4873
 4039SOL    HW223754   3.132   0.698   4.049  2.3254  0.6746 -2.5027
 4040SOL     OW23755   2.471   4.278   5.102 -0.2102 -0.0216  0.0525
 4040SOL    HW123756   2.440   4.222   5.031  0.0604  2.7806 -2.2780
 4040SOL    HW223757   2.414   4.269   5.178  1.1343  2.4190  1.3550
 4041SOL     OW23758   2.238   3.967   8.413  0.4977  0.0496  0.0110
 4041SOL    HW123759   2.150   4.003   8.425  0.8024  0.4757  0.9925
 4041SOL    HW223760   2.231   3.882   8.456 -0.9309  1.0119  1.7182
 4042SOL     OW23761   0.436   0.325  11.279  0.2929 -0.1974  0.3346
 4042SOL    HW123762   0.416   0.302  11.188 -2.8031  3.5746  0.0653
 4042SOL    HW223763   0.448   0.420  11.271 -0.6516 -0.1209 -0.2210
 4043SOL     OW23764   3.561   3.230  12.256  0.8188  0.2486  0.2222
 4043SOL    HW123765   3.473   3.205  12.227  0.1492  0.8971  1.6816
 4043SOL    HW223766   3.580   3.299  12.192  0.5684 -0.1804 -0.3138
 4044SOL     OW23767   3.029   0.965   6.677  0.1020 -0.3714  0.1483
 4044SOL    HW123768   3.006   1.034   6.614 -1.9508  0.4426  1.8215
 4044SOL    HW223769   3.021   0.893   6.614 -1.7352 -1.3801  1.5412
 4045SOL     OW23770   1.695   1.961   7.235 -0.1535 -0.3051  0.3040
 4045SOL    HW123771   1.687   1.911   7.153  1.1607 -1.7363  1.0669
 4045SOL    HW223772   1.608   1.951   7.275 -0.6288 -2.6378 -1.3269
 4046SOL     OW23773   2.240   2.385   1.820 -0.3233 -0.5321 -0.0829
 4046SOL    HW123774   2.262   2.370   1.728 -1.6573  0.5868 -0.5991
 4046SOL    HW223775   2.150   2.352   1.817 -0.5914  0.0904  1.1895
 4047SOL     OW23776   1.920   3.128   8.805 -0.0709 -0.8608 -0.6065
 4047SOL    HW123777   1.844   3.139   8.862  1.4935  1.4160  1.0445
 4047SOL    HW223778   1.891   3.088   8.723  0.4433 -0.1404 -1.1429
 4048SOL     OW23779   4.464   0.697   3.148 -0.4346  0.3113 -0.6261
 4048SOL    HW123780   4.491   0.645   3.072 -0.3659  1.7415 -1.5834
 4048SOL    HW223781   4.541   0.753   3.142  0.5536 -1.3150 -2.9802
 4049SOL     OW23782   4.092   3.728   5.619  0.3581  0.3475 -0.0638
 4049SOL    HW123783   4.026   3.792   5.646 -3.0447 -2.8266 -0.8168
 4049SOL    HW223784   4.150   3.718   5.694  0.0787  0.9706  0.2390
 4050SOL     OW23785   1.238   3.323   3.110 -0.4510 -0.0587 -0.1809
 4050SOL    HW123786   1.333   3.320   3.098 -0.5441 -2.6249 -0.2873
 4050SOL    HW223787   1.234   3.292   3.201  0.2529 -0.1346 -0.1774
 4051SOL     OW23788   2.155   3.449   4.674 -0.6044 -0.0421  0.0659
 4051SOL    HW123789   2.205   3.369   4.656  1.7491  1.5480 -0.5587
 4051SOL    HW223790   2.125   3.433   4.763  2.8117 -0.4851  1.1486
 4052SOL     OW23791   2.043   0.046   3.736 -0.0642 -0.3189  0.0939
 4052SOL    HW123792   2.098   0.002   3.801  0.7205 -0.5503 -0.7485
 4052SOL    HW223793   2.092   0.052   3.655  1.3464  1.5711  1.0806
 4053SOL     OW23794   2.472   4.713   2.473  0.2606 -0.3718 -0.2150
 4053SOL    HW123795   2.481   4.617   2.475  2.1972 -0.2218 -2.0053
 4053SOL    HW223796   2.501   4.727   2.563 -0.8425 -1.3733  0.2935
 4054SOL     OW23797   3.168   4.082  15.986  0.3599  0.2858 -0.2740
 4054SOL    HW123798   3.114   4.004  15.975  1.4613 -0.4451 -0.4318
 4054SOL    HW223799   3.095   4.136  15.955  1.8694  1.5940 -1.5132
 4055SOL     OW23800   0.184   0.323   3.139  0.0388 -0.3075  0.3683
 4055SOL    HW123801   0.198   0.416   3.159 -0.6234 -0.1379  0.0299
 4055SOL    HW223802   0.272   0.286   3.127 -1.0416 -2.5889 -0.4915
 4056SOL     OW23803   3.954   1.765   4.305  0.5398 -0.1042  0.4005
 4056SOL    HW123804   4.023   1.826   4.331 -0.4638  1.2454 -0.1427
 4056SOL    HW223805   3.885   1.827   4.282 -1.7709 -3.0696 -0.6029
 4057SOL     OW23806   2.716   2.300  11.994  0.4799 -0.4026 -0.3334
 4057SOL    HW123807   2.797   2.341  12.024 -0.1424  0.4887  0.1376
 4057SOL    HW223808   2.659   2.369  11.960  1.5249  1.0266  0.7930
 4058SOL     OW23809   2.046   2.400   5.065  0.0624  0.2742  0.2278
 4058SOL    HW123810   2.029   2.407   4.971 -3.0984 -2.1663  0.6318
 4058SOL    HW223811   2.126   2.453   5.059  1.2152 -1.2757  2.0806
 4059SOL     OW23812   1.609   2.859   9.691  0.0056 -0.3095 -0.2502
 4059SOL    HW123813   1.571   2.771   9.688 -0.4044 -0.0628 -2.4213
 4059SOL    HW223814   1.672   2.848   9.762  0.2986 -0.3436 -0.5132
 4060SOL     OW23815   1.320   1.751   3.272 -0.1062  0.5461  0.3617
 4060SOL    HW123816   1.309   1.680   3.335 -1.4980  0.5405  0.1190
 4060SOL    HW223817   1.240   1.740   3.220 -0.1451  0.4584  0.4390
 4061SOL     OW23818   2.739   0.729   4.796 -0.1910  0.2339 -0.1598
 4061SOL    HW123819   2.751   0.820   4.826  0.5485  0.7846 -2.1140
 4061SOL    HW223820   2.800   0.688   4.857  1.3416  1.1047 -1.0947
 4062SOL     OW23821   2.488   2.531   1.328 -0.2676 -0.1232  0.1186
 4062SOL    HW123822   2.422   2.566   1.388 -1.2231 -0.3340 -0.7935
 4062SOL    HW223823   2.551   2.603   1.324  0.1617 -0.5490 -0.7158
 4063SOL     OW23824   2.696   3.705   4.106  0.3317  0.1838  0.4831
 4063SOL    HW123825   2.640   3.742   4.174 -1.9965  1.3116 -2.0656
 4063SOL    HW223826   2.635   3.646   4.062 -1.1068  0.5933  1.9333
 4064SOL     OW23827   2.338   3.709  10.351 -0.2717  0.4211  0.5136
 4064SOL    HW123828   2.314   3.617  10.340  2.2750 -0.4263  2.1857
 4064SOL    HW223829   2.255   3.743  10.386 -0.6525 -0.0446  0.0636
 4065SOL     OW23830   2.365   0.630   5.938 -0.1434  0.2808 -0.6265
 4065SOL    HW123831   2.408   0.637   5.853 -1.9532 -2.9313 -1.8023
 4065SOL    HW223832   2.436   0.601   5.995 -1.7355  1.0405  1.8032
 4066SOL     OW23833   3.613   0.069   3.494 -0.5148 -0.0942 -0.0882
 4066SOL    HW123834   3.653   0.141   3.542 -0.3432 -0.8320  0.8573
 4066SOL    HW223835   3.624   0.006   3.564 -1.7717 -0.0983  0.1136
 4067SOL     OW23836   3.091   3.452  12.756 -0.3462 -0.1628 -0.0778
 4067SOL    HW123837   3.162   3.401  12.717 -0.6372 -0.8350  0.2782
 4067SOL    HW223838   3.077   3.510  12.681 -2.2950 -0.9452 -0.3345
 4068SOL     OW23839   3.862   3.754   1.335 -0.9894  0.2844  0.1333
 4068SOL    HW123840   3.948   3.748   1.293 -0.7458  1.9057  0.4064
 4068SOL    HW223841   3.882   3.761   1.428 -1.5430 -1.3754  0.3681
 4069SOL     OW23842   2.517   3.431   3.478 -0.0795 -0.4669 -0.3076
 4069SOL    HW123843   2.526   3.342   3.512 -1.3632 -0.4576  0.0384
 4069SOL    HW223844   2.456   3.422   3.405  0.3629 -0.1008 -0.7276
 4070SOL     OW23845   1.851   0.669   2.511 -0.7243  0.1449  0.0857
 4070SOL    HW123846   1.786   0.736   2.530 -1.8725 -1.7359  2.8561
 4070SOL    HW223847   1.810   0.593   2.553 -0.8526 -1.0328 -2.1686
 4071SOL     OW23848   0.409   3.301   6.734  0.4017 -0.1026 -0.2078
 4071SOL    HW123849   0.319   3.324   6.757  0.8316  2.5199 -1.0616
 4071SOL    HW223850   0.404   3.206   6.724  2.8844 -0.2225 -0.3014
 4072SOL     OW23851   0.217   1.327  12.792  0.2366  0.6490 -0.2120
 4072SOL    HW123852   0.296   1.351  12.744  1.3068  0.3332  1.4145
 4072SOL    HW223853   0.198   1.248  12.742  1.3733 -1.4701  2.7444
 4073SOL     OW23854   3.849   2.723   1.647  0.4636  0.6711  0.3640
 4073SOL    HW123855   3.758   2.695   1.658  1.1859 -1.7246  0.3201
 4073SOL    HW223856   3.878   2.650   1.592 -1.2987  1.6681 -1.9136
 4074SOL     OW23857   2.463   1.820   7.007  0.4180  0.1491  0.4487
 4074SOL    HW123858   2.440   1.752   6.943 -2.4285 -0.7169  2.4170
 4074SOL    HW223859   2.538   1.784   7.054  1.4281  0.3470 -1.0148
 4075SOL     OW23860   4.257   3.607   2.169 -0.3703  0.2558  0.2406
 4075SOL    HW123861   4.220   3.679   2.119 -0.5019  0.7400  1.0317
 4075SOL    HW223862   4.289   3.547   2.102  0.2116 -0.8434  1.4947
 4076SOL     OW23863   0.763   3.285   7.700 -0.0726 -0.1170  0.3198
 4076SOL    HW123864   0.712   3.227   7.644  0.8932 -1.5397  0.9291
 4076SOL    HW223865   0.723   3.273   7.786 -1.3075 -0.6379 -0.3321
 4077SOL     OW23866   4.132   1.601  14.713  0.0337  0.4524  0.9426
 4077SOL    HW123867   4.047   1.588  14.756 -0.0042 -0.3849  0.6233
 4077SOL    HW223868   4.156   1.679  14.761 -0.8587 -0.0202  2.1557
 4078SOL     OW23869   3.154   3.916   9.551  0.6648  0.1400  0.2012
 4078SOL    HW123870   3.161   3.957   9.637 -1.3656 -0.0950  0.4788
 4078SOL    HW223871   3.178   3.826   9.575 -1.4327 -0.3629  0.4135
 4079SOL     OW23872   1.217   4.073   4.616  0.1913 -0.0666  0.1643
 4079SOL    HW123873   1.190   4.163   4.636 -0.9034 -0.4110  0.2335
 4079SOL    HW223874   1.295   4.059   4.669  1.2456  1.7743 -0.9005
 4080SOL     OW23875   0.454   4.187   6.170 -0.0031  0.2553  0.0234
 4080SOL    HW123876   0.535   4.237   6.160  0.5517  0.1014  3.6309
 4080SOL    HW223877   0.491   4.109   6.212  1.2597  0.3326 -0.9642
 4081SOL     OW23878   3.048   4.460  12.896  0.6575  0.1411 -0.4242
 4081SOL    HW123879   3.128   4.427  12.938  0.0897  0.6356  1.0569
 4081SOL    HW223880   2.978   4.405  12.931  0.3336  0.0979 -1.1359
 4082SOL     OW23881   3.137   3.506  10.033 -0.5181 -0.8805  0.0812
 4082SOL    HW123882   3.086   3.465   9.964 -0.2476 -1.1956  0.0663
 4082SOL    HW223883   3.095   3.475  10.114 -2.6945 -1.2630 -1.2072
 4083SOL     OW23884   2.920   4.293   9.044  0.2242  0.6112  0.4557
 4083SOL    HW123885   2.997   4.286   9.101  3.0569  0.3845 -3.4187
 4083SOL    HW223886   2.951   4.280   8.955 -1.0780 -2.6806  0.4785
 4084SOL     OW23887   4.202   4.045  14.040  0.1400 -0.2066  0.6811
 4084SOL    HW123888   4.167   4.099  13.969  0.4001 -3.0961 -1.6586
 4084SOL    HW223889   4.122   4.008  14.077 -0.0001 -0.5737  0.0162
 4085SOL     OW23890   2.628   2.481   1.874 -0.4520 -0.1401  0.3076
 4085SOL    HW123891   2.590   2.524   1.798  1.1892 -0.4333 -0.6973
 4085SOL    HW223892   2.587   2.532   1.944 -1.1103  1.0246 -0.9330
 4086SOL     OW23893   2.531   0.420   2.956  0.0918 -0.0851  0.2996
 4086SOL    HW123894   2.538   0.381   2.870  2.5306  0.7264  0.1244
 4086SOL    HW223895   2.446   0.462   2.945 -0.9837 -2.5483 -0.7159
 4087SOL     OW23896   2.050   2.116   4.658  0.1034  0.1810  0.0201
 4087SOL    HW123897   2.054   2.057   4.734  2.4340  1.2110  0.6771
 4087SOL    HW223898   1.958   2.119   4.631 -0.3344  0.4120  1.5364
 4088SOL     OW23899   2.996   4.282   8.748 -0.0571  0.4990 -0.2396
 4088SOL    HW123900   2.975   4.221   8.678 -2.5323 -1.0306  1.8365
 4088SOL    HW223901   3.053   4.347   8.708  1.9390 -0.5748  0.8778
 4089SOL     OW23902   2.548   2.568   6.701 -0.0747 -0.1393  0.4551
 4089SOL    HW123903   2.573   2.496   6.644 -0.5084 -0.2814  0.4462
 4089SOL    HW223904   2.620   2.626   6.675  1.5665 -2.5405 -0.4148
 4090SOL     OW23905   1.777   3.888   3.351 -0.0753 -0.4865 -0.3702
 4090SOL    HW123906   1.855   3.941   3.363 -1.8512  1.7092  1.5046
 4090SOL    HW223907   1.748   3.927   3.269 -0.7710  1.3057  0.7335
 4091SOL     OW23908   1.680   2.225   5.202 -0.5064 -0.3806  0.2983
 4091SOL    HW123909   1.640   2.162   5.263  1.2252 -1.1357  0.6367
 4091SOL    HW223910   1.705   2.165   5.132 -0.6570  0.7651 -0.7305
 4092SOL     OW23911   3.861   2.007   2.675 -0.1610  0.1882  0.1439
 4092SOL    HW123912   3.942   1.962   2.700 -0.2069  1.2364  2.1507
 4092SOL    HW223913   3.839   2.049   2.758  2.4424  0.9150  0.4706
 4093SOL     OW23914   4.082   4.047   5.763  0.4436  0.2572  0.3186
 4093SOL    HW123915   4.151   4.000   5.717 -0.2135 -0.3646 -0.0303
 4093SOL    HW223916   4.115   4.135   5.784  0.1530  0.5412 -0.4121
 4094SOL     OW23917   3.945   3.270   5.012 -0.6466 -0.3513 -0.0535
 4094SOL    HW123918   3.994   3.190   4.997 -2.4340 -1.0687 -2.0197
 4094SOL    HW223919   3.855   3.240   5.002 -1.9765  2.6361  2.8525
 4095SOL     OW23920   2.011   3.255   8.352  0.3480 -0.0546  0.2377
 4095SOL    HW123921   1.985   3.340   8.315  1.3007 -0.4745 -1.4031
 4095SOL    HW223922   2.072   3.283   8.419  0.3460  0.2682  0.1077
 4096SOL     OW23923   1.622   0.937   4.409 -0.3735 -0.1699 -0.1131
 4096SOL    HW123924   1.577   0.949   4.492  0.7801  1.7921  0.2394
 4096SOL    HW223925   1.701   0.988   4.428  0.5183 -1.5370 -0.1979
 4097SOL     OW23926   2.853   0.242   3.057  0.5131 -0.0358  0.5458
 4097SOL    HW123927   2.840   0.293   3.137 -2.1244  2.3185 -1.3942
 4097SOL    HW223928   2.947   0.252   3.040  0.2825  1.5828  0.2476
 4098SOL     OW23929   0.281   3.278   5.478 -0.2856  0.0703  0.1973
 4098SOL    HW123930   0.336   3.201   5.462  0.6085  0.8873 -0.6102
 4098SOL    HW223931   0.335   3.352   5.452  2.7127 -1.1897  2.7558
 4099SOL     OW23932   4.455   1.406   9.828  0.2950  0.9151  0.3363
 4099SOL    HW123933   4.478   1.445   9.912 -2.4785 -0.1073  1.5651
 4099SOL    HW223934   4.364   1.377   9.835 -0.2991  2.6263 -0.2602
 4100SOL     OW23935   0.201   0.564   3.265 -0.1368  0.0417  0.1508
 4100SOL    HW123936   0.244   0.641   3.302  0.3177 -0.0457 -0.1974
 4100SOL    HW223937   0.112   0.569   3.300 -0.3019  1.3897 -0.4490
 4101SOL     OW23938   2.247   4.011  10.720 -0.2572  0.2855 -0.5139
 4101SOL    HW123939   2.286   3.926  10.699  0.6492  0.7803 -0.8119
 4101SOL    HW223940   2.326   4.055  10.751 -1.8709  1.7457  1.4823
 4102SOL     OW23941   2.756   4.571   6.648 -0.3976 -0.4047 -0.2950
 4102SOL    HW123942   2.850   4.553   6.643 -0.2269 -0.0662  1.6991
 4102SOL    HW223943   2.755   4.659   6.684 -0.6334  0.1811 -1.7191
 4103SOL     OW23944   4.715   2.559   9.415 -0.2602  0.2944  0.2668
 4103SOL    HW123945   0.053   2.538   9.471 -1.2328 -0.3808  1.3099
 4103SOL    HW223946   4.727   2.654   9.405 -0.8385  0.5749  2.2509
 4104SOL     OW23947   2.324   3.959   0.721  0.1709 -0.1365 -0.2440
 4104SOL    HW123948   2.409   4.002   0.726  0.6087 -1.3293  2.2327
 4104SOL    HW223949   2.358   3.875   0.692 -2.5445 -0.9540 -1.0853
 4105SOL     OW23950   0.650   1.032   5.888 -0.3151  0.0096  0.1807
 4105SOL    HW123951   0.594   1.037   5.811  1.0554  1.6661 -0.7011
 4105SOL    HW223952   0.587   1.004   5.954  0.9584  0.6558  1.6714
 4106SOL     OW23953   4.614   1.525   6.029 -0.3955 -0.5496  0.4704
 4106SOL    HW123954   4.601   1.472   5.950 -1.6157  2.7382 -1.5373
 4106SOL    HW223955   4.706   1.507   6.047 -0.4887 -2.4652 -1.0060
 4107SOL     OW23956   2.231   1.067  17.534 -0.4965 -0.0294 -0.0642
 4107SOL    HW123957   2.320   1.037  17.517 -1.0303 -2.2718  0.9920
 4107SOL    HW223958   2.200   1.048  17.445  0.7529  4.0103 -1.3135
 4108SOL     OW23959   3.240   0.006   4.944  0.0750 -0.9596 -0.2666
 4108SOL    HW123960   3.320   0.041   4.982  1.8099 -0.7378 -4.1200
 4108SOL    HW223961   3.256   0.024   4.852 -0.2734  0.7687  0.0197
 4109SOL     OW23962   1.349   4.081  14.344 -0.3992 -0.1464  0.9971
 4109SOL    HW123963   1.302   4.146  14.292  1.5338  1.8512  1.7549
 4109SOL    HW223964   1.275   4.060  14.401 -0.3344 -0.4593  0.9621
 4110SOL     OW23965   4.059   0.701  11.307 -0.4054  0.1021 -0.2266
 4110SOL    HW123966   4.059   0.621  11.360  0.3003  0.3036  0.0672
 4110SOL    HW223967   4.023   0.664  11.227 -0.9041  2.1842 -0.9812
 4111SOL     OW23968   1.488   2.002  15.019  0.1070  0.0205  0.4503
 4111SOL    HW123969   1.423   1.975  14.954  2.5033 -1.7220 -1.2218
 4111SOL    HW223970   1.563   1.978  14.966 -0.4388 -0.4340 -0.1211
 4112SOL     OW23971   1.613   0.981  10.984  0.3271  0.1887  0.5701
 4112SOL    HW123972   1.593   0.950  10.896 -0.1800 -0.6461  0.9833
 4112SOL    HW223973   1.708   0.973  10.973  0.2031 -1.2871  0.5851
 4113SOL     OW23974   2.382   2.388   3.342  0.0582  0.3279  0.4999
 4113SOL    HW123975   2.419   2.466   3.300 -0.4021  0.3768  0.1783
 4113SOL    HW223976   2.452   2.325   3.327 -1.4583 -1.7125  2.1023
 4114SOL     OW23977   0.755   1.334  16.661  0.0435 -0.1977  0.1078
 4114SOL    HW123978   0.719   1.422  16.646  1.3209  0.2985 -0.1048
 4114SOL    HW223979   0.833   1.326  16.606 -2.3109  1.0082 -3.4085
 4115SOL     OW23980   3.336   4.312  15.105  0.3219  0.0135  0.0375
 4115SOL    HW123981   3.349   4.267  15.021  0.4108 -0.3774  0.2592
 4115SOL    HW223982   3.292   4.238  15.146  2.0570 -1.1561 -0.2011
 4116SOL     OW23983   3.109   1.284   7.465  0.2442 -0.2462 -0.3152
 4116SOL    HW123984   3.093   1.261   7.373 -1.5052 -2.5874  0.5491
 4116SOL    HW223985   3.149   1.199   7.486  0.7393 -0.2023 -1.0994
 4117SOL     OW23986   4.153   0.525   5.856 -0.1707  0.3696  0.2359
 4117SOL    HW123987   4.246   0.547   5.867 -0.6880  2.8494 -0.4040
 4117SOL    HW223988   4.128   0.482   5.938  2.6498 -0.7352  0.5221
 4118SOL     OW23989   1.923   0.019   6.107 -0.2086  0.3980 -0.0013
 4118SOL    HW123990   1.905   0.089   6.169 -1.1550 -0.0537  0.2346
 4118SOL    HW223991   1.890   4.680   6.156 -0.6828  1.1757  0.8675
 4119SOL     OW23992   2.924   0.057  10.467 -0.3314  0.8612 -0.2345
 4119SOL    HW123993   2.842   0.007  10.470 -1.1808  2.2967  0.5353
 4119SOL    HW223994   2.898   0.120  10.400 -0.0629 -0.9235 -2.0171
 4120SOL     OW23995   4.316   3.841  12.376 -0.3916  0.7162  0.4108
 4120SOL    HW123996   4.270   3.793  12.307  1.4202  2.1395 -1.7642
 4120SOL    HW223997   4.409   3.829  12.356 -1.0082 -3.4833 -0.0704
 4121SOL     OW23998   1.524   0.036  12.064  0.9780  0.1529  0.5201
 4121SOL    HW123999   1.469   4.715  12.011  0.7162  1.3848 -0.5739
 4121SOL    HW224000   1.472   0.059  12.141 -2.2548 -0.6213 -1.4003
 4122SOL     OW24001   0.888   1.509   9.164 -0.5245  0.9054  0.3060
 4122SOL    HW124002   0.959   1.553   9.211 -1.7394  0.3982  2.5982
 4122SOL    HW224003   0.894   1.418   9.195 -0.7278  0.2986 -1.4152
 4123SOL     OW24004   3.568   4.125  15.144 -0.1024  0.0409 -0.0170
 4123SOL    HW124005   3.554   4.031  15.139 -1.3266  0.1540  1.3250
 4123SOL    HW224006   3.536   4.158  15.060 -0.4312 -0.6935 -0.1767
 4124SOL     OW24007   1.725   2.025   5.038 -0.1473  0.3431 -0.3549
 4124SOL    HW124008   1.768   1.945   5.070 -3.0692 -0.0972  2.4393
 4124SOL    HW224009   1.795   2.054   4.980  0.9986  2.8807  2.2928
 4125SOL     OW24010   1.892   1.384   5.138 -0.1210 -0.4940  0.1810
 4125SOL    HW124011   1.857   1.469   5.162  1.6999 -0.0476  1.2636
 4125SOL    HW224012   1.847   1.329   5.202  1.4903 -0.9172  0.9632
 4126SOL     OW24013   1.486   0.891  16.524  0.1119  0.2433 -0.0883
 4126SOL    HW124014   1.474   0.917  16.615  3.4959  0.3616  0.3160
 4126SOL    HW224015   1.503   0.974  16.480 -0.5850 -0.0058 -0.8381
 4127SOL     OW24016   2.924   3.017   3.273 -0.1387  0.1087  0.1059
 4127SOL    HW124017   2.872   3.055   3.344 -1.2228 -1.6372  0.2295
 4127SOL    HW224018   2.942   3.094   3.219 -0.3238 -0.5915 -0.9512
 4128SOL     OW24019   3.569   0.966   4.212 -0.3685 -0.0096 -0.5826
 4128SOL    HW124020   3.621   0.894   4.246  1.2534  0.2852 -2.3733
 4128SOL    HW224021   3.540   1.018   4.287 -3.0356  0.8633 -2.2190
 4129SOL     OW24022   0.452   2.107  16.417 -0.3988  0.1609 -0.0171
 4129SOL    HW124023   0.506   2.104  16.338  0.4942 -0.6489  0.6178
 4129SOL    HW224024   0.458   2.199  16.440 -0.6348 -0.4132  2.3873
 4130SOL     OW24025   4.560   3.070   8.303  0.3653 -1.1319 -0.3941
 4130SOL    HW124026   4.545   3.120   8.223  0.8771 -0.0932  0.1516
 4130SOL    HW224027   4.540   2.983   8.271  1.1191 -1.7487  0.7917
 4131SOL     OW24028   1.157   4.115   1.550 -0.1791  0.1020 -0.2190
 4131SOL    HW124029   1.147   4.022   1.571  1.6272  0.1717  0.9687
 4131SOL    HW224030   1.156   4.145   1.641 -1.7569 -1.9452  0.4346
 4132SOL     OW24031   2.923   3.440   9.854 -0.6235 -0.0412  0.2676
 4132SOL    HW124032   2.931   3.507   9.786  0.7623 -0.6576 -0.1754
 4132SOL    HW224033   2.863   3.371   9.824 -1.7464  0.1688  2.0445
 4133SOL     OW24034   3.283   2.011   9.930 -0.5383 -0.4016  0.5219
 4133SOL    HW124035   3.218   2.062   9.883 -0.3532 -0.7480 -0.1125
 4133SOL    HW224036   3.248   2.004  10.019  0.4015  2.5200  1.1294
 4134SOL     OW24037   4.122   1.297  13.083 -0.1405 -0.2429 -0.0293
 4134SOL    HW124038   4.044   1.350  13.095 -0.5333 -0.2776 -2.6117
 4134SOL    HW224039   4.101   1.262  12.997  0.1276 -0.6063  0.0513
 4135SOL     OW24040   3.357   0.804   7.631 -0.4180  0.3475 -0.1039
 4135SOL    HW124041   3.359   0.756   7.548  2.0970 -0.7213  0.6106
 4135SOL    HW224042   3.363   0.734   7.695 -0.3729  0.1147 -0.3635
 4136SOL     OW24043   2.918   4.712   6.175 -0.1366 -0.5148  0.3104
 4136SOL    HW124044   2.838   4.701   6.227  0.0542  3.1887  1.4618
 4136SOL    HW224045   2.885   0.030   6.103 -0.1358 -2.3369 -1.0611
 4137SOL     OW24046   3.625   3.920   8.131 -0.5378  0.0047  0.0193
 4137SOL    HW124047   3.564   3.993   8.146  1.9472  1.9237  0.8837
 4137SOL    HW224048   3.572   3.865   8.074  0.2569  0.6733 -1.3808
 4138SOL     OW24049   2.183   4.608  13.764  0.7665  0.5946 -0.6673
 4138SOL    HW124050   2.094   4.640  13.751  0.6200  0.2454 -0.5236
 4138SOL    HW224051   2.192   4.640  13.854 -3.2781 -1.6652  0.5696
 4139SOL     OW24052   4.042   3.732   5.350  0.0723  0.2203 -0.8499
 4139SOL    HW124053   3.961   3.682   5.361  0.7797 -0.6136  0.6723
 4139SOL    HW224054   4.078   3.747   5.438  2.2498 -0.9603 -1.5377
 4140SOL     OW24055   2.395   3.097   6.322 -0.3349 -0.0836  0.4375
 4140SOL    HW124056   2.404   3.002   6.310  0.0325  0.1446 -1.0256
 4140SOL    HW224057   2.433   3.111   6.408 -0.6005  0.9739  0.3751
 4141SOL     OW24058   2.002   3.618   2.925  0.2899 -0.3680 -0.4591
 4141SOL    HW124059   1.995   3.576   3.010 -0.8751  0.0410 -0.3595
 4141SOL    HW224060   1.912   3.604   2.897 -0.7211  1.1787  2.0375
 4142SOL     OW24061   2.046   0.703  10.849 -0.2785  0.1587 -0.2147
 4142SOL    HW124062   2.043   0.792  10.884  0.8899  0.5713 -1.1786
 4142SOL    HW224063   2.013   0.724  10.762 -0.3821 -1.0280 -0.4666
 4143SOL     OW24064   2.616   3.838   4.349 -0.3961  0.0554 -0.8560
 4143SOL    HW124065   2.643   3.817   4.439  0.6821 -2.0647 -1.6722
 4143SOL    HW224066   2.609   3.933   4.340  2.0353  0.5353  2.0704
 4144SOL     OW24067   4.321   4.556   8.738  0.1947 -0.2781 -0.2786
 4144SOL    HW124068   4.234   4.592   8.720  0.6592  1.1777  0.3663
 4144SOL    HW224069   4.381   4.591   8.672  0.9041  0.2855  0.6532
 4145SOL     OW24070   1.875   4.497   6.217 -0.1542 -0.6261 -0.1711
 4145SOL    HW124071   1.956   4.472   6.172  0.5659  1.0427  0.1862
 4145SOL    HW224072   1.861   4.410   6.254 -0.2123 -1.7337 -2.8194
 4146SOL     OW24073   0.685   0.339   9.311  0.3649  0.2200 -0.0764
 4146SOL    HW124074   0.775   0.364   9.292  0.8998 -0.6745  1.2963
 4146SOL    HW224075   0.661   0.398   9.382 -0.5234 -0.5182  0.2362
 4147SOL     OW24076   1.946   1.023   3.751  0.0438  0.2648  0.2044
 4147SOL    HW124077   1.995   0.944   3.774  0.9178  0.5371 -0.7231
 4147SOL    HW224078   2.014   1.090   3.756  0.3536 -0.1929  2.2698
 4148SOL     OW24079   1.482   2.939   5.139  0.3287  0.2300 -0.1407
 4148SOL    HW124080   1.485   3.019   5.087  1.3238 -1.7019 -3.0784
 4148SOL    HW224081   1.548   2.956   5.206  0.6548 -0.7325 -0.2135
 4149SOL     OW24082   0.274   3.360   8.973  0.2325 -0.3421 -0.6303
 4149SOL    HW124083   0.234   3.442   8.942  3.5236  0.7931 -1.8974
 4149SOL    HW224084   0.235   3.297   8.913 -1.0437  0.6456 -0.8326
 4150SOL     OW24085   4.708   2.059  12.231  0.5004  0.0712 -0.3339
 4150SOL    HW124086   0.009   2.127  12.174  2.2867 -2.0611 -1.6611
 4150SOL    HW224087   4.625   2.044  12.186 -0.2634  1.2921  0.6531
 4151SOL     OW24088   1.677   1.644   8.394 -0.0404  0.3646  0.3462
 4151SOL    HW124089   1.708   1.716   8.339  2.0472 -0.2720  0.6596
 4151SOL    HW224090   1.652   1.682   8.478  1.1662 -0.9628  1.3135
 4152SOL     OW24091   3.712   1.813   8.102 -0.3534  0.4039 -0.4970
 4152SOL    HW124092   3.704   1.786   8.010  0.4661  2.6689 -1.2353
 4152SOL    HW224093   3.625   1.845   8.127  0.5353  2.3538  0.0701
 4153SOL     OW24094   4.067   1.767   9.782  0.8542  0.0711 -0.1449
 4153SOL    HW124095   4.093   1.825   9.853 -2.5138 -1.1473  2.0676
 4153SOL    HW224096   3.973   1.753   9.793  0.7753 -0.9709 -2.0382
 4154SOL     OW24097   1.284   4.620   3.036  0.3482 -0.0385  0.5596
 4154SOL    HW124098   1.363   4.646   3.082 -0.2161  1.7498  0.5248
 4154SOL    HW224099   1.319   4.599   2.949  0.1025 -0.7127  0.6208
 4155SOL     OW24100   1.969   0.140  15.362  0.2375 -0.4708 -0.2524
 4155SOL    HW124101   2.001   0.224  15.330  2.7060 -2.0648 -1.9647
 4155SOL    HW224102   1.946   0.091  15.283 -0.3029  0.6225 -0.7817
 4156SOL     OW24103   0.121   1.219   7.145 -0.4011 -0.3828  0.1578
 4156SOL    HW124104   0.062   1.169   7.089  0.3986  2.6868 -3.4064
 4156SOL    HW224105   0.132   1.302   7.100 -0.4226  0.2666  1.3516
 4157SOL     OW24106   1.890   0.535   3.156  0.5017  0.2708  0.4433
 4157SOL    HW124107   1.807   0.583   3.165 -1.2936 -2.1794 -2.6616
 4157SOL    HW224108   1.950   0.592   3.203 -0.5348  0.9424  0.9531
 4158SOL     OW24109   2.825   3.665   8.803  0.0190 -0.3311  0.0787
 4158SOL    HW124110   2.879   3.607   8.856 -0.0552 -0.6956 -0.2396
 4158SOL    HW224111   2.764   3.699   8.869 -0.9528  0.7617 -1.3643
 4159SOL     OW24112   2.622   0.995  11.971 -0.0916 -1.0049 -0.0034
 4159SOL    HW124113   2.599   1.035  12.055  0.0816 -0.7093 -0.0983
 4159SOL    HW224114   2.575   0.915  11.992 -2.0256 -0.0966 -0.9347
 4160SOL     OW24115   0.976   0.389   5.946  0.6856  0.3972  0.0405
 4160SOL    HW124116   1.005   0.476   5.972 -1.8328  1.5591 -1.0180
 4160SOL    HW224117   1.059   0.352   5.917 -0.6091 -1.2171 -1.6342
 4161SOL     OW24118   2.592   1.935   1.554  0.0522  0.1595 -0.0364
 4161SOL    HW124119   2.589   2.004   1.487  1.9705 -0.1533 -0.4411
 4161SOL    HW224120   2.631   1.864   1.503  1.6758  1.0967 -0.1109
 4162SOL     OW24121   2.678   4.209  14.829  0.1761  0.3461  0.6734
 4162SOL    HW124122   2.694   4.303  14.832  2.9487 -0.1416  1.7510
 4162SOL    HW224123   2.754   4.165  14.867  0.0418  1.9976  2.8061
 4163SOL     OW24124   3.517   1.264   2.604  0.0330  0.1325  0.5080
 4163SOL    HW124125   3.553   1.352   2.610  0.3763 -0.0889  1.7827
 4163SOL    HW224126   3.525   1.260   2.509 -3.6984  0.1567  0.1777
 4164SOL     OW24127   2.866   2.177  12.225 -0.3316 -0.3817 -0.4187
 4164SOL    HW124128   2.870   2.255  12.169 -0.5776 -1.0004 -1.2896
 4164SOL    HW224129   2.771   2.177  12.236 -0.2385 -1.8204  0.3757
 4165SOL     OW24130   3.032   2.523   7.867  0.0397 -0.3797 -0.1177
 4165SOL    HW124131   2.940   2.533   7.891  0.7128  2.6281  1.3098
 4165SOL    HW224132   3.061   2.483   7.948 -0.8486 -1.8431 -0.5334
 4166SOL     OW24133   3.277   2.456   7.297  0.0555  0.2221 -0.1772
 4166SOL    HW124134   3.200   2.479   7.348 -1.2840 -0.3896 -1.9262
 4166SOL    HW224135   3.287   2.361   7.304  0.1002  0.3454  1.3515
 4167SOL     OW24136   4.379   0.341  15.272  0.1443  0.3413 -0.1564
 4167SOL    HW124137   4.449   0.306  15.328 -1.2777 -1.7679  0.2664
 4167SOL    HW224138   4.351   0.263  15.224 -1.2994  1.0987 -0.5243
 4168SOL     OW24139   0.487   2.990   6.319 -0.4941 -0.3116  0.3523
 4168SOL    HW124140   0.415   2.936   6.286 -0.7386 -1.7723  3.2801
 4168SOL    HW224141   0.501   2.961   6.410 -1.6067  0.0601  0.6476
 4169SOL     OW24142   3.101   4.670   5.539 -0.4742  0.2876  0.2908
 4169SOL    HW124143   3.070   4.675   5.629 -0.0770 -0.7582  0.4856
 4169SOL    HW224144   3.105   4.575   5.527  1.4920  0.6053 -1.6964
 4170SOL     OW24145   2.489   1.085   5.432  0.1069 -0.2443  0.3552
 4170SOL    HW124146   2.464   1.094   5.524  1.1600  2.6916  0.3463
 4170SOL    HW224147   2.515   0.993   5.436  2.0027  0.2615 -0.6994
 4171SOL     OW24148   4.676   1.755   6.765  0.2497  0.0800 -0.0038
 4171SOL    HW124149   0.030   1.781   6.781 -0.4508  1.7702  1.3486
 4171SOL    HW224150   4.683   1.666   6.798  0.3713 -0.2485 -0.9213
 4172SOL     OW24151   4.309   3.558   4.164  0.1930  0.4774 -0.2032
 4172SOL    HW124152   4.391   3.517   4.191 -0.8397 -0.1944  1.8670
 4172SOL    HW224153   4.344   3.640   4.198  1.4182  0.1603 -0.6968
 4173SOL     OW24154   3.810   2.858   1.932  0.2929 -0.1698 -0.2183
 4173SOL    HW124155   3.847   2.784   1.885 -0.0890  1.1176 -2.4977
 4173SOL    HW224156   3.728   2.811   1.949 -0.3268  1.5673  1.6635
 4174SOL     OW24157   0.351   2.791  17.094  0.2732 -0.3524  0.5008
 4174SOL    HW124158   0.321   2.703  17.117  0.1255 -0.4059  0.1082
 4174SOL    HW224159   0.419   2.809  17.159  0.8638 -2.4718  0.4669
 4175SOL     OW24160   1.057   0.927   0.850 -0.5079 -0.2547  0.6485
 4175SOL    HW124161   0.969   0.894   0.830  0.2921 -2.5969  1.0210
 4175SOL    HW224162   1.068   0.909   0.943  0.1425 -0.3938  0.5445
 4176SOL     OW24163   1.583   2.828   8.328 -0.0368 -0.1260  0.0064
 4176SOL    HW124164   1.523   2.756   8.312 -0.2897 -0.2469  1.4983
 4176SOL    HW224165   1.548   2.886   8.396 -0.4497 -0.7322  0.3006
 4177SOL     OW24166   3.568   0.830   7.958 -0.2221  0.8611  0.6856
 4177SOL    HW124167   3.503   0.771   7.997 -0.2620 -0.0911 -0.8049
 4177SOL    HW224168   3.608   0.873   8.033 -1.1717 -2.4478  3.0948
 4178SOL     OW24169   0.603   4.321   2.734 -0.0425  0.2862 -0.5504
 4178SOL    HW124170   0.513   4.327   2.704 -0.4826 -0.7668  0.5323
 4178SOL    HW224171   0.652   4.351   2.658 -1.5112 -0.8428 -1.9346
 4179SOL     OW24172   1.742   0.247  11.472 -0.0531  0.2283 -0.1919
 4179SOL    HW124173   1.687   0.285  11.404 -2.6387 -1.0141  1.2145
 4179SOL    HW224174   1.686   0.265  11.547  0.0696 -3.6175  0.7904
 4180SOL     OW24175   3.981   3.526   2.206 -0.0768  0.8064  0.7268
 4180SOL    HW124176   3.969   3.444   2.253  2.8903  0.7939  1.4730
 4180SOL    HW224177   4.074   3.536   2.223 -0.0759  1.5354  0.3050
 4181SOL     OW24178   4.054   0.477   2.262  0.3056  0.4155  0.7789
 4181SOL    HW124179   4.053   0.571   2.279 -0.1488  0.6900 -0.7421
 4181SOL    HW224180   3.975   0.467   2.208 -0.1087 -0.1462  1.5060
 4182SOL     OW24181   0.991   0.723   5.029  0.3292  0.1585 -0.2860
 4182SOL    HW124182   0.999   0.715   4.934 -1.2556  0.0629 -0.4154
 4182SOL    HW224183   0.924   0.656   5.042  1.1827 -0.7300 -0.4938
 4183SOL     OW24184   0.771   1.332  12.916 -0.1860  0.0288 -0.0362
 4183SOL    HW124185   0.781   1.369  12.828  0.8247  1.0132  0.4893
 4183SOL    HW224186   0.804   1.411  12.959  0.1187  0.2956 -0.7460
 4184SOL     OW24187   1.563   2.256   4.723  0.0478 -0.5112  0.0390
 4184SOL    HW124188   1.619   2.281   4.796  0.3146  1.3686 -0.7943
 4184SOL    HW224189   1.478   2.245   4.766 -0.3895  0.1922 -0.6526
 4185SOL     OW24190   2.119   0.422   8.599  1.2075  0.4536 -0.0516
 4185SOL    HW124191   2.163   0.352   8.551 -0.5412  0.4083 -1.5910
 4185SOL    HW224192   2.058   0.370   8.650 -0.8412  1.1621 -1.7670
 4186SOL     OW24193   3.678   2.539   6.190  0.0565 -0.5516  0.0492
 4186SOL    HW124194   3.733   2.526   6.112 -1.6990  0.4070 -1.3747
 4186SOL    HW224195   3.691   2.632   6.209 -1.7882 -0.5802  1.3914
 4187SOL     OW24196   0.701   1.364  10.305 -0.2403 -0.2274  0.2597
 4187SOL    HW124197   0.778   1.345  10.252 -0.0358 -1.2510  0.9321
 4187SOL    HW224198   0.739   1.410  10.380 -2.5159  1.1671  0.5723
 4188SOL     OW24199   3.039   3.003   5.587 -0.3983 -0.0948 -0.0798
 4188SOL    HW124200   2.993   3.027   5.507 -0.1946 -0.6201 -0.3552
 4188SOL    HW224201   3.026   3.085   5.635  2.6628  0.4209 -0.1398
 4189SOL     OW24202   2.484   0.102  14.998 -0.3117  0.0572  0.7007
 4189SOL    HW124203   2.390   0.107  15.017 -0.6614  2.4071 -1.5759
 4189SOL    HW224204   2.521   0.130  15.081  1.8015 -2.1158  0.4802
 4190SOL     OW24205   4.118   4.228   8.981 -0.2383  0.1311 -0.2653
 4190SOL    HW124206   4.103   4.155   8.922 -0.1538  0.8526 -1.1782
 4190SOL    HW224207   4.156   4.296   8.925  0.4711 -0.4160 -0.4471
 4191SOL     OW24208   3.606   4.539   0.489  0.1505  0.1253  0.1355
 4191SOL    HW124209   3.539   4.560   0.554  0.3638  1.7252 -0.1664
 4191SOL    HW224210   3.681   4.509   0.540 -1.3210  3.3471  4.1463
 4192SOL     OW24211   4.664   0.442  10.149 -0.3548 -0.1379  0.1355
 4192SOL    HW124212   4.675   0.536  10.135  1.9458 -0.4752 -0.3201
 4192SOL    HW224213   4.674   0.432  10.243  0.9881  3.1859  0.3418
 4193SOL     OW24214   0.803   2.979   8.924  0.3123 -0.0612  0.0134
 4193SOL    HW124215   0.804   2.975   9.020 -0.9631  0.7418  0.0703
 4193SOL    HW224216   0.708   2.984   8.911  0.2104  0.5676  0.9630
 4194SOL     OW24217   1.747   1.832  16.518  0.0126 -0.1643 -0.3217
 4194SOL    HW124218   1.665   1.790  16.545 -0.6636  0.2085 -1.7704
 4194SOL    HW224219   1.718   1.921  16.495  1.3655 -0.6294 -3.8626
 4195SOL     OW24220   0.893   4.185  14.674 -0.3260  0.1016  0.4180
 4195SOL    HW124221   0.972   4.215  14.628 -0.3649 -0.7690 -0.2175
 4195SOL    HW224222   0.839   4.167  14.597 -1.6756  0.5709  1.2529
 4196SOL     OW24223   0.633   3.783   3.582  0.6380  0.1499 -0.0771
 4196SOL    HW124224   0.552   3.823   3.612 -1.7314 -2.3222 -3.1820
 4196SOL    HW224225   0.672   3.742   3.659  0.2948  0.1251  0.0787
 4197SOL     OW24226   1.716   3.188   2.588  0.5179  0.4381  0.0586
 4197SOL    HW124227   1.719   3.100   2.626  1.6369 -1.1265 -3.6664
 4197SOL    HW224228   1.640   3.172   2.531  2.0672 -0.1154 -1.8266
 4198SOL     OW24229   2.388   1.035   2.015  0.4873  0.3113 -0.2030
 4198SOL    HW124230   2.300   1.049   2.050  0.0744  2.0269 -1.9506
 4198SOL    HW224231   2.436   1.094   2.073  1.1358  0.7932 -1.2259
 4199SOL     OW24232   0.487   2.709  11.702 -0.2558  0.2316 -0.0631
 4199SOL    HW124233   0.554   2.738  11.764 -0.7262 -1.7092  1.3597
 4199SOL    HW224234   0.500   2.774  11.633  0.5287  0.1058 -0.0399
 4200SOL     OW24235   4.040   0.768   8.415  0.1496 -0.0124  0.4706
 4200SOL    HW124236   4.102   0.818   8.362 -0.1786 -1.3890 -1.2233
 4200SOL    HW224237   4.044   0.828   8.490 -0.2006 -0.1180  0.5731
 4201SOL     OW24238   3.149   3.734  11.472  0.1723  0.0103 -0.2716
 4201SOL    HW124239   3.198   3.669  11.522 -0.7157 -0.1027  0.4563
 4201SOL    HW224240   3.153   3.814  11.523  0.3161  0.7792 -1.4871
 4202SOL     OW24241   3.213   0.156  15.021 -0.2292  0.4489  0.0110
 4202SOL    HW124242   3.186   0.237  15.064  0.5753  0.3983  0.6191
 4202SOL    HW224243   3.302   0.182  14.995 -0.2568 -0.4159 -0.9454
 4203SOL     OW24244   3.573   1.474   3.664 -0.3479  1.1396 -0.1623
 4203SOL    HW124245   3.564   1.458   3.570  4.1840  1.0452 -0.5997
 4203SOL    HW224246   3.504   1.414   3.692 -0.7352  1.0833 -1.2187
 4204SOL     OW24247   2.465   1.000   2.965  0.6316 -0.0460 -0.3321
 4204SOL    HW124248   2.445   0.976   3.056  0.6819  0.2166 -0.2510
 4204SOL    HW224249   2.393   1.061   2.948 -0.5997 -1.6256 -0.8343
 4205SOL     OW24250   0.441   3.432   9.714  0.2896 -0.1424 -0.2366
 4205SOL    HW124251   0.534   3.418   9.731  0.2622 -0.2977 -0.2170
 4205SOL    HW224252   0.437   3.521   9.677 -2.4225  0.0890  0.6374
 4206SOL     OW24253   3.644   2.343   8.866 -0.0656  0.2584  0.3701
 4206SOL    HW124254   3.720   2.313   8.916  1.6177  2.2369 -1.0205
 4206SOL    HW224255   3.584   2.363   8.938  0.5668  0.7133  0.7605
 4207SOL     OW24256   1.231   2.425   7.336  0.6803 -0.3632  0.4733
 4207SOL    HW124257   1.139   2.402   7.323  1.2703 -2.6897  0.4789
 4207SOL    HW224258   1.245   2.516   7.308  0.1969 -0.8547 -1.3159
 4208SOL     OW24259   4.012   1.909   8.566  0.2755  0.4962  0.5335
 4208SOL    HW124260   3.948   1.979   8.552 -1.9043 -1.2376  1.6586
 4208SOL    HW224261   3.975   1.846   8.504  1.3579  0.4721 -0.0832
 4209SOL     OW24262   1.870   0.960  11.003 -0.1897 -0.4622  0.0011
 4209SOL    HW124263   1.868   1.049  11.038 -2.4194 -0.8222  0.7401
 4209SOL    HW224264   1.913   0.908  11.072  1.0101  0.0761 -0.3285
 4210SOL     OW24265   0.712   4.529   3.146 -0.6121  0.2220 -0.5250
 4210SOL    HW124266   0.721   4.443   3.186  0.9167  0.7903  0.2997
 4210SOL    HW224267   0.682   4.513   3.056  2.8775  1.7619 -1.9813
 4211SOL     OW24268   4.027   2.647   7.927 -0.1870  0.1167 -0.2646
 4211SOL    HW124269   3.961   2.596   7.974 -0.2336  0.9948  0.6410
 4211SOL    HW224270   4.005   2.735   7.957  1.1398  0.2223  0.3890
 4212SOL     OW24271   1.057   2.848   2.573 -0.2788 -0.4769 -0.3592
 4212SOL    HW124272   1.018   2.817   2.655  1.4119  1.1052  1.0400
 4212SOL    HW224273   1.120   2.777   2.563  1.8736  0.8568  3.7361
 4213SOL     OW24274   1.723   4.449   0.162 -0.1895 -0.3254  0.5597
 4213SOL    HW124275   1.683   4.488   0.084  0.1013  1.9195  1.5301
 4213SOL    HW224276   1.723   4.532   0.210 -2.2193  1.0750 -1.8545
 4214SOL     OW24277   4.195   3.249   8.205 -0.0464 -0.0300 -0.2248
 4214SOL    HW124278   4.269   3.280   8.258  0.5197  2.4145 -2.4793
 4214SOL    HW224279   4.168   3.329   8.160 -1.0617  0.7115  1.6867
 4215SOL     OW24280   3.243   4.136  15.290 -0.2237  0.5562 -0.1846
 4215SOL    HW124281   3.267   4.047  15.317  1.5981  0.3832 -2.3841
 4215SOL    HW224282   3.185   4.161  15.362  0.2433 -1.4219  0.8825
 4216SOL     OW24283   2.717   2.023   7.388 -0.0429  0.0795  0.4943
 4216SOL    HW124284   2.737   2.020   7.295 -0.4867  3.3935  0.2850
 4216SOL    HW224285   2.666   1.943   7.396  1.9201 -0.8857  3.3935
 4217SOL     OW24286   1.941   2.678   2.416  0.2002  0.8981  0.3497
 4217SOL    HW124287   1.983   2.719   2.492  2.2335  0.4107 -0.5129
 4217SOL    HW224288   1.955   2.585   2.434 -3.8335  0.3022  0.4409
 4218SOL     OW24289   1.168   0.343   3.542 -0.0439 -0.6666  0.0108
 4218SOL    HW124290   1.236   0.395   3.498  0.7075  0.2414  2.2713
 4218SOL    HW224291   1.121   0.408   3.595  2.3572  0.6566  0.5140
 4219SOL     OW24292   0.176   2.164   8.569  0.4021 -0.1955 -0.5764
 4219SOL    HW124293   0.165   2.214   8.489 -2.1206  1.6819  0.9570
 4219SOL    HW224294   0.105   2.101   8.559 -0.6615  0.9499 -0.2215
 4220SOL     OW24295   2.659   2.182   5.885  0.3314 -0.2857 -0.1029
 4220SOL    HW124296   2.714   2.199   5.962 -0.0705 -1.5762  0.4651
 4220SOL    HW224297   2.717   2.202   5.811 -0.9135  0.7699 -0.7785
 4221SOL     OW24298   0.519   2.499  16.739 -0.1509  0.1072  0.2428
 4221SOL    HW124299   0.509   2.586  16.702 -2.0865  0.0409  0.6148
 4221SOL    HW224300   0.431   2.467  16.720  0.3864  0.8470 -3.4806
 4222SOL     OW24301   0.491   4.594   4.354 -0.1105 -0.5466 -0.5444
 4222SOL    HW124302   0.473   4.668   4.412  0.5868  0.1759 -1.2564
 4222SOL    HW224303   0.400   4.583   4.325 -0.3036 -0.7707  0.1654
 4223SOL     OW24304   0.400   1.885  12.211 -0.2451  0.2618 -0.5247
 4223SOL    HW124305   0.492   1.912  12.208 -0.4195  0.9650  0.8000
 4223SOL    HW224306   0.347   1.940  12.153 -0.3254 -1.2951 -1.9541
 4224SOL     OW24307   1.259   4.196   0.791  0.5400 -0.0496 -0.3851
 4224SOL    HW124308   1.201   4.250   0.845  0.2096 -2.5437  1.7206
 4224SOL    HW224309   1.291   4.130   0.852  2.0997 -0.4515 -1.6248
 4225SOL     OW24310   1.709   4.211   3.513  0.3951  0.0628 -0.4390
 4225SOL    HW124311   1.741   4.273   3.448  1.8914 -0.3529 -0.1203
 4225SOL    HW224312   1.789   4.180   3.556  0.4023 -0.3854 -0.7682
 4226SOL     OW24313   1.076   1.452   7.972  0.7324 -0.0140 -0.2027
 4226SOL    HW124314   1.067   1.546   7.952 -0.8472  0.1014  1.0328
 4226SOL    HW224315   1.122   1.451   8.056 -0.0593 -0.8062  0.2189
 4227SOL     OW24316   0.709   3.322   9.152  0.1351  0.0995 -0.0020
 4227SOL    HW124317   0.626   3.292   9.115  0.5243 -0.9228 -0.0434
 4227SOL    HW224318   0.708   3.256   9.221 -2.4096  0.5247  0.3991
 4228SOL     OW24319   4.481   3.814   3.216 -1.0176 -0.2144 -0.0524
 4228SOL    HW124320   4.450   3.866   3.142  2.0596  0.9860 -0.5125
 4228SOL    HW224321   4.559   3.859   3.249  0.5784 -2.0334 -1.2527
 4229SOL     OW24322   0.084   0.584  14.247  0.2306 -0.5004  0.6673
 4229SOL    HW124323   0.175   0.606  14.228  0.2611 -2.8257 -1.9562
 4229SOL    HW224324   0.094   0.533  14.326 -2.0043 -0.9158  0.6774
 4230SOL     OW24325   3.810   2.247   9.386 -0.8519  0.2042  0.6857
 4230SOL    HW124326   3.879   2.283   9.331 -0.1510  0.4055  1.6892
 4230SOL    HW224327   3.815   2.154   9.362 -0.0315 -0.2537  2.5592
 4231SOL     OW24328   3.532   1.513   4.058 -0.2718 -0.1876 -0.5636
 4231SOL    HW124329   3.622   1.492   4.032 -0.7119  0.5268 -2.6710
 4231SOL    HW224330   3.535   1.607   4.038  1.0915 -0.8868 -3.7361
 4232SOL     OW24331   0.450   4.066   3.469 -0.9849 -0.1555  0.0092
 4232SOL    HW124332   0.490   4.002   3.527 -1.1811 -0.8446 -0.5987
 4232SOL    HW224333   0.450   4.027   3.381  2.1069  1.4284 -0.6833
 4233SOL     OW24334   3.964   2.197  12.563  0.0705  0.1617 -0.0757
 4233SOL    HW124335   3.946   2.178  12.471  0.0064 -1.8709  0.3476
 4233SOL    HW224336   3.947   2.109  12.598 -1.0212  0.4695  0.1738
 4234SOL     OW24337   4.029   1.209   2.346  0.0766 -1.0388 -0.5661
 4234SOL    HW124338   4.008   1.300   2.364  0.5319 -0.8203 -1.1423
 4234SOL    HW224339   4.087   1.193   2.420  0.6773 -0.4813 -0.9236
 4235SOL     OW24340   1.346   4.556   2.416  0.4947  0.3207 -0.3158
 4235SOL    HW124341   1.368   4.558   2.323 -1.2271  1.6970 -0.6858
 4235SOL    HW224342   1.408   4.616   2.458 -0.4779 -0.4598  2.2690
 4236SOL     OW24343   1.730   3.641   2.047 -0.1049 -0.6981 -0.1542
 4236SOL    HW124344   1.682   3.567   2.085  1.0985 -1.5034 -0.2078
 4236SOL    HW224345   1.692   3.649   1.959  0.1132  0.3006 -0.1489
 4237SOL     OW24346   2.752   3.399  16.739  0.5452  0.0554 -0.0185
 4237SOL    HW124347   2.777   3.323  16.793  0.0946 -0.3683 -0.4127
 4237SOL    HW224348   2.657   3.394  16.740  0.5010  0.6594 -1.9947
 4238SOL     OW24349   4.424   1.540   5.697 -0.2523  0.4814 -0.0051
 4238SOL    HW124350   4.436   1.445   5.704  0.3930  0.5372 -0.3097
 4238SOL    HW224351   4.483   1.586   5.757 -1.4937  1.3959  0.4971
 4239SOL     OW24352   4.562   0.273   9.373 -0.0925 -1.0320  0.2597
 4239SOL    HW124353   4.526   0.362   9.372  1.2591 -0.4831  0.1285
 4239SOL    HW224354   4.520   0.243   9.454 -1.5690  2.1227  0.6626
 4240SOL     OW24355   2.705   4.280   4.797 -0.3567  0.1591 -0.1811
 4240SOL    HW124356   2.751   4.281   4.713 -0.6182 -0.2021 -0.3271
 4240SOL    HW224357   2.743   4.358   4.838  0.3480 -0.3269  0.0793
 4241SOL     OW24358   1.429   1.297   5.396  0.6767 -0.8287  0.3246
 4241SOL    HW124359   1.388   1.261   5.317 -0.4574 -1.5734  1.2596
 4241SOL    HW224360   1.393   1.386   5.396  2.1987 -0.2186 -0.2042
 4242SOL     OW24361   3.109   4.652   2.904 -0.8741 -0.2459  0.0442
 4242SOL    HW124362   3.171   4.723   2.920 -0.2392 -0.4593 -1.4770
 4242SOL    HW224363   3.170   4.583   2.878  0.6399  1.1680 -0.1778
 4243SOL     OW24364   4.361   1.422   3.341 -0.4096 -0.2911 -0.3357
 4243SOL    HW124365   4.283   1.471   3.367  0.8480  1.3794  0.2600
 4243SOL    HW224366   4.327   1.334   3.324 -2.1261  0.5781 -1.3698
 4244SOL     OW24367   0.695   3.128   4.986 -0.0977 -0.6550  0.4207
 4244SOL    HW124368   0.624   3.164   5.039 -0.7533  0.9011 -1.5259
 4244SOL    HW224369   0.652   3.136   4.901 -0.1935  0.8673  0.6103
 4245SOL     OW24370   0.963   1.243   6.844 -0.7977 -0.1523  0.0353
 4245SOL    HW124371   0.880   1.291   6.837 -1.3542 -1.4250 -2.0820
 4245SOL    HW224372   0.940   1.155   6.873  1.6855 -0.4540  1.0315
 4246SOL     OW24373   3.776   1.489   7.352 -0.1788  0.4775  0.2276
 4246SOL    HW124374   3.764   1.563   7.411  2.5383 -0.1570  1.5912
 4246SOL    HW224375   3.772   1.528   7.265 -0.8206 -0.3715 -0.1286
 4247SOL     OW24376   0.687   3.157   9.352  0.3946  0.4870 -0.0676
 4247SOL    HW124377   0.612   3.102   9.376 -2.1155  4.3258  0.7946
 4247SOL    HW224378   0.754   3.099   9.316  0.1641 -0.6688  1.3604
 4248SOL     OW24379   3.570   1.140  14.303  0.2712 -0.1602  0.1325
 4248SOL    HW124380   3.647   1.178  14.346  1.1870 -0.7867 -0.9478
 4248SOL    HW224381   3.563   1.068  14.366  1.1341  1.5428  2.1690
 4249SOL     OW24382   1.951   0.020   5.807 -0.5325  0.1396 -0.1856
 4249SOL    HW124383   1.972   0.112   5.823  1.3220 -0.0210 -1.6698
 4249SOL    HW224384   1.917   0.011   5.896 -0.4623 -1.7860 -0.3585
 4250SOL     OW24385   3.466   2.194   5.106  0.1746 -0.5483 -0.2072
 4250SOL    HW124386   3.406   2.257   5.068  0.4270  0.8951  1.7857
 4250SOL    HW224387   3.409   2.149   5.169 -1.6338 -0.1544 -1.5773
 4251SOL     OW24388   3.733   0.927  15.289 -0.6701 -0.1721  0.4363
 4251SOL    HW124389   3.646   0.895  15.264 -1.1298  2.6601 -1.5575
 4251SOL    HW224390   3.749   0.848  15.340  0.5238 -1.1273 -1.4226
 4252SOL     OW24391   1.826   2.913   9.005 -0.2142 -0.6230  0.0990
 4252SOL    HW124392   1.747   2.879   8.962 -1.1027  1.1760  0.3211
 4252SOL    HW224393   1.890   2.842   8.995 -0.5900 -1.2786  2.2485
 4253SOL     OW24394   2.827   1.793   6.151 -0.0720 -0.0991  0.2778
 4253SOL    HW124395   2.900   1.762   6.204 -1.0295  0.6544  2.0580
 4253SOL    HW224396   2.848   1.756   6.065 -1.4153  2.2135 -1.0564
 4254SOL     OW24397   2.361   1.106   0.021  0.1885  0.1649  0.0816
 4254SOL    HW124398   2.298   1.087  17.698 -1.0499 -0.2216  1.3178
 4254SOL    HW224399   2.395   1.189  17.733  1.3818  0.0936  1.0943
 4255SOL     OW24400   3.270   2.776   8.458  0.5757 -0.1180 -0.0120
 4255SOL    HW124401   3.200   2.761   8.394  1.4487 -0.1993 -0.9450
 4255SOL    HW224402   3.293   2.685   8.477 -1.2190 -0.3579  1.0483
 4256SOL     OW24403   1.199   4.239   6.184  0.3131  0.3911 -0.2797
 4256SOL    HW124404   1.159   4.237   6.271  2.8909 -0.0269  0.8929
 4256SOL    HW224405   1.238   4.152   6.194 -2.2511 -0.6690  0.5667
 4257SOL     OW24406   4.588   1.843   5.323 -0.5693 -0.4832 -0.6091
 4257SOL    HW124407   4.514   1.903   5.308 -0.8354 -0.8154 -0.6126
 4257SOL    HW224408   4.628   1.872   5.240 -0.9059 -1.5680 -1.1461
 4258SOL     OW24409   4.509   4.244   3.971  0.2631  0.1239  0.1516
 4258SOL    HW124410   4.459   4.274   3.895  2.2459  0.3032 -1.0995
 4258SOL    HW224411   4.554   4.322   4.006 -0.8122  0.0693  1.6785
 4259SOL     OW24412   3.849   4.430   8.140 -0.1977  0.5245 -0.2727
 4259SOL    HW124413   3.804   4.511   8.115  1.5460  1.1370 -1.4441
 4259SOL    HW224414   3.767   4.383   8.149 -0.5459  1.0686 -0.5780
 4260SOL     OW24415   3.725   0.816  14.135 -0.2454 -0.7122 -0.3893
 4260SOL    HW124416   3.810   0.809  14.177 -0.4476  1.2839  0.3493
 4260SOL    HW224417   3.725   0.908  14.109 -1.5327 -1.3899 -2.8903
 4261SOL     OW24418   4.229   1.380   8.247  0.3456 -0.4399  0.1510
 4261SOL    HW124419   4.267   1.461   8.281 -1.6882 -0.3067  2.1470
 4261SOL    HW224420   4.302   1.326   8.217  1.2989  0.7645  0.2856
 4262SOL     OW24421   4.427   2.732  12.135  0.4572 -0.6283  0.0276
 4262SOL    HW124422   4.336   2.707  12.150  1.2767 -1.8401  3.0211
 4262SOL    HW224423   4.419   2.824  12.110  2.0332 -0.8454 -1.3348
 4263SOL     OW24424   3.738   2.427  15.077 -0.3586 -0.0488  0.3735
 4263SOL    HW124425   3.774   2.392  15.159 -2.7547 -1.1127  0.9658
 4263SOL    HW224426   3.798   2.387  15.015  0.6251 -0.9335  1.9006
 4264SOL     OW24427   3.415   4.735  13.077  0.1388  0.1885  0.3588
 4264SOL    HW124428   3.475   4.660  13.085  0.7630  0.6071 -0.4514
 4264SOL    HW224429   3.457   0.064  13.022  0.1355 -0.4803 -0.4365
 4265SOL     OW24430   2.293   3.556   6.564  0.6432  0.2411  0.1899
 4265SOL    HW124431   2.293   3.513   6.650 -3.0810  1.9797  1.0866
 4265SOL    HW224432   2.377   3.531   6.526  0.0465 -0.3239 -0.7699
 4266SOL     OW24433   0.691   0.048   2.646 -0.5486 -0.3137 -0.0991
 4266SOL    HW124434   0.616   0.013   2.693 -1.4519  1.9174  0.0895
 4266SOL    HW224435   0.696   0.143   2.654 -0.6351 -0.1385 -1.9692
 4267SOL     OW24436   0.800   3.031   5.231 -0.4503  0.4405  0.1101
 4267SOL    HW124437   0.748   3.053   5.154 -2.9819  1.9517  2.2248
 4267SOL    HW224438   0.835   3.118   5.250  2.3129 -0.4962 -0.6674
 4268SOL     OW24439   3.730   3.743  16.247  0.4119  0.1857 -0.2359
 4268SOL    HW124440   3.644   3.710  16.224 -0.6762  1.4235  2.0923
 4268SOL    HW224441   3.719   3.758  16.340 -0.0674  1.0031 -0.4228
 4269SOL     OW24442   2.044   1.657   7.667  0.3419 -0.3299  0.3564
 4269SOL    HW124443   2.059   1.752   7.665 -2.5193  0.1138 -0.3977
 4269SOL    HW224444   2.003   1.652   7.581  0.5319 -3.2341  0.4366
 4270SOL     OW24445   2.285   0.991   8.288  0.3345 -0.0910  0.1212
 4270SOL    HW124446   2.223   1.043   8.340  2.0163 -0.0646  2.0961
 4270SOL    HW224447   2.305   0.916   8.345  1.7127 -0.4999 -0.8857
 4271SOL     OW24448   4.379   3.161   1.424  0.7899 -0.2902 -0.0479
 4271SOL    HW124449   4.382   3.112   1.342  0.6715 -1.8372  0.8775
 4271SOL    HW224450   4.335   3.099   1.482 -1.4537 -0.4323 -1.8985
 4272SOL     OW24451   3.301   2.458  10.018  0.1315  0.1115  0.3224
 4272SOL    HW124452   3.328   2.367  10.018  0.7435  0.2812 -2.1097
 4272SOL    HW224453   3.252   2.467   9.936 -1.0653  3.2287  1.3608
 4273SOL     OW24454   0.983   1.785   7.102 -0.0780  0.0704 -0.0361
 4273SOL    HW124455   1.057   1.788   7.162 -0.0054  1.0601 -0.1621
 4273SOL    HW224456   0.916   1.737   7.150  0.2606  0.9768  1.3341
 4274SOL     OW24457   0.813   4.116   7.075  0.6999 -0.2230 -0.1551
 4274SOL    HW124458   0.787   4.172   7.002  0.4834 -0.3178 -0.1515
 4274SOL    HW224459   0.745   4.129   7.140  0.3338 -0.4076 -0.5031
 4275SOL     OW24460   0.531   0.494   2.376  0.3823 -0.1365  0.1579
 4275SOL    HW124461   0.583   0.572   2.395  0.0271  0.4226 -1.1335
 4275SOL    HW224462   0.532   0.446   2.458 -1.5483  1.7863  1.2934
 4276SOL     OW24463   3.213   1.043   4.873  0.1745 -0.1328  0.0425
 4276SOL    HW124464   3.220   1.132   4.840  0.9847 -0.2366 -0.0617
 4276SOL    HW224465   3.208   1.048   4.969  1.2236 -1.4185  0.1633
 4277SOL     OW24466   0.289   1.965   3.572 -0.2693 -0.1108 -0.1894
 4277SOL    HW124467   0.255   2.013   3.497  0.1249  1.4836  0.6392
 4277SOL    HW224468   0.373   1.930   3.542  1.2407  2.2299  1.2835
 4278SOL     OW24469   4.275   4.550   9.571 -0.1153  0.2036 -0.3005
 4278SOL    HW124470   4.277   4.548   9.476 -1.1600 -0.3328 -0.3129
 4278SOL    HW224471   4.202   4.490   9.586 -0.6559  0.6737 -1.0176
 4279SOL     OW24472   0.578   3.297   5.977 -0.5842 -0.2791  0.1001
 4279SOL    HW124473   0.538   3.313   5.892 -0.3560  0.1723  0.0723
 4279SOL    HW224474   0.670   3.293   5.949 -0.8332  2.7701 -1.1780
 4280SOL     OW24475   1.194   1.049   6.629 -0.6760 -0.5178 -0.3411
 4280SOL    HW124476   1.168   1.093   6.710 -0.9419 -1.7326  0.2357
 4280SOL    HW224477   1.233   1.126   6.588  0.3844 -2.1658 -2.4151
 4281SOL     OW24478   4.100   0.942   7.415  0.2330 -0.0279  0.5628
 4281SOL    HW124479   4.055   0.872   7.367 -1.2843  1.7738 -0.6489
 4281SOL    HW224480   4.029   1.006   7.420 -1.1508 -1.6069  1.6849
 4282SOL     OW24481   0.710   3.490   5.077 -0.6941  0.3762 -0.0014
 4282SOL    HW124482   0.649   3.564   5.072 -0.6036  0.3100 -2.1250
 4282SOL    HW224483   0.643   3.427   5.051  1.1110 -1.4658 -0.1743
 4283SOL     OW24484   1.747   3.053   9.261  0.0642 -0.1628 -0.4446
 4283SOL    HW124485   1.746   3.030   9.168  0.6772 -0.6746 -0.3258
 4283SOL    HW224486   1.800   3.133   9.265 -1.6451  1.0725 -2.3010
 4284SOL     OW24487   2.634   1.029   8.884  0.4062  1.1858 -0.5138
 4284SOL    HW124488   2.629   1.105   8.942  1.2773  0.6237  0.2895
 4284SOL    HW224489   2.582   0.960   8.924  3.0055  0.2548  1.2046
 4285SOL     OW24490   0.963   0.844  17.376 -0.0406  0.6541 -0.0399
 4285SOL    HW124491   0.991   0.762  17.418  1.6156  0.1060 -2.2011
 4285SOL    HW224492   0.892   0.865  17.436 -0.0582 -0.0510  0.1941
 4286SOL     OW24493   1.657   2.950   6.847  0.3347 -0.2922  0.5954
 4286SOL    HW124494   1.701   2.896   6.912  0.1041 -0.5271  0.5520
 4286SOL    HW224495   1.720   2.932   6.777  0.5243  1.0982  0.3992
 4287SOL     OW24496   1.604   4.623   6.969 -0.0479 -0.2343 -0.0161
 4287SOL    HW124497   1.674   4.581   7.019  0.0674  0.2063  0.1915
 4287SOL    HW224498   1.641   4.704   6.937 -1.8545  0.2817 -0.8237
 4288SOL     OW24499   2.235   0.021  17.355 -0.2995 -0.5024  0.1955
 4288SOL    HW124500   2.164   0.052  17.411  0.5579 -0.1884  1.1187
 4288SOL    HW224501   2.281   0.101  17.328 -1.8894  0.6144  0.8097
 4289SOL     OW24502   4.151   3.728  16.998 -0.7145  0.4884  0.1727
 4289SOL    HW124503   4.235   3.728  17.044 -1.3002 -1.9335  1.2474
 4289SOL    HW224504   4.179   3.767  16.914  1.5809 -0.7700  0.3668
 4290SOL     OW24505   1.582   1.335  17.539  0.1344 -0.2753 -0.2566
 4290SOL    HW124506   1.518   1.264  17.539  0.3629 -0.4765  1.3833
 4290SOL    HW224507   1.619   1.325  17.451  2.0538 -2.5670  0.8103
 4291SOL     OW24508   1.675   1.109   2.206  0.0564 -0.1346  0.3953
 4291SOL    HW124509   1.676   1.094   2.301 -0.5203 -2.1292  0.0807
 4291SOL    HW224510   1.589   1.152   2.207  0.0915 -0.0550 -1.0318
 4292SOL     OW24511   0.125   1.278   7.830 -0.4044  0.3572 -0.3847
 4292SOL    HW124512   0.082   1.194   7.810  0.6581 -0.5813  1.2374
 4292SOL    HW224513   0.197   1.252   7.887 -0.7446 -0.9459 -0.5329
 4293SOL     OW24514   0.641   2.091   7.016  0.4176  0.2939 -0.6519
 4293SOL    HW124515   0.684   2.158   6.963 -0.1240 -0.3428 -1.8967
 4293SOL    HW224516   0.659   2.110   7.108  3.6686  0.5937 -1.3252
 4294SOL     OW24517   2.011   2.421   4.811  0.0585 -0.2432  0.1716
 4294SOL    HW124518   1.970   2.492   4.762  0.2712  0.0993  0.4844
 4294SOL    HW224519   2.091   2.399   4.763  0.3112  0.2330  0.3715
 4295SOL     OW24520   2.710   2.894   5.241 -0.8267  0.2908  0.1033
 4295SOL    HW124521   2.705   2.882   5.146 -1.3080  2.0497 -0.0792
 4295SOL    HW224522   2.691   2.984   5.267 -1.6410 -0.2222  1.3188
 4296SOL     OW24523   3.599   2.685  16.734  0.9734  0.2384  0.2749
 4296SOL    HW124524   3.510   2.703  16.704  1.2789 -0.1641 -0.8613
 4296SOL    HW224525   3.599   2.594  16.765  0.3926  0.0209 -0.3674
 4297SOL     OW24526   2.408   0.647   3.593 -0.3047 -0.0931 -0.0248
 4297SOL    HW124527   2.322   0.687   3.606 -0.2048  0.2107 -0.3174
 4297SOL    HW224528   2.419   0.673   3.502 -0.7267 -0.6262 -0.2265
 4298SOL     OW24529   2.601   1.749  17.147  0.1436 -0.2538  0.5938
 4298SOL    HW124530   2.530   1.685  17.140 -2.3779  2.5412  0.9594
 4298SOL    HW224531   2.623   1.739  17.240 -1.7100  0.8281  1.1306
 4299SOL     OW24532   0.370   4.595   5.163  0.0194 -0.1357  0.0655
 4299SOL    HW124533   0.390   4.658   5.233  1.0406 -1.2503  0.7610
 4299SOL    HW224534   0.452   4.566   5.124  2.0734  0.7840  3.7347
 4300SOL     OW24535   1.748   4.311   6.817  0.2966  0.9030 -0.2481
 4300SOL    HW124536   1.694   4.259   6.759 -1.1349  0.2713  1.6462
 4300SOL    HW224537   1.711   4.293   6.904 -0.4419 -3.0120 -1.3748
 4301SOL     OW24538   2.373   3.535   5.180  0.0308 -0.9501 -0.0339
 4301SOL    HW124539   2.282   3.563   5.167  0.8668  1.8869  0.2861
 4301SOL    HW224540   2.360   3.445   5.210 -1.0833 -0.6153  0.5097
 4302SOL     OW24541   3.935   1.970   5.521  0.3841  0.4568 -0.0714
 4302SOL    HW124542   3.918   1.931   5.606  2.7409 -0.9343 -0.2607
 4302SOL    HW224543   3.944   1.899   5.458  1.3595  0.6635 -0.1551
 4303SOL     OW24544   1.036   2.063   7.020 -0.1229  0.4617 -0.4900
 4303SOL    HW124545   1.127   2.037   7.035 -0.4883  0.0534  1.0704
 4303SOL    HW224546   1.009   1.972   7.033 -3.1304  1.6574  1.7168
 4304SOL     OW24547   2.237   3.812  17.698  1.3972  0.3515  0.2364
 4304SOL    HW124548   2.197   3.739  17.745  0.1993  0.1121 -1.1630
 4304SOL    HW224549   2.182   3.883  17.732  3.2261  1.9582 -0.1494
 4305SOL     OW24550   0.317   0.561   9.391  0.2347  0.3958 -0.5205
 4305SOL    HW124551   0.310   0.614   9.470  2.9783  0.3630 -0.2410
 4305SOL    HW224552   0.298   0.620   9.317 -0.4094  0.3189 -0.4126
 4306SOL     OW24553   0.112   4.315   3.531  0.4670  0.2699 -0.3742
 4306SOL    HW124554   0.084   4.365   3.454  0.7671 -0.0834 -0.7081
 4306SOL    HW224555   0.149   4.380   3.590 -1.1074  0.7010  0.1520
 4307SOL     OW24556   0.239   1.968  16.366  0.2904  0.5714 -0.2117
 4307SOL    HW124557   0.197   2.051  16.344 -0.6335  0.4662  1.1681
 4307SOL    HW224558   0.326   2.004  16.382  1.2820 -1.6240 -0.6717
 4308SOL     OW24559   0.213   3.265   8.047  0.1686 -0.2312 -0.8407
 4308SOL    HW124560   0.175   3.204   8.110 -0.3139  0.0537 -0.8564
 4308SOL    HW224561   0.142   3.284   7.985  0.4014  1.2236 -0.6644
 4309SOL     OW24562   1.818   1.228   3.136  0.3468 -0.1133  0.4326
 4309SOL    HW124563   1.850   1.319   3.133 -1.2762  0.4977  1.2940
 4309SOL    HW224564   1.898   1.181   3.113  0.2612  0.2089 -0.5372
 4310SOL     OW24565   0.390   3.000  14.265 -0.0969 -0.0570 -0.0375
 4310SOL    HW124566   0.429   2.983  14.179  0.4510 -0.6020  0.3225
 4310SOL    HW224567   0.303   3.033  14.242 -0.2608  0.7663  1.7800
 4311SOL     OW24568   4.680   3.545   7.237 -0.8141  0.3908  0.3945
 4311SOL    HW124569   0.021   3.600   7.231 -0.2274 -0.4296  0.5615
 4311SOL    HW224570   4.623   3.578   7.167 -0.1853  2.7307  0.9824
 4312SOL     OW24571   3.384   0.385   9.446  0.0573 -0.0526 -0.1288
 4312SOL    HW124572   3.447   0.456   9.458  0.1873 -0.1771 -0.0790
 4312SOL    HW224573   3.437   0.316   9.485 -0.0070  0.4372  0.8380
 4313SOL     OW24574   4.629   1.866   1.651  0.0063 -0.0572 -0.3882
 4313SOL    HW124575   4.722   1.880   1.668 -0.0464  1.2615 -1.1596
 4313SOL    HW224576   4.612   1.785   1.602 -0.4782  0.1182 -0.5133
 4314SOL     OW24577   3.398   3.334   8.743  0.3120  0.5814 -0.1036
 4314SOL    HW124578   3.419   3.317   8.651 -1.9099 -2.7540  0.0048
 4314SOL    HW224579   3.302   3.338   8.742  0.1744 -2.5750  0.0910
 4315SOL     OW24580   2.193   4.030   7.301 -0.8801  0.2264  0.1585
 4315SOL    HW124581   2.221   4.113   7.340  1.3922 -1.2213  1.6191
 4315SOL    HW224582   2.221   3.968   7.368 -3.3619  1.9390  2.7889
 4316SOL     OW24583   0.614   0.856   4.372 -0.1407  0.2968 -0.0896
 4316SOL    HW124584   0.541   0.841   4.433 -1.4201 -0.4470 -1.8201
 4316SOL    HW224585   0.660   0.932   4.408  1.9714 -0.2378 -1.6992
 4317SOL     OW24586   4.263   0.830   2.437  0.5423 -0.9279  0.5530
 4317SOL    HW124587   4.256   0.823   2.532 -1.2908  2.1924  0.6328
 4317SOL    HW224588   4.172   0.843   2.412  1.3807 -1.3843 -2.7964
 4318SOL     OW24589   3.823   0.122  17.321 -0.1779 -0.3770 -0.1370
 4318SOL    HW124590   3.768   0.117  17.244  1.9056  0.1437 -1.6592
 4318SOL    HW224591   3.772   0.165  17.390  3.1945  2.3968  0.6549
 4319SOL     OW24592   0.327   3.465  16.488  0.1353 -0.5429  0.0926
 4319SOL    HW124593   0.349   3.534  16.551 -1.6892 -0.3969  0.5406
 4319SOL    HW224594   0.241   3.493  16.459  0.1003 -2.2823 -1.4995
 4320SOL     OW24595   1.399   3.240  16.707 -0.2486  0.0456 -0.1911
 4320SOL    HW124596   1.464   3.219  16.639 -0.9236  0.8570 -1.0777
 4320SOL    HW224597   1.369   3.150  16.718  1.0244 -0.2760  0.7742
 4321SOL     OW24598   3.777   1.914   1.933 -0.5202  0.2348 -0.7157
 4321SOL    HW124599   3.840   1.984   1.918  1.6381 -1.5032  0.1920
 4321SOL    HW224600   3.787   1.868   1.850 -0.7023 -0.0509 -0.5807
 4322SOL     OW24601   1.504   3.932   6.979  0.0135  0.5161  0.5058
 4322SOL    HW124602   1.410   3.941   6.992 -0.1963  1.0742 -1.3626
 4322SOL    HW224603   1.519   3.865   6.912 -3.6713  1.1003 -0.8905
 4323SOL     OW24604   0.149   1.326   3.738 -0.3214 -0.0184  0.0885
 4323SOL    HW124605   0.204   1.311   3.814  0.9150  1.1557 -0.5763
 4323SOL    HW224606   0.073   1.360   3.785  0.8544  1.8723  0.5973
 4324SOL     OW24607   0.086   2.725   3.413  0.2244 -0.4469  0.0364
 4324SOL    HW124608   0.002   2.698   3.450 -1.5850 -0.1098 -3.7804
 4324SOL    HW224609   0.055   2.771   3.335  0.2367  2.0152  1.4867
 4325SOL     OW24610   2.463   3.298   5.903  0.0198  0.3201  0.2047
 4325SOL    HW124611   2.523   3.232   5.938 -1.1323 -1.0889 -0.5064
 4325SOL    HW224612   2.433   3.323   5.990 -1.3203  1.4100 -0.5828
 4326SOL     OW24613   1.421   3.613   2.496 -0.0385  0.3549 -0.4105
 4326SOL    HW124614   1.331   3.592   2.521  0.0335  0.1151 -0.3441
 4326SOL    HW224615   1.434   3.700   2.533  2.0507 -0.4331  0.7121
 4327SOL     OW24616   1.997   3.406   4.343 -0.0626  0.2230  0.9088
 4327SOL    HW124617   1.991   3.313   4.364  2.4842 -0.5006 -1.4768
 4327SOL    HW224618   2.083   3.392   4.302 -0.2910  1.5674 -0.0449
 4328SOL     OW24619   3.132   2.473   4.263  0.2272 -0.5606  0.1974
 4328SOL    HW124620   3.131   2.564   4.234 -1.7666 -0.3000  1.0688
 4328SOL    HW224621   3.083   2.445   4.186  0.4786  1.2401 -0.6151
 4329SOL     OW24622   0.890   1.139   1.528 -0.0317 -0.0328  0.0491
 4329SOL    HW124623   0.824   1.208   1.528 -0.4803 -0.4649  1.5768
 4329SOL    HW224624   0.941   1.163   1.450 -0.5667 -0.9420 -0.5851
 4330SOL     OW24625   4.242   0.596   4.532 -0.0792  0.0355 -0.0475
 4330SOL    HW124626   4.241   0.660   4.460 -0.8814 -0.5871 -0.5898
 4330SOL    HW224627   4.317   0.540   4.513  0.8276  0.5070  2.1364
 4331SOL     OW24628   3.168   2.360   7.698 -0.2450 -0.3048  0.1736
 4331SOL    HW124629   3.110   2.423   7.739  0.1622  0.8066 -0.9481
 4331SOL    HW224630   3.250   2.409   7.705 -0.0789 -0.6995  0.9382
 4332SOL     OW24631   4.587   1.488   8.015 -0.3949 -0.6648  0.2712
 4332SOL    HW124632   4.576   1.583   8.012 -0.8427 -0.6949  0.8324
 4332SOL    HW224633   4.621   1.463   7.929 -1.4184  2.0044 -0.8814
 4333SOL     OW24634   0.989   4.282   3.742 -0.1802 -0.2787  0.4626
 4333SOL    HW124635   0.952   4.361   3.781  1.0936  1.0255 -0.9523
 4333SOL    HW224636   0.917   4.242   3.693 -0.4822 -0.1014  0.7641
 4334SOL     OW24637   3.068   4.251   0.377 -0.0891  0.0531 -0.0078
 4334SOL    HW124638   3.032   4.307   0.308 -2.2202 -1.3647 -0.0605
 4334SOL    HW224639   3.161   4.249   0.354  0.6123  0.3919  2.8625
 4335SOL     OW24640   1.306   0.130  17.627  0.1260  0.6630 -0.4356
 4335SOL    HW124641   1.234   0.167  17.678 -0.3081 -1.9846  0.8697
 4335SOL    HW224642   1.296   0.176  17.543  0.1266  0.5674 -0.4883
 4336SOL     OW24643   3.318   4.449   2.808  0.0731  0.1651  0.6609
 4336SOL    HW124644   3.328   4.360   2.843 -0.9473  1.1655  3.4705
 4336SOL    HW224645   3.412   4.457   2.790 -0.2802  0.4475 -0.9890
 4337SOL     OW24646   3.859   1.089   7.088 -0.2818 -0.1886 -0.6614
 4337SOL    HW124647   3.919   1.139   7.033  0.6928  0.2450  0.8033
 4337SOL    HW224648   3.907   1.008   7.108  1.0614  0.4626 -1.2621
 4338SOL     OW24649   3.380   2.672   9.051  0.1550  0.2485  0.0507
 4338SOL    HW124650   3.378   2.674   9.146 -1.3039  2.4689 -0.0091
 4338SOL    HW224651   3.467   2.636   9.037 -0.1869 -0.4755 -0.2035
 4339SOL     OW24652   1.907   0.205   2.740  0.3021  0.3195  0.1270
 4339SOL    HW124653   1.873   0.180   2.826 -4.2159 -0.0350 -1.7767
 4339SOL    HW224654   1.945   0.121   2.714  0.7749  1.0188 -1.4682
 4340SOL     OW24655   2.394   1.241  14.590  0.0158  0.2477 -0.0522
 4340SOL    HW124656   2.449   1.166  14.610  1.1165  0.5188 -2.0317
 4340SOL    HW224657   2.432   1.306  14.650 -2.3819  0.2105  1.4851
 4341SOL     OW24658   2.346   1.321   3.845  0.0380  0.1577  0.8344
 4341SOL    HW124659   2.332   1.388   3.912  0.2087  0.8312  0.1949
 4341SOL    HW224660   2.406   1.255   3.881 -1.3733 -1.1595  0.7516
 4342SOL     OW24661   1.732   1.974   8.894  0.0603  0.0010  0.4243
 4342SOL    HW124662   1.641   1.951   8.909 -0.4663  1.6556 -0.1668
 4342SOL    HW224663   1.754   1.909   8.827  0.2932  0.6570 -0.1366
 4343SOL     OW24664   2.971   2.941   8.545  0.0066  0.3200 -0.3729
 4343SOL    HW124665   3.065   2.936   8.566 -0.2058  0.0582  0.5071
 4343SOL    HW224666   2.959   3.022   8.496 -1.2612  0.4357  0.1474
 4344SOL     OW24667   2.144   1.664   2.592 -0.4307 -0.7840  0.2311
 4344SOL    HW124668   2.212   1.732   2.591 -0.9113 -0.3176 -0.3022
 4344SOL    HW224669   2.082   1.685   2.523 -0.6136 -1.7828  0.0871
 4345SOL     OW24670   1.057   4.381  16.696 -0.5722 -0.6463 -0.7543
 4345SOL    HW124671   1.033   4.472  16.677  1.7277 -0.4298 -2.5378
 4345SOL    HW224672   1.092   4.363  16.609 -0.4037  0.2980 -0.8894
 4346SOL     OW24673   4.102   2.924   3.518 -0.3964 -0.0988  0.4669
 4346SOL    HW124674   4.032   2.921   3.583  1.0176 -0.7957  1.9592
 4346SOL    HW224675   4.073   3.004   3.474 -1.3823 -0.0179  1.2787
 4347SOL     OW24676   3.698   2.649   9.278  0.1208  0.2963 -0.1879
 4347SOL    HW124677   3.636   2.588   9.320  0.1780  0.8384  0.6751
 4347SOL    HW224678   3.762   2.671   9.346  2.3432  0.3392 -2.3092
 4348SOL     OW24679   1.954   0.156   2.145  0.1009 -0.2023  0.0611
 4348SOL    HW124680   1.942   0.251   2.147  0.0562 -0.2116  0.2105
 4348SOL    HW224681   2.041   0.144   2.183  0.0935  0.7218  0.3652
 4349SOL     OW24682   3.688   2.906  10.239 -0.4465  0.3696  0.0684
 4349SOL    HW124683   3.595   2.892  10.259 -0.5548  0.5489 -0.3220
 4349SOL    HW224684   3.685   2.971  10.169 -0.6939 -1.6324 -1.7978
 4350SOL     OW24685   3.757   3.274   1.117 -0.0460  0.2982 -0.0042
 4350SOL    HW124686   3.765   3.278   1.022  1.2468  0.9149  0.1288
 4350SOL    HW224687   3.719   3.188   1.132 -0.8130  0.5737 -0.3365
 4351SOL     OW24688   1.108   0.527   3.102 -0.0498 -0.1767  0.4268
 4351SOL    HW124689   1.168   0.485   3.164  1.8520  1.5165 -0.2378
 4351SOL    HW224690   1.027   0.479   3.117  0.2326 -1.6492 -2.9430
 4352SOL     OW24691   0.037   0.401  14.437 -0.2969 -0.2617 -0.3724
 4352SOL    HW124692   0.090   0.327  14.409  0.9242  0.7845 -0.8172
 4352SOL    HW224693   0.028   0.392  14.532 -0.0730  0.6707 -0.2647
 4353SOL     OW24694   4.134   1.966   2.486  0.1536 -0.2074  0.3675
 4353SOL    HW124695   4.211   1.966   2.429  0.5264 -2.0922  0.8557
 4353SOL    HW224696   4.155   1.890   2.541  1.8643  0.6769  0.9407
 4354SOL     OW24697   0.791   3.751  15.787 -0.7122 -0.4694  0.2777
 4354SOL    HW124698   0.877   3.785  15.810 -0.5504 -0.5463 -0.2197
 4354SOL    HW224699   0.795   3.727  15.694 -2.1130  2.3077 -0.5169
 4355SOL     OW24700   2.544   4.097   0.682 -0.7922 -0.3087 -0.4500
 4355SOL    HW124701   2.613   4.069   0.622  0.0918  0.9702 -0.0128
 4355SOL    HW224702   2.593   4.150   0.744  0.6510 -0.5232 -1.4150
 4356SOL     OW24703   3.997   0.726   2.348  0.2176 -0.4004 -0.2708
 4356SOL    HW124704   3.950   0.794   2.300  0.6536  0.1503  0.0823
 4356SOL    HW224705   3.948   0.706   2.427 -2.8974  0.6711 -1.9298
 4357SOL     OW24706   4.702   0.679  11.634  0.3858  0.5075  0.4330
 4357SOL    HW124707   0.036   0.630  11.675 -2.1750 -0.7356  3.3994
 4357SOL    HW224708   4.625   0.623  11.649 -0.2090  0.6510 -2.1156
 4358SOL     OW24709   1.570   4.702   4.882  0.8399 -0.0292 -0.1326
 4358SOL    HW124710   1.524   4.718   4.800 -0.0499 -0.1033  0.3473
 4358SOL    HW224711   1.571   0.048   4.930 -0.2523  0.1729 -0.4559
 4359SOL     OW24712   0.954   2.568  11.219 -0.7050 -0.0142 -0.6848
 4359SOL    HW124713   0.863   2.540  11.228 -0.9161  0.8606 -0.0509
 4359SOL    HW224714   0.955   2.540  11.127  0.6047  1.0985 -1.0210
 4360SOL     OW24715   3.756   1.275   5.565 -0.6199 -0.4200 -0.1529
 4360SOL    HW124716   3.842   1.283   5.523 -0.0751 -0.7539  0.8958
 4360SOL    HW224717   3.755   1.182   5.541 -1.0035  0.0066 -1.7806
 4361SOL     OW24718   3.909   4.323   3.944  0.7145  0.1812  0.0968
 4361SOL    HW124719   3.963   4.255   3.905  0.0680  0.2051 -0.8213
 4361SOL    HW224720   3.825   4.289   3.915  0.9829 -0.6827  0.3324
 4362SOL     OW24721   2.840   0.916   9.449 -0.4700 -0.2623 -0.1244
 4362SOL    HW124722   2.798   0.906   9.364 -1.5161  0.0001  0.3598
 4362SOL    HW224723   2.917   0.971   9.432  0.5091 -1.5290  0.1845
 4363SOL     OW24724   0.221   2.819   2.403 -0.8930  0.1830  0.2062
 4363SOL    HW124725   0.270   2.878   2.347 -1.1585  0.0420 -0.1754
 4363SOL    HW224726   0.197   2.744   2.348 -0.1160  1.9215 -2.4701
 4364SOL     OW24727   1.984   0.324   0.325 -0.3663  0.2044  0.1412
 4364SOL    HW124728   1.917   0.339   0.392 -0.4209  0.7392 -0.0382
 4364SOL    HW224729   2.053   0.280   0.374  0.6749  0.2999 -1.2452
 4365SOL     OW24730   4.390   2.316   6.407 -0.4168 -0.2617 -0.0447
 4365SOL    HW124731   4.415   2.402   6.442 -1.4362  1.0069 -2.4439
 4365SOL    HW224732   4.325   2.290   6.472 -2.2898  1.1972 -1.3296
 4366SOL     OW24733   1.438   1.115   0.073  0.0053  0.0957 -0.1909
 4366SOL    HW124734   1.384   1.107  17.740 -0.6998 -0.1087  0.3221
 4366SOL    HW224735   1.456   1.208   0.083  1.1406 -0.0726 -0.6487
 4367SOL     OW24736   0.708   4.675   3.894 -0.0453  0.5615  0.6714
 4367SOL    HW124737   0.662   4.614   3.952 -0.8177  2.8421  2.4261
 4367SOL    HW224738   0.633   4.691   3.838 -0.0485 -1.0503  0.2093
 4368SOL     OW24739   0.666   3.522   8.357 -0.2872  0.2253  0.2596
 4368SOL    HW124740   0.747   3.472   8.346  0.9228  1.8427  1.7460
 4368SOL    HW224741   0.616   3.492   8.281 -0.4066  0.4610  0.2431
 4369SOL     OW24742   2.266   4.509   2.612 -0.2973 -0.0002  0.3038
 4369SOL    HW124743   2.295   4.464   2.691 -1.4184 -2.0316 -0.4535
 4369SOL    HW224744   2.210   4.447   2.568 -1.6824  2.2980 -1.1720
 4370SOL     OW24745   4.728   2.959   4.554 -0.1166 -0.2836  0.0357
 4370SOL    HW124746   4.644   3.000   4.575  0.9583  1.9736 -0.0826
 4370SOL    HW224747   4.730   2.968   4.459 -0.7277  1.2212  0.1563
 4371SOL     OW24748   1.364   4.135   5.650 -0.9623 -0.4866  0.4345
 4371SOL    HW124749   1.287   4.192   5.658  0.7818  1.6455  1.7785
 4371SOL    HW224750   1.433   4.199   5.669 -0.9579  0.3008 -2.2422
 4372SOL     OW24751   3.953   0.182   4.088 -0.7265 -0.2038  0.2885
 4372SOL    HW124752   3.859   0.192   4.100 -0.9870 -0.7495 -1.2942
 4372SOL    HW224753   3.962   0.205   3.996 -0.5843 -1.7472 -0.0906
 4373SOL     OW24754   4.495   1.186  13.608 -0.2531  0.1054 -0.3229
 4373SOL    HW124755   4.501   1.267  13.558 -0.7992  1.0630  1.1588
 4373SOL    HW224756   4.531   1.125  13.545 -0.3598  0.2232 -0.4971
 4374SOL     OW24757   3.747   1.606   7.089 -0.2064 -0.5249  0.3451
 4374SOL    HW124758   3.662   1.584   7.051 -0.2997  0.1538  0.1476
 4374SOL    HW224759   3.723   1.696   7.111  3.1391  0.0305  1.6902
 4375SOL     OW24760   0.209   2.686   2.147  0.0820 -0.5353 -0.5768
 4375SOL    HW124761   0.258   2.622   2.199 -0.1774  1.7864  2.4475
 4375SOL    HW224762   0.287   2.718   2.101 -1.4445  0.7806 -2.2388
 4376SOL     OW24763   4.359   1.216  16.062 -0.1647 -0.0929  0.0836
 4376SOL    HW124764   4.404   1.300  16.061  0.8099 -0.6114 -0.0592
 4376SOL    HW224765   4.278   1.237  16.108 -0.0724  0.8068 -0.1598
 4377SOL     OW24766   1.733   4.301  17.593  0.0623  1.1065 -1.1159
 4377SOL    HW124767   1.651   4.260  17.565  0.4601  0.6518 -1.6091
 4377SOL    HW224768   1.695   4.373  17.643  1.7563  0.4642  1.0993
 4378SOL     OW24769   0.720   2.164   6.474 -0.4150  0.4652 -0.0967
 4378SOL    HW124770   0.696   2.079   6.510  0.0837  0.1065 -0.6166
 4378SOL    HW224771   0.804   2.168   6.520 -0.7137  0.5459  0.4425
 4379SOL     OW24772   1.225   1.851  12.433  0.2039  0.6318  0.4864
 4379SOL    HW124773   1.150   1.791  12.429  0.3212  0.5662 -0.6588
 4379SOL    HW224774   1.266   1.817  12.512  0.5782  0.2252  0.1160
 4380SOL     OW24775   0.117   4.687   4.091  0.4636 -0.5855  0.1178
 4380SOL    HW124776   0.174   4.650   4.158  0.8718  1.6921  0.9989
 4380SOL    HW224777   0.184   4.714   4.029  1.1523  0.8106  1.4803
 4381SOL     OW24778   3.442   2.672  17.063 -0.0581 -0.8016 -0.0419
 4381SOL    HW124779   3.369   2.683  17.003 -1.0603 -0.5587  1.2128
 4381SOL    HW224780   3.492   2.747  17.030  0.6063  0.0530  2.8509
 4382SOL     OW24781   4.507   3.442   7.681  0.0912 -0.0795  0.1313
 4382SOL    HW124782   4.510   3.413   7.772 -1.1077  0.8645  0.4756
 4382SOL    HW224783   4.484   3.533   7.702 -1.8164 -0.2829 -1.0434
 4383SOL     OW24784   0.625   1.301   8.381  0.6399 -0.0518  0.3242
 4383SOL    HW124785   0.565   1.354   8.434 -0.9283 -2.0520  0.5075
 4383SOL    HW224786   0.701   1.360   8.380  2.2405 -2.1373  0.8337
 4384SOL     OW24787   1.184   2.981   9.132 -0.1034  0.2196  0.0717
 4384SOL    HW124788   1.200   2.907   9.190 -0.9257 -1.4301 -1.7919
 4384SOL    HW224789   1.231   3.055   9.171  2.5429 -2.2812  1.7157
 4385SOL     OW24790   1.496   0.935   4.645 -0.4555 -0.2671 -0.6469
 4385SOL    HW124791   1.524   0.976   4.727 -1.9405  0.2648 -0.4108
 4385SOL    HW224792   1.416   0.985   4.627  1.3750  2.4019 -1.4038
 4386SOL     OW24793   1.361   0.501  14.232  0.1686  0.2970  0.5595
 4386SOL    HW124794   1.306   0.501  14.311  2.3191  1.3575  2.0733
 4386SOL    HW224795   1.315   0.570  14.185 -2.0598 -1.7072 -0.2184
 4387SOL     OW24796   4.353   2.017   6.194 -0.2860  0.4949 -0.6332
 4387SOL    HW124797   4.393   1.934   6.168  2.0265  0.7994  1.9983
 4387SOL    HW224798   4.259   2.000   6.192 -0.0042 -1.1325 -0.0585
 4388SOL     OW24799   1.425   0.591   2.740  0.9384  0.1737  0.3115
 4388SOL    HW124800   1.391   0.638   2.664 -0.4509 -0.6260  0.4377
 4388SOL    HW224801   1.384   0.643   2.809 -0.9324 -0.0189 -0.6618
 4389SOL     OW24802   3.770   3.465   7.575 -0.5996  0.3872 -0.0542
 4389SOL    HW124803   3.790   3.494   7.486  1.1437  1.8056  0.8047
 4389SOL    HW224804   3.860   3.449   7.605 -1.1327 -0.6385  1.0060
 4390SOL     OW24805   3.203   3.752  10.497  0.7809 -0.4548  0.0869
 4390SOL    HW124806   3.172   3.661  10.492 -0.7318  0.1212 -1.1175
 4390SOL    HW224807   3.273   3.742  10.432  0.0933 -0.8438 -0.6037
 4391SOL     OW24808   3.064   1.830   6.319 -1.3398 -0.4058  0.3714
 4391SOL    HW124809   3.109   1.854   6.239 -2.1364  0.5626  0.2075
 4391SOL    HW224810   3.066   1.907   6.377  0.2342 -2.1315  2.5971
 4392SOL     OW24811   0.934   3.107   8.477 -0.4333 -0.7849  0.0769
 4392SOL    HW124812   1.026   3.095   8.457  0.1408  1.5810  1.3177
 4392SOL    HW224813   0.914   3.018   8.508 -3.7318 -0.2243 -0.3836
 4393SOL     OW24814   2.281   1.639   0.695 -0.3962  0.6294  0.1199
 4393SOL    HW124815   2.293   1.731   0.673 -1.7954  0.6369 -0.5473
 4393SOL    HW224816   2.225   1.646   0.773  0.8750 -0.2740  1.1238
 4394SOL     OW24817   2.187   1.210   5.879  0.4554  0.0046 -0.1376
 4394SOL    HW124818   2.105   1.166   5.858  1.9406 -1.0523 -3.9222
 4394SOL    HW224819   2.237   1.137   5.917  0.1641 -1.5084 -2.6496
 4395SOL     OW24820   1.494   1.347   2.958  0.0265  0.7866 -0.5052
 4395SOL    HW124821   1.566   1.409   2.962 -0.4939  1.3463  0.4066
 4395SOL    HW224822   1.493   1.326   2.865 -1.2994  2.9780 -0.9741
 4396SOL     OW24823   1.960   2.755   2.147  0.3478 -0.1475 -0.6208
 4396SOL    HW124824   1.917   2.692   2.090  0.5148 -1.7010  0.9671
 4396SOL    HW224825   1.949   2.723   2.237  1.6503 -2.3496 -1.2363
 4397SOL     OW24826   3.048   2.356   7.455 -0.5374  0.7878 -0.5122
 4397SOL    HW124827   3.051   2.265   7.425  0.5704  0.9521 -0.9189
 4397SOL    HW224828   3.083   2.351   7.544 -0.5976  0.2502 -0.5211
 4398SOL     OW24829   4.448   3.917  14.091 -0.3139 -0.3874  0.1134
 4398SOL    HW124830   4.441   3.828  14.058  1.9836 -0.9282  1.0828
 4398SOL    HW224831   4.378   3.966  14.048 -0.1696 -0.8798 -0.6669
 4399SOL     OW24832   1.444   4.404   4.051  0.5507 -0.4101  0.0692
 4399SOL    HW124833   1.362   4.418   4.003  0.4637  0.2167  0.4091
 4399SOL    HW224834   1.498   4.477   4.021  0.3203 -0.7037 -1.0744
 4400SOL     OW24835   1.928   0.931   4.149 -0.1464  0.2133  0.4217
 4400SOL    HW124836   1.988   0.856   4.149 -0.1240  0.2345 -0.6041
 4400SOL    HW224837   1.976   1.006   4.116 -0.5120  0.6161  0.8085
 4401SOL     OW24838   3.472   1.341  15.512  0.0974 -0.0441 -0.2341
 4401SOL    HW124839   3.542   1.405  15.520  1.6374 -1.7593  0.1542
 4401SOL    HW224840   3.487   1.310  15.423 -0.9976 -0.2216 -0.3543
 4402SOL     OW24841   4.345   2.578   3.071 -0.1319  0.1029  0.4426
 4402SOL    HW124842   4.288   2.515   3.115 -0.3617 -0.2079 -0.3087
 4402SOL    HW224843   4.325   2.563   2.979  1.6933  2.5909 -0.3625
 4403SOL     OW24844   2.234   4.415   4.562  0.0961 -0.2983  0.3200
 4403SOL    HW124845   2.154   4.376   4.528  0.1454  0.6139 -0.8378
 4403SOL    HW224846   2.296   4.358   4.516  1.0113  1.5427 -0.7206
 4404SOL     OW24847   3.430   3.678  11.901  0.0832 -0.1158 -0.1827
 4404SOL    HW124848   3.510   3.634  11.873 -0.8211 -0.8883 -1.5809
 4404SOL    HW224849   3.453   3.697  11.992  1.8017  0.8612 -0.8235
 4405SOL     OW24850   0.033   1.507   3.233 -0.6129  0.4494  0.5406
 4405SOL    HW124851   0.059   1.417   3.211  1.5433  0.8152  1.5874
 4405SOL    HW224852   0.046   1.547   3.147 -0.4500  1.5565  1.0830
 4406SOL     OW24853   0.920   2.083   9.286 -0.0207 -0.6550  0.2020
 4406SOL    HW124854   0.825   2.072   9.281 -0.2505  3.1550 -4.3323
 4406SOL    HW224855   0.934   2.131   9.204 -1.0800 -0.0261  0.3834
 4407SOL     OW24856   0.472   1.850   1.642 -0.1097  0.1141  0.4005
 4407SOL    HW124857   0.440   1.833   1.553  1.0014 -0.0004  0.0288
 4407SOL    HW224858   0.566   1.848   1.629 -0.0267  0.1136  0.9962
 4408SOL     OW24859   0.862   0.066   7.456  0.3762 -0.3508  0.2541
 4408SOL    HW124860   0.812   0.116   7.392  1.3325  0.7889  0.3889
 4408SOL    HW224861   0.861   4.715   7.419 -3.1118  0.0800 -0.6601
 4409SOL     OW24862   2.699   3.555  13.480  0.2652  0.5704 -0.3988
 4409SOL    HW124863   2.666   3.643  13.463 -1.0915  0.5256  2.0736
 4409SOL    HW224864   2.630   3.510  13.431 -0.5233 -0.9162  2.1099
 4410SOL     OW24865   3.508   3.845   2.079  0.0289  0.1623  0.2248
 4410SOL    HW124866   3.559   3.922   2.053 -2.6445  2.0302  0.5198
 4410SOL    HW224867   3.425   3.847   2.032 -0.9229 -3.3387  1.7418
 4411SOL     OW24868   0.452   2.921  15.638  0.0712  0.0921 -0.1302
 4411SOL    HW124869   0.534   2.964  15.661 -0.5992  0.8619  0.8295
 4411SOL    HW224870   0.427   2.899  15.728  3.1211 -0.5591  0.5537
 4412SOL     OW24871   4.722   0.085  12.325 -0.0019  0.2721 -0.3343
 4412SOL    HW124872   4.724   0.123  12.237  0.6614 -3.1846 -1.8156
 4412SOL    HW224873   0.039   0.008  12.308 -1.9618 -1.2436  0.3695
 4413SOL     OW24874   0.874   3.761   3.324 -0.4321  0.0449 -0.8276
 4413SOL    HW124875   0.823   3.683   3.346 -1.4860  0.8444 -0.4392
 4413SOL    HW224876   0.950   3.739   3.378  0.2548 -0.1252 -1.8524
 4414SOL     OW24877   1.567   0.031   0.319  0.6912 -0.3545 -0.5831
 4414SOL    HW124878   1.646   4.721   0.346  1.7069  1.4899 -0.3106
 4414SOL    HW224879   1.557   0.096   0.389  1.7632 -1.9085  1.0128
 4415SOL     OW24880   0.938   3.970   1.756  0.2382 -0.0121 -0.0934
 4415SOL    HW124881   0.930   3.986   1.850 -2.2853 -1.7515  0.0047
 4415SOL    HW224882   0.929   4.057   1.717  0.4686 -0.7659 -1.8373
 4416SOL     OW24883   1.768   3.384   6.078  0.0644  0.1446  0.1132
 4416SOL    HW124884   1.843   3.359   6.023  0.4239 -0.6861  0.9994
 4416SOL    HW224885   1.710   3.309   6.070 -1.1319  1.2195 -1.3043
 4417SOL     OW24886   2.369   1.416   9.456  0.5582  0.4137 -0.4454
 4417SOL    HW124887   2.285   1.445   9.490  0.0832 -0.3257 -0.9954
 4417SOL    HW224888   2.412   1.401   9.540 -0.4197  0.9504  0.1505
 4418SOL     OW24889   1.818   4.371   7.265  0.8106 -0.2612  0.1518
 4418SOL    HW124890   1.770   4.451   7.244  0.3376 -0.3679  0.8135
 4418SOL    HW224891   1.755   4.307   7.233  0.6115 -0.2313  0.4815
 4419SOL     OW24892   2.995   1.798   3.162  0.4307  0.1841 -0.1663
 4419SOL    HW124893   2.987   1.837   3.075 -0.2350 -2.5927 -1.3572
 4419SOL    HW224894   3.065   1.850   3.200  0.5937 -1.2669  1.5198
 4420SOL     OW24895   3.558   3.365   8.989  0.8574 -0.3435 -0.1781
 4420SOL    HW124896   3.491   3.360   8.921  1.6996 -1.4180 -0.9237
 4420SOL    HW224897   3.609   3.444   8.968  3.6264 -2.1440 -0.2717
 4421SOL     OW24898   3.813   3.853   3.806 -0.3488  0.2301 -0.3115
 4421SOL    HW124899   3.759   3.786   3.764 -0.7866  1.4787 -1.7496
 4421SOL    HW224900   3.886   3.865   3.746  1.0608 -1.4430  1.0958
 4422SOL     OW24901   2.743   4.012  16.821 -0.3394  0.3417  0.2171
 4422SOL    HW124902   2.761   4.093  16.774  0.5841 -0.4728 -0.8445
 4422SOL    HW224903   2.761   3.941  16.760  0.6122  0.4379  0.3755
 4423SOL     OW24904   4.715   4.709   3.195 -0.0137  0.0240  0.1856
 4423SOL    HW124905   0.034   4.715   3.272 -0.8013 -0.2206  0.7799
 4423SOL    HW224906   4.627   4.692   3.229 -0.4679  1.1380 -0.4313
 4424SOL     OW24907   3.721   3.058  10.026 -0.7828  0.5496 -0.3601
 4424SOL    HW124908   3.794   3.094   9.976  0.2413  0.3450  0.9741
 4424SOL    HW224909   3.706   2.977   9.977  0.5786  0.3596 -0.4790
 4425SOL     OW24910   1.473   2.877   6.656  0.0400  0.2016  0.0443
 4425SOL    HW124911   1.457   2.966   6.625  0.0041 -0.5029 -1.9275
 4425SOL    HW224912   1.544   2.900   6.716 -0.5738  1.2729  0.3508
 4426SOL     OW24913   3.838   0.562   1.664  0.0594 -0.1065  0.3534
 4426SOL    HW124914   3.903   0.512   1.713  1.0217  1.2282  0.4422
 4426SOL    HW224915   3.858   0.534   1.575 -0.3499 -1.4430  0.6871
 4427SOL     OW24916   1.712   1.934  16.817 -0.2595  0.5006  0.0792
 4427SOL    HW124917   1.720   1.989  16.739 -3.4363  0.2836 -0.4271
 4427SOL    HW224918   1.706   2.001  16.886  2.7568  0.3941  0.4524
 4428SOL     OW24919   2.751   3.338   3.725 -0.2017  0.4714  0.3383
 4428SOL    HW124920   2.804   3.361   3.649  1.5306  0.7175  1.6401
 4428SOL    HW224921   2.697   3.264   3.696 -0.7506  1.0482 -0.1223
 4429SOL     OW24922   0.533   0.726   6.973  0.5658  0.3698  0.6229
 4429SOL    HW124923   0.467   0.658   6.961 -0.0662  0.9419  0.8751
 4429SOL    HW224924   0.499   0.771   7.051  1.6660  1.5131  0.4457
 4430SOL     OW24925   0.792   0.678   5.744 -0.6285 -0.3516  0.1451
 4430SOL    HW124926   0.879   0.649   5.717 -0.7434 -1.3832  0.9075
 4430SOL    HW224927   0.812   0.758   5.793  1.1691 -0.2257 -0.8013
 4431SOL     OW24928   1.378   0.550  16.786 -0.3221 -0.1540 -0.5440
 4431SOL    HW124929   1.401   0.628  16.837  0.0137 -0.1183 -0.7472
 4431SOL    HW224930   1.326   0.518  16.859 -2.0973 -0.3617 -1.9161
 4432SOL     OW24931   1.353   1.004   5.993 -0.3089 -0.3906 -0.1411
 4432SOL    HW124932   1.439   0.989   6.034 -1.3298 -1.9972  1.4192
 4432SOL    HW224933   1.311   0.935   6.045 -0.4109 -2.2567 -2.7394
 4433SOL     OW24934   2.340   2.716  17.371 -0.1444 -0.1946 -0.4111
 4433SOL    HW124935   2.402   2.645  17.389  1.0550  1.7137  3.0275
 4433SOL    HW224936   2.351   2.725  17.277 -3.3715  0.8686 -0.6954
 4434SOL     OW24937   2.905   2.881   4.539 -0.2233 -0.9670  0.3407
 4434SOL    HW124938   2.998   2.904   4.541 -0.5002 -0.0268  2.5182
 4434SOL    HW224939   2.884   2.918   4.453  0.9497  0.9647  0.8997
 4435SOL     OW24940   2.189   2.826   9.242  0.1805  0.1773 -0.0251
 4435SOL    HW124941   2.239   2.872   9.174 -1.0849  0.5745 -0.6957
 4435SOL    HW224942   2.170   2.746   9.193  0.4543  0.3662 -0.4448
 4436SOL     OW24943   1.748   2.518   6.237  0.5249  0.0840 -0.1253
 4436SOL    HW124944   1.823   2.465   6.265  0.9474  0.0366 -1.3500
 4436SOL    HW224945   1.686   2.488   6.304  0.0304 -0.9815 -1.0562
 4437SOL     OW24946   3.897   1.811   4.753  0.1396 -0.4785  0.0629
 4437SOL    HW124947   3.972   1.861   4.721  0.4089 -0.0076  1.4213
 4437SOL    HW224948   3.917   1.723   4.722  2.3042 -0.4825  1.4922
 4438SOL     OW24949   1.327   0.714   2.509  0.4607 -0.2804  0.3678
 4438SOL    HW124950   1.242   0.699   2.467  0.2218 -2.2286  1.5784
 4438SOL    HW224951   1.366   0.779   2.450 -1.4017  1.9116  1.5267
 4439SOL     OW24952   3.877   0.771   5.362 -0.2514  0.1958  0.6193
 4439SOL    HW124953   3.962   0.757   5.319  0.7600  0.3242  2.5924
 4439SOL    HW224954   3.830   0.693   5.333 -0.3563  0.3741  0.3065
 4440SOL     OW24955   4.089   3.939   3.027 -0.0828 -0.1669 -0.0080
 4440SOL    HW124956   4.143   4.015   3.008  0.9695 -1.0468 -0.5321
 4440SOL    HW224957   4.145   3.875   2.984 -1.5117 -2.7550  1.9506
 4441SOL     OW24958   0.842   0.296   6.153  0.4504  0.0870  0.1872
 4441SOL    HW124959   0.876   0.210   6.131  1.6735  0.9591 -1.2644
 4441SOL    HW224960   0.897   0.344   6.092  1.3091 -1.0220  0.1013
 4442SOL     OW24961   3.460   2.939  13.547  0.3185  0.1530 -0.1733
 4442SOL    HW124962   3.529   2.916  13.485  1.2803  3.3412 -0.2967
 4442SOL    HW224963   3.499   2.996  13.613  0.8677  0.9271 -1.1737
 4443SOL     OW24964   2.845   2.554  13.715 -0.7863  0.6030 -0.3003
 4443SOL    HW124965   2.784   2.607  13.766 -0.1854 -0.4654  1.5167
 4443SOL    HW224966   2.934   2.571  13.745 -0.6410 -1.3828  0.3377
 4444SOL     OW24967   0.080   3.839   2.283 -0.2648 -0.5083 -0.3350
 4444SOL    HW124968   0.015   3.770   2.271  0.3495 -1.0476 -0.5361
 4444SOL    HW224969   0.161   3.813   2.240  0.1932  1.0424 -0.4100
 4445SOL     OW24970   2.393   2.121   5.899  0.0810  0.2394  0.3430
 4445SOL    HW124971   2.407   2.215   5.893 -0.9745  0.4073  0.5844
 4445SOL    HW224972   2.487   2.104   5.895 -0.1707 -1.6780  2.7361
 4446SOL     OW24973   0.439   3.139  10.067 -0.1770 -0.2414  0.9201
 4446SOL    HW124974   0.484   3.056  10.087 -1.8575 -1.5933 -0.8726
 4446SOL    HW224975   0.460   3.195  10.141 -0.5848 -0.8258  1.4772
 4447SOL     OW24976   0.446   0.671  11.628 -0.3238  0.1565 -0.2549
 4447SOL    HW124977   0.531   0.681  11.671 -0.4945  0.4801  0.0031
 4447SOL    HW224978   0.454   0.698  11.537 -0.9074  2.4231  0.3910
 4448SOL     OW24979   2.779   2.378   9.001 -0.1874  0.0954  0.4622
 4448SOL    HW124980   2.873   2.367   8.992 -0.1528  0.6099  0.1877
 4448SOL    HW224981   2.766   2.299   9.053  1.9300  1.1938  2.6519
 4449SOL     OW24982   3.448   2.360   6.068 -0.5447  0.0482  0.3950
 4449SOL    HW124983   3.401   2.391   5.991 -1.1030  0.4108  0.8803
 4449SOL    HW224984   3.531   2.404   6.052  0.5167 -1.3180  2.1735
 4450SOL     OW24985   2.512   2.934  11.023 -0.3351  0.8473  0.7325
 4450SOL    HW124986   2.592   2.911  10.977  0.1234 -0.5369  2.1913
 4450SOL    HW224987   2.470   2.848  11.031 -0.0694  0.3956 -2.7093
 4451SOL     OW24988   2.435   3.172   4.066 -0.2206  0.3553  0.1480
 4451SOL    HW124989   2.509   3.114   4.046  0.1255  1.1254 -0.8067
 4451SOL    HW224990   2.370   3.114   4.107 -1.3753  1.0308 -0.7008
 4452SOL     OW24991   4.043   0.424   2.765 -0.2507 -0.1385 -0.2091
 4452SOL    HW124992   3.981   0.462   2.827  0.7268  0.2695  0.5221
 4452SOL    HW224993   4.013   0.333   2.760 -0.9666  0.2380 -2.6870
 4453SOL     OW24994   4.567   1.919   1.938 -0.0406  0.2473  0.0173
 4453SOL    HW124995   4.505   1.991   1.950 -2.0637 -1.3012 -1.3819
 4453SOL    HW224996   4.509   1.847   1.914 -1.9789  2.0473 -0.7335
 4454SOL     OW24997   1.244   1.570  17.277  0.1020 -0.3743 -0.1209
 4454SOL    HW124998   1.327   1.577  17.324  0.1441 -0.6734 -0.1509
 4454SOL    HW224999   1.196   1.635  17.328  1.6251  1.4711 -1.0586
 4455SOL     OW25000   1.058   0.456   8.058 -0.2955 -0.0794  0.4059
 4455SOL    HW125001   1.106   0.442   7.976 -1.9938 -0.9393 -0.4202
 4455SOL    HW225002   1.124   0.435   8.124  0.0949 -2.1176 -0.6293
 4456SOL     OW25003   1.266   4.079   2.236 -0.1209 -0.2774  0.6113
 4456SOL    HW125004   1.318   4.020   2.181  0.0397 -0.2314  0.7109
 4456SOL    HW225005   1.330   4.129   2.287  1.2612 -2.8636  1.4132
 4457SOL     OW25006   4.543   1.255   3.627 -0.0093 -0.2729 -0.0952
 4457SOL    HW125007   4.604   1.229   3.696 -1.0835  1.6370  1.5666
 4457SOL    HW225008   4.574   1.342   3.602  0.6872 -0.2742  0.7774
 4458SOL     OW25009   2.531   2.936  14.425 -0.1629  0.2560 -0.3102
 4458SOL    HW125010   2.607   2.959  14.478  0.0752  0.5408 -0.7709
 4458SOL    HW225011   2.527   2.842  14.440 -1.4171  0.5233  0.9677
 4459SOL     OW25012   0.436   2.461   3.153 -0.2252  0.1243  0.2405
 4459SOL    HW125013   0.381   2.512   3.093  0.0803  0.4242  0.2228
 4459SOL    HW225014   0.386   2.461   3.235  1.7285 -3.2938  1.4381
 4460SOL     OW25015   4.545   2.342   2.698  0.0133 -0.3899  0.2014
 4460SOL    HW125016   4.566   2.264   2.645  1.6469  0.3740 -0.2747
 4460SOL    HW225017   4.573   2.322   2.787 -0.0344 -0.5009  0.1926
 4461SOL     OW25018   1.325   3.978   7.983 -0.4263 -0.1675  0.1796
 4461SOL    HW125019   1.239   4.019   7.992 -0.9968 -0.9955 -1.6665
 4461SOL    HW225020   1.315   3.935   7.898 -1.3563 -0.4665  0.4449
 4462SOL     OW25021   2.329   3.966  15.593  0.3176 -0.3898 -0.5817
 4462SOL    HW125022   2.366   4.002  15.674 -0.6209  0.2891 -0.4628
 4462SOL    HW225023   2.292   3.883  15.624 -1.7168 -0.0591 -2.1660
 4463SOL     OW25024   3.497   0.722   7.070 -0.5157  0.3608 -0.2063
 4463SOL    HW125025   3.476   0.770   7.150 -0.2196 -1.5691  1.0183
 4463SOL    HW225026   3.478   0.631   7.093 -1.2981  0.4436 -0.5004
 4464SOL     OW25027   4.670   1.077   6.581  0.3230 -0.2764 -0.2785
 4464SOL    HW125028   4.676   1.167   6.613  0.5673 -1.0997  1.9932
 4464SOL    HW225029   0.027   1.058   6.573  0.9992  2.4268  1.0696
 4465SOL     OW25030   3.663   4.128   1.653  0.5171  0.0153  0.2155
 4465SOL    HW125031   3.574   4.110   1.680  0.8288  0.6357  1.6418
 4465SOL    HW225032   3.712   4.057   1.694  1.3160  0.3248 -0.1941
 4466SOL     OW25033   0.091   2.226   5.534 -0.4025  0.0079 -0.2928
 4466SOL    HW125034   0.068   2.212   5.442 -0.6369  0.7552 -0.3444
 4466SOL    HW225035   0.074   2.320   5.539 -1.3431 -0.1714 -0.1500
 4467SOL     OW25036   2.955   4.397   1.225  0.2441  0.2810 -0.2502
 4467SOL    HW125037   3.049   4.386   1.241  0.5863  2.8579 -0.5098
 4467SOL    HW225038   2.941   4.337   1.152 -0.4603 -0.2542  0.3231
 4468SOL     OW25039   2.198   0.802   2.002  0.0858  0.5320 -0.0032
 4468SOL    HW125040   2.191   0.889   2.041 -2.0175  0.4833 -0.2804
 4468SOL    HW225041   2.224   0.743   2.072  1.3839  1.2215  0.0946
 4469SOL     OW25042   1.245   2.705   5.912 -0.0009 -0.3085 -0.8308
 4469SOL    HW125043   1.228   2.624   5.864 -0.5588 -0.1797 -0.8535
 4469SOL    HW225044   1.324   2.679   5.959 -0.8004  0.4001  0.8983
 4470SOL     OW25045   2.418   1.131  14.085  0.4790 -0.2717  0.0544
 4470SOL    HW125046   2.424   1.112  14.179  1.4088 -0.9276 -0.1361
 4470SOL    HW225047   2.407   1.041  14.055  1.1409  0.4577 -2.3508
 4471SOL     OW25048   3.672   3.007  14.610  0.1156 -0.1754 -0.2753
 4471SOL    HW125049   3.632   3.069  14.672 -1.1195 -1.1605 -0.0879
 4471SOL    HW225050   3.601   2.945  14.595  1.2886 -1.5060 -0.2698
 4472SOL     OW25051   4.391   2.353   7.877 -0.9274  0.2170  0.2023
 4472SOL    HW125052   4.476   2.388   7.901 -1.2167  0.0892  1.3839
 4472SOL    HW225053   4.356   2.438   7.851 -1.5240 -0.1934 -0.3528
 4473SOL     OW25054   0.896   2.077  16.905 -0.0972  0.0698 -0.2838
 4473SOL    HW125055   0.863   1.987  16.902 -0.6699  0.2757 -0.1183
 4473SOL    HW225056   0.982   2.070  16.864  0.4090 -0.2210  0.8346
 4474SOL     OW25057   1.388   1.897  10.979  0.2567 -0.1614 -0.7701
 4474SOL    HW125058   1.348   1.873  11.063 -0.8077 -1.9756 -1.7877
 4474SOL    HW225059   1.388   1.993  10.984 -1.3632 -0.2725  1.4988
 4475SOL     OW25060   2.545   2.092  15.740 -0.3316  0.2282  0.3266
 4475SOL    HW125061   2.625   2.042  15.721  1.1199  2.0527  1.7013
 4475SOL    HW225062   2.482   2.020  15.744 -0.0987  0.0304  0.4365
 4476SOL     OW25063   1.885   1.736   2.732  0.0263 -0.2938 -0.2343
 4476SOL    HW125064   1.898   1.828   2.708  0.7741 -0.2508  0.3430
 4476SOL    HW225065   1.918   1.694   2.652 -1.5280  2.5130 -2.3506
 4477SOL     OW25066   0.193   3.394   9.817 -0.1022 -0.1621 -0.7023
 4477SOL    HW125067   0.182   3.489   9.826  0.4489 -0.0590 -1.1066
 4477SOL    HW225068   0.287   3.395   9.800  0.2250  1.3835  1.1227
 4478SOL     OW25069   3.109   2.457   5.633  0.0273  0.3521  0.1160
 4478SOL    HW125070   3.061   2.480   5.713  1.0109 -2.4619  1.5144
 4478SOL    HW225071   3.167   2.528   5.606  3.0207 -1.5759  1.4232
 4479SOL     OW25072   3.671   2.920   6.870 -0.2155  0.2909  0.0798
 4479SOL    HW125073   3.766   2.915   6.854 -0.0761 -0.4518  1.1074
 4479SOL    HW225074   3.648   2.993   6.813  0.2387 -1.5041 -2.4100
 4480SOL     OW25075   1.385   1.131   4.486 -0.4939 -0.6404  0.4571
 4480SOL    HW125076   1.438   1.198   4.529 -0.4450 -0.6661  0.4364
 4480SOL    HW225077   1.372   1.166   4.398 -1.5702  1.4707  1.4529
 4481SOL     OW25078   1.322   3.635  17.590 -0.1899 -0.6289  0.6413
 4481SOL    HW125079   1.328   3.692  17.514 -0.3456 -0.6749  0.5944
 4481SOL    HW225080   1.359   3.551  17.563 -0.6293 -0.7475  0.4120
 4482SOL     OW25081   1.704   0.698   4.267  0.1481 -0.2741  0.8125
 4482SOL    HW125082   1.638   0.758   4.301  1.3154  1.9904 -0.8741
 4482SOL    HW225083   1.681   0.689   4.175  1.7783  1.2383  0.2456
 4483SOL     OW25084   4.240   3.741   2.915 -0.1631 -0.1435 -0.4357
 4483SOL    HW125085   4.213   3.664   2.965 -1.5381  0.7288  0.1665
 4483SOL    HW225086   4.245   3.701   2.828  1.2796 -0.1375 -0.3467
 4484SOL     OW25087   2.436   2.262   4.179 -0.2235 -0.2509 -0.4115
 4484SOL    HW125088   2.433   2.195   4.247 -0.2318 -1.2696 -1.4236
 4484SOL    HW225089   2.354   2.246   4.132 -0.3538 -1.5123  0.2438
 4485SOL     OW25090   0.818   0.217   5.223 -0.1368 -0.1854 -0.6475
 4485SOL    HW125091   0.766   0.211   5.303 -0.4574  0.0397 -0.8429
 4485SOL    HW225092   0.904   0.239   5.260 -1.1833 -0.2532  1.8448
 4486SOL     OW25093   0.983   4.141  14.265 -0.0887 -0.0466 -0.2443
 4486SOL    HW125094   0.985   4.237  14.264 -1.4002 -0.0170  0.7086
 4486SOL    HW225095   1.042   4.133  14.340  0.0737  1.4917 -0.2109
 4487SOL     OW25096   0.266   1.230   4.903 -0.7004 -0.2657  0.0834
 4487SOL    HW125097   0.261   1.303   4.841 -0.0123  1.3828  1.9482
 4487SOL    HW225098   0.199   1.264   4.962 -0.9499 -1.2943  0.3908
 4488SOL     OW25099   3.218   2.272  11.363  0.1301  0.4142 -0.3631
 4488SOL    HW125100   3.213   2.185  11.401 -0.6852  0.0614 -1.2797
 4488SOL    HW225101   3.309   2.263  11.332  1.0329  2.1783  1.7761
 4489SOL     OW25102   2.792   0.581   2.428 -0.0019 -0.0957  0.5061
 4489SOL    HW125103   2.866   0.632   2.460 -0.1403  0.0894  0.5296
 4489SOL    HW225104   2.732   0.582   2.502  0.9048 -2.0189  1.2759
 4490SOL     OW25105   1.425   2.420   9.348 -0.3595  0.2422 -0.0764
 4490SOL    HW125106   1.518   2.403   9.361 -0.4512 -0.6824 -0.6107
 4490SOL    HW225107   1.386   2.343   9.390  0.1200  0.2050  0.2968
 4491SOL     OW25108   3.023   1.825   9.448 -0.1024 -0.2406  0.3476
 4491SOL    HW125109   2.994   1.868   9.368 -2.0082 -0.4049  0.9566
 4491SOL    HW225110   3.117   1.838   9.435  0.2220 -1.6354  1.3076
 4492SOL     OW25111   3.585   1.932   9.149 -0.0322 -0.1983 -0.4265
 4492SOL    HW125112   3.658   1.985   9.181 -1.5613  2.9899 -2.1204
 4492SOL    HW225113   3.539   2.007   9.111 -0.8202 -0.5485 -0.1628
 4493SOL     OW25114   0.678   1.596  17.530  0.1094  0.0211 -0.3870
 4493SOL    HW125115   0.665   1.689  17.547 -1.1781  0.0928 -1.7873
 4493SOL    HW225116   0.735   1.597  17.454  0.2287  1.4170 -0.2722
 4494SOL     OW25117   2.674   4.170   0.143  0.2906 -0.2569  0.6761
 4494SOL    HW125118   2.591   4.179   0.095  0.1448  2.3303  1.4084
 4494SOL    HW225119   2.743   4.187   0.080  1.3095 -1.6092  1.4172
 4495SOL     OW25120   0.229   1.586   8.543  0.3222 -0.1042  0.1523
 4495SOL    HW125121   0.178   1.532   8.482  0.8921  3.0111 -3.0699
 4495SOL    HW225122   0.182   1.579   8.626 -0.9780  5.0264 -0.1866
 4496SOL     OW25123   3.782   4.270   7.478 -0.1667 -0.6955  0.0204
 4496SOL    HW125124   3.780   4.338   7.545  2.5377  0.2833 -0.9265
 4496SOL    HW225125   3.720   4.312   7.419 -3.2412 -1.0552  2.9622
 4497SOL     OW25126   3.917   1.561  17.311  0.2306 -0.0220  0.8648
 4497SOL    HW125127   3.827   1.530  17.299  0.3826 -0.1443  0.0804
 4497SOL    HW225128   3.957   1.479  17.282  2.9805  1.3313  0.8452
 4498SOL     OW25129   0.662   2.297   0.448 -0.2349  0.1126 -0.1973
 4498SOL    HW125130   0.634   2.388   0.434  0.5639  0.6506  1.5861
 4498SOL    HW225131   0.736   2.286   0.388  0.5447  0.2062  0.7440
 4499SOL     OW25132   3.681   1.706   7.516 -0.4580 -0.4212  0.4919
 4499SOL    HW125133   3.589   1.701   7.544 -0.7128  0.7874 -0.1390
 4499SOL    HW225134   3.687   1.801   7.509  1.7601 -0.8668 -3.0646
 4500SOL     OW25135   2.341   2.309   1.570  0.3445 -0.3849 -0.0093
 4500SOL    HW125136   2.326   2.321   1.476 -4.8883 -0.2011  0.8867
 4500SOL    HW225137   2.419   2.253   1.565  0.6128 -0.2723  2.8339
 4501SOL     OW25138   4.524   0.333  14.256  0.0187  0.6046  0.1501
 4501SOL    HW125139   4.559   0.317  14.169  3.9457 -1.5193  2.0936
 4501SOL    HW225140   4.610   0.365  14.285  1.4982 -0.5722 -2.9969
 4502SOL     OW25141   3.076   3.442  16.578 -0.2972 -0.0975  0.3001
 4502SOL    HW125142   3.009   3.456  16.511 -1.0748  2.8107  1.6804
 4502SOL    HW225143   3.027   3.388  16.639 -5.0611  0.1379 -3.3118
 4503SOL     OW25144   1.723   1.979  16.255  0.5348 -0.0121  0.6106
 4503SOL    HW125145   1.671   1.900  16.248 -0.1287  0.6760 -2.6558
 4503SOL    HW225146   1.671   2.028  16.191  0.0112 -0.5287  0.6379
 4504SOL     OW25147   3.509   4.669  14.810  0.2127  0.0670  1.2926
 4504SOL    HW125148   3.464   0.011  14.781 -2.3724 -1.1537  2.0180
 4504SOL    HW225149   3.526   4.704  14.897  1.7651  1.3399  0.4711
 4505SOL     OW25150   3.403   3.205   7.045 -0.1836  0.3350 -0.1095
 4505SOL    HW125151   3.431   3.115   7.029  1.7748  0.8987  0.0479
 4505SOL    HW225152   3.351   3.204   7.125 -0.8404  0.2605 -0.5459
 4506SOL     OW25153   1.580   0.647   5.430 -0.0088 -0.2570 -0.4252
 4506SOL    HW125154   1.615   0.561   5.409 -2.1001 -1.3044  0.3902
 4506SOL    HW225155   1.613   0.691   5.351  0.6786 -1.1942 -0.6514
 4507SOL     OW25156   2.675   4.344   7.216  0.2306  0.2439  0.1936
 4507SOL    HW125157   2.740   4.358   7.147  1.5916 -2.2343  0.9715
 4507SOL    HW225158   2.609   4.394   7.168  2.9482  2.6591 -1.0420
 4508SOL     OW25159   0.673   1.704   6.139 -0.5155  0.3492 -0.3409
 4508SOL    HW125160   0.662   1.641   6.210 -0.5956  0.8976  0.1247
 4508SOL    HW225161   0.747   1.666   6.091 -1.0142  1.0626 -1.6718
 4509SOL     OW25162   0.691   1.196   7.414 -0.2741  0.2151  0.3168
 4509SOL    HW125163   0.611   1.242   7.390  0.0693  0.9424  0.5597
 4509SOL    HW225164   0.747   1.274   7.419 -1.1412  0.6797  2.6125
 4510SOL     OW25165   1.077   0.248   1.822 -0.3559 -0.1852 -0.0758
 4510SOL    HW125166   1.093   0.154   1.811 -0.3360 -0.1536 -0.3063
 4510SOL    HW225167   1.137   0.287   1.885 -0.9437  0.1333  0.2904
 4511SOL     OW25168   1.983   1.873   3.330  0.1099 -0.5202 -0.0408
 4511SOL    HW125169   2.062   1.831   3.296 -1.3897 -2.1830 -1.4306
 4511SOL    HW225170   2.017   1.933   3.397  0.8303  0.0232 -0.9010
 4512SOL     OW25171   2.116   2.959   7.905 -0.4073 -0.1338  0.2240
 4512SOL    HW125172   2.076   2.983   7.988  1.5789 -0.7728  1.3700
 4512SOL    HW225173   2.166   2.882   7.934 -1.1983  1.0592  4.7677
 4513SOL     OW25174   2.835   3.907   6.357  0.0279  0.4788 -0.3430
 4513SOL    HW125175   2.865   3.882   6.270  1.9057  1.3191  0.0466
 4513SOL    HW225176   2.742   3.891   6.347 -0.1983  1.1011  0.7335
 4514SOL     OW25177   3.096   2.214   2.365 -0.9036 -0.2181 -0.1024
 4514SOL    HW125178   3.162   2.216   2.296 -0.1572  0.9695  0.6437
 4514SOL    HW225179   3.055   2.297   2.342 -1.6102 -0.3818  0.5593
 4515SOL     OW25180   3.880   3.463   6.258 -0.6314 -0.1686 -0.1542
 4515SOL    HW125181   3.801   3.473   6.204 -1.3743  0.1195  0.9742
 4515SOL    HW225182   3.899   3.557   6.266 -1.3681  0.0143 -0.5837
 4516SOL     OW25183   2.402   3.396   1.766  0.1919  0.1859 -0.8160
 4516SOL    HW125184   2.492   3.425   1.752  0.1539 -0.4677 -2.3842
 4516SOL    HW225185   2.407   3.303   1.742  2.0565  0.3091 -0.8763
 4517SOL     OW25186   4.570   2.276  11.851  0.2409 -0.1389 -0.3665
 4517SOL    HW125187   4.554   2.333  11.927  1.4198 -0.2309 -0.0491
 4517SOL    HW225188   4.550   2.195  11.898 -0.7269  0.4880  0.2913
 4518SOL     OW25189   0.668   2.458   5.989  0.1011  0.0835  0.1263
 4518SOL    HW125190   0.691   2.374   6.029  1.1642  0.5429  0.4751
 4518SOL    HW225191   0.673   2.523   6.059  2.0991  1.1097 -1.0014
 4519SOL     OW25192   1.940   4.325   9.568  0.1387  0.0743 -0.1125
 4519SOL    HW125193   1.986   4.354   9.647  0.0960 -0.5317  0.1327
 4519SOL    HW225194   1.849   4.325   9.595 -0.1341 -1.6315 -1.0467
 4520SOL     OW25195   4.703   4.631   9.465 -0.0689  0.0845  0.3919
 4520SOL    HW125196   4.687   4.690   9.391  1.5300  0.1100  0.0515
 4520SOL    HW225197   4.716   4.549   9.419  0.2724  0.2604  0.1718
 4521SOL     OW25198   0.204   3.797  12.982  0.5675 -0.2305 -0.4715
 4521SOL    HW125199   0.273   3.772  13.044  1.6434 -0.9807 -1.9425
 4521SOL    HW225200   0.126   3.755  13.018  1.6215 -2.4558 -0.7398
 4522SOL     OW25201   2.652   3.701   6.754  0.1936 -0.4417 -0.2236
 4522SOL    HW125202   2.562   3.730   6.736 -0.3332 -1.2881  1.0956
 4522SOL    HW225203   2.685   3.777   6.801  1.6443  0.9227 -3.4193
 4523SOL     OW25204   1.872   3.548  10.516 -0.1656  0.3199  0.1634
 4523SOL    HW125205   1.784   3.515  10.536  0.3870 -2.5115 -2.0267
 4523SOL    HW225206   1.937   3.487  10.550  0.2260  1.0065  0.6448
 4524SOL     OW25207   4.071   0.538   3.902  0.3062  0.1399  0.0528
 4524SOL    HW125208   4.081   0.564   3.993  0.4738 -0.0798  0.0969
 4524SOL    HW225209   4.053   0.618   3.852 -1.3362 -0.8422 -0.9268
 4525SOL     OW25210   3.071   1.038  10.233 -0.0594  0.8774 -0.7982
 4525SOL    HW125211   3.141   1.042  10.168 -0.9175 -1.3971 -1.8615
 4525SOL    HW225212   3.049   0.947  10.211  0.9905  0.6461 -0.8911
 4526SOL     OW25213   3.632   4.217   5.356  0.3472 -0.3864 -0.0376
 4526SOL    HW125214   3.567   4.268   5.405 -0.3151  3.2379 -4.6945
 4526SOL    HW225215   3.715   4.261   5.374  0.9889 -0.8989 -1.7333
 4527SOL     OW25216   1.500   2.901   5.915  0.5332 -0.2995  0.0716
 4527SOL    HW125217   1.416   2.929   5.878 -0.3436  0.5706  2.6948
 4527SOL    HW225218   1.550   2.883   5.836  1.4351 -1.2675  0.8541
 4528SOL     OW25219   4.574   1.040   5.138 -0.7681 -0.6755 -0.2759
 4528SOL    HW125220   4.509   0.978   5.174 -0.5916 -1.1930 -0.8466
 4528SOL    HW225221   4.653   0.994   5.166 -0.7130 -1.2219 -1.3216
 4529SOL     OW25222   1.370   0.814  16.269  0.3041  0.2541 -0.1188
 4529SOL    HW125223   1.301   0.879  16.281  0.3122  0.3751 -0.7639
 4529SOL    HW225224   1.418   0.828  16.351  1.3382  1.0622 -0.8649
 4530SOL     OW25225   3.864   0.134   6.614  0.1187 -0.4078 -0.4021
 4530SOL    HW125226   3.848   0.112   6.706  1.5548  1.2007  0.2402
 4530SOL    HW225227   3.833   0.224   6.612  1.2134 -0.0092  0.5245
 4531SOL     OW25228   3.141   3.834   9.957  0.1948 -0.2904 -0.3565
 4531SOL    HW125229   3.103   3.766   9.902  0.4088 -0.5598 -0.1685
 4531SOL    HW225230   3.095   3.814  10.038  4.6216  0.7430  2.4121
 4532SOL     OW25231   3.483   2.550   7.488  0.5117 -0.3512 -0.0177
 4532SOL    HW125232   3.535   2.505   7.421  0.8023  1.7308 -1.2015
 4532SOL    HW225233   3.400   2.513   7.458  0.3697 -1.1095  1.3391
 4533SOL     OW25234   2.954   0.611  11.533 -0.0569 -0.9409  0.4730
 4533SOL    HW125235   2.903   0.609  11.452  1.1764  0.4408 -0.3486
 4533SOL    HW225236   2.931   0.699  11.561  1.4808 -0.1999 -0.5629
 4534SOL     OW25237   1.553   4.534   8.489  0.2808 -0.1274 -0.0192
 4534SOL    HW125238   1.620   4.564   8.427  1.0050 -0.2307  0.7215
 4534SOL    HW225239   1.496   4.479   8.436 -1.0346  0.8554  0.3722
 4535SOL     OW25240   0.050   3.345   4.785  0.4142  0.3533  0.4169
 4535SOL    HW125241   0.089   3.428   4.812  2.1651 -1.0460  2.1132
 4535SOL    HW225242   0.002   3.317   4.863 -0.3143 -0.9469 -0.4949
 4536SOL     OW25243   0.044   4.347   1.882  0.4392 -0.2011  0.1605
 4536SOL    HW125244   4.716   4.409   1.850 -0.7456 -0.9308  1.1344
 4536SOL    HW225245   0.124   4.399   1.886 -0.3075  0.9460 -0.1402
 4537SOL     OW25246   3.188   0.245   3.327  0.4763 -0.0787 -0.7109
 4537SOL    HW125247   3.243   0.199   3.263  0.3511  0.2297 -1.0405
 4537SOL    HW225248   3.217   0.335   3.313  1.5148 -0.0334  1.6325
 4538SOL     OW25249   1.810   0.625   7.729  0.0897 -0.0331  0.3209
 4538SOL    HW125250   1.809   0.686   7.804  2.0637 -0.0265  0.3434
 4538SOL    HW225251   1.875   0.668   7.674 -1.8020 -1.1973 -2.7839
 4539SOL     OW25252   3.974   2.945   8.600  1.1752  0.1107 -0.1163
 4539SOL    HW125253   3.974   3.017   8.536 -1.6483 -1.5054 -1.8790
 4539SOL    HW225254   3.911   2.888   8.557 -1.9645  1.9048  2.1086
 4540SOL     OW25255   4.209   3.868  11.032  0.3187 -0.4558  0.0168
 4540SOL    HW125256   4.128   3.828  11.000 -0.1038  0.5246 -0.1125
 4540SOL    HW225257   4.267   3.794  11.051  1.9271  0.3929 -1.6425
 4541SOL     OW25258   0.388   3.208   8.343 -0.3391 -0.0342 -0.2661
 4541SOL    HW125259   0.318   3.232   8.283 -1.2375  1.6112  1.4559
 4541SOL    HW225260   0.379   3.267   8.418 -0.1882  0.3580 -0.5575
 4542SOL     OW25261   1.343   1.126   3.105  0.0198 -0.8238 -0.1594
 4542SOL    HW125262   1.379   1.181   3.035  1.9992 -2.5639 -0.5130
 4542SOL    HW225263   1.257   1.098   3.073 -0.9257 -0.0883  1.7239
 4543SOL     OW25264   4.005   3.858   3.275 -0.2083 -0.1979  0.2601
 4543SOL    HW125265   3.967   3.927   3.328 -0.6343 -0.4281  0.2542
 4543SOL    HW225266   4.032   3.910   3.199  0.2949  0.1407  0.6694
 4544SOL     OW25267   4.012   4.405   2.666  0.0693  0.4085 -0.4841
 4544SOL    HW125268   4.005   4.371   2.577 -1.1510 -1.4759  0.3015
 4544SOL    HW225269   4.001   4.334   2.730  4.3949  0.0979 -0.1103
 4545SOL     OW25270   1.440   4.380  10.811  0.2836  0.0589  0.1084
 4545SOL    HW125271   1.455   4.408  10.901  3.3806  2.0408 -1.0544
 4545SOL    HW225272   1.532   4.372  10.787  0.3309 -1.9725  0.9302
 4546SOL     OW25273   0.635   3.042   1.713 -0.1568 -0.2303  0.8173
 4546SOL    HW125274   0.665   2.992   1.636  4.2016  1.0862  1.6731
 4546SOL    HW225275   0.549   3.000   1.720 -1.1217  1.7646  0.6996
 4547SOL     OW25276   3.265   4.238  11.769 -0.0428 -0.6344  0.2075
 4547SOL    HW125277   3.333   4.305  11.757 -0.6322  0.1843  1.3782
 4547SOL    HW225278   3.263   4.248  11.864 -0.4723  0.5899  0.0749
 4548SOL     OW25279   0.413   2.125   0.515  0.0857  0.1811 -0.0153
 4548SOL    HW125280   0.401   2.106   0.422  0.7639  0.9969 -0.2753
 4548SOL    HW225281   0.490   2.180   0.502  0.0035  0.4990  0.8162
 4549SOL     OW25282   0.607   3.276   7.980 -0.2750 -0.2148 -0.0029
 4549SOL    HW125283   0.573   3.359   8.014 -0.3792 -0.0107 -0.6049
 4549SOL    HW225284   0.611   3.219   8.057 -0.1957  1.4240  1.2173
 4550SOL     OW25285   1.911   1.469  15.602 -0.3476 -0.6875 -0.1676
 4550SOL    HW125286   1.974   1.453  15.531  0.5185  2.4711 -0.1073
 4550SOL    HW225287   1.961   1.523  15.663 -0.7671 -1.1046  0.5480
 4551SOL     OW25288   4.415   2.329   5.599  0.2796  0.4386  0.1667
 4551SOL    HW125289   4.456   2.251   5.561  2.0941  1.4480  0.0370
 4551SOL    HW225290   4.416   2.308   5.693  0.2846  3.0379  0.7459
 4552SOL     OW25291   2.349   3.631  14.506  0.1349  0.3127  0.1459
 4552SOL    HW125292   2.389   3.576  14.574  1.4298  1.6382  0.4681
 4552SOL    HW225293   2.291   3.570  14.460  0.1902 -0.0860  0.5947
 4553SOL     OW25294   2.560   0.569   2.092  0.2692  0.2908  0.5252
 4553SOL    HW125295   2.575   0.518   2.012 -1.1912 -0.1267  0.5188
 4553SOL    HW225296   2.568   0.504   2.163  2.2420  0.1093  0.1465
 4554SOL     OW25297   4.269   2.339   4.654 -0.0847  0.4001  0.0089
 4554SOL    HW125298   4.320   2.358   4.575 -0.8201 -2.2850 -1.1241
 4554SOL    HW225299   4.300   2.250   4.672 -0.6980 -0.1074 -1.3870
 4555SOL     OW25300   4.569   0.481   2.433  0.0335 -0.0949 -0.1005
 4555SOL    HW125301   4.555   0.521   2.518 -0.7064  0.4367 -0.4782
 4555SOL    HW225302   4.567   0.558   2.376 -2.0477 -1.2120 -1.5274
 4556SOL     OW25303   0.736   3.878   2.931  0.1206 -0.1130  0.0745
 4556SOL    HW125304   0.749   3.959   2.880  0.2370 -0.0363  0.2254
 4556SOL    HW225305   0.663   3.840   2.883  0.3196 -1.7257  1.0756
 4557SOL     OW25306   3.716   2.020   8.781 -0.2315 -0.5514 -0.6674
 4557SOL    HW125307   3.785   2.081   8.757  0.3597 -1.0123 -0.1349
 4557SOL    HW225308   3.638   2.075   8.784 -0.1853 -0.4481 -1.4060
 4558SOL     OW25309   3.267   1.477  11.369  0.0964  0.8614  0.0726
 4558SOL    HW125310   3.355   1.452  11.340  0.4459  2.6416 -0.3740
 4558SOL    HW225311   3.236   1.484  11.279  1.9175 -0.0003 -0.6223
 4559SOL     OW25312   0.576   1.633  13.636 -0.1602  0.3609  0.2068
 4559SOL    HW125313   0.589   1.538  13.633 -3.2037 -0.0472  0.3846
 4559SOL    HW225314   0.609   1.650  13.548  0.7562 -2.5224 -0.0090
 4560SOL     OW25315   0.373   3.668   9.579 -0.1561  1.1049 -0.1337
 4560SOL    HW125316   0.453   3.709   9.547 -0.7435  2.0818 -0.3621
 4560SOL    HW225317   0.324   3.670   9.497  0.9155 -0.7692 -0.8023
 4561SOL     OW25318   1.750   1.568   5.283  0.5047 -0.6949  0.0898
 4561SOL    HW125319   1.666   1.557   5.239  0.1687  1.2773  0.2369
 4561SOL    HW225320   1.713   1.566   5.371  0.1167 -0.0077 -0.0625
 4562SOL     OW25321   2.817   3.455  11.484  0.2954 -0.5680  0.8654
 4562SOL    HW125322   2.802   3.520  11.415  2.4113  0.5726  1.4872
 4562SOL    HW225323   2.910   3.436  11.474 -0.0964 -0.9024 -2.2408
 4563SOL     OW25324   2.257   2.922   3.293 -0.0363 -0.0160  0.4518
 4563SOL    HW125325   2.265   2.848   3.352  2.6059 -0.6326 -0.6508
 4563SOL    HW225326   2.351   2.940   3.288  0.5810 -3.7921 -1.6109
 4564SOL     OW25327   0.147   3.331   3.952  0.6205  0.3449 -0.0215
 4564SOL    HW125328   0.138   3.426   3.960 -4.0485  0.0563 -1.5389
 4564SOL    HW225329   0.119   3.305   4.040  0.3403  1.2032  0.1500
 4565SOL     OW25330   0.070   3.700   6.280  0.1024  0.1678  0.0779
 4565SOL    HW125331   0.137   3.638   6.252 -0.2556 -0.1895  0.0168
 4565SOL    HW225332   4.723   3.655   6.268  0.3398 -0.6678  1.6171
 4566SOL     OW25333   4.669   2.236   0.605  0.2181 -0.0791  0.0509
 4566SOL    HW125334   4.717   2.200   0.530  1.6170  0.4385  0.7065
 4566SOL    HW225335   4.731   2.225   0.677 -0.2508  0.8479  0.5922
 4567SOL     OW25336   1.365   4.398   4.396  0.5348  0.0643  0.4983
 4567SOL    HW125337   1.378   4.322   4.338  0.4503  1.6137 -1.5407
 4567SOL    HW225338   1.426   4.458   4.353  0.9969 -1.3739 -0.8424
 4568SOL     OW25339   0.503   2.605  10.165  0.5448 -0.2974  0.4956
 4568SOL    HW125340   0.551   2.547  10.225 -0.1019 -1.5371 -0.1943
 4568SOL    HW225341   0.411   2.582  10.177  0.4644 -1.1023 -1.7053
 4569SOL     OW25342   3.631   2.680   3.073  0.6239  0.8559 -0.1119
 4569SOL    HW125343   3.710   2.688   3.126  0.6277  0.2308 -0.0148
 4569SOL    HW225344   3.663   2.697   2.984  1.7603 -2.0889 -0.2761
 4570SOL     OW25345   0.327   0.635   3.045 -0.6593 -0.0655 -0.6477
 4570SOL    HW125346   0.285   0.612   3.128  0.0378 -1.6059 -0.7184
 4570SOL    HW225347   0.386   0.703   3.076 -2.3583  1.7464 -1.4138
 4571SOL     OW25348   2.267   2.327   8.714  0.8563 -0.6019 -0.6478
 4571SOL    HW125349   2.244   2.234   8.724  0.2479 -0.5895 -1.8811
 4571SOL    HW225350   2.346   2.335   8.767  0.4135  0.6072 -0.1738
 4572SOL     OW25351   4.460   1.482  15.989 -0.2815 -0.3171  0.0460
 4572SOL    HW125352   4.425   1.465  15.902  0.2140  2.2722 -0.6541
 4572SOL    HW225353   4.384   1.504  16.043  0.5488  0.4528  0.9054
 4573SOL     OW25354   4.226   3.304   0.242 -0.5740 -0.0570 -0.4870
 4573SOL    HW125355   4.209   3.292   0.149  0.9846  1.3496 -0.9669
 4573SOL    HW225356   4.265   3.391   0.254 -0.9516 -0.0938  0.9846
 4574SOL     OW25357   2.082   2.194   6.716 -0.0234  0.1736  0.1308
 4574SOL    HW125358   2.165   2.179   6.760  0.2205  0.7229 -0.1459
 4574SOL    HW225359   2.073   2.289   6.718  0.6945  0.2882 -2.3703
 4575SOL     OW25360   3.315   0.092   2.140 -0.4282  0.3137  0.0085
 4575SOL    HW125361   3.254   0.164   2.123  0.3348  0.5817 -1.6339
 4575SOL    HW225362   3.241   0.032   2.146 -1.4973  1.4767 -1.4574
 4576SOL     OW25363   1.915   2.179   3.682 -0.3031 -0.2410 -0.5693
 4576SOL    HW125364   2.007   2.170   3.659 -0.2894 -1.4916  0.0016
 4576SOL    HW225365   1.875   2.194   3.596  0.0996  0.2049 -0.6773
 4577SOL     OW25366   0.324   0.127   2.951 -1.0207 -0.4273  0.1216
 4577SOL    HW125367   0.390   0.124   3.020  0.6370  1.5621 -1.3725
 4577SOL    HW225368   0.242   0.131   2.999  0.2129  1.2397  2.0989
 4578SOL     OW25369   0.806   4.311  13.027  0.1650 -0.2030  0.1423
 4578SOL    HW125370   0.774   4.324  12.938 -1.4690 -0.7468  0.6545
 4578SOL    HW225371   0.891   4.268  13.013  0.0298  0.0287 -1.3957
 4579SOL     OW25372   4.506   2.036   2.880 -0.2997 -0.3874 -0.2036
 4579SOL    HW125373   4.599   2.013   2.886  0.1850  1.2296 -1.4864
 4579SOL    HW225374   4.512   2.132   2.875  1.4332 -0.6603 -3.0532
 4580SOL     OW25375   0.337   3.689  16.640  0.6708 -0.4497  0.0512
 4580SOL    HW125376   0.276   3.726  16.704  0.1121  0.5774 -1.0664
 4580SOL    HW225377   0.366   3.772  16.602 -0.8555  0.4751  0.8869
 4581SOL     OW25378   3.189   4.553   5.852 -0.3440  0.9125  0.5585
 4581SOL    HW125379   3.128   4.626   5.861 -1.4924 -0.3001  2.4823
 4581SOL    HW225380   3.196   4.532   5.945 -1.8049  2.1000  0.9378
 4582SOL     OW25381   0.655   2.398   8.287 -0.4184 -0.3549 -0.2215
 4582SOL    HW125382   0.743   2.363   8.276  0.7232  2.8012 -1.3395
 4582SOL    HW225383   0.663   2.426   8.378 -1.3803  1.4055 -0.6720
 4583SOL     OW25384   4.211   0.095   2.010  0.0981 -0.0574 -0.4570
 4583SOL    HW125385   4.287   0.087   2.068  0.7207  1.3634 -1.0616
 4583SOL    HW225386   4.144   0.068   2.073  1.3020 -3.1528 -0.5081
 4584SOL     OW25387   0.867   2.348   5.524  0.0407 -0.4986  0.8342
 4584SOL    HW125388   0.843   2.410   5.593 -1.6536  0.0827 -0.2736
 4584SOL    HW225389   0.782   2.306   5.510 -0.1056 -0.0882  0.5044
 4585SOL     OW25390   3.136   3.316   8.640 -0.3904  0.2672  0.1347
 4585SOL    HW125391   3.113   3.353   8.555  0.0564 -1.0700 -0.5642
 4585SOL    HW225392   3.049   3.297   8.676  0.2106 -0.9343  0.9503
 4586SOL     OW25393   0.691   3.212   8.591  0.0857 -0.2834  0.2240
 4586SOL    HW125394   0.668   3.304   8.581  0.4079 -0.0278  1.8045
 4586SOL    HW225395   0.784   3.214   8.566  0.1314  1.5218  0.5971
 4587SOL     OW25396   3.219   4.066  16.996 -0.5285 -0.7961 -0.2497
 4587SOL    HW125397   3.181   4.049  16.910 -0.8100 -1.0830 -0.0636
 4587SOL    HW225398   3.261   4.149  16.972  0.9218 -1.6749 -0.7650
 4588SOL     OW25399   2.292   1.966  14.581  0.0214 -0.3117 -0.5458
 4588SOL    HW125400   2.223   1.906  14.609  0.9768 -0.2810  1.7848
 4588SOL    HW225401   2.336   1.967  14.665 -0.2597  0.7221 -0.4196
 4589SOL     OW25402   1.925   1.552   6.316  0.1821 -0.9335  0.1805
 4589SOL    HW125403   1.926   1.643   6.287  0.4258 -1.8729 -2.6882
 4589SOL    HW225404   1.928   1.578   6.408 -1.7103  0.6125 -0.1960
 4590SOL     OW25405   2.443   1.917   5.471 -0.1144  0.0269 -0.0878
 4590SOL    HW125406   2.424   1.840   5.417  3.0814 -2.3756  2.1912
 4590SOL    HW225407   2.538   1.919   5.476 -0.1991  0.5190  1.4500
 4591SOL     OW25408   3.123   1.033   1.787  0.1499  0.4028 -0.0278
 4591SOL    HW125409   3.143   0.987   1.705 -0.8666  0.5437 -0.3573
 4591SOL    HW225410   3.069   1.105   1.753  0.2576 -0.1902 -1.4574
 4592SOL     OW25411   2.150   3.519  15.325  0.2244  0.4094  0.0284
 4592SOL    HW125412   2.197   3.582  15.269  1.9506 -2.2636 -1.5068
 4592SOL    HW225413   2.073   3.571  15.348 -0.0531 -0.2739  0.6260
 4593SOL     OW25414   3.489   4.242   9.301  0.4492 -0.3287 -0.1525
 4593SOL    HW125415   3.550   4.262   9.372  1.3284  1.3691 -1.3690
 4593SOL    HW225416   3.413   4.200   9.340  1.5475 -2.3698 -0.2108
 4594SOL     OW25417   4.098   2.931   7.676 -0.4762  0.8552  0.1295
 4594SOL    HW125418   4.088   2.961   7.767  2.9865  1.7886  0.2085
 4594SOL    HW225419   4.042   2.854   7.674  2.7555 -1.4269 -1.7686
 4595SOL     OW25420   3.885   1.785   8.325 -0.0800  0.3099 -0.5348
 4595SOL    HW125421   3.888   1.692   8.307  2.5319  0.4762 -0.9394
 4595SOL    HW225422   3.853   1.821   8.243  1.0004  0.6526 -0.8163
 4596SOL     OW25423   0.391   3.079   9.808  0.6259 -0.5805 -0.2749
 4596SOL    HW125424   0.409   3.104   9.898 -0.2168 -0.9154 -0.0175
 4596SOL    HW225425   0.465   3.020   9.792 -0.2601 -1.5010 -0.9259
 4597SOL     OW25426   3.619   3.721   3.668  0.8415 -0.0564 -0.7417
 4597SOL    HW125427   3.665   3.643   3.696 -0.7639 -0.4067  0.8936
 4597SOL    HW225428   3.556   3.741   3.737 -1.5620 -3.5837 -1.9156
 4598SOL     OW25429   2.611   2.774   1.295  0.2530 -0.0171 -0.3247
 4598SOL    HW125430   2.681   2.792   1.232  2.2617 -1.5243  1.4446
 4598SOL    HW225431   2.653   2.786   1.380 -1.8678  0.8396  0.5958
 4599SOL     OW25432   3.690   2.873   0.037 -0.2380 -0.0493 -0.5641
 4599SOL    HW125433   3.724   2.922   0.112  3.6399 -0.1580 -2.2227
 4599SOL    HW225434   3.643   2.946  17.744  0.9268  2.5170  2.8455
 4600SOL     OW25435   0.760   2.589   7.265 -0.4643 -0.2178  0.1853
 4600SOL    HW125436   0.763   2.606   7.171  0.7886  1.4481  0.5197
 4600SOL    HW225437   0.793   2.674   7.295  0.8886  0.1157 -2.2220
 4601SOL     OW25438   2.311   0.747   7.606  0.1102 -0.4304 -0.0005
 4601SOL    HW125439   2.333   0.813   7.541 -0.4909 -0.6168 -0.3958
 4601SOL    HW225440   2.324   0.802   7.683  1.3633 -0.9096  0.1334
 4602SOL     OW25441   4.412   4.407   6.080  0.2601 -0.4090 -0.0650
 4602SOL    HW125442   4.451   4.418   5.993 -1.3383  0.8812 -0.6050
 4602SOL    HW225443   4.482   4.353   6.118  1.6217  0.9310 -0.6599
 4603SOL     OW25444   2.775   3.152   8.076 -0.4042 -0.1825 -1.0196
 4603SOL    HW125445   2.731   3.162   7.991 -1.0325 -0.1783 -0.6861
 4603SOL    HW225446   2.853   3.205   8.060 -2.5218  2.8682 -1.2400
 4604SOL     OW25447   3.747   4.179   2.451 -0.5036  0.0256 -0.0231
 4604SOL    HW125448   3.843   4.173   2.444 -0.7648 -1.8864 -1.7274
 4604SOL    HW225449   3.727   4.255   2.397 -2.2597 -0.2407  0.2717
 4605SOL     OW25450   0.961   0.070   2.921  0.2885 -0.4404  0.0263
 4605SOL    HW125451   1.012   0.065   3.002  1.1837 -1.0864 -0.5843
 4605SOL    HW225452   0.909   4.726   2.923 -0.4506  0.0529  0.7463
 4606SOL     OW25453   2.815   4.725   2.886 -0.3164  0.7924  0.0787
 4606SOL    HW125454   2.865   0.005   2.966 -0.8400  0.4304  0.4807
 4606SOL    HW225455   2.846   4.637   2.864 -2.4440  0.8848 -3.2169
 4607SOL     OW25456   0.485   1.583   2.010 -0.0409  0.1085  0.1999
 4607SOL    HW125457   0.432   1.606   1.934 -0.8069  0.0681  0.7177
 4607SOL    HW225458   0.423   1.539   2.069 -0.0586  1.2973  1.0679
 4608SOL     OW25459   1.252   1.644   7.688  0.4656  0.0695 -0.4173
 4608SOL    HW125460   1.272   1.712   7.753  0.6682  1.4661 -1.9447
 4608SOL    HW225461   1.341   1.621   7.664  0.5196 -0.0297 -0.1277
 4609SOL     OW25462   2.135   3.751  14.268  0.2055 -0.4582 -0.1679
 4609SOL    HW125463   2.229   3.754  14.253  0.6263  1.2811  2.9269
 4609SOL    HW225464   2.126   3.797  14.351 -1.0756  0.0732 -0.5960
 4610SOL     OW25465   1.327   3.980   0.973 -0.7679 -1.3845  0.7535
 4610SOL    HW125466   1.238   3.948   0.961 -1.4320  0.0527  1.8492
 4610SOL    HW225467   1.322   3.982   1.068  1.4933  1.7692  0.8056
 4611SOL     OW25468   3.760   0.659   3.948  0.0400  0.2875 -0.3268
 4611SOL    HW125469   3.757   0.632   3.856 -1.0717 -0.0419 -0.1857
 4611SOL    HW225470   3.760   0.755   3.947 -1.3048  0.2582 -2.5873
 4612SOL     OW25471   1.306   0.478   4.418 -0.6069 -0.1807 -0.2547
 4612SOL    HW125472   1.211   0.487   4.405 -0.6234 -0.4439 -0.3183
 4612SOL    HW225473   1.338   0.556   4.463 -2.5311  1.3729 -1.5354
 4613SOL     OW25474   1.341   3.756  12.666  0.3276 -0.3695  0.0713
 4613SOL    HW125475   1.364   3.696  12.595  1.8794  1.6521 -1.1531
 4613SOL    HW225476   1.425   3.802  12.672  0.0705  0.0760  0.2944
 4614SOL     OW25477   1.410   0.344   4.181  0.3041  0.3360 -0.0955
 4614SOL    HW125478   1.390   0.383   4.266  0.1742  0.3469 -0.1307
 4614SOL    HW225479   1.338   0.387   4.133  0.9824  1.9990  0.3855
 4615SOL     OW25480   4.552   3.455   1.737 -0.3969  0.4154 -0.0647
 4615SOL    HW125481   4.629   3.399   1.724 -1.1367 -0.5318 -0.3929
 4615SOL    HW225482   4.507   3.448   1.653  1.5387 -1.5288 -0.9438
 4616SOL     OW25483   2.872   4.201   8.532 -0.3096  0.4835 -0.1712
 4616SOL    HW125484   2.799   4.257   8.559 -1.5144 -1.4352  0.6147
 4616SOL    HW225485   2.832   4.116   8.547 -0.3442  0.5458  0.0870
 4617SOL     OW25486   2.223   3.459  17.616 -0.1637 -0.0325 -0.8752
 4617SOL    HW125487   2.164   3.440  17.543 -0.5617  0.2635 -0.6246
 4617SOL    HW225488   2.171   3.520  17.668  0.1537  0.6948 -1.4173
 4618SOL     OW25489   1.918   4.587   7.781  0.1662 -0.0295 -0.8275
 4618SOL    HW125490   1.972   4.665   7.796 -0.1025 -0.6893  3.3959
 4618SOL    HW225491   1.859   4.633   7.721 -0.7146  3.0901  2.4186
 4619SOL     OW25492   0.343   1.207   9.801  0.0481  0.0605  0.1957
 4619SOL    HW125493   0.258   1.215   9.843  0.5374  0.5896  1.0679
 4619SOL    HW225494   0.386   1.211   9.886 -0.5914  0.5514  0.4889
 4620SOL     OW25495   4.306   0.194   8.072  1.3999  0.3324 -0.0052
 4620SOL    HW125496   4.242   0.183   8.002  0.8867  0.6647  0.4135
 4620SOL    HW225497   4.323   0.287   8.054  0.5059  0.5599  0.3396
 4621SOL     OW25498   3.744   1.618   3.283 -0.1564  0.0387 -0.2628
 4621SOL    HW125499   3.794   1.692   3.317  0.3737 -0.6951  0.5665
 4621SOL    HW225500   3.777   1.611   3.194  1.7121 -1.4460  0.5395
 4622SOL     OW25501   0.650   2.472   8.631  0.1314  0.6467 -0.0694
 4622SOL    HW125502   0.563   2.448   8.665 -0.9474  0.8160 -2.6852
 4622SOL    HW225503   0.641   2.566   8.615  1.9391  0.9787  0.9109
 4623SOL     OW25504   2.279   3.109   1.680  0.7965 -0.3969 -0.5152
 4623SOL    HW125505   2.202   3.165   1.670 -1.0458 -2.9555 -0.7576
 4623SOL    HW225506   2.285   3.080   1.771 -1.5752  4.7821  1.2359
 4624SOL     OW25507   1.612   1.561   5.571  0.1876  0.3514  0.2431
 4624SOL    HW125508   1.615   1.657   5.570 -1.5084  0.3941 -0.0081
 4624SOL    HW225509   1.526   1.551   5.531 -1.0862  0.4822  2.9029
 4625SOL     OW25510   2.480   3.587   4.324 -0.1101 -0.2385  0.1711
 4625SOL    HW125511   2.553   3.530   4.350  1.8224  2.3700  0.4749
 4625SOL    HW225512   2.508   3.669   4.365  0.4712 -0.6466  0.5954
 4626SOL     OW25513   4.061   2.117   0.899 -0.4566 -0.2239  0.0581
 4626SOL    HW125514   4.122   2.180   0.861  0.5734 -0.1003  1.8956
 4626SOL    HW225515   4.121   2.047   0.928  0.4818 -0.1492 -1.7194
 4627SOL     OW25516   3.511   0.798   6.146 -0.5533 -0.2496 -0.3479
 4627SOL    HW125517   3.541   0.882   6.112 -1.2596 -0.4637 -1.5056
 4627SOL    HW225518   3.424   0.795   6.105 -0.2266  1.1432 -1.1297
 4628SOL     OW25519   2.484   3.520  13.301 -0.1709 -0.5122 -0.4017
 4628SOL    HW125520   2.488   3.426  13.286 -0.6870 -0.6881  0.5882
 4628SOL    HW225521   2.407   3.545  13.249  1.4754  0.3394 -2.4051
 4629SOL     OW25522   3.287   2.231   9.295 -0.5104 -0.4056  0.4553
 4629SOL    HW125523   3.322   2.173   9.363 -1.1764 -1.5806 -0.2112
 4629SOL    HW225524   3.281   2.311   9.348  1.2061 -0.1608  0.2973
 4630SOL     OW25525   4.070   1.493  11.819  0.3246 -0.2782 -0.2456
 4630SOL    HW125526   4.064   1.404  11.853 -1.8884 -0.9205 -2.3586
 4630SOL    HW225527   3.989   1.528  11.855  2.7098  3.1307  1.8642
 4631SOL     OW25528   2.387   2.713  13.076  0.5039  0.2397  0.4417
 4631SOL    HW125529   2.297   2.711  13.043  0.7494 -2.0376 -0.1317
 4631SOL    HW225530   2.395   2.642  13.139 -2.8812 -2.0286 -1.6804
 4632SOL     OW25531   2.566   3.447   6.512  0.2638 -0.4770 -0.5211
 4632SOL    HW125532   2.618   3.527   6.502 -0.1328 -0.1673 -0.1356
 4632SOL    HW225533   2.602   3.421   6.597 -0.3547 -1.0072 -0.4243
 4633SOL     OW25534   0.641   3.293   6.253  0.3705 -0.3108 -0.1012
 4633SOL    HW125535   0.619   3.311   6.161  0.6252  0.1248 -0.0789
 4633SOL    HW225536   0.672   3.203   6.248  0.0009 -0.5439  1.8559
 4634SOL     OW25537   3.282   0.908   6.751 -0.1277 -0.0630 -0.1055
 4634SOL    HW125538   3.208   0.933   6.697  0.6138  2.1422 -0.1045
 4634SOL    HW225539   3.359   0.946   6.708 -0.2020  0.0652 -0.1242
 4635SOL     OW25540   4.091   3.628   0.281  0.0614  0.5006  0.3344
 4635SOL    HW125541   4.013   3.683   0.274 -0.5586 -0.2977  1.0265
 4635SOL    HW225542   4.141   3.687   0.337  0.4726  0.1975  0.2943
 4636SOL     OW25543   1.801   1.251  14.723 -0.2321 -0.2622 -0.1398
 4636SOL    HW125544   1.884   1.298  14.717  0.8189 -2.3514 -2.2458
 4636SOL    HW225545   1.832   1.168  14.687  0.8590  0.1157 -0.0602
 4637SOL     OW25546   3.084   1.147  10.711 -0.3546 -0.1159  0.3513
 4637SOL    HW125547   3.029   1.089  10.657  2.5952  0.0842 -2.9088
 4637SOL    HW225548   3.063   1.234  10.677  2.7015  0.8817  1.0953
 4638SOL     OW25549   3.126   2.046   6.490  0.1184 -0.3885 -0.5312
 4638SOL    HW125550   3.174   2.006   6.562 -2.1003 -1.6757  0.2272
 4638SOL    HW225551   3.183   2.117   6.461 -0.6037  0.9722  1.4350
 4639SOL     OW25552   1.424   2.609   2.187  0.5038 -0.5078 -0.0956
 4639SOL    HW125553   1.498   2.601   2.247 -0.7921  1.6481  1.8163
 4639SOL    HW225554   1.427   2.705   2.182 -0.1885 -0.4947 -0.2670
 4640SOL     OW25555   0.533   1.144  11.478  0.5275  0.4622 -0.0695
 4640SOL    HW125556   0.621   1.175  11.501  0.0037  0.9714  1.2054
 4640SOL    HW225557   0.492   1.120  11.561  0.0932 -3.8509 -1.5330
 4641SOL     OW25558   3.821   2.023   5.186 -0.0596 -0.2960  0.3845
 4641SOL    HW125559   3.804   1.929   5.175  0.2865 -0.2655 -0.4437
 4641SOL    HW225560   3.739   2.051   5.144  0.3371  0.9279  0.4318
 4642SOL     OW25561   4.529   2.434   8.970  0.2786  0.5157  0.4570
 4642SOL    HW125562   4.570   2.516   8.944  0.0802 -0.5222 -3.2055
 4642SOL    HW225563   4.597   2.405   9.030  0.8509 -1.3258 -1.0507
 4643SOL     OW25564   4.097   1.706   1.247 -0.0281  0.7346 -0.1437
 4643SOL    HW125565   4.129   1.641   1.185 -1.1975 -1.5663  1.6268
 4643SOL    HW225566   4.003   1.700   1.226 -0.1186 -0.4500  0.5856
 4644SOL     OW25567   0.295   3.516   8.351  0.0137  0.2512 -0.1061
 4644SOL    HW125568   0.203   3.503   8.374  0.4681  0.9104  2.0394
 4644SOL    HW225569   0.309   3.604   8.386 -0.7851  0.5144 -0.4589
 4645SOL     OW25570   3.237   1.780   1.641  0.0071 -0.1403  0.1274
 4645SOL    HW125571   3.171   1.719   1.608 -1.0911  1.0370  0.1724
 4645SOL    HW225572   3.228   1.860   1.590  0.3846 -1.6576 -2.3260
 4646SOL     OW25573   4.205   1.023   2.848 -0.3401 -0.1234 -0.4456
 4646SOL    HW125574   4.137   0.985   2.792  1.1736 -4.7105  0.8881
 4646SOL    HW225575   4.155   1.036   2.929  0.3076 -2.3598  0.3026
 4647SOL     OW25576   3.877   2.472   8.361  0.2541 -0.7012  0.0654
 4647SOL    HW125577   3.842   2.385   8.382 -2.7004  0.4332 -0.2175
 4647SOL    HW225578   3.965   2.469   8.399 -0.2223  0.5242  1.2477
 4648SOL     OW25579   4.681   1.730   3.699  0.5285 -0.1386 -0.1529
 4648SOL    HW125580   4.623   1.724   3.623 -1.0625  0.0919  1.0312
 4648SOL    HW225581   0.026   1.744   3.652 -0.0179 -0.0960 -1.0940
 4649SOL     OW25582   4.661   2.465   1.946 -0.6427  0.3219  0.2699
 4649SOL    HW125583   4.671   2.449   1.852  1.0290 -1.7586  0.8026
 4649SOL    HW225584   4.681   2.376   1.977  2.1967  0.5981 -0.8164
 4650SOL     OW25585   2.472   2.809  13.362 -0.1375  0.2969 -0.3928
 4650SOL    HW125586   2.484   2.873  13.431 -2.9839  2.4650 -1.9144
 4650SOL    HW225587   2.545   2.749  13.378 -1.0376 -0.6846  0.0198
 4651SOL     OW25588   1.573   2.269  17.388  0.8125  0.2750 -0.3047
 4651SOL    HW125589   1.635   2.304  17.324  1.6420 -0.0485  0.3252
 4651SOL    HW225590   1.577   2.348  17.442  1.6643  0.3727 -0.5083
 4652SOL     OW25591   3.976   4.066   4.790 -0.8506 -0.3003 -0.2944
 4652SOL    HW125592   4.035   4.110   4.852  1.0332 -2.8214 -0.2638
 4652SOL    HW225593   3.895   4.074   4.840 -0.4649 -0.6014  0.3897
 4653SOL     OW25594   1.235   2.824   4.208 -0.1572  0.2073  0.1652
 4653SOL    HW125595   1.280   2.842   4.291  1.7167  0.1086 -0.8424
 4653SOL    HW225596   1.274   2.889   4.151 -2.4805 -0.6346 -2.3885
 4654SOL     OW25597   0.222   3.182   5.750 -0.0828 -0.5005  0.6084
 4654SOL    HW125598   0.245   3.199   5.659  1.0220 -0.9651  0.8056
 4654SOL    HW225599   0.271   3.249   5.799 -1.8756  1.2749 -0.0390
 4655SOL     OW25600   2.496   3.461   0.945  0.2497  0.5073 -0.3365
 4655SOL    HW125601   2.523   3.477   0.855 -0.2784  0.1628 -0.5539
 4655SOL    HW225602   2.405   3.436   0.932  0.3502  0.0852 -0.2315
 4656SOL     OW25603   0.982   1.776   4.528  0.1467  0.3268 -0.1532
 4656SOL    HW125604   0.911   1.828   4.567  0.7700  2.2513 -1.5619
 4656SOL    HW225605   0.941   1.747   4.446  0.4830  2.4777 -1.0999
 4657SOL     OW25606   4.695   0.734   8.544 -0.5015 -0.1914  0.1896
 4657SOL    HW125607   4.721   0.702   8.458  0.0713 -0.3286  0.4147
 4657SOL    HW225608   0.042   0.724   8.590  0.8406 -1.4507 -2.5132
 4658SOL     OW25609   0.720   1.747  16.227  0.3984  0.4872  0.1553
 4658SOL    HW125610   0.770   1.743  16.309 -0.7000  0.6155  0.8407
 4658SOL    HW225611   0.756   1.671  16.183 -1.1315  1.0718 -2.1175
 4659SOL     OW25612   1.490   0.407   1.979 -0.1462 -0.2067 -0.6902
 4659SOL    HW125613   1.395   0.420   1.971 -0.4724 -1.2736  1.3165
 4659SOL    HW225614   1.523   0.497   1.975 -0.3412 -0.2165 -2.5167
 4660SOL     OW25615   0.909   2.513   3.790 -0.3823 -0.1294 -0.5834
 4660SOL    HW125616   0.912   2.552   3.877 -1.9372  1.3978 -1.2088
 4660SOL    HW225617   0.834   2.456   3.805  0.5191 -1.1381  0.0671
 4661SOL     OW25618   2.621   1.532   3.128  0.2492  0.0655 -0.1235
 4661SOL    HW125619   2.615   1.437   3.116 -2.4427  0.1147  0.9536
 4661SOL    HW225620   2.628   1.537   3.223  1.5467  0.9805 -0.2639
 4662SOL     OW25621   4.282   1.931   5.412  0.2645 -0.4963  0.1061
 4662SOL    HW125622   4.222   1.997   5.445  1.5022 -0.4825  2.2863
 4662SOL    HW225623   4.278   1.861   5.477  0.1864 -0.0209  0.6129
 4663SOL     OW25624   2.832   4.695   7.656  0.2963  0.3495  0.3342
 4663SOL    HW125625   2.762   0.004   7.610 -0.4084 -0.4336  0.6237
 4663SOL    HW225626   2.898   0.027   7.659 -0.5647  1.1869 -0.0850
 4664SOL     OW25627   0.225   0.304   4.424 -0.1224 -0.2651  0.4993
 4664SOL    HW125628   0.318   0.294   4.401 -0.1603 -2.1537  1.1647
 4664SOL    HW225629   0.207   0.364   4.351  1.0810  0.1722  0.5595
 4665SOL     OW25630   3.252   2.509   8.455  0.2481  0.0132 -0.3291
 4665SOL    HW125631   3.174   2.508   8.511  0.1308 -1.2509 -0.4999
 4665SOL    HW225632   3.239   2.423   8.414  1.2715  0.5451 -1.7785
 4666SOL     OW25633   4.719   0.438  14.005  0.4649  0.1133  0.0725
 4666SOL    HW125634   0.022   0.496  14.071  1.3656  2.2937 -2.3786
 4666SOL    HW225635   0.065   0.407  13.967  0.5854  0.7208 -0.1550
 4667SOL     OW25636   0.943   3.271   9.447  1.0892 -0.3004  0.0615
 4667SOL    HW125637   0.855   3.289   9.480  0.9799 -0.0685 -0.3597
 4667SOL    HW225638   0.950   3.181   9.480  1.3232  0.4497  2.0505
 4668SOL     OW25639   4.453   1.274   4.001  0.6880  0.0172  0.4710
 4668SOL    HW125640   4.381   1.328   3.969  0.6733  0.2070  0.8206
 4668SOL    HW225641   4.413   1.244   4.082 -4.0235 -0.8014 -2.1785
 4669SOL     OW25642   0.593   1.919  16.058 -0.8808 -0.7535  0.9161
 4669SOL    HW125643   0.649   1.857  16.104  2.5200  1.1519 -0.6086
 4669SOL    HW225644   0.548   1.859  16.000  0.3357 -0.3165 -0.4743
 4670SOL     OW25645   3.889   0.979   6.200 -0.0896 -0.3361 -0.6297
 4670SOL    HW125646   3.884   0.887   6.227 -3.7260 -1.1441 -4.0526
 4670SOL    HW225647   3.977   1.004   6.230 -1.2719  4.4497 -1.1320
 4671SOL     OW25648   0.728   0.846  17.540 -0.4359 -0.2963 -0.3713
 4671SOL    HW125649   0.645   0.808  17.568 -0.8899 -0.2396 -1.6406
 4671SOL    HW225650   0.718   0.933  17.578 -2.0270 -0.8622  0.4866
 4672SOL     OW25651   3.565   1.730   6.883 -0.8338 -0.0191 -0.2790
 4672SOL    HW125652   3.585   1.813   6.926  0.1564  0.2384 -1.2365
 4672SOL    HW225653   3.627   1.724   6.810 -0.4684 -1.3941  0.1552
 4673SOL     OW25654   4.110   0.369  17.489 -0.0020 -0.0584  0.0661
 4673SOL    HW125655   4.086   0.289  17.536 -0.1351 -0.8198 -1.3116
 4673SOL    HW225656   4.030   0.420  17.477 -1.2219 -2.4535 -1.8965
 4674SOL     OW25657   4.604   2.406   5.186 -0.5611 -0.1104  0.4457
 4674SOL    HW125658   4.511   2.423   5.206 -0.3253 -0.5584  1.9719
 4674SOL    HW225659   4.627   2.495   5.161  1.4175 -0.4622  1.0092
 4675SOL     OW25660   4.336   4.038   8.571 -0.0899  0.3057 -1.1055
 4675SOL    HW125661   4.299   4.057   8.657  2.0787  1.3965 -0.4093
 4675SOL    HW225662   4.250   4.021   8.532 -1.1110 -0.2340  1.3502
 4676SOL     OW25663   4.722   1.443  17.622 -0.0216  0.3285  0.5552
 4676SOL    HW125664   4.643   1.437  17.675 -0.5795 -0.5474 -0.3649
 4676SOL    HW225665   0.002   1.536  17.614 -2.4879  0.8280  1.1737
 4677SOL     OW25666   2.292   1.375   7.295  0.6071  0.0541 -0.0348
 4677SOL    HW125667   2.270   1.282   7.288  1.5622 -0.1013 -0.8900
 4677SOL    HW225668   2.216   1.407   7.344  0.1428  1.0437 -1.4253
 4678SOL     OW25669   3.661   4.361   9.912  0.2524  0.3256 -0.2787
 4678SOL    HW125670   3.569   4.389   9.915  0.1668  0.0974 -0.7799
 4678SOL    HW225671   3.694   4.438   9.865  2.6007 -0.2619  0.4338
 4679SOL     OW25672   0.246   0.054   4.826 -0.4298 -0.1222  0.1333
 4679SOL    HW125673   0.245   4.732   4.901 -2.9247  1.0383  1.0091
 4679SOL    HW225674   0.183   0.010   4.769 -0.3051  0.5168 -0.5098
 4680SOL     OW25675   2.913   2.972   7.093  0.4899 -0.3755  0.1812
 4680SOL    HW125676   2.846   2.917   7.052 -0.9419  1.9673 -0.6465
 4680SOL    HW225677   2.940   2.910   7.161 -2.1633 -2.0594 -0.2993
 4681SOL     OW25678   3.824   1.514   1.551 -0.2889 -0.2905 -0.4902
 4681SOL    HW125679   3.814   1.461   1.472  0.9415  0.2928 -1.0338
 4681SOL    HW225680   3.912   1.546   1.536 -0.3283  0.3463  0.6671
 4682SOL     OW25681   4.155   3.560  13.205 -0.2043  0.2240 -0.0218
 4682SOL    HW125682   4.164   3.473  13.168  0.5424 -0.4806  1.7822
 4682SOL    HW225683   4.202   3.542  13.287  0.7607  2.5124 -0.0793
 4683SOL     OW25684   2.411   4.092   3.426  0.5887  0.1847  0.1179
 4683SOL    HW125685   2.416   4.171   3.480  0.3982  0.2401  0.0530
 4683SOL    HW225686   2.396   4.119   3.336 -1.3449  4.8338  1.8615
 4684SOL     OW25687   0.612   2.664   2.395  0.1003 -0.2483 -0.3280
 4684SOL    HW125688   0.613   2.712   2.477  0.3669 -2.3196  0.8722
 4684SOL    HW225689   0.693   2.687   2.349  0.0720 -0.9679 -0.7538
 4685SOL     OW25690   3.692   0.636  12.942  0.2250  0.2434 -0.2542
 4685SOL    HW125691   3.608   0.665  12.977 -0.3603 -0.7427 -0.8676
 4685SOL    HW225692   3.686   0.660  12.850 -1.9319 -1.1309 -0.4671
 4686SOL     OW25693   2.010   1.434  14.910  0.0179 -0.2807  0.0767
 4686SOL    HW125694   2.045   1.441  14.821  0.6478  1.2989  0.4589
 4686SOL    HW225695   2.076   1.386  14.960 -0.4968 -1.6016 -0.5132
 4687SOL     OW25696   2.034   2.881  15.372 -0.8835  0.2729 -0.0181
 4687SOL    HW125697   2.009   2.960  15.325  2.5552  1.2076 -0.2900
 4687SOL    HW225698   2.054   2.828  15.295 -0.6523 -1.1965  1.0519
 4688SOL     OW25699   3.765   3.758   4.414  0.1204  0.6562  0.3945
 4688SOL    HW125700   3.833   3.785   4.352  1.1386 -0.6527  0.9533
 4688SOL    HW225701   3.759   3.829   4.478 -0.4220 -0.3641  1.4695
 4689SOL     OW25702   3.960   3.798   6.649  0.1063 -0.0281  0.1513
 4689SOL    HW125703   3.894   3.733   6.674 -0.5486  0.4887 -0.2209
 4689SOL    HW225704   3.908   3.878   6.659 -1.2132 -0.8634 -0.0086
 4690SOL     OW25705   2.755   2.626  14.683  0.3552 -0.1390  0.5836
 4690SOL    HW125706   2.705   2.638  14.602  0.4092  0.7321  0.6793
 4690SOL    HW225707   2.675   2.593  14.724 -1.9203  0.3692 -3.4274
 4691SOL     OW25708   4.519   1.878   7.502  0.3431  0.3647  0.1573
 4691SOL    HW125709   4.596   1.933   7.512  2.0848 -2.0283 -0.0182
 4691SOL    HW225710   4.502   1.852   7.593 -1.3128  2.2385  0.3779
 4692SOL     OW25711   3.100   3.969  10.379 -0.4892  0.4770  0.0628
 4692SOL    HW125712   3.015   3.984  10.420 -1.7862  0.6016 -2.6478
 4692SOL    HW225713   3.144   3.905  10.434 -3.9064 -0.4757  1.7104
 4693SOL     OW25714   0.300   4.443   6.635 -0.0323  0.2231  0.5842
 4693SOL    HW125715   0.340   4.356   6.642  1.7779  0.8910 -1.6929
 4693SOL    HW225716   0.369   4.506   6.618  0.1509 -0.0839  0.1705
 4694SOL     OW25717   1.072   4.055   4.040 -0.1703 -0.9387  0.3547
 4694SOL    HW125718   1.125   4.055   4.119 -1.8020 -0.4929  1.4367
 4694SOL    HW225719   1.028   4.140   4.039 -2.1690 -1.9720  0.1110
 4695SOL     OW25720   0.731   4.348   2.499 -0.0350  0.0305  0.8402
 4695SOL    HW125721   0.810   4.294   2.491 -0.6433 -0.7858  0.2918
 4695SOL    HW225722   0.680   4.310   2.427  1.1112  1.9281 -0.9756
 4696SOL     OW25723   4.718   3.179   6.679  0.8852 -0.1028  0.0319
 4696SOL    HW125724   4.723   3.142   6.591 -1.4203 -2.3027  0.8520
 4696SOL    HW225725   4.717   3.272   6.656 -0.1261 -0.1370 -0.0515
 4697SOL     OW25726   1.974   3.541   8.287 -0.0894 -0.5453  0.1049
 4697SOL    HW125727   1.947   3.616   8.340  1.0511  0.9320 -1.4124
 4697SOL    HW225728   2.065   3.558   8.261 -0.0014 -0.8139  0.2405
 4698SOL     OW25729   3.211   0.827   3.837 -0.5989 -0.5494  0.0001
 4698SOL    HW125730   3.292   0.784   3.811  0.2735 -0.8921  3.3403
 4698SOL    HW225731   3.218   0.823   3.933  1.6237 -1.2500 -0.2023
 4699SOL     OW25732   1.166   4.363   0.100  0.1780 -0.8914 -0.3928
 4699SOL    HW125733   1.198   4.376   0.189 -0.3677 -2.0908 -0.0154
 4699SOL    HW225734   1.161   4.454   0.073  0.6548 -1.1084 -1.1963
 4700SOL     OW25735   3.629   1.066  10.019 -0.3420 -0.6935 -0.3893
 4700SOL    HW125736   3.690   1.046   9.948  0.9067 -0.1065  0.5037
 4700SOL    HW225737   3.567   0.993  10.026  2.6255 -3.1432  0.9484
 4701SOL     OW25738   1.241   3.044   0.503 -0.1181 -0.2118  0.5647
 4701SOL    HW125739   1.332   3.021   0.519 -0.0266 -0.5123 -0.3883
 4701SOL    HW225740   1.201   2.966   0.466  0.2657 -0.7051  1.1773
 4702SOL     OW25741   4.406   3.654  11.872  0.2622  0.1213  0.1067
 4702SOL    HW125742   4.438   3.682  11.958 -0.9843 -3.1909  1.6398
 4702SOL    HW225743   4.320   3.696  11.875 -0.8392 -2.1153 -0.5817
 4703SOL     OW25744   0.543   3.079   8.806 -0.2910  0.6736  0.5477
 4703SOL    HW125745   0.475   3.053   8.745  2.0770 -0.0046 -1.7819
 4703SOL    HW225746   0.592   3.131   8.742 -1.1360  0.3390 -0.3687
 4704SOL     OW25747   4.424   0.188   0.096 -0.3143  0.0924 -0.4789
 4704SOL    HW125748   4.433   0.160   0.187 -2.8892 -0.5214 -0.4110
 4704SOL    HW225749   4.517   0.184   0.072 -0.1587 -1.4947  0.3969
 4705SOL     OW25750   3.135   3.609   9.335 -0.0469 -0.2534  0.4517
 4705SOL    HW125751   3.073   3.658   9.388 -0.2549  0.3050 -0.3115
 4705SOL    HW225752   3.111   3.516   9.337 -1.2160  0.0328 -0.7043
 4706SOL     OW25753   1.982   1.777   1.923  0.2048  0.1547 -0.1474
 4706SOL    HW125754   1.915   1.846   1.929  0.6204  0.7031 -1.7370
 4706SOL    HW225755   1.939   1.711   1.869  2.3155 -2.9745  2.0085
 4707SOL     OW25756   3.859   4.278  12.586  0.0623  0.4335 -0.6778
 4707SOL    HW125757   3.923   4.321  12.641  1.3646 -1.6989 -0.5231
 4707SOL    HW225758   3.784   4.334  12.606 -1.6529 -1.4060 -1.8136
 4708SOL     OW25759   1.406   1.750   6.170  0.4503  0.4973  0.1730
 4708SOL    HW125760   1.468   1.738   6.098 -0.5692 -1.6104 -0.3493
 4708SOL    HW225761   1.455   1.806   6.229  0.0129  0.1034  0.9053
 4709SOL     OW25762   2.114   0.145   4.551 -0.1786  0.2884  0.1564
 4709SOL    HW125763   2.100   0.231   4.511  0.3153  1.3216  2.1735
 4709SOL    HW225764   2.053   0.086   4.507 -0.7809  1.5723 -0.7457
 4710SOL     OW25765   3.587   2.952   1.582  0.3822 -0.5015  0.2076
 4710SOL    HW125766   3.587   2.860   1.556 -0.7366  0.4442 -3.0495
 4710SOL    HW225767   3.646   2.985   1.515 -0.5345  0.9446  0.1365
 4711SOL     OW25768   3.907   2.374   0.844  0.0935  0.7644 -0.5095
 4711SOL    HW125769   3.948   2.404   0.763  1.5871 -1.0890 -0.4176
 4711SOL    HW225770   3.858   2.447   0.882 -1.4681 -0.6698  0.1951
 4712SOL     OW25771   1.213   3.779  10.119 -0.4779 -0.0068  0.0270
 4712SOL    HW125772   1.268   3.828  10.181 -0.9525 -2.2844  2.2815
 4712SOL    HW225773   1.195   3.695  10.163  0.6944 -0.8352 -1.0724
 4713SOL     OW25774   3.930   3.030   5.588  0.1924 -0.1445  0.6400
 4713SOL    HW125775   3.934   3.057   5.496 -0.3863 -0.0857  0.6365
 4713SOL    HW225776   3.911   3.115   5.627 -0.1819 -0.6088  1.4537
 4714SOL     OW25777   3.182   2.830   1.859 -0.0376  0.7314 -0.6944
 4714SOL    HW125778   3.126   2.908   1.858 -1.3441 -0.1761  1.6205
 4714SOL    HW225779   3.254   2.857   1.801  0.3299  1.0051 -0.1166
 4715SOL     OW25780   3.470   1.190  12.960  0.6960  0.0463 -0.1418
 4715SOL    HW125781   3.517   1.114  12.995  0.0222 -0.4017 -0.2263
 4715SOL    HW225782   3.448   1.150  12.876  0.9035 -2.5872  1.0275
 4716SOL     OW25783   3.625   1.428  12.977 -0.4765  0.7015 -0.0988
 4716SOL    HW125784   3.584   1.343  12.962  1.1324  0.1304 -1.2232
 4716SOL    HW225785   3.558   1.494  12.962 -0.1294  0.8392 -1.0268
 4717SOL     OW25786   4.260   3.608   9.602 -0.0031  0.0090 -0.0738
 4717SOL    HW125787   4.282   3.520   9.630 -0.0442  0.1024  0.2525
 4717SOL    HW225788   4.174   3.600   9.561 -1.1647  1.1011  2.1540
 4718SOL     OW25789   2.729   3.448   7.398 -0.3615  0.4589  0.6852
 4718SOL    HW125790   2.703   3.418   7.486 -1.8112  1.2405  0.5229
 4718SOL    HW225791   2.785   3.372   7.381 -0.2237  0.3591  1.5831
 4719SOL     OW25792   0.847   2.289   4.279 -0.5886  0.8931 -0.3780
 4719SOL    HW125793   0.789   2.287   4.203  0.6814 -0.6306 -1.3019
 4719SOL    HW225794   0.867   2.383   4.287 -0.4168  0.8476 -0.2681
 4720SOL     OW25795   2.244   3.878  17.003 -0.3751 -0.1534 -0.0592
 4720SOL    HW125796   2.176   3.905  16.942  0.0401  0.8577 -0.0604
 4720SOL    HW225797   2.214   3.924  17.081 -0.2908 -0.6041  0.2434
 4721SOL     OW25798   3.105   0.841   3.161  0.2568 -0.6756 -0.8052
 4721SOL    HW125799   3.026   0.789   3.175 -0.9630  1.0160 -1.3426
 4721SOL    HW225800   3.087   0.918   3.214 -2.4172 -0.9362 -1.3347
 4722SOL     OW25801   2.148   1.308   8.255  0.1436 -0.1395 -0.2076
 4722SOL    HW125802   2.082   1.299   8.185 -0.0100 -0.0878 -0.0706
 4722SOL    HW225803   2.130   1.245   8.325 -0.4524 -0.3856 -0.5782
 4723SOL     OW25804   4.405   3.598  15.442  0.1810 -0.0878  0.0698
 4723SOL    HW125805   4.410   3.693  15.446 -1.3304  0.1178 -2.7724
 4723SOL    HW225806   4.492   3.573  15.412 -0.0221  0.5290 -1.0450
 4724SOL     OW25807   1.460   1.063   0.510  0.0716  0.1317 -0.2439
 4724SOL    HW125808   1.480   1.139   0.564 -0.4423  1.1485 -1.4767
 4724SOL    HW225809   1.490   0.981   0.550  0.3583  0.3756  0.0319
 4725SOL     OW25810   2.025   0.767   5.306  0.2095 -0.3667  0.3549
 4725SOL    HW125811   1.994   0.698   5.248  0.3593  0.6366 -0.9191
 4725SOL    HW225812   2.077   0.811   5.239 -0.8032  0.9794  0.4674
 4726SOL     OW25813   1.330   3.813  16.881 -0.8622  0.1898  0.2500
 4726SOL    HW125814   1.240   3.847  16.889 -0.8737  0.0632  0.6918
 4726SOL    HW225815   1.307   3.741  16.823  1.2141  0.9209 -1.4812
 4727SOL     OW25816   2.629   3.543   7.164 -0.3065 -0.6671 -0.6010
 4727SOL    HW125817   2.711   3.536   7.116 -0.1758  1.5377 -0.7144
 4727SOL    HW225818   2.654   3.525   7.255  1.2294 -0.1447 -0.9304
 4728SOL     OW25819   0.509   4.708  15.883  0.2711  0.6872  0.0178
 4728SOL    HW125820   0.556   4.665  15.812 -0.3792  0.2489 -0.1515
 4728SOL    HW225821   0.488   4.639  15.947 -1.5814  0.1986 -1.1018
 4729SOL     OW25822   2.342   4.577   6.057 -0.2454  0.0028 -0.0457
 4729SOL    HW125823   2.412   4.641   6.072  0.3688 -0.4290 -1.0772
 4729SOL    HW225824   2.273   4.643   6.047  0.8681  1.0781 -0.6314
 4730SOL     OW25825   4.275   2.664  17.256  0.1231 -0.0407  0.9289
 4730SOL    HW125826   4.252   2.571  17.257  1.8775 -0.4473  3.3045
 4730SOL    HW225827   4.194   2.711  17.271  0.8478  2.2217 -2.1243
 4731SOL     OW25828   0.042   3.638  14.556 -0.3989  0.3222 -0.1678
 4731SOL    HW125829   0.030   3.668  14.646  1.1663  0.7112 -0.0924
 4731SOL    HW225830   0.003   3.711  14.508 -1.3010 -0.6527 -0.9110
 4732SOL     OW25831   4.418   3.913   8.036  0.1096 -0.0019  0.1729
 4732SOL    HW125832   4.394   3.979   7.971  1.1626  0.3402  0.1205
 4732SOL    HW225833   4.409   3.969   8.113 -0.8282  0.3181 -0.1699
 4733SOL     OW25834   4.594   3.922   5.505 -0.5689 -0.7103 -0.2554
 4733SOL    HW125835   4.651   3.999   5.503  0.0032 -1.1129  0.8432
 4733SOL    HW225836   4.559   3.909   5.416  0.0325 -1.9433 -0.3098
 4734SOL     OW25837   0.509   1.162   3.945  0.5081 -0.0770 -0.2206
 4734SOL    HW125838   0.506   1.082   3.998 -2.2059  0.2941  0.1969
 4734SOL    HW225839   0.417   1.183   3.962  0.1816 -1.4372 -0.2946
 4735SOL     OW25840   1.762   0.690   5.653  0.1487 -0.3657 -0.1759
 4735SOL    HW125841   1.835   0.681   5.592  1.2357 -3.4929  1.5842
 4735SOL    HW225842   1.695   0.676   5.585  2.6427 -1.3039 -2.4482
 4736SOL     OW25843   2.138   4.348   5.661 -0.3419 -0.3493 -0.4821
 4736SOL    HW125844   2.164   4.256   5.652  0.9035 -0.2231  1.8190
 4736SOL    HW225845   2.044   4.342   5.645 -0.6776 -0.2176  1.3969
 4737SOL     OW25846   4.621   2.066   7.148  0.0833  0.1340  0.3152
 4737SOL    HW125847   4.608   1.978   7.184 -1.3585  0.2265  0.0282
 4737SOL    HW225848   4.558   2.059   7.076  1.1757 -2.5767 -0.3879
 4738SOL     OW25849   0.377   3.526   3.828 -0.7599  0.1941 -0.2557
 4738SOL    HW125850   0.328   3.557   3.904 -1.5719 -1.5156 -0.0717
 4738SOL    HW225851   0.435   3.602   3.820  0.8478 -1.0935 -0.6982
 4739SOL     OW25852   2.768   1.524   2.720  0.0329 -0.2674 -0.0176
 4739SOL    HW125853   2.798   1.439   2.750  0.4422 -0.2058 -0.2519
 4739SOL    HW225854   2.761   1.571   2.804  0.1281  0.2207 -0.2851
 4740SOL     OW25855   2.796   4.284   4.263 -0.2504 -0.1266 -0.0793
 4740SOL    HW125856   2.847   4.363   4.281 -0.5775  0.1511 -0.3706
 4740SOL    HW225857   2.772   4.295   4.171 -1.2675 -1.5419  0.0099
 4741SOL     OW25858   3.413   3.502   7.506  0.2089 -0.2424 -0.6376
 4741SOL    HW125859   3.425   3.408   7.521 -1.8325 -0.5919 -1.2208
 4741SOL    HW225860   3.342   3.513   7.570 -0.8831 -0.1138 -1.8584
 4742SOL     OW25861   4.042   4.471   8.806 -0.7494  0.1487 -0.1442
 4742SOL    HW125862   3.977   4.522   8.854 -2.8852 -0.8478 -1.9651
 4742SOL    HW225863   4.009   4.455   8.717 -0.8768  0.4848 -0.1574
 4743SOL     OW25864   2.520   0.040   6.129  0.5477 -0.3370 -0.0565
 4743SOL    HW125865   2.454   0.109   6.135  0.3324 -0.4854 -0.7560
 4743SOL    HW225866   2.544   0.008   6.216  0.5855  0.4680  0.2318
 4744SOL     OW25867   0.526   3.956   4.439  0.4329 -0.1613 -0.3690
 4744SOL    HW125868   0.565   3.915   4.361 -0.3802 -1.7489  0.0527
 4744SOL    HW225869   0.448   3.900   4.439  0.2600  0.0678 -0.9970
 4745SOL     OW25870   3.780   3.735  11.438  0.1277  0.5661 -0.2285
 4745SOL    HW125871   3.780   3.796  11.512 -2.1231  0.4853 -0.1731
 4745SOL    HW225872   3.847   3.784  11.389 -0.3170  2.1013  0.7096
 4746SOL     OW25873   1.998   1.031   7.430  0.0995 -0.2500 -0.2746
 4746SOL    HW125874   1.948   1.087   7.491  0.6867  0.7841 -0.7466
 4746SOL    HW225875   1.940   1.026   7.355  0.1750 -0.0253 -0.3478
 4747SOL     OW25876   0.002   4.426   8.719  0.2602 -0.3620 -0.2329
 4747SOL    HW125877   4.689   4.360   8.767  0.6298 -0.7952 -0.4444
 4747SOL    HW225878   4.695   4.415   8.634 -0.9148 -4.5696  0.9360
 4748SOL     OW25879   0.601   3.039  17.062  0.5102  0.4086  0.5110
 4748SOL    HW125880   0.535   3.097  17.099 -0.3513  1.4818 -2.6756
 4748SOL    HW225881   0.605   3.062  16.969  1.1240 -2.3451 -0.1294
 4749SOL     OW25882   2.575   2.571   1.624  0.4866  0.3360 -0.2936
 4749SOL    HW125883   2.490   2.592   1.588  0.4548 -2.5504 -1.8895
 4749SOL    HW225884   2.630   2.642   1.590  1.5612 -0.6119 -0.5487
 4750SOL     OW25885   4.352   1.560   3.844  0.1606 -0.0704  0.6255
 4750SOL    HW125886   4.280   1.508   3.808  1.4799 -0.2253 -1.7251
 4750SOL    HW225887   4.367   1.621   3.773  0.4187 -0.8108  0.0518
 4751SOL     OW25888   4.389   0.468   8.065 -0.2340 -0.0679  0.2565
 4751SOL    HW125889   4.414   0.517   8.144 -0.4622  0.6893 -0.1350
 4751SOL    HW225890   4.377   0.544   8.009  1.7598  0.9689  1.2036
 4752SOL     OW25891   0.598   1.669   1.291  0.1622  0.1083 -0.3104
 4752SOL    HW125892   0.616   1.692   1.200 -2.9830 -1.3095 -1.3202
 4752SOL    HW225893   0.595   1.573   1.296  0.7840  0.0347 -1.5974
 4753SOL     OW25894   3.761   0.925   3.943  0.0192  0.2575 -0.8471
 4753SOL    HW125895   3.679   0.961   3.978  0.8963 -0.1301  1.6007
 4753SOL    HW225896   3.794   1.005   3.902 -1.6490 -0.0896 -2.8737
 4754SOL     OW25897   3.713   0.766   8.720 -0.3874 -0.2594 -0.3672
 4754SOL    HW125898   3.637   0.819   8.695  0.0079  1.1726  1.4204
 4754SOL    HW225899   3.754   0.828   8.781 -0.4836 -1.1056  0.5418
 4755SOL     OW25900   3.328   4.474   7.726  0.3282  0.7077 -0.1049
 4755SOL    HW125901   3.333   4.487   7.631  0.8659 -1.5491 -0.4052
 4755SOL    HW225902   3.417   4.477   7.763  0.1292 -2.4635  0.6441
 4756SOL     OW25903   4.534   0.462   9.048 -0.5562 -0.0141 -0.1657
 4756SOL    HW125904   4.478   0.509   9.109 -1.0802 -1.3401  0.3675
 4756SOL    HW225905   4.590   0.410   9.105 -0.5722  1.9092  1.6049
 4757SOL     OW25906   1.245   4.442  12.303  0.9600  0.1341  0.2835
 4757SOL    HW125907   1.302   4.365  12.292  1.3524  0.7241 -1.8125
 4757SOL    HW225908   1.201   4.456  12.219 -0.7782  0.6748  1.2938
 4758SOL     OW25909   4.287   4.094   7.855 -0.2002  0.2076 -0.3210
 4758SOL    HW125910   4.293   4.043   7.774  0.0533  1.0117 -0.8120
 4758SOL    HW225911   4.233   4.163   7.816  0.0506 -0.3613 -1.6618
 4759SOL     OW25912   1.726   1.527   3.946 -0.2557  1.0427 -0.1148
 4759SOL    HW125913   1.640   1.491   3.969  0.1703  0.8970  1.2106
 4759SOL    HW225914   1.729   1.610   3.993  1.6696  1.2252 -0.5664
 4760SOL     OW25915   2.059   0.540   3.857  0.4626  0.0022 -0.3303
 4760SOL    HW125916   2.003   0.533   3.934 -1.5887 -1.3704 -1.9384
 4760SOL    HW225917   2.141   0.502   3.889 -1.1734 -1.7073  1.8319
 4761SOL     OW25918   4.019   4.411   5.199 -0.1301 -0.0858 -0.4405
 4761SOL    HW125919   4.009   4.461   5.119  1.2304 -0.1548 -0.6485
 4761SOL    HW225920   4.113   4.396   5.206 -0.5410 -2.3134  0.3288
 4762SOL     OW25921   4.135   4.035   4.150  0.3332 -0.9649  0.4469
 4762SOL    HW125922   4.121   4.102   4.083  2.8271  0.4634  1.3711
 4762SOL    HW225923   4.174   3.969   4.093 -0.0028 -0.5094 -0.3139
 4763SOL     OW25924   2.206   2.668   9.662  0.1722 -0.0660  0.7384
 4763SOL    HW125925   2.241   2.666   9.574  0.4164 -1.0283  0.8571
 4763SOL    HW225926   2.244   2.754   9.680  0.3042 -0.0006  0.1212
 4764SOL     OW25927   4.004   1.501   4.192 -0.1328  0.3676 -0.7888
 4764SOL    HW125928   4.072   1.512   4.259  0.0424 -0.2419 -0.8645
 4764SOL    HW225929   3.959   1.585   4.195 -0.7769  0.1031 -3.4918
 4765SOL     OW25930   2.708   1.603   3.939  0.2076 -0.3541  0.3712
 4765SOL    HW125931   2.628   1.598   3.991 -0.0501  0.0813  0.0179
 4765SOL    HW225932   2.679   1.648   3.860 -1.2259 -1.8109  0.0668
 4766SOL     OW25933   3.630   1.946   0.758 -0.7738  0.6377  0.2497
 4766SOL    HW125934   3.684   2.000   0.701  1.2688 -2.1614 -0.4740
 4766SOL    HW225935   3.702   1.909   0.809 -0.3773 -0.1523 -0.8858
 4767SOL     OW25936   2.363   3.614   9.336 -0.4133  0.0571  0.2729
 4767SOL    HW125937   2.338   3.610   9.244 -0.0607  1.6028  0.1182
 4767SOL    HW225938   2.304   3.683   9.368 -0.9671 -1.4081  2.4236
 4768SOL     OW25939   3.275   0.206   2.555  0.5757 -0.6205  0.1133
 4768SOL    HW125940   3.317   0.131   2.513  0.7049  1.3693 -3.2357
 4768SOL    HW225941   3.190   0.206   2.512  0.3439  0.6373  0.5904
 4769SOL     OW25942   2.427   0.318   3.736  0.0618 -0.5705 -0.1297
 4769SOL    HW125943   2.518   0.307   3.708 -0.0691  0.9423 -1.1660
 4769SOL    HW225944   2.387   0.330   3.650 -0.3884 -1.4713 -0.0461
 4770SOL     OW25945   0.708   2.260   2.654 -0.9639  0.3195  0.2155
 4770SOL    HW125946   0.759   2.270   2.573 -2.6254  0.7245 -0.7843
 4770SOL    HW225947   0.642   2.193   2.632  0.2132 -1.9334  3.6640
 4771SOL     OW25948   1.711   1.960   4.367 -1.1878  0.1894  0.0545
 4771SOL    HW125949   1.774   1.946   4.296 -0.5190  0.7479  0.5367
 4771SOL    HW225950   1.712   2.054   4.384  0.6193  0.5347 -1.9591
 4772SOL     OW25951   1.552   0.064  13.445  0.4030 -0.2286  0.3222
 4772SOL    HW125952   1.571   4.727  13.503  1.9277  1.5639  2.1285
 4772SOL    HW225953   1.614   0.031  13.379  3.0621  0.3095  2.5268
 4773SOL     OW25954   1.281   2.978   3.464 -0.2380  0.3658  0.1441
 4773SOL    HW125955   1.230   2.899   3.444  1.2244 -1.0468  1.9954
 4773SOL    HW225956   1.269   2.975   3.559  2.7585 -0.7986  0.4692
 4774SOL     OW25957   3.529   0.453   3.369 -0.1914 -0.0984 -0.4240
 4774SOL    HW125958   3.440   0.423   3.391  0.3114 -1.8477 -0.7817
 4774SOL    HW225959   3.506   0.513   3.298 -1.2463 -1.8129 -1.5331
 4775SOL     OW25960   0.807   1.400   7.703 -0.4654 -0.0570 -0.0330
 4775SOL    HW125961   0.796   1.306   7.716  0.6103 -0.4269 -1.7807
 4775SOL    HW225962   0.901   1.411   7.692 -1.0348  2.2115 -2.6193
 4776SOL     OW25963   2.087   3.755  10.779 -0.4443 -0.6551  0.1844
 4776SOL    HW125964   2.105   3.849  10.772 -3.3989 -0.0206  1.1999
 4776SOL    HW225965   1.992   3.749  10.770 -0.5737  0.2824  0.9764
 4777SOL     OW25966   1.235   4.226   7.894 -0.4510 -0.1214  0.6910
 4777SOL    HW125967   1.312   4.266   7.936  0.3983  0.6240 -1.5879
 4777SOL    HW225968   1.189   4.307   7.870  0.5406 -0.1158 -1.1565
 4778SOL     OW25969   3.790   1.252   4.521  0.2073 -0.1022 -0.2821
 4778SOL    HW125970   3.797   1.157   4.529  1.9962  0.2267  2.3951
 4778SOL    HW225971   3.709   1.255   4.572 -0.1515 -1.9306 -0.7467
 4779SOL     OW25972   2.633   1.733  14.156  0.3320 -0.2372 -0.0057
 4779SOL    HW125973   2.650   1.825  14.134 -2.2723  0.0704 -0.7589
 4779SOL    HW225974   2.584   1.746  14.238 -0.5629 -0.7148 -0.4633
 4780SOL     OW25975   0.144   0.497   1.793  0.2503 -0.1038 -0.3762
 4780SOL    HW125976   0.164   0.573   1.848  0.0066 -1.5084  1.6325
 4780SOL    HW225977   0.125   0.429   1.858 -0.6497  0.3685 -0.1499
 4781SOL     OW25978   0.614   1.764   0.797  0.1510 -0.4245  0.2362
 4781SOL    HW125979   0.538   1.822   0.793  0.3753 -0.1219  0.3465
 4781SOL    HW225980   0.651   1.780   0.710 -2.1650  0.0450 -0.6506
 4782SOL     OW25981   3.419   2.913   7.140 -0.0636 -0.4305 -0.0015
 4782SOL    HW125982   3.358   2.980   7.171  0.9605  0.8360 -0.7507
 4782SOL    HW225983   3.372   2.877   7.065  3.2202 -2.2619 -1.1633
 4783SOL     OW25984   1.565   2.335   2.574 -0.5643 -0.3313 -0.4273
 4783SOL    HW125985   1.625   2.260   2.575 -0.0680  0.0516 -4.1059
 4783SOL    HW225986   1.483   2.294   2.546 -0.8889 -0.3103  0.4819
 4784SOL     OW25987   3.371   3.989   3.136 -0.4693  0.5999  0.0928
 4784SOL    HW125988   3.365   4.027   3.048  1.8671 -0.0904 -0.3844
 4784SOL    HW225989   3.318   4.044   3.194  1.1537  3.0466 -0.7079
 4785SOL     OW25990   4.493   1.992   3.874  0.0405  0.2406 -0.3715
 4785SOL    HW125991   4.447   2.011   3.792  0.3392  0.3432 -0.5146
 4785SOL    HW225992   4.424   1.967   3.935  0.2408  1.6371  0.4354
 4786SOL     OW25993   4.332   1.537   8.480  0.7809  0.7539 -0.7742
 4786SOL    HW125994   4.265   1.547   8.548  2.8615  0.1294  1.3762
 4786SOL    HW225995   4.339   1.629   8.454 -0.3092  1.3699  1.1379
 4787SOL     OW25996   3.076   1.805   7.672 -0.0144  0.1502  0.2184
 4787SOL    HW125997   3.095   1.712   7.658  2.5245  0.5540  0.8896
 4787SOL    HW225998   3.095   1.841   7.585  0.1297  3.1151  1.4607
 4788SOL     OW25999   3.283   4.503   7.443 -0.0665  0.1688 -0.3319
 4788SOL    HW126000   3.245   4.540   7.364 -1.3710  1.6482  1.0031
 4788SOL    HW226001   3.268   4.412   7.417  0.3073 -0.4864  1.7254
 4789SOL     OW26002   1.004   2.816  11.325 -0.1603  0.0306  0.2892
 4789SOL    HW126003   1.002   2.728  11.286 -0.8626  0.7207 -1.2183
 4789SOL    HW226004   1.083   2.846  11.280 -0.1719 -1.4736 -0.7411
 4790SOL     OW26005   4.621   3.162   2.987 -0.6690 -0.2159 -0.0991
 4790SOL    HW126006   4.587   3.143   2.899 -0.6003  1.1614 -0.4185
 4790SOL    HW226007   4.715   3.147   2.985 -0.8414 -1.1417 -1.2098
 4791SOL     OW26008   1.303   4.341   4.660  0.2737 -0.0556  0.8484
 4791SOL    HW126009   1.382   4.308   4.702 -0.4945  0.4918  2.7220
 4791SOL    HW226010   1.326   4.364   4.570  0.3858 -1.0173  0.6261
 4792SOL     OW26011   2.697   1.705   5.898  0.2097 -0.1485  0.6118
 4792SOL    HW126012   2.748   1.737   5.824  2.5956 -0.5943  2.0631
 4792SOL    HW226013   2.624   1.766   5.895 -0.5980 -1.1819 -0.8146
 4793SOL     OW26014   1.878   1.011   7.800 -0.2012 -0.0580  0.4568
 4793SOL    HW126015   1.973   1.003   7.795 -0.1617 -0.1427  1.5162
 4793SOL    HW226016   1.864   0.938   7.860  1.0141  0.3292  1.2035
 4794SOL     OW26017   0.387   4.727   4.046  0.2358  0.2074 -0.2901
 4794SOL    HW126018   0.435   4.726   3.964 -2.1662 -1.4865 -1.6722
 4794SOL    HW226019   0.430   0.063   4.090  0.0330  1.3638 -2.0297
 4795SOL     OW26020   4.328   4.307  12.397  0.0746  0.2042 -0.3160
 4795SOL    HW126021   4.275   4.380  12.428 -0.5387 -0.6662  0.6503
 4795SOL    HW226022   4.392   4.293  12.467  0.7364 -0.1019 -0.9789
 4796SOL     OW26023   0.903   3.973   1.025 -0.0751  0.0254  0.1506
 4796SOL    HW126024   0.896   3.929   1.110 -0.0444  1.2900  0.8040
 4796SOL    HW226025   0.820   3.967   0.978 -0.1131  2.0432 -0.0321
 4797SOL     OW26026   2.056   4.292  12.416  0.1680 -0.4359  0.4465
 4797SOL    HW126027   2.064   4.386  12.400 -2.9554 -0.0284  1.3217
 4797SOL    HW226028   1.960   4.288  12.412  0.1592  1.3989 -1.2808
 4798SOL     OW26029   3.405   2.641  10.181 -0.5249  0.1724 -0.7181
 4798SOL    HW126030   3.365   2.581  10.119 -1.4655  0.7977 -0.7232
 4798SOL    HW226031   3.397   2.590  10.262 -1.1595  0.8231 -0.3716
 4799SOL     OW26032   4.487   0.513  14.931  0.3306 -0.8671  0.2175
 4799SOL    HW126033   4.480   0.585  14.869  0.7564 -0.6367  0.4384
 4799SOL    HW226034   4.395   0.484  14.930  0.2506 -0.5355 -1.4208
 4800SOL     OW26035   3.022   2.901   4.812 -0.0032 -0.1197 -0.4762
 4800SOL    HW126036   3.083   2.878   4.742  1.4973  2.3003  0.0294
 4800SOL    HW226037   2.942   2.910   4.760 -1.1485  3.0137  1.8171
 4801SOL     OW26038   0.050   3.768   0.586 -0.6230  0.3920  0.8158
 4801SOL    HW126039   0.076   3.750   0.676  0.4341  0.8204  0.6057
 4801SOL    HW226040   0.040   3.861   0.606 -0.6866  0.4464  0.5419
 4802SOL     OW26041   4.254   3.972   4.696  0.1293 -0.4006  0.3870
 4802SOL    HW126042   4.173   3.923   4.685  0.5166 -0.9180 -0.1140
 4802SOL    HW226043   4.254   3.992   4.790  0.1327 -1.2332  0.5580
 4803SOL     OW26044   1.243   2.733   7.523  0.2833 -0.1092  0.6170
 4803SOL    HW126045   1.311   2.801   7.531 -1.0804  1.3815 -0.5062
 4803SOL    HW226046   1.274   2.697   7.440 -0.3540  0.5936  0.0658
 4804SOL     OW26047   0.523   1.836  12.980  0.2116  0.6101 -0.0745
 4804SOL    HW126048   0.567   1.916  12.949  1.5655 -0.1345 -0.0766
 4804SOL    HW226049   0.446   1.883  13.012  0.3692  0.3147  0.7298
 4805SOL     OW26050   4.629   4.721   4.526  0.1599 -0.0511  0.0195
 4805SOL    HW126051   4.646   0.068   4.482 -0.6055 -0.5340 -1.1828
 4805SOL    HW226052   4.608   4.666   4.451 -1.7945 -0.9441  1.2194
 4806SOL     OW26053   1.474   0.215   2.396  0.2706 -0.1000 -0.1273
 4806SOL    HW126054   1.513   0.149   2.454 -0.1860 -0.1913  0.0790
 4806SOL    HW226055   1.486   0.293   2.450  0.2133  0.9367 -1.6218
 4807SOL     OW26056   2.190   1.944   2.907  0.6474 -0.2249 -0.1039
 4807SOL    HW126057   2.277   1.905   2.914  0.5924 -0.5049 -1.0265
 4807SOL    HW226058   2.195   1.977   2.818 -0.0384 -0.9337 -0.4134
 4808SOL     OW26059   3.516   1.533   7.793 -0.1671 -0.2111  0.2299
 4808SOL    HW126060   3.441   1.500   7.843 -0.0585  1.0730  1.2397
 4808SOL    HW226061   3.466   1.587   7.731  0.5937 -0.3379 -0.4961
 4809SOL     OW26062   4.310   2.616   7.934 -0.4329  0.1208 -0.1413
 4809SOL    HW126063   4.216   2.628   7.918 -0.7019  0.3556  1.6044
 4809SOL    HW226064   4.343   2.698   7.898 -1.6099  1.1530  1.1213
 4810SOL     OW26065   0.272   1.840   5.523  0.4833 -0.1331  0.3795
 4810SOL    HW126066   0.329   1.901   5.476  0.0839  1.0379  1.4120
 4810SOL    HW226067   0.271   1.780   5.448 -2.0652 -0.3345  0.5721
 4811SOL     OW26068   2.163   0.544   2.443  0.4689 -0.6450  0.0639
 4811SOL    HW126069   2.256   0.551   2.464  0.6907 -0.7337 -0.8865
 4811SOL    HW226070   2.122   0.522   2.527  1.2908 -0.0593  0.6163
 4812SOL     OW26071   4.105   0.435   6.593 -0.2179 -0.7243 -0.4414
 4812SOL    HW126072   4.098   0.442   6.498 -2.1631 -0.4630 -0.2873
 4812SOL    HW226073   4.191   0.392   6.595 -0.8449 -1.8727  1.8640
 4813SOL     OW26074   0.997   0.556  14.904  0.3450  0.5014 -0.3729
 4813SOL    HW126075   1.026   0.465  14.914  2.7814  0.8355 -4.2237
 4813SOL    HW226076   0.927   0.550  14.969  0.4195  2.3853 -0.1347
 4814SOL     OW26077   4.015   1.276   9.397 -0.1694  0.0590 -0.5461
 4814SOL    HW126078   3.938   1.226   9.424  2.0885 -1.2958  3.4993
 4814SOL    HW226079   3.977   1.337   9.334 -0.2133  0.1855 -0.3971
 4815SOL     OW26080   2.937   2.741   5.259  0.2009 -0.0968 -0.1157
 4815SOL    HW126081   2.859   2.793   5.240 -0.6442 -0.6161  1.9142
 4815SOL    HW226082   2.976   2.740   5.172  0.4529  0.0524 -0.0042
 4816SOL     OW26083   4.737   1.586  10.264  0.0060 -0.2540  0.5536
 4816SOL    HW126084   4.706   1.629  10.344  2.8412  0.9051  1.0221
 4816SOL    HW226085   4.711   1.494  10.277 -1.0894 -0.0936 -0.4774
 4817SOL     OW26086   2.362   3.411  17.066 -0.0130  0.4942  0.2395
 4817SOL    HW126087   2.308   3.482  17.101  0.2735 -0.1256  1.9342
 4817SOL    HW226088   2.350   3.345  17.134 -0.3265  0.2435 -0.0566
 4818SOL     OW26089   3.762   0.786   9.373 -0.5060  0.6802  0.0104
 4818SOL    HW126090   3.727   0.748   9.293  0.8378  1.6421 -1.0415
 4818SOL    HW226091   3.840   0.837   9.351 -0.9114  1.5069  0.4925
 4819SOL     OW26092   3.135   3.318   4.662 -0.3672  0.4247 -0.5711
 4819SOL    HW126093   3.218   3.316   4.710 -1.4178 -2.2851  1.1320
 4819SOL    HW226094   3.089   3.387   4.709  1.4350  2.2701 -1.4934
 4820SOL     OW26095   4.032   2.867   4.239  0.7782 -0.0267  1.1165
 4820SOL    HW126096   4.073   2.871   4.325  1.1522  0.4553  0.9137
 4820SOL    HW226097   3.953   2.818   4.262 -0.2701  0.5613 -1.1798
 4821SOL     OW26098   3.089   1.092  12.747  0.2961  0.0821  0.4625
 4821SOL    HW126099   3.026   1.120  12.681 -1.2006  1.3121  2.4181
 4821SOL    HW226100   3.072   0.998  12.734  1.4644 -0.0613 -0.0370
 4822SOL     OW26101   0.055   1.333   5.101  0.1140  0.7715 -0.2811
 4822SOL    HW126102   0.038   1.419   5.138  1.1252  0.9314 -0.1655
 4822SOL    HW226103   4.718   1.330   5.041  0.5872 -0.2120 -0.8291
 4823SOL     OW26104   1.414   1.865  17.230 -0.0340  0.5134 -0.2007
 4823SOL    HW126105   1.416   1.934  17.163  0.6073 -0.2369 -0.9452
 4823SOL    HW226106   1.499   1.822  17.238  1.0669  2.3130 -1.9758
 4824SOL     OW26107   4.508   1.773   6.101 -0.0322  0.1030 -0.3191
 4824SOL    HW126108   4.600   1.791   6.082  0.0775  1.7396  1.7645
 4824SOL    HW226109   4.516   1.679   6.083  0.8609 -0.1562  1.4910
 4825SOL     OW26110   0.709   3.976   7.453  0.1894  0.3484  0.2095
 4825SOL    HW126111   0.677   4.008   7.368 -0.5709 -1.4818 -0.2064
 4825SOL    HW226112   0.641   4.009   7.512 -0.1513  0.3169 -0.1611
 4826SOL     OW26113   0.478   1.812   5.340  0.1873 -0.2798 -0.2573
 4826SOL    HW126114   0.566   1.824   5.306  1.1026 -0.9199  1.8598
 4826SOL    HW226115   0.437   1.894   5.312 -2.0791 -0.7250  1.6903
 4827SOL     OW26116   3.801   4.036   5.634  0.1054 -0.1064 -0.5504
 4827SOL    HW126117   3.865   4.021   5.703  1.8314 -0.4446 -2.2051
 4827SOL    HW226118   3.861   4.069   5.566  0.5701  1.6427  0.7079
 4828SOL     OW26119   0.470   2.633   6.346  0.3457 -0.2345 -0.1947
 4828SOL    HW126120   0.376   2.621   6.360  0.9194 -5.0056 -0.3915
 4828SOL    HW226121   0.511   2.585   6.418  1.7123  1.0748 -0.0898
 4829SOL     OW26122   3.223   3.430   7.311 -0.6808 -0.1351  0.2419
 4829SOL    HW126123   3.301   3.454   7.261  0.0908 -0.3507  1.3352
 4829SOL    HW226124   3.221   3.503   7.373 -0.6886 -0.1432  0.2512
 4830SOL     OW26125   1.703   0.240  14.929  0.0088 -0.2019  0.0188
 4830SOL    HW126126   1.775   0.290  14.967 -1.0447  0.3513  1.2707
 4830SOL    HW226127   1.718   0.265  14.838  3.6769  0.6348  0.8448
 4831SOL     OW26128   0.196   2.198   0.682  0.5335  0.3751  0.0404
 4831SOL    HW126129   0.227   2.284   0.711 -1.8625  1.1007  0.4700
 4831SOL    HW226130   0.245   2.182   0.602 -1.8038 -0.0782 -1.3178
 4832SOL     OW26131   0.110   0.868  12.864 -0.6209 -0.7011  0.2237
 4832SOL    HW126132   0.191   0.819  12.847 -0.6137 -0.3914 -0.6082
 4832SOL    HW226133   0.131   0.956  12.832  0.2447 -0.8255  0.4410
 4833SOL     OW26134   1.114   0.092   0.504  0.0733 -0.5701 -0.2738
 4833SOL    HW126135   1.034   0.049   0.471  0.0037  1.3618 -2.6682
 4833SOL    HW226136   1.153   0.013   0.540  4.5892  2.1704  0.7615
 4834SOL     OW26137   2.848   3.444   6.702 -0.3107 -0.0391 -0.0967
 4834SOL    HW126138   2.924   3.494   6.731 -2.1354  0.9706  2.9337
 4834SOL    HW226139   2.776   3.471   6.759 -0.6466  2.0153 -1.5062
 4835SOL     OW26140   3.547   1.248   7.917  0.5621  0.3687 -0.1561
 4835SOL    HW126141   3.495   1.225   7.841  1.1210  0.8087 -0.6815
 4835SOL    HW226142   3.619   1.188   7.896  2.3498  2.1447  0.8108
 4836SOL     OW26143   4.661   2.213   5.923 -0.0290  0.3818 -0.5918
 4836SOL    HW126144   4.573   2.185   5.901  0.0035 -0.9440  0.9946
 4836SOL    HW226145   4.716   2.153   5.873 -0.4359 -1.0982  0.7596
 4837SOL     OW26146   1.259   4.334   2.530 -0.2937 -0.3039  0.3694
 4837SOL    HW126147   1.325   4.274   2.495  1.8709  2.6898 -0.6339
 4837SOL    HW226148   1.289   4.418   2.496  0.8107 -0.7210  0.3162
 4838SOL     OW26149   1.893   4.179   7.951 -0.1534  0.6452 -0.3512
 4838SOL    HW126150   1.806   4.215   7.933 -0.3379  0.1054 -0.5383
 4838SOL    HW226151   1.936   4.261   7.977 -1.9523  0.8244  2.0013
 4839SOL     OW26152   0.772   2.805   5.894 -0.0616 -0.3992 -0.2548
 4839SOL    HW126153   0.858   2.821   5.932 -0.9981  0.3788  1.5280
 4839SOL    HW226154   0.717   2.786   5.970  0.8030 -0.0424  0.4602
 4840SOL     OW26155   0.704   3.896  13.417  0.1836  0.6020 -0.5959
 4840SOL    HW126156   0.780   3.843  13.393 -1.6416 -0.9291 -2.9650
 4840SOL    HW226157   0.727   3.969  13.360  0.4311  0.3445 -0.8229
 4841SOL     OW26158   0.024   4.013   2.481 -0.5691  0.7121  0.5264
 4841SOL    HW126159   0.111   4.052   2.491  0.3753 -0.9883 -1.1541
 4841SOL    HW226160   0.028   3.958   2.403 -0.2182 -0.7107  1.5434
 4842SOL     OW26161   0.552   2.002   4.388  0.0449  0.0235 -0.1254
 4842SOL    HW126162   0.563   2.087   4.345  1.0573  1.2454  2.5158
 4842SOL    HW226163   0.521   1.954   4.311  1.1606  0.1886 -0.6672
 4843SOL     OW26164   4.330   2.739   8.710  0.5739 -0.0234 -0.3067
 4843SOL    HW126165   4.410   2.760   8.660 -0.2050  0.4060 -1.3717
 4843SOL    HW226166   4.301   2.825   8.738 -2.4751 -0.5189 -1.9963
 4844SOL     OW26167   3.755   3.691   3.261  0.3394  0.0881  0.0323
 4844SOL    HW126168   3.831   3.718   3.210  1.3433 -2.0025  0.4126
 4844SOL    HW226169   3.719   3.625   3.202 -1.0474  0.5724  0.3235
 4845SOL     OW26170   2.072   2.341   2.964 -0.3268  0.1599 -0.5173
 4845SOL    HW126171   2.126   2.364   2.888  0.8332  0.8462  0.5236
 4845SOL    HW226172   2.122   2.273   3.008 -1.5452  0.5394  1.4580
 4846SOL     OW26173   4.633   0.434   5.135 -0.7842 -0.7619  0.4088
 4846SOL    HW126174   4.573   0.486   5.082 -4.2959 -2.7753  2.3928
 4846SOL    HW226175   4.700   0.401   5.076  0.7482 -1.1363  2.3659
 4847SOL     OW26176   1.059   0.715   3.958 -0.3513  0.2129  0.3950
 4847SOL    HW126177   0.976   0.704   3.910  0.4667 -1.5593 -0.5974
 4847SOL    HW226178   1.098   0.793   3.917 -0.5303  0.5146  0.7989
 4848SOL     OW26179   4.163   3.795   6.839  0.0699 -0.3713  0.0579
 4848SOL    HW126180   4.180   3.852   6.914 -1.9017 -0.0753  0.2849
 4848SOL    HW226181   4.082   3.832   6.803 -0.2918 -1.2715 -0.0493
 4849SOL     OW26182   2.737   4.149   9.251  0.0839  0.0584 -0.7050
 4849SOL    HW126183   2.650   4.156   9.211 -0.4094  2.8701  0.8461
 4849SOL    HW226184   2.722   4.192   9.335  2.5448 -0.7264  0.1306
 4850SOL     OW26185   1.809   0.278   3.240 -0.2944 -0.0567 -0.0320
 4850SOL    HW126186   1.809   0.370   3.215 -0.0929 -0.7306 -2.6016
 4850SOL    HW226187   1.774   0.279   3.328 -1.2156  1.0266 -0.4157
 4851SOL     OW26188   0.500   0.414   8.750 -0.0887 -0.4330  0.5425
 4851SOL    HW126189   0.436   0.427   8.820  0.7001 -2.9854  1.7394
 4851SOL    HW226190   0.451   0.404   8.668  2.8267 -0.4671 -1.1675
 4852SOL     OW26191   2.282   3.719   1.973 -0.5534 -0.0355  0.9832
 4852SOL    HW126192   2.189   3.719   1.995 -0.2139  0.3992  2.4484
 4852SOL    HW226193   2.308   3.656   2.040  2.1309 -0.5708 -0.5491
 4853SOL     OW26194   1.354   1.606  17.030 -0.7648 -0.7609  0.2849
 4853SOL    HW126195   1.301   1.601  17.110 -1.9185  1.1189 -0.3632
 4853SOL    HW226196   1.443   1.620  17.062 -0.9950 -0.5830  0.8514
 4854SOL     OW26197   4.272   2.476   8.843 -0.3945  0.0922  0.2102
 4854SOL    HW126198   4.286   2.541   8.775  0.1344  0.0512  0.2765
 4854SOL    HW226199   4.359   2.469   8.884 -1.4731  0.3438  2.5573
 4855SOL     OW26200   3.065   2.830  10.303  0.3346 -0.0517 -0.0924
 4855SOL    HW126201   3.103   2.853  10.218  0.5013 -1.2368 -0.3325
 4855SOL    HW226202   3.097   2.901  10.359  2.7865 -2.2381  1.2522
 4856SOL     OW26203   1.465   1.249   8.527 -0.2001 -0.2738 -0.3182
 4856SOL    HW126204   1.476   1.246   8.432 -0.5385 -1.1363 -0.3352
 4856SOL    HW226205   1.546   1.209   8.559 -0.4447  0.1707  0.8402
 4857SOL     OW26206   2.064   2.484   6.684  0.1724 -0.4943 -0.0652
 4857SOL    HW126207   2.038   2.542   6.612 -0.1652  1.8172  1.9040
 4857SOL    HW226208   2.122   2.543   6.734  0.4060 -0.8949  0.1376
 4858SOL     OW26209   3.133   4.614   3.465  0.1588 -0.0605  0.3032
 4858SOL    HW126210   3.202   4.561   3.504  0.9026  0.3572 -0.4532
 4858SOL    HW226211   3.163   4.618   3.374  0.9272  1.0066  0.6185
 4859SOL     OW26212   4.501   1.742   9.070  0.2958  0.6698 -0.1078
 4859SOL    HW126213   4.572   1.683   9.043 -0.6573 -1.3020  1.6270
 4859SOL    HW226214   4.528   1.763   9.160  0.3330 -0.1320  0.0735
 4860SOL     OW26215   2.215   3.508  10.798 -0.4595 -0.0371  0.1566
 4860SOL    HW126216   2.180   3.597  10.795  1.1096  0.6452  1.7121
 4860SOL    HW226217   2.301   3.519  10.840 -1.4479  1.5245  1.7750
 4861SOL     OW26218   0.432   1.720   3.374  0.5418 -0.1797 -0.5972
 4861SOL    HW126219   0.509   1.770   3.403 -0.2208  1.6238 -1.6573
 4861SOL    HW226220   0.462   1.635   3.407  1.0167  1.1172  2.3392
 4862SOL     OW26221   0.299   1.843   9.807  0.0421  0.1327 -0.2391
 4862SOL    HW126222   0.352   1.824   9.730  0.0324 -0.8771 -0.0055
 4862SOL    HW226223   0.252   1.760   9.819 -2.4900  1.5057 -0.6621
 4863SOL     OW26224   3.491   3.412   2.636 -0.2725 -0.0739 -0.6801
 4863SOL    HW126225   3.539   3.430   2.555  0.5152 -0.7843 -0.3663
 4863SOL    HW226226   3.400   3.414   2.607 -0.7276 -0.3627  0.7361
 4864SOL     OW26227   3.331   2.542   7.980 -0.3574 -0.0649  0.6249
 4864SOL    HW126228   3.297   2.564   7.893  0.3007 -2.5598 -0.2536
 4864SOL    HW226229   3.258   2.572   8.035 -0.7784  0.3891 -0.1752
 4865SOL     OW26230   0.546   2.112   3.858  0.0890 -0.2766  0.6524
 4865SOL    HW126231   0.557   2.020   3.834  0.0941 -0.0878 -0.0700
 4865SOL    HW226232   0.452   2.114   3.842  0.2417 -2.5832 -0.5709
 4866SOL     OW26233   0.465   1.012   3.655 -0.5884 -0.2531  0.0350
 4866SOL    HW126234   0.468   1.095   3.702  0.0838  0.1145 -0.6456
 4866SOL    HW226235   0.501   1.037   3.570 -1.0177  0.1955 -0.0087
 4867SOL     OW26236   2.170   2.120   3.641  0.0812 -0.5697  0.2862
 4867SOL    HW126237   2.213   2.068   3.573 -0.7182 -1.1901  0.2597
 4867SOL    HW226238   2.229   2.194   3.654  0.3440 -0.8997  1.0057
 4868SOL     OW26239   0.283   4.435   6.968 -0.5070 -0.5004 -0.8910
 4868SOL    HW126240   0.206   4.395   6.928 -1.6077 -0.5510  1.2703
 4868SOL    HW226241   0.356   4.379   6.941 -0.8981 -0.8825 -1.1364
 4869SOL     OW26242   4.502   2.788   4.770  0.0834 -0.2201  0.1224
 4869SOL    HW126243   4.573   2.851   4.783 -0.5077  0.7220 -1.1774
 4869SOL    HW226244   4.516   2.749   4.684  3.6672  2.3114 -0.4508
 4870SOL     OW26245   1.688   1.362   7.749  0.2800  0.0262 -0.0272
 4870SOL    HW126246   1.706   1.453   7.774 -0.0535  0.6565 -2.0683
 4870SOL    HW226247   1.714   1.311   7.825  1.0414 -0.8813 -0.9081
 4871SOL     OW26248   4.154   3.363   9.333  0.2035 -0.3758  0.3044
 4871SOL    HW126249   4.208   3.305   9.387 -0.0458 -0.5740  0.3390
 4871SOL    HW226250   4.132   3.307   9.259  0.1664 -0.0476  0.0648
 4872SOL     OW26251   4.262   4.170  14.319 -0.3109  0.0284  0.4366
 4872SOL    HW126252   4.169   4.193  14.325 -0.5617 -1.3907  2.0390
 4872SOL    HW226253   4.276   4.161  14.225 -1.7173 -2.4099  0.4573
 4873SOL     OW26254   3.145   1.818   2.303  0.0768 -0.4006 -0.6663
 4873SOL    HW126255   3.240   1.824   2.289  0.0947 -0.2032 -0.4560
 4873SOL    HW226256   3.106   1.873   2.236 -2.7692  0.7411  1.9414
 4874SOL     OW26257   0.781   3.958   2.544  0.0941 -0.1497 -0.9435
 4874SOL    HW126258   0.801   3.869   2.515  0.1771 -0.6062  0.5076
 4874SOL    HW226259   0.848   3.962   2.611 -2.3536 -0.6739  1.5250
 4875SOL     OW26260   3.717   0.212  13.078  0.2046  0.0091 -0.1552
 4875SOL    HW126261   3.763   0.158  13.014  1.5570  0.9926 -0.0092
 4875SOL    HW226262   3.767   0.294  13.074  0.7594 -0.3393 -0.2877
 4876SOL     OW26263   4.445   3.868  15.471  0.0030  0.5337 -0.1116
 4876SOL    HW126264   4.500   3.886  15.548  0.0181 -1.3260  0.3212
 4876SOL    HW226265   4.366   3.919  15.486  0.5679  0.7515  2.1165
 4877SOL     OW26266   0.639   0.843   5.264 -0.1975 -0.1918  0.1969
 4877SOL    HW126267   0.729   0.869   5.244  0.1954  1.1875  3.6814
 4877SOL    HW226268   0.618   0.906   5.333  0.8026 -0.3952  0.6900
 4878SOL     OW26269   4.654   4.419  12.119  0.0688  0.0735  0.1276
 4878SOL    HW126270   4.656   4.427  12.214 -0.9714 -0.4386  0.1913
 4878SOL    HW226271   4.566   4.381  12.117  0.8200 -1.7861  1.7080
 4879SOL     OW26272   0.850   0.981  11.810 -0.0720  0.2007 -0.4933
 4879SOL    HW126273   0.908   1.026  11.749  0.2021  2.0621  1.1439
 4879SOL    HW226274   0.767   1.028  11.803 -0.3390 -0.0224  1.4030
 4880SOL     OW26275   2.305   1.202   6.845 -0.0556 -0.4097  0.1184
 4880SOL    HW126276   2.346   1.259   6.910  3.3340 -2.8168  0.0952
 4880SOL    HW226277   2.287   1.263   6.774  1.8029  0.2454  0.1983
 4881SOL     OW26278   4.154   1.759   2.629  0.2897  0.4528 -0.2881
 4881SOL    HW126279   4.088   1.690   2.617  1.9589 -1.1854 -0.0392
 4881SOL    HW226280   4.191   1.744   2.716  0.0418  1.2443 -0.0524
 4882SOL     OW26281   1.516   4.683   2.548  0.4326  0.3087  0.0346
 4882SOL    HW126282   1.508   4.700   2.642  0.9316 -0.2297  0.1745
 4882SOL    HW226283   1.602   4.722   2.533 -0.2916  1.8080 -0.2343
 4883SOL     OW26284   4.633   2.846  17.342  0.1241  0.3862  0.6395
 4883SOL    HW126285   4.677   2.889  17.415 -1.4720 -1.2419  2.5300
 4883SOL    HW226286   4.664   2.896  17.266 -1.2210 -1.3014 -1.0134
 4884SOL     OW26287   2.519   0.771   6.462 -0.1084 -0.0473  0.5558
 4884SOL    HW126288   2.473   0.691   6.436  2.0895 -1.3354  0.6374
 4884SOL    HW226289   2.455   0.841   6.448 -0.0903  0.0091  0.7710
 4885SOL     OW26290   2.263   2.592   3.092  0.3690  0.4706 -0.1471
 4885SOL    HW126291   2.313   2.669   3.120  2.2258 -0.9175  0.3810
 4885SOL    HW226292   2.322   2.567   3.021 -1.0224  0.1717 -1.1981
 4886SOL     OW26293   1.751   2.140   7.455  0.0935  0.3565  0.5165
 4886SOL    HW126294   1.718   2.223   7.420  0.2709 -1.3192 -3.6605
 4886SOL    HW226295   1.726   2.072   7.392  0.3067 -0.0925  0.9218
 4887SOL     OW26296   0.933   2.060   3.285  0.1717  0.0817  0.0746
 4887SOL    HW126297   0.955   1.983   3.338  0.8115  0.0412 -0.2472
 4887SOL    HW226298   0.927   2.130   3.350  2.2361  0.2208  0.1078
 4888SOL     OW26299   4.686   2.693   2.914  0.5722 -0.0405 -0.4973
 4888SOL    HW126300   0.021   2.735   2.868 -0.5720 -0.7816 -3.0147
 4888SOL    HW226301   4.614   2.695   2.850 -1.0453  2.2203  1.4203
 4889SOL     OW26302   2.972   2.202  17.425  0.2276  0.1974  0.3926
 4889SOL    HW126303   3.045   2.235  17.372 -0.5946  0.8958 -0.3245
 4889SOL    HW226304   2.962   2.116  17.384 -0.2202 -0.0018  0.9257
 4890SOL     OW26305   2.280   3.549  14.005 -0.2361 -0.2985 -0.5309
 4890SOL    HW126306   2.237   3.465  13.989  0.6337 -0.3915 -2.4480
 4890SOL    HW226307   2.205   3.594  14.043  0.6044  1.1270 -0.5451
 4891SOL     OW26308   4.068   2.482  15.204 -0.3896  0.3548  0.6867
 4891SOL    HW126309   4.019   2.410  15.164 -0.1640  0.1691  0.7470
 4891SOL    HW226310   4.146   2.435  15.234  0.2960  0.0136 -1.6245
 4892SOL     OW26311   4.677   4.526   7.404 -0.2854 -0.6513 -0.1602
 4892SOL    HW126312   0.026   4.509   7.443 -0.5741 -0.3332  0.6219
 4892SOL    HW226313   4.686   4.497   7.313  1.3413 -0.7711  0.0347
 4893SOL     OW26314   4.321   3.937   6.614  0.1226 -0.5551 -0.7283
 4893SOL    HW126315   4.266   4.001   6.659  0.0356  0.1232 -1.8147
 4893SOL    HW226316   4.326   3.969   6.524  1.3746 -1.5224 -1.0021
 4894SOL     OW26317   4.010   3.110  11.501 -0.5621  0.2064 -0.6579
 4894SOL    HW126318   4.095   3.152  11.512  0.1324 -1.5944  0.8246
 4894SOL    HW226319   3.948   3.177  11.529 -3.8793 -1.8768 -2.9977
 4895SOL     OW26320   1.993   3.348   3.452 -0.3693 -0.0545 -0.2232
 4895SOL    HW126321   2.069   3.291   3.466 -0.2961  0.6942  2.3549
 4895SOL    HW226322   1.996   3.399   3.533 -0.4174 -0.0597 -0.2184
 4896SOL     OW26323   0.514   0.857   6.436  0.0319 -0.1361  0.3881
 4896SOL    HW126324   0.571   0.868   6.360 -2.1843  0.3878 -1.2064
 4896SOL    HW226325   0.513   0.761   6.446 -0.3963 -0.0519  1.1664
 4897SOL     OW26326   4.452   0.355   5.460  0.4417  0.0263 -0.3478
 4897SOL    HW126327   4.396   0.336   5.535 -0.8669  0.2871 -1.2580
 4897SOL    HW226328   4.542   0.349   5.491 -0.3917 -0.2821  2.0538
 4898SOL     OW26329   4.700   1.477   7.748 -0.3641 -0.0789  0.6498
 4898SOL    HW126330   4.674   1.421   7.675 -0.6533  1.3068 -0.3255
 4898SOL    HW226331   0.037   1.430   7.786  0.8730  0.5382 -1.0042
 4899SOL     OW26332   2.737   3.791   1.846  0.9712  0.3679 -0.2661
 4899SOL    HW126333   2.796   3.861   1.819  0.7969  0.9856  0.9571
 4899SOL    HW226334   2.652   3.835   1.848  0.7854 -0.0551  1.0720
 4900SOL     OW26335   2.116   1.075   6.314 -0.0646  0.9755 -0.4762
 4900SOL    HW126336   2.162   1.156   6.290  4.4059 -1.4170 -0.0907
 4900SOL    HW226337   2.030   1.083   6.274 -1.0011 -3.8598  0.5730
 4901SOL     OW26338   0.465   1.244  12.213 -0.0049 -0.3603  0.3361
 4901SOL    HW126339   0.394   1.196  12.256 -0.6775  1.3027  1.0776
 4901SOL    HW226340   0.488   1.306  12.282  0.3818 -2.1210  1.7559
 4902SOL     OW26341   3.073   0.053   2.407  0.0850 -0.0942 -0.0409
 4902SOL    HW126342   3.090   0.006   2.326 -0.0637  0.9088 -0.6493
 4902SOL    HW226343   2.990   0.094   2.385  0.7420  0.1344 -2.1012
 4903SOL     OW26344   4.280   4.657   2.886 -0.0004  0.5597  0.2007
 4903SOL    HW126345   4.275   0.001   2.836 -1.6893  0.5308  0.3211
 4903SOL    HW226346   4.230   4.685   2.963  0.7439 -0.0048  0.9010
 4904SOL     OW26347   3.704   0.931  13.815  0.2296  0.3842  0.1369
 4904SOL    HW126348   3.693   0.982  13.895 -0.1467 -0.7222  0.7884
 4904SOL    HW226349   3.790   0.960  13.782  0.5559  1.7128  2.1832
 4905SOL     OW26350   2.508   3.856   2.647  0.0452  1.0296 -0.2295
 4905SOL    HW126351   2.572   3.917   2.685  1.3707  0.7346 -1.9516
 4905SOL    HW226352   2.563   3.788   2.608 -0.4134 -0.8900  2.4995
 4906SOL     OW26353   0.322   1.836   4.140 -0.2956 -0.4672  0.3854
 4906SOL    HW126354   0.230   1.863   4.137  0.9570  3.6997 -0.3081
 4906SOL    HW226355   0.367   1.916   4.113 -0.4098 -0.8727 -1.0168
 4907SOL     OW26356   0.159   2.330   3.591 -0.1314  0.0691  0.0291
 4907SOL    HW126357   0.171   2.314   3.498 -1.3222  0.3103 -0.1603
 4907SOL    HW226358   0.111   2.253   3.623 -1.9231  0.9331 -0.6109
 4908SOL     OW26359   2.528   0.286   3.368 -0.0699  0.2060  0.4866
 4908SOL    HW126360   2.499   0.205   3.325 -0.3028  0.1690  0.7112
 4908SOL    HW226361   2.453   0.323   3.413 -1.9289 -1.0624 -1.5868
 4909SOL     OW26362   1.813   1.104   3.527  0.1730  0.3114 -0.7085
 4909SOL    HW126363   1.886   1.057   3.567 -1.0547 -0.0867  1.1017
 4909SOL    HW226364   1.806   1.168   3.599 -1.7313 -1.8638  1.0553
 4910SOL     OW26365   0.217   4.506   7.524  0.3343  0.4840 -0.0430
 4910SOL    HW126366   0.206   4.416   7.496  1.9816  0.2255  0.1429
 4910SOL    HW226367   0.179   4.508   7.612 -1.1506  0.5478 -0.6835
 4911SOL     OW26368   1.968   0.082   8.546  0.1535 -0.3243  0.1708
 4911SOL    HW126369   1.972   4.728   8.515 -2.9966 -0.9365  1.6003
 4911SOL    HW226370   1.875   0.105   8.546  0.5052  0.9962 -1.9293
 4912SOL     OW26371   1.835   3.798   1.700  0.2904 -0.2998 -0.3210
 4912SOL    HW126372   1.815   3.716   1.656 -1.0147 -0.3210  0.2934
 4912SOL    HW226373   1.930   3.788   1.698  0.4147  0.9104 -0.6087
 4913SOL     OW26374   3.659   3.406  12.990  0.1258  0.1760  0.5679
 4913SOL    HW126375   3.583   3.439  13.038 -1.5920 -1.9835 -0.6214
 4913SOL    HW226376   3.617   3.347  12.927  2.7370  2.3860 -3.1900
 4914SOL     OW26377   1.336   1.832   5.828  0.3483 -0.2328  0.0819
 4914SOL    HW126378   1.269   1.783   5.874 -0.1409 -1.1747 -1.6335
 4914SOL    HW226379   1.420   1.805   5.866 -0.0946 -2.3960 -0.4815
 4915SOL     OW26380   3.731   0.985   5.963 -0.1443  1.0790  0.0214
 4915SOL    HW126381   3.717   0.892   5.942 -0.5505  0.6621  2.0927
 4915SOL    HW226382   3.754   0.981   6.056  0.5906  0.5019 -0.1821
 4916SOL     OW26383   1.046   3.684   3.708 -0.5759  0.3503  0.0426
 4916SOL    HW126384   1.083   3.642   3.785 -1.7299 -1.3148 -0.3020
 4916SOL    HW226385   1.010   3.758   3.758  0.2209  0.8707 -0.1508
 4917SOL     OW26386   1.543   0.367   8.009 -0.4948  0.6786  0.3372
 4917SOL    HW126387   1.629   0.349   8.048  0.1288  0.3611 -1.1875
 4917SOL    HW226388   1.556   0.317   7.929 -1.3356  1.2806 -0.1737
 4918SOL     OW26389   0.063   2.735   6.837  0.2123  0.0345  0.0328
 4918SOL    HW126390   0.018   2.819   6.831  0.9882  0.6428  2.6570
 4918SOL    HW226391   0.005   2.679   6.787  1.2303  0.1107 -1.2385
 4919SOL     OW26392   1.617   4.018   4.788 -0.0252 -0.5608  0.0285
 4919SOL    HW126393   1.698   3.969   4.791  0.3972  0.1840  0.9390
 4919SOL    HW226394   1.563   3.979   4.857  0.0554 -2.2524 -0.8851
 4920SOL     OW26395   4.145   1.448  15.299  0.4334  0.0338  0.2108
 4920SOL    HW126396   4.240   1.450  15.309  0.3757 -2.5718  1.3253
 4920SOL    HW226397   4.138   1.516  15.232 -1.7557  0.5895  0.9998
 4921SOL     OW26398   1.060   2.122   3.566 -0.3283  0.6739  0.3019
 4921SOL    HW126399   1.151   2.116   3.536 -0.3710  0.9640  0.1115
 4921SOL    HW226400   1.064   2.207   3.611  1.1652  1.3404 -1.0622
 4922SOL     OW26401   4.655   3.254   7.144  0.0116  0.1842 -0.1006
 4922SOL    HW126402   4.604   3.281   7.068 -1.9048  0.1384  1.1540
 4922SOL    HW226403   4.674   3.339   7.183  1.1099  0.0787 -0.4220
 4923SOL     OW26404   4.331   4.347   3.063  0.4335 -0.2210 -0.1219
 4923SOL    HW126405   4.372   4.417   3.014 -1.3102 -0.8679 -2.5066
 4923SOL    HW226406   4.298   4.392   3.141 -0.2556  0.3181 -0.7260
 4924SOL     OW26407   2.654   1.524   6.084  0.5654 -0.4423  0.0527
 4924SOL    HW126408   2.653   1.610   6.042  2.1587  0.0326  0.9601
 4924SOL    HW226409   2.750   1.521   6.089  0.5986 -2.1448 -1.8814
 4925SOL     OW26410   3.751   3.380  10.084 -0.1104  0.5832 -0.5656
 4925SOL    HW126411   3.827   3.345  10.131  0.3076  1.8238 -0.3317
 4925SOL    HW226412   3.743   3.307  10.022 -2.4243 -0.4152  0.9144
 4926SOL     OW26413   4.311   3.116  12.899 -0.1808 -0.0730 -0.1229
 4926SOL    HW126414   4.271   3.203  12.895  0.7326  0.4196  1.4096
 4926SOL    HW226415   4.324   3.101  12.806  0.7050  4.6895 -0.7720
 4927SOL     OW26416   2.158   0.822   3.838 -0.7033  0.4905  0.1365
 4927SOL    HW126417   2.173   0.780   3.923  2.7139  0.7664 -0.3394
 4927SOL    HW226418   2.241   0.860   3.809 -0.4950  0.1894  0.3385
 4928SOL     OW26419   1.142   3.632   0.872 -0.1292 -0.1091 -1.0532
 4928SOL    HW126420   1.108   3.604   0.787  0.6148 -2.8896 -0.4365
 4928SOL    HW226421   1.147   3.726   0.858  2.1526 -0.3260 -1.6523
 4929SOL     OW26422   1.461   4.421   6.199  0.0657  0.5822 -0.1445
 4929SOL    HW126423   1.531   4.357   6.184 -0.6550  0.5489 -3.1580
 4929SOL    HW226424   1.387   4.362   6.188 -1.3761  2.1963  1.0049
 4930SOL     OW26425   3.029   0.907  13.763  0.2896  0.3341 -0.0652
 4930SOL    HW126426   3.109   0.859  13.745  0.0303 -0.1815  0.1597
 4930SOL    HW226427   3.005   0.931  13.674 -2.0619 -2.1404 -0.1024
 4931SOL     OW26428   4.599   3.861  16.902  0.1270 -0.5313  0.3872
 4931SOL    HW126429   4.642   3.916  16.836 -0.0996  0.7426  1.3056
 4931SOL    HW226430   4.629   3.903  16.983 -0.0488  0.2997  0.0270
 4932SOL     OW26431   3.572   1.045   5.419  0.2114  0.2668  0.4233
 4932SOL    HW126432   3.598   0.983   5.487 -2.5396 -0.9441  0.3729
 4932SOL    HW226433   3.652   1.057   5.369 -0.6581  0.4456 -0.9226
 4933SOL     OW26434   3.937   4.657   5.517 -0.1956 -0.8859 -0.0819
 4933SOL    HW126435   3.940   4.667   5.612 -0.1021  1.0133 -0.2755
 4933SOL    HW226436   3.914   4.565   5.503  0.9166 -0.5975 -3.7774
 4934SOL     OW26437   0.613   1.914   6.334  0.2172  0.4373  0.1349
 4934SOL    HW126438   0.694   1.965   6.334  0.7271 -0.4060 -1.2410
 4934SOL    HW226439   0.631   1.852   6.264 -0.1516 -1.4101  1.6926
 4935SOL     OW26440   1.682   4.382  14.021  0.2085  0.0015  0.2255
 4935SOL    HW126441   1.776   4.371  14.033  0.0750 -0.3486  0.9726
 4935SOL    HW226442   1.654   4.290  14.022  3.4748 -0.9823  1.9666
 4936SOL     OW26443   2.431   0.288   6.360  0.3743  0.5403  0.1888
 4936SOL    HW126444   2.366   0.234   6.404  1.3168 -0.9232 -0.2197
 4936SOL    HW226445   2.425   0.356   6.427 -2.3508 -0.2368  0.7221
 4937SOL     OW26446   0.809   0.458   4.645  0.2373 -0.3114 -0.3673
 4937SOL    HW126447   0.874   0.502   4.698  0.7578  1.4913 -2.4798
 4937SOL    HW226448   0.732   0.507   4.674  1.2460  0.7486  0.4932
 4938SOL     OW26449   1.720   3.808   6.121  0.4634 -0.0788 -0.6703
 4938SOL    HW126450   1.773   3.887   6.129 -1.1800  1.2972 -3.1821
 4938SOL    HW226451   1.775   3.737   6.155  2.1184  0.5027 -2.1523
 4939SOL     OW26452   4.273   2.889   5.963  0.2398  0.2105  0.7850
 4939SOL    HW126453   4.183   2.915   5.944  1.2663  2.5370 -0.8242
 4939SOL    HW226454   4.276   2.794   5.954  1.5793  0.2495  0.9093
 4940SOL     OW26455   0.005   3.040   5.781 -0.5944 -0.5792 -0.5749
 4940SOL    HW126456   4.684   3.078   5.846  1.8407  1.7445  0.2214
 4940SOL    HW226457   0.079   3.100   5.776 -1.5263  0.6966  1.2161
 4941SOL     OW26458   2.431   1.031  16.540  0.2583  0.3513  0.2836
 4941SOL    HW126459   2.524   1.021  16.518 -0.1960  1.5462 -2.1587
 4941SOL    HW226460   2.423   1.126  16.531 -1.4090  0.0413 -1.4796
 4942SOL     OW26461   4.191   0.268  16.235 -0.2544  0.1668 -0.0779
 4942SOL    HW126462   4.224   0.204  16.298 -1.0120  1.0064  1.1851
 4942SOL    HW226463   4.131   0.212  16.186 -0.1050 -0.0712  0.0106
 4943SOL     OW26464   3.379   1.284  10.516 -0.8439  0.3236  0.7259
 4943SOL    HW126465   3.463   1.240  10.532  0.0672  1.3448 -1.2155
 4943SOL    HW226466   3.329   1.211  10.479  0.5608 -0.3642  0.1374
 4944SOL     OW26467   3.368   4.417  14.822 -0.8759 -0.4540 -0.5696
 4944SOL    HW126468   3.336   4.469  14.896  0.6201  0.8373 -0.8155
 4944SOL    HW226469   3.441   4.473  14.794 -2.1798  1.0640 -0.9305
 4945SOL     OW26470   1.347   2.181   6.290  0.1700  0.1802  0.3930
 4945SOL    HW126471   1.400   2.133   6.353  0.1840  0.1445  0.3540
 4945SOL    HW226472   1.333   2.271   6.319  1.2416  0.2632  0.6538
 4946SOL     OW26473   3.409   1.750   8.336  0.1924  0.1017  0.5049
 4946SOL    HW126474   3.502   1.753   8.360  0.0658 -0.5489  1.0604
 4946SOL    HW226475   3.389   1.659   8.314  0.6303 -0.0914  0.9135
 4947SOL     OW26476   1.719   4.443   1.772  0.3332 -0.2033  0.0209
 4947SOL    HW126477   1.762   4.496   1.839 -1.3003 -0.2658  1.1110
 4947SOL    HW226478   1.658   4.402   1.833 -0.8143  0.4442 -0.7003
 4948SOL     OW26479   0.837   4.723   2.083 -0.2266 -0.1452  0.1690
 4948SOL    HW126480   0.775   4.654   2.108  1.0782 -1.3180  0.1674
 4948SOL    HW226481   0.904   4.715   2.151 -0.1428 -1.1518 -0.0374
 4949SOL     OW26482   1.318   3.166   9.282 -0.3857 -0.2576 -0.1545
 4949SOL    HW126483   1.308   3.120   9.365 -0.3715  0.2184  0.1072
 4949SOL    HW226484   1.259   3.236   9.310 -0.2324 -0.4675  0.6746
 4950SOL     OW26485   0.707   2.894   2.916  0.3384  0.2358 -0.0368
 4950SOL    HW126486   0.762   2.943   2.854 -0.6893 -0.1532 -1.2459
 4950SOL    HW226487   0.771   2.872   2.984  0.8329  0.2738 -0.4943
 4951SOL     OW26488   4.266   0.187   5.900 -0.0139  0.3953  0.2029
 4951SOL    HW126489   4.284   0.115   5.960 -3.5232 -0.6303  0.0644
 4951SOL    HW226490   4.340   0.166   5.844 -1.4347 -0.4264 -1.3711
 4952SOL     OW26491   3.454   3.882   9.668  0.1370 -0.3765  0.1875
 4952SOL    HW126492   3.462   3.971   9.701 -2.4799 -0.1837  0.3536
 4952SOL    HW226493   3.523   3.837   9.716  1.5933  0.5420 -1.0660
 4953SOL     OW26494   3.230   2.061   1.937  0.3249 -0.3637  0.3980
 4953SOL    HW126495   3.197   2.081   1.849 -1.1044 -2.3183  0.5001
 4953SOL    HW226496   3.318   2.028   1.918  0.4015 -0.5587  1.0792
 4954SOL     OW26497   3.868   2.357   6.756  0.5733 -0.6423 -0.3063
 4954SOL    HW126498   3.826   2.433   6.716 -1.9802 -1.9360 -0.1287
 4954SOL    HW226499   3.899   2.398   6.836  2.8638 -2.0726 -0.4690
 4955SOL     OW26500   4.680   2.204   6.204 -0.3117 -0.7959 -0.3143
 4955SOL    HW126501   4.647   2.192   6.115  0.6480 -0.3359 -0.7283
 4955SOL    HW226502   4.596   2.222   6.248 -0.8934 -2.2991 -0.7876
 4956SOL     OW26503   4.104   0.486  16.360  0.3651  0.2529 -0.1478
 4956SOL    HW126504   4.031   0.433  16.391 -0.3216  1.5500  0.4504
 4956SOL    HW226505   4.158   0.416  16.321  1.1930  0.3509  0.8445
 4957SOL     OW26506   0.400   1.352  16.541  0.0929  0.0785  0.0025
 4957SOL    HW126507   0.326   1.370  16.600 -2.4632 -1.1547 -2.8392
 4957SOL    HW226508   0.470   1.413  16.565 -0.3969  1.2792 -1.6315
 4958SOL     OW26509   2.901   2.415  17.166 -0.3405  0.3774 -0.6222
 4958SOL    HW126510   2.852   2.497  17.159  1.2530  1.4311  0.4558
 4958SOL    HW226511   2.831   2.351  17.177  0.6995 -1.0253 -2.1218
 4959SOL     OW26512   0.245   2.777   1.486 -0.3598 -0.2120  0.1545
 4959SOL    HW126513   0.177   2.754   1.549  0.0417  1.4581  1.1857
 4959SOL    HW226514   0.253   2.696   1.435  1.4516  0.0376  0.0423
 4960SOL     OW26515   2.067   1.009  17.317  0.1725 -0.2400  0.1886
 4960SOL    HW126516   2.017   0.989  17.397 -0.8774 -0.2211 -0.4627
 4960SOL    HW226517   2.068   0.924  17.272 -1.1206 -0.1364 -0.0498
 4961SOL     OW26518   1.870   2.285   2.484 -0.3448 -0.7026  0.6543
 4961SOL    HW126519   1.961   2.316   2.477 -0.2688 -0.3167  3.3355
 4961SOL    HW226520   1.838   2.342   2.554  0.6268 -0.3431  0.7993
 4962SOL     OW26521   0.520   1.765   2.246 -0.5835  0.1260  0.0484
 4962SOL    HW126522   0.496   1.699   2.181 -3.6397  0.0790  1.2496
 4962SOL    HW226523   0.512   1.845   2.194 -0.7634  0.4037  0.5007
 4963SOL     OW26524   1.995   3.676   5.454 -0.1539 -0.1609  0.2017
 4963SOL    HW126525   1.909   3.634   5.462  0.2142 -0.8077  0.7795
 4963SOL    HW226526   2.025   3.677   5.544  1.4444  1.1552 -0.3576
 4964SOL     OW26527   1.438   2.469   5.592  0.4357  0.3820 -0.0865
 4964SOL    HW126528   1.481   2.496   5.673  0.0502  0.0429  0.2267
 4964SOL    HW226529   1.445   2.551   5.543  1.7505 -0.8720 -2.0334
 4965SOL     OW26530   2.795   3.208  16.526 -0.6564 -0.1736 -0.0054
 4965SOL    HW126531   2.707   3.234  16.500 -1.5253 -0.9108  2.1606
 4965SOL    HW226532   2.814   3.264  16.601  0.2394  1.7810 -1.7179
 4966SOL     OW26533   3.309   2.499   2.442 -0.2591 -0.2083  0.8346
 4966SOL    HW126534   3.393   2.487   2.485  0.4499  1.0498 -0.1967
 4966SOL    HW226535   3.324   2.573   2.383 -3.4049  1.2123  1.8016
 4967SOL     OW26536   0.612   4.701  10.807 -0.1336 -0.6496 -0.2062
 4967SOL    HW126537   0.619   0.036  10.870  0.1047  0.7344 -1.8077
 4967SOL    HW226538   0.661   0.003  10.735 -2.3595 -0.7229 -1.7373
 4968SOL     OW26539   1.582   1.582  14.037 -0.0154  0.7077 -0.1140
 4968SOL    HW126540   1.526   1.602  14.112 -1.1978  0.6649 -0.9910
 4968SOL    HW226541   1.668   1.605  14.072  0.6116 -0.8965 -0.6021
 4969SOL     OW26542   4.430   4.184   7.047  0.5411 -0.6453  0.3126
 4969SOL    HW126543   4.431   4.174   7.142 -0.1944  0.5292  0.4355
 4969SOL    HW226544   4.344   4.225   7.044  0.5881 -0.5724 -0.0264
 4970SOL     OW26545   0.187   2.247   2.599 -0.5517 -0.7879  0.7046
 4970SOL    HW126546   0.153   2.314   2.539  3.1195 -2.0489 -2.7437
 4970SOL    HW226547   0.164   2.164   2.557 -0.8118  0.0847 -0.8686
 4971SOL     OW26548   2.052   0.644   8.131  0.5004  0.0099  0.0267
 4971SOL    HW126549   2.011   0.564   8.163  1.7076 -0.5780  0.0709
 4971SOL    HW226550   2.073   0.691   8.211 -0.7445  0.3056  0.1808
 4972SOL     OW26551   3.127   3.433   5.156  0.3551  0.1427 -0.0250
 4972SOL    HW126552   3.152   3.403   5.244  1.6010  1.3721  0.0294
 4972SOL    HW226553   3.171   3.370   5.099 -0.0580  0.1560 -0.3542
 4973SOL     OW26554   2.530   4.471  16.371  0.1946  0.2927  0.5412
 4973SOL    HW126555   2.508   4.557  16.406  1.7909  0.0871  2.0157
 4973SOL    HW226556   2.531   4.432  16.458  1.6723 -1.4396 -0.2318
 4974SOL     OW26557   4.290   2.296   2.242 -0.0458  0.2688 -0.4457
 4974SOL    HW126558   4.222   2.271   2.304  1.0567 -1.3050  0.1201
 4974SOL    HW226559   4.334   2.212   2.250 -1.8162 -0.7754 -1.6509
 4975SOL     OW26560   2.844   4.411   2.301  0.1950 -0.1839  0.6942
 4975SOL    HW126561   2.756   4.422   2.337  0.4879  1.7715  0.8058
 4975SOL    HW226562   2.822   4.418   2.208  1.7038 -1.3530  0.2445
 4976SOL     OW26563   1.052   3.529   4.484  0.2390 -0.0299  0.4045
 4976SOL    HW126564   1.086   3.590   4.419 -2.7438 -0.2025 -1.2854
 4976SOL    HW226565   1.116   3.522   4.555  0.7738  1.3554  0.0498
 4977SOL     OW26566   3.458   2.273   1.728  0.3089  0.3760 -1.0864
 4977SOL    HW126567   3.506   2.231   1.799 -0.6919  0.7258 -0.2013
 4977SOL    HW226568   3.532   2.276   1.668  0.2415  2.3819 -1.0869
 4978SOL     OW26569   0.084   2.200  17.509 -0.7871 -0.4990 -0.4925
 4978SOL    HW126570   0.005   2.252  17.517 -0.1485  0.2262  1.0744
 4978SOL    HW226571   0.083   2.162  17.421 -2.1020 -1.7323  0.0587
 4979SOL     OW26572   2.394   0.903   7.833 -0.4442 -0.4138 -0.5816
 4979SOL    HW126573   2.379   0.860   7.917 -0.6839  2.1305  0.6944
 4979SOL    HW226574   2.308   0.942   7.823 -0.8800 -1.0991  0.4824
 4980SOL     OW26575   0.563   1.086   3.406 -0.0799 -0.1704 -0.4423
 4980SOL    HW126576   0.581   1.180   3.408 -1.8346  0.1890 -1.9415
 4980SOL    HW226577   0.527   1.078   3.318  2.3084 -0.3167 -1.4158
 4981SOL     OW26578   0.449   3.218  15.784 -0.1773  0.2587  0.4327
 4981SOL    HW126579   0.385   3.219  15.712 -0.0525 -0.3687  0.3148
 4981SOL    HW226580   0.525   3.177  15.744 -1.5453 -1.8264 -0.0167
 4982SOL     OW26581   3.214   2.860   2.278 -0.1392 -0.2808 -0.6125
 4982SOL    HW126582   3.228   2.933   2.218 -1.6117  0.1355 -0.4483
 4982SOL    HW226583   3.304   2.846   2.304 -1.0031  0.5733  2.8393
 4983SOL     OW26584   1.514   2.821   8.987 -0.1791 -0.5490  0.1481
 4983SOL    HW126585   1.464   2.742   9.006  1.6099 -2.7873 -4.5537
 4983SOL    HW226586   1.482   2.844   8.900  0.4447 -1.7210 -0.3888
 4984SOL     OW26587   2.851   3.580   0.350  0.4824 -0.3211 -0.4943
 4984SOL    HW126588   2.792   3.590   0.275  1.7847 -1.7043 -1.6977
 4984SOL    HW226589   2.822   3.492   0.376  0.5090  0.1718  1.2238
 4985SOL     OW26590   2.467   1.304  13.576 -0.5113  0.2468 -0.2483
 4985SOL    HW126591   2.537   1.360  13.609  0.8816 -1.1691 -0.7651
 4985SOL    HW226592   2.403   1.311  13.646  1.2286 -1.0395  1.4830
 4986SOL     OW26593   3.742   2.829   7.683  0.6550 -0.4091  0.0119
 4986SOL    HW126594   3.761   2.741   7.651  3.2329  0.6902 -1.4670
 4986SOL    HW226595   3.674   2.809   7.747  0.7992 -0.7587  0.0569
 4987SOL     OW26596   3.981   1.886   8.017  1.0076  1.1621 -0.1275
 4987SOL    HW126597   3.904   1.831   8.003  2.0509 -0.7685  1.8275
 4987SOL    HW226598   4.037   1.870   7.941  1.4511  0.7571  0.2949
 4988SOL     OW26599   4.324   2.662  14.045  0.0189  0.7431  0.2365
 4988SOL    HW126600   4.230   2.652  14.062  0.1640  0.7332  1.0076
 4988SOL    HW226601   4.361   2.586  14.090 -0.0946  0.0345 -0.8662
 4989SOL     OW26602   1.959   2.176   8.456  0.9120  0.3576  0.0828
 4989SOL    HW126603   2.021   2.248   8.448  4.0886 -2.3659  0.0830
 4989SOL    HW226604   1.887   2.210   8.509  0.7400  0.8886 -0.4945
 4990SOL     OW26605   2.923   3.770   7.024 -0.0564  0.2727 -0.2605
 4990SOL    HW126606   2.973   3.807   7.097 -0.6721 -1.5942  1.1252
 4990SOL    HW226607   2.903   3.685   7.065 -0.9266  0.9791  0.7620
 4991SOL     OW26608   1.100   0.975   7.309 -0.6607  0.3090  0.2878
 4991SOL    HW126609   1.034   1.037   7.278  0.1024  0.5341 -0.8710
 4991SOL    HW226610   1.049   0.930   7.376  0.0093  1.2070  1.3804
 4992SOL     OW26611   0.453   3.962   3.770  0.1275  0.3495  0.0739
 4992SOL    HW126612   0.361   3.977   3.794 -0.1546 -0.6843 -0.3299
 4992SOL    HW226613   0.490   4.006   3.846 -0.2045 -1.3488  1.2387
 4993SOL     OW26614   0.794   2.669   8.206 -0.6838 -0.2460 -0.2791
 4993SOL    HW126615   0.740   2.744   8.233  4.2261  3.4445 -0.7245
 4993SOL    HW226616   0.726   2.603   8.189 -0.0801 -0.6044 -1.3060
 4994SOL     OW26617   2.132   0.389   4.988  0.4443  0.7286  0.4201
 4994SOL    HW126618   2.191   0.314   4.986 -0.5966 -0.0472 -1.1731
 4994SOL    HW226619   2.195   0.458   4.966 -2.0068  2.8472  0.0867
 4995SOL     OW26620   0.615   3.504  12.565 -0.2273 -0.1252  0.1239
 4995SOL    HW126621   0.704   3.510  12.599  0.8424  0.3336 -2.7560
 4995SOL    HW226622   0.601   3.410  12.571 -1.3214  0.0255 -0.1085
 4996SOL     OW26623   3.781   4.631  10.807 -1.0075 -0.8401  0.4056
 4996SOL    HW126624   3.865   4.607  10.768  0.0646  1.8067  1.1361
 4996SOL    HW226625   3.791   4.703  10.868  0.1524  0.5073 -1.3938
 4997SOL     OW26626   3.492   3.268   0.590  0.2824  0.7335 -0.1542
 4997SOL    HW126627   3.407   3.299   0.558 -0.5523 -0.4374  0.9197
 4997SOL    HW226628   3.471   3.283   0.682 -2.6148  0.2384 -0.7251
 4998SOL     OW26629   4.500   0.321   2.087 -0.4895 -0.5416 -0.5031
 4998SOL    HW126630   4.423   0.307   2.143 -0.0865  0.6686  0.3704
 4998SOL    HW226631   4.518   0.415   2.094  0.8320 -0.5993 -3.2825
 4999SOL     OW26632   2.182   3.723   2.296  0.5361  0.2670 -0.2256
 4999SOL    HW126633   2.119   3.653   2.281  0.2832  0.5909 -0.6911
 4999SOL    HW226634   2.265   3.675   2.300  0.1998 -0.2418  0.5826
 5000SOL     OW26635   2.894   3.604   2.494  0.1464 -0.3334  0.2142
 5000SOL    HW126636   2.901   3.699   2.506  0.8934 -0.4006  0.3236
 5000SOL    HW226637   2.801   3.590   2.512 -0.0928  1.7112  0.6511
 5001SOL     OW26638   1.543   4.111   1.226  0.0953 -0.2099  0.3011
 5001SOL    HW126639   1.629   4.071   1.213  0.4275  0.1156  1.4448
 5001SOL    HW226640   1.553   4.194   1.180  0.1238 -0.0610  0.5756
 5002SOL     OW26641   0.128   3.855   3.504 -0.0634  0.5445  0.0009
 5002SOL    HW126642   0.057   3.886   3.447 -0.1100 -0.6268 -0.5830
 5002SOL    HW226643   0.172   3.786   3.455 -1.1905  1.1589 -1.8888
 5003SOL     OW26644   0.739   2.231   3.412 -0.2233 -0.4266 -0.2297
 5003SOL    HW126645   0.723   2.242   3.318 -2.2532  0.3372  0.1982
 5003SOL    HW226646   0.722   2.315   3.456 -0.5909 -1.3242  1.3373
 5004SOL     OW26647   3.669   2.967  14.270 -0.3046  0.0406  0.3218
 5004SOL    HW126648   3.683   3.000  14.181 -0.2461  0.2711  0.4163
 5004SOL    HW226649   3.664   3.048  14.321 -1.3183  0.5977 -0.6638
 5005SOL     OW26650   0.203   0.694   8.646 -0.5650  0.7147 -0.0187
 5005SOL    HW126651   0.236   0.640   8.717  1.6110 -0.2746 -1.8059
 5005SOL    HW226652   0.250   0.644   8.579 -0.4980  0.1689  0.4381
 5006SOL     OW26653   0.327   0.592   1.603  0.2464 -0.0678 -0.0522
 5006SOL    HW126654   0.261   0.583   1.673 -1.4748 -0.8047 -1.7508
 5006SOL    HW226655   0.339   0.499   1.583 -1.2322 -0.2800  0.0146
 5007SOL     OW26656   2.891   1.265   0.428  0.2084 -0.4243 -0.9807
 5007SOL    HW126657   2.804   1.228   0.416 -0.7013  1.8830 -1.4673
 5007SOL    HW226658   2.888   1.340   0.487 -1.1361  0.6742 -2.4363
 5008SOL     OW26659   0.121   2.197   1.493 -0.3360 -0.2204 -0.2717
 5008SOL    HW126660   0.029   2.185   1.517 -0.7509  1.1230 -1.2131
 5008SOL    HW226661   0.105   2.283   1.456  0.4883 -0.0392 -0.2142
 5009SOL     OW26662   0.016   4.373  17.632  0.9754  0.1624  0.1670
 5009SOL    HW126663   0.087   4.426  17.596 -0.5322  1.4310 -0.9366
 5009SOL    HW226664   4.702   4.447  17.666 -1.6696 -1.5678 -0.0126
 5010SOL     OW26665   3.688   3.894   4.067  0.3625 -0.0815 -0.2554
 5010SOL    HW126666   3.699   3.804   4.099  2.4055 -0.2422 -1.4065
 5010SOL    HW226667   3.712   3.870   3.977 -1.9133 -0.3015 -0.7998
 5011SOL     OW26668   2.320   0.083   9.349  0.6673 -1.1352  0.3810
 5011SOL    HW126669   2.372   0.002   9.347  2.6752  0.1616 -0.3609
 5011SOL    HW226670   2.251   0.048   9.405  0.5895 -0.1868  0.8757
 5012SOL     OW26671   4.415   4.284  12.125 -0.3347  0.1004  0.0125
 5012SOL    HW126672   4.393   4.267  12.216 -4.4210 -1.2863 -1.2353
 5012SOL    HW226673   4.409   4.191  12.102  2.2688 -0.4820  1.6506
 5013SOL     OW26674   4.021   2.388   2.138 -0.0554  0.3392  0.8699
 5013SOL    HW126675   4.106   2.343   2.144 -0.6978 -1.1244 -1.4801
 5013SOL    HW226676   4.043   2.479   2.161 -0.6549  0.6700  0.1165
 5014SOL     OW26677   3.640   0.231   5.942 -0.4444  0.4755  0.3124
 5014SOL    HW126678   3.700   0.157   5.954  0.8158  1.5232  0.3989
 5014SOL    HW226679   3.594   0.201   5.863  0.6513 -2.0841  0.6547
 5015SOL     OW26680   0.821   1.377  16.290 -0.0236 -0.5487 -0.5545
 5015SOL    HW126681   0.890   1.370  16.356 -0.2369 -0.0852 -0.2840
 5015SOL    HW226682   0.859   1.421  16.214  0.7805 -0.9890 -0.4025
 5016SOL     OW26683   0.625   3.135   8.213 -0.3123  0.2865  0.2697
 5016SOL    HW126684   0.687   3.197   8.252 -0.5237  1.1529 -0.8072
 5016SOL    HW226685   0.543   3.147   8.260  1.4560 -0.6452  3.6896
 5017SOL     OW26686   0.429   0.675  10.772  0.2861  0.1800  0.3357
 5017SOL    HW126687   0.393   0.688  10.684 -1.5404  0.7215  1.1499
 5017SOL    HW226688   0.381   0.748  10.812  2.1559  1.6227 -0.0876
 5018SOL     OW26689   0.450   1.309   2.593 -0.2554  0.5911 -0.3423
 5018SOL    HW126690   0.392   1.363   2.539 -0.5180  0.4022 -0.2522
 5018SOL    HW226691   0.529   1.358   2.614 -0.9849  1.6995 -0.1533
 5019SOL     OW26692   1.666   4.221   6.144  0.0983  0.1063 -0.7442
 5019SOL    HW126693   1.665   4.171   6.226 -2.1610  0.8943 -0.2701
 5019SOL    HW226694   1.746   4.205   6.095 -0.4681 -1.9862 -0.9650
 5020SOL     OW26695   2.301   2.114   5.007  0.2203 -0.3456  0.0874
 5020SOL    HW126696   2.206   2.103   5.003  0.0298  1.1155  0.6713
 5020SOL    HW226697   2.313   2.114   5.102 -2.0973  1.6889  0.3856
 5021SOL     OW26698   2.462   4.450  14.804 -0.5225  0.1290 -0.5977
 5021SOL    HW126699   2.424   4.363  14.815  0.4352 -0.1466  0.6091
 5021SOL    HW226700   2.442   4.483  14.891 -0.1337  1.7706 -1.1321
 5022SOL     OW26701   1.603   1.762  16.126  0.1577  0.1799  0.2977
 5022SOL    HW126702   1.577   1.732  16.038  1.6911 -1.7741  0.5121
 5022SOL    HW226703   1.530   1.820  16.147 -1.1077 -1.3821  0.1778
 5023SOL     OW26704   2.491   0.650   1.062  0.6253  0.0331  0.0893
 5023SOL    HW126705   2.564   0.705   1.090  2.6157 -3.6626  2.1363
 5023SOL    HW226706   2.450   0.712   1.001  2.0652  1.1837  0.2919
 5024SOL     OW26707   0.117   1.141   3.546 -0.3906  0.2048 -0.1996
 5024SOL    HW126708   0.163   1.177   3.471 -2.2531 -0.3008 -1.5815
 5024SOL    HW226709   0.136   1.212   3.607  0.5644 -0.8361  0.7283
 5025SOL     OW26710   4.075   3.182  15.230  0.4954 -0.1191  0.8086
 5025SOL    HW126711   4.167   3.184  15.257  0.7234  1.0872 -0.0484
 5025SOL    HW226712   4.094   3.153  15.141  1.4376  0.2808  0.8814
 5026SOL     OW26713   1.780   4.672   4.589 -0.5607 -0.2437 -0.0800
 5026SOL    HW126714   1.790   4.693   4.681  1.9281  0.6943 -0.5697
 5026SOL    HW226715   1.711   4.734   4.566  1.7888  1.4561 -2.6034
 5027SOL     OW26716   4.487   1.435   0.036 -0.0602 -0.7003 -0.4867
 5027SOL    HW126717   4.393   1.445   0.020  0.4044  1.9939 -1.5824
 5027SOL    HW226718   4.522   1.515   0.075 -0.0437 -0.9219 -0.0426
 5028SOL     OW26719   1.771   3.498   5.385 -0.2777  0.3987  0.9908
 5028SOL    HW126720   1.758   3.426   5.324  0.0179 -1.4128  3.0584
 5028SOL    HW226721   1.827   3.453   5.448  1.2776  0.4640 -0.3455
 5029SOL     OW26722   1.144   3.233   2.883  0.4450  0.4372 -0.6255
 5029SOL    HW126723   1.048   3.225   2.880  0.5323 -0.6839 -0.4721
 5029SOL    HW226724   1.174   3.239   2.973  0.1610  3.4586 -0.7307
 5030SOL     OW26725   3.392   2.226  16.826 -0.9872  0.0935 -0.1104
 5030SOL    HW126726   3.336   2.287  16.777 -0.9873 -0.1336 -0.3879
 5030SOL    HW226727   3.336   2.149  16.821 -1.9102  0.9073 -2.3355
 5031SOL     OW26728   3.059   0.690   6.154 -0.7413  0.1543  0.0722
 5031SOL    HW126729   3.072   0.596   6.169  0.6662  0.1329 -1.2703
 5031SOL    HW226730   2.971   0.686   6.116 -0.7577 -1.7881  0.2925
 5032SOL     OW26731   3.094   1.826  12.863 -0.1750  0.3644 -0.1890
 5032SOL    HW126732   3.086   1.872  12.779 -0.3233  0.4581 -0.1227
 5032SOL    HW226733   3.004   1.826  12.894  0.4551  1.0327  1.6355
 5033SOL     OW26734   3.824   4.333  16.011  0.5053 -0.7405 -0.4293
 5033SOL    HW126735   3.887   4.402  15.989  1.0761 -1.3499 -0.6800
 5033SOL    HW226736   3.758   4.345  15.943 -0.1161  0.5543  0.4045
 5034SOL     OW26737   0.703   3.907   0.539 -0.0075 -0.2438 -0.2171
 5034SOL    HW126738   0.677   3.868   0.456  3.4456 -1.1258 -0.8754
 5034SOL    HW226739   0.624   3.961   0.551 -1.3749 -2.5563  1.2239
 5035SOL     OW26740   4.316   1.088   5.771 -0.2895  0.1523 -0.1044
 5035SOL    HW126741   4.369   1.076   5.692 -1.0760  0.8663 -0.7448
 5035SOL    HW226742   4.342   1.007   5.816 -0.1677  0.3663  0.2116
 5036SOL     OW26743   4.185   1.550   9.924  0.2699 -0.2008  0.1181
 5036SOL    HW126744   4.116   1.587   9.869  1.6529 -0.2483 -1.6511
 5036SOL    HW226745   4.183   1.459   9.896 -1.9885  0.3775 -1.6001
 5037SOL     OW26746   4.487   3.299  10.755 -0.0745  0.3890 -0.3268
 5037SOL    HW126747   4.429   3.278  10.681 -2.8689  2.3784  1.3217
 5037SOL    HW226748   4.575   3.299  10.716 -1.3493  0.3614 -3.2555
 5038SOL     OW26749   3.510   2.324   8.441 -1.2543  0.8273 -0.2767
 5038SOL    HW126750   3.530   2.231   8.447  1.2982  1.4813  1.3017
 5038SOL    HW226751   3.448   2.320   8.369  1.6149  0.8199 -2.7413
 5039SOL     OW26752   1.506   0.952  15.092  0.0916  0.0396  0.6566
 5039SOL    HW126753   1.540   0.910  15.171 -0.9438 -2.3339 -0.1784
 5039SOL    HW226754   1.419   0.920  15.070 -0.0905  1.0671 -0.0880
 5040SOL     OW26755   0.370   2.382   7.316  0.5108  0.5501  0.1139
 5040SOL    HW126756   0.446   2.393   7.374  1.2038  0.4088 -0.7627
 5040SOL    HW226757   0.407   2.361   7.230 -0.5900 -0.1805 -0.1720
 5041SOL     OW26758   1.075   1.430   3.672  0.3847 -0.4295  0.4398
 5041SOL    HW126759   1.168   1.409   3.671  0.5347  0.3602 -1.4946
 5041SOL    HW226760   1.028   1.347   3.681 -0.5236  0.1780  1.3848
 5042SOL     OW26761   1.202   0.071   7.290 -0.4383  0.0605 -0.3815
 5042SOL    HW126762   1.167   0.110   7.209 -0.2961  0.5917 -0.1915
 5042SOL    HW226763   1.130   0.009   7.300 -0.1825 -0.1650  0.0487
 5043SOL     OW26764   1.681   2.760   6.176  0.5732 -0.0364 -0.4258
 5043SOL    HW126765   1.716   2.672   6.193  0.8542  0.5825  2.2450
 5043SOL    HW226766   1.642   2.744   6.091  1.4385 -0.1582 -0.8002
 5044SOL     OW26767   1.222   3.881   3.159 -0.3063 -0.1007  0.1442
 5044SOL    HW126768   1.225   3.790   3.188 -1.0907  0.7153  2.7547
 5044SOL    HW226769   1.138   3.871   3.115  0.0652  0.9334 -0.8046
 5045SOL     OW26770   3.410   2.983   4.251 -0.0985 -0.3143 -0.1161
 5045SOL    HW126771   3.495   2.954   4.220 -1.0102 -1.3266 -1.6547
 5045SOL    HW226772   3.401   3.071   4.214 -0.8715 -0.7981 -1.0687
 5046SOL     OW26773   1.820   2.335   2.228  0.0329  0.1336  0.3033
 5046SOL    HW126774   1.827   2.358   2.321  1.0640  3.5150 -0.5906
 5046SOL    HW226775   1.849   2.244   2.231 -0.8341 -0.0571  2.9768
 5047SOL     OW26776   2.375   3.582   4.594  0.4179 -0.2162  0.0056
 5047SOL    HW126777   2.282   3.569   4.611  0.2828 -1.9453 -2.1028
 5047SOL    HW226778   2.397   3.639   4.668  1.7664 -1.8380  0.8858
 5048SOL     OW26779   0.969   0.143   6.668 -0.3672  0.7265 -0.3229
 5048SOL    HW126780   0.897   0.081   6.656 -0.1226  0.5470 -0.8368
 5048SOL    HW226781   1.030   0.114   6.601 -0.2761  1.2088 -0.4458
 5049SOL     OW26782   3.746   0.535   5.207  0.2302 -0.0952 -0.2951
 5049SOL    HW126783   3.783   0.568   5.125  1.1800  1.6704  0.8376
 5049SOL    HW226784   3.719   0.450   5.174 -0.8179 -0.1630  0.7238
 5050SOL     OW26785   3.633   1.103   9.274 -0.2367 -0.8199 -0.5011
 5050SOL    HW126786   3.630   1.055   9.191  0.0758  1.5687 -1.8983
 5050SOL    HW226787   3.567   1.170   9.254 -0.0566 -0.0495  1.4294
 5051SOL     OW26788   1.761   1.217   7.961 -0.2022  0.9800  0.2716
 5051SOL    HW126789   1.820   1.163   7.909  0.4629  1.8097  0.1591
 5051SOL    HW226790   1.730   1.149   8.020  1.9794 -0.3290 -0.1114
 5052SOL     OW26791   1.561   2.104  10.710  0.5612  0.0610 -0.1694
 5052SOL    HW126792   1.510   2.176  10.747 -0.1763 -1.2102  1.3028
 5052SOL    HW226793   1.523   2.101  10.622  0.6857  0.1050 -0.2236
 5053SOL     OW26794   2.791   3.708  10.912 -0.4806  0.1686  0.5288
 5053SOL    HW126795   2.847   3.716  10.835 -0.2452 -0.0580  0.6754
 5053SOL    HW226796   2.704   3.695  10.876 -0.8692 -0.3549  1.6603
 5054SOL     OW26797   2.245   3.805   3.143 -0.1381  0.3186  0.5745
 5054SOL    HW126798   2.281   3.793   3.055 -0.7403 -3.0139  0.7761
 5054SOL    HW226799   2.175   3.860   3.109 -0.9887 -0.9453  0.2934
 5055SOL     OW26800   2.014   3.075   8.155 -0.2818 -0.1654 -0.1726
 5055SOL    HW126801   1.958   3.139   8.111  1.1648  1.8610  0.9345
 5055SOL    HW226802   1.995   3.098   8.246 -1.8966  0.7719 -0.7531
 5056SOL     OW26803   1.364   2.640   7.011 -0.2521  0.9495 -0.7139
 5056SOL    HW126804   1.335   2.588   6.937 -1.1862  1.5891 -0.7877
 5056SOL    HW226805   1.394   2.724   6.974  0.0983  1.1178 -0.0607
 5057SOL     OW26806   2.675   2.769   3.032 -0.0562 -0.3269 -0.1454
 5057SOL    HW126807   2.753   2.822   3.017 -0.1801  0.2117  1.1284
 5057SOL    HW226808   2.646   2.747   2.943  0.5000 -1.0075 -0.1568
 5058SOL     OW26809   4.525   1.916  14.753 -0.2812 -0.3769  0.7017
 5058SOL    HW126810   4.516   1.990  14.693 -0.9812  0.0162  1.3020
 5058SOL    HW226811   4.477   1.851  14.701  0.1353  0.5595 -0.8424
 5059SOL     OW26812   2.764   0.778   9.209 -0.1439  0.3735  0.2368
 5059SOL    HW126813   2.687   0.813   9.165  1.0421 -1.2964 -3.1355
 5059SOL    HW226814   2.719   0.706   9.253 -1.9564  0.4853 -1.4684
 5060SOL     OW26815   0.029   3.773  16.218 -0.1413  0.2944  0.3256
 5060SOL    HW126816   0.008   3.715  16.291 -0.1163  2.2183  1.8594
 5060SOL    HW226817   0.121   3.755  16.200 -0.2770  0.3258 -0.4208
 5061SOL     OW26818   3.303   3.017  14.239 -0.2596 -0.0207  0.5518
 5061SOL    HW126819   3.373   3.059  14.190  0.2445  1.7670  2.8269
 5061SOL    HW226820   3.345   2.932  14.225  0.4827  0.7893 -2.0944
 5062SOL     OW26821   2.123   0.373  12.257 -0.1072 -0.0166  0.1487
 5062SOL    HW126822   2.067   0.446  12.283  1.8059  0.9368  1.5044
 5062SOL    HW226823   2.069   0.301  12.290  0.1918 -0.0078  0.6549
 5063SOL     OW26824   2.011   1.082  14.399 -0.1969  0.2789 -0.2100
 5063SOL    HW126825   1.964   1.062  14.480  0.7322 -1.0472 -0.0093
 5063SOL    HW226826   1.979   1.007  14.350  0.0857 -0.9713  1.5140
 5064SOL     OW26827   2.827   2.150   1.604 -0.4499 -0.4836 -0.0214
 5064SOL    HW126828   2.800   2.086   1.669 -1.7907  1.2696  1.1718
 5064SOL    HW226829   2.862   2.211   1.670 -4.8379  2.3871 -0.3542
 5065SOL     OW26830   2.958   3.511   7.120 -0.4136 -0.1230 -0.3080
 5065SOL    HW126831   3.044   3.521   7.161 -0.8644  0.2011  0.5461
 5065SOL    HW226832   2.942   3.420   7.142  2.3099 -1.0680 -2.1845
 5066SOL     OW26833   1.869   3.950   7.094  0.3341 -0.7182 -0.3060
 5066SOL    HW126834   1.961   3.923   7.087  0.7953  0.5623  0.6906
 5066SOL    HW226835   1.885   4.033   7.141  2.2869 -0.4636 -1.4250
 5067SOL     OW26836   2.023   0.724   3.325  0.1002  0.1479  0.5103
 5067SOL    HW126837   2.038   0.816   3.305  0.6391  0.2857  1.5852
 5067SOL    HW226838   2.015   0.724   3.420  1.7540 -2.4503  0.6492
 5068SOL     OW26839   4.396   3.442   1.978  0.1690  0.3398  0.1397
 5068SOL    HW126840   4.441   3.452   1.894 -0.8383  0.3369 -0.4007
 5068SOL    HW226841   4.464   3.468   2.039 -0.7900  2.0812  0.4720
 5069SOL     OW26842   4.339   4.082  10.922 -0.5974  0.0184  0.2559
 5069SOL    HW126843   4.310   4.007  10.973 -0.3570 -0.4323 -0.2723
 5069SOL    HW226844   4.253   4.123  10.925 -0.3972  0.4304  0.3802
 5070SOL     OW26845   2.405   2.810   2.999  0.7577 -0.7447  0.2707
 5070SOL    HW126846   2.404   2.841   2.909  0.6896  0.7328  0.7858
 5070SOL    HW226847   2.490   2.844   3.026  0.7925 -0.1886 -0.5460
 5071SOL     OW26848   4.196   2.975  16.303  0.0538 -0.4219 -0.2542
 5071SOL    HW126849   4.141   2.899  16.322  0.4993 -0.4336  0.9508
 5071SOL    HW226850   4.138   3.048  16.322 -0.5560 -0.8976 -0.2692
 5072SOL     OW26851   4.209   3.511   2.416 -0.7903 -0.2822 -0.0624
 5072SOL    HW126852   4.232   3.543   2.329  0.0252 -3.2438 -0.9401
 5072SOL    HW226853   4.267   3.437   2.432 -0.0700  0.2721 -0.1530
 5073SOL     OW26854   3.256   2.938  12.669  0.1265 -0.0791  0.5502
 5073SOL    HW126855   3.168   2.916  12.701 -0.5722  1.3154 -0.4114
 5073SOL    HW226856   3.293   2.850  12.671 -1.0363 -0.6040 -0.7258
 5074SOL     OW26857   4.140   1.572   3.369  0.2053  0.1336  0.0483
 5074SOL    HW126858   4.086   1.537   3.440  2.7677  1.4120  2.6388
 5074SOL    HW226859   4.134   1.663   3.398 -0.1017  0.3002 -0.5464
 5075SOL     OW26860   3.123   1.419   2.918  0.2768  0.3827  0.7267
 5075SOL    HW126861   3.103   1.410   2.825  1.3777 -0.1659  0.5372
 5075SOL    HW226862   3.187   1.491   2.914  1.5980 -0.8813 -0.7657
 5076SOL     OW26863   0.193   1.054   9.486  0.2773  0.5281 -0.1722
 5076SOL    HW126864   0.261   0.999   9.523  1.0556 -0.1440 -2.6310
 5076SOL    HW226865   0.131   1.044   9.559 -1.7979  0.1386 -1.9689
 5077SOL     OW26866   4.321   1.051   2.020 -0.1012  0.4420  0.2666
 5077SOL    HW126867   4.355   1.140   2.013  0.8166  0.2390  2.2293
 5077SOL    HW226868   4.227   1.065   2.006 -0.0587  1.1686  0.7336
 5078SOL     OW26869   2.644   1.914   9.620  0.0833 -0.0336  0.2680
 5078SOL    HW126870   2.610   1.833   9.584 -0.6888 -0.8391  2.8224
 5078SOL    HW226871   2.562   1.962   9.630 -1.8350 -3.4502  0.6738
 5079SOL     OW26872   4.552   4.703   7.588  0.5308 -0.2613  0.3965
 5079SOL    HW126873   4.588   4.658   7.512  1.3559 -0.6206  1.0042
 5079SOL    HW226874   4.620   4.716   7.654  0.6430 -0.2428  0.2769
 5080SOL     OW26875   3.788   2.131   7.869  0.1502 -0.0925  0.8647
 5080SOL    HW126876   3.739   2.099   7.944 -0.3046 -0.5676  0.3691
 5080SOL    HW226877   3.760   2.222   7.862 -0.3952 -0.1517  2.3988
 5081SOL     OW26878   2.277   4.335   9.244 -0.2986  0.0609 -0.0049
 5081SOL    HW126879   2.232   4.282   9.310  0.1190  0.7064  0.7949
 5081SOL    HW226880   2.202   4.390   9.222 -1.1511 -0.8620  0.5755
 5082SOL     OW26881   2.323   3.609  15.120 -0.1803 -0.1684 -0.2429
 5082SOL    HW126882   2.407   3.566  15.136 -0.3361 -0.2860  0.2517
 5082SOL    HW226883   2.354   3.661  15.045 -2.4148 -1.2196 -1.8969
 5083SOL     OW26884   0.212   2.373   2.106 -0.0410  0.7209  0.1629
 5083SOL    HW126885   0.143   2.337   2.049 -0.3823  0.5803  0.6666
 5083SOL    HW226886   0.276   2.419   2.052 -0.2322  0.7021 -0.0855
 5084SOL     OW26887   3.417   4.686   5.157  0.8957  0.8987 -0.0530
 5084SOL    HW126888   3.415   0.026   5.214  1.0355  0.7870  0.1026
 5084SOL    HW226889   3.476   4.715   5.088  0.3575  2.8536  0.3299
 5085SOL     OW26890   0.114   1.948   3.943  0.4229  0.2829  0.3391
 5085SOL    HW126891   0.047   1.881   3.961 -0.9600  1.2451 -1.3066
 5085SOL    HW226892   0.111   2.000   4.023 -1.2821 -1.5290  1.4777
 5086SOL     OW26893   0.948   2.394  15.419 -0.0461 -0.6644  0.6917
 5086SOL    HW126894   0.859   2.415  15.389  0.8465 -0.4383 -1.8091
 5086SOL    HW226895   1.001   2.387  15.340 -2.2350 -0.3529 -0.8411
 5087SOL     OW26896   1.278   0.578  12.387  0.1477  0.1335  0.3184
 5087SOL    HW126897   1.287   0.532  12.304 -0.3428 -0.8656  0.8125
 5087SOL    HW226898   1.285   0.666  12.351  0.1120  1.2138  2.8960
 5088SOL     OW26899   1.576   0.263   0.483 -0.2160 -0.1617  0.3467
 5088SOL    HW126900   1.659   0.229   0.516  0.9155  2.3578  0.1227
 5088SOL    HW226901   1.529   0.245   0.565 -1.6155  0.1611 -0.3715
 5089SOL     OW26902   0.800   1.292  13.869 -0.0149  0.2590 -0.2530
 5089SOL    HW126903   0.825   1.225  13.932 -1.2279 -0.0040 -0.0471
 5089SOL    HW226904   0.862   1.279  13.798  0.0890  0.9869 -0.2938
 5090SOL     OW26905   3.389   3.676   0.759  0.1217  0.4609  0.0878
 5090SOL    HW126906   3.411   3.585   0.780  1.3727  0.3823 -1.5929
 5090SOL    HW226907   3.443   3.689   0.681 -1.3202  1.4117 -0.7452
 5091SOL     OW26908   1.115   3.662   7.589  0.0033 -0.2424  0.1277
 5091SOL    HW126909   1.056   3.613   7.532 -0.2731 -2.0860  1.9886
 5091SOL    HW226910   1.188   3.602   7.602  0.2511 -0.5545 -2.6948
 5092SOL     OW26911   2.815   4.483  16.290 -0.0155 -0.2612 -0.4532
 5092SOL    HW126912   2.845   4.479  16.381 -0.9605 -1.4132 -0.1969
 5092SOL    HW226913   2.724   4.504  16.307 -0.7274 -1.5102 -2.6652
 5093SOL     OW26914   3.055   4.161  14.500 -0.7586 -0.0931 -0.0672
 5093SOL    HW126915   3.055   4.217  14.577 -0.8964 -1.6875  1.0834
 5093SOL    HW226916   2.961   4.160  14.481 -0.7588  1.0508 -0.1553
 5094SOL     OW26917   3.439   0.720   3.736 -0.2138 -0.2794  0.5708
 5094SOL    HW126918   3.479   0.768   3.664  0.0061 -1.0382  0.1902
 5094SOL    HW226919   3.399   0.645   3.691  0.7860 -1.3522  1.4536
 5095SOL     OW26920   3.746   2.858   8.480  0.3931  0.2740  0.0201
 5095SOL    HW126921   3.725   2.842   8.388 -1.2322  1.4207  0.2053
 5095SOL    HW226922   3.719   2.780   8.530 -1.7095  0.6580 -0.5427
 5096SOL     OW26923   0.016   1.086   9.691 -0.8965 -0.0677  0.4931
 5096SOL    HW126924   4.688   1.133   9.638  0.3858  0.5114 -0.5582
 5096SOL    HW226925   0.027   1.145   9.766  0.1732 -1.0926  1.1537
 5097SOL     OW26926   0.530   1.344   3.410 -0.3270 -0.2628 -0.5609
 5097SOL    HW126927   0.469   1.377   3.476  0.2471 -0.0745 -0.1240
 5097SOL    HW226928   0.591   1.418   3.400 -0.2787 -0.1038  0.8887
 5098SOL     OW26929   1.903   2.974   3.609 -0.0146 -0.4636 -0.0496
 5098SOL    HW126930   1.913   2.927   3.527  1.7788 -0.1007 -0.0464
 5098SOL    HW226931   1.863   3.054   3.577 -0.2805 -0.0907  1.2119
 5099SOL     OW26932   0.159   4.220  10.450 -0.1345  0.1891 -0.2022
 5099SOL    HW126933   0.092   4.233  10.517  0.7040 -1.1998  0.8880
 5099SOL    HW226934   0.108   4.254  10.377 -3.0999 -2.0046  0.8563
 5100SOL     OW26935   0.746   1.350   5.155  0.2449  0.7236 -0.4356
 5100SOL    HW126936   0.747   1.412   5.083 -0.8404  1.3809  0.1179
 5100SOL    HW226937   0.653   1.329   5.161  0.4178 -1.2329 -4.5049
 5101SOL     OW26938   0.423   0.314   7.968  0.3840  0.0784 -0.0984
 5101SOL    HW126939   0.342   0.276   8.001  0.7581 -1.5427 -1.0493
 5101SOL    HW226940   0.490   0.274   8.023 -0.9837 -0.3584  1.2526
 5102SOL     OW26941   4.440   4.383  15.853  0.2970 -0.3774  0.2356
 5102SOL    HW126942   4.463   4.424  15.936  0.3001  1.0394 -0.4592
 5102SOL    HW226943   4.522   4.389  15.804 -0.1539  1.9388 -0.2613
 5103SOL     OW26944   3.861   2.314   4.048 -0.1362  0.1793 -0.3761
 5103SOL    HW126945   3.948   2.293   4.014 -0.0685  0.0634 -0.1309
 5103SOL    HW226946   3.840   2.405   4.026 -1.6974 -0.4163 -1.3014
 5104SOL     OW26947   2.321   4.619   7.960 -0.0955  0.1100  0.0647
 5104SOL    HW126948   2.267   4.572   8.024 -1.8705  1.9558 -0.0466
 5104SOL    HW226949   2.394   4.564   7.933  0.5431 -0.9219  3.9799
 5105SOL     OW26950   0.158   3.728   7.225 -0.1747 -0.1972  0.4642
 5105SOL    HW126951   0.191   3.803   7.176 -1.3505 -1.2817 -2.0225
 5105SOL    HW226952   0.128   3.779   7.300  1.1571  1.4830 -0.1586
 5106SOL     OW26953   2.948   1.173  12.531 -0.2222  0.3220  0.5556
 5106SOL    HW126954   3.023   1.231  12.513 -1.4552  0.4146 -4.3681
 5106SOL    HW226955   2.924   1.155  12.440  1.0773 -1.0990  0.4983
 5107SOL     OW26956   0.815   1.136  14.105  0.7117  0.5645  0.4481
 5107SOL    HW126957   0.744   1.086  14.065  1.1848  0.4131 -0.2126
 5107SOL    HW226958   0.781   1.154  14.193  2.7647 -1.8131  1.7193
 5108SOL     OW26959   3.721   0.817   7.713  0.1559  0.0903 -0.5618
 5108SOL    HW126960   3.801   0.811   7.764 -0.3149  0.2823  0.1985
 5108SOL    HW226961   3.663   0.812   7.789  0.0839  1.2533 -0.5435
 5109SOL     OW26962   3.341   1.548   9.180 -0.2152 -0.2533 -0.3946
 5109SOL    HW126963   3.430   1.584   9.175 -0.5332  0.5801 -0.0070
 5109SOL    HW226964   3.281   1.618   9.155  0.8490  0.9182  0.3568
 5110SOL     OW26965   0.106   2.216  12.070  0.3014 -0.2722  0.2278
 5110SOL    HW126966   0.140   2.208  11.981 -0.8303  2.6186 -0.4463
 5110SOL    HW226967   0.086   2.309  12.073 -1.7630 -0.7202  0.4079
 5111SOL     OW26968   1.347   4.462   1.727  0.2497 -0.1670 -0.1131
 5111SOL    HW126969   1.298   4.442   1.807 -0.4508  2.0178 -0.0031
 5111SOL    HW226970   1.348   4.557   1.739 -1.1012  0.1021 -2.1517
 5112SOL     OW26971   1.329   2.027  10.099  0.0363 -0.0893  0.2574
 5112SOL    HW126972   1.406   1.971  10.099 -0.0593 -0.2223  1.6068
 5112SOL    HW226973   1.266   1.990  10.161  0.8750 -0.7248  0.7245
 5113SOL     OW26974   2.766   1.530   4.785 -0.3677  0.1996 -0.0456
 5113SOL    HW126975   2.715   1.507   4.707  4.7233 -2.5308 -2.5034
 5113SOL    HW226976   2.775   1.625   4.777 -2.0930  0.5369  1.9496
 5114SOL     OW26977   1.551   1.441   8.232  0.2969 -0.5080 -0.3229
 5114SOL    HW126978   1.539   1.530   8.264 -1.2293 -1.5026  1.8608
 5114SOL    HW226979   1.503   1.449   8.149 -0.8660  2.3561  0.6275
 5115SOL     OW26980   1.287   4.023   1.236 -0.7855  0.8658 -0.0283
 5115SOL    HW126981   1.242   4.108   1.239 -1.9651  0.2148  0.8588
 5115SOL    HW226982   1.373   4.058   1.260 -1.1375  1.0724  0.9586
 5116SOL     OW26983   1.800   2.158   3.119  0.2459 -0.4461  0.3260
 5116SOL    HW126984   1.710   2.188   3.107  0.5444  0.4109  0.2316
 5116SOL    HW226985   1.790   2.089   3.184 -0.5171 -1.1088 -0.5049
 5117SOL     OW26986   0.201   0.981   3.762 -0.1501  0.3944 -0.2624
 5117SOL    HW126987   0.161   1.032   3.692  1.9556  1.0074 -1.0197
 5117SOL    HW226988   0.284   0.956   3.721  1.0414  0.2750  2.2366
 5118SOL     OW26989   0.096   3.152   5.262  0.5755  0.3468 -0.6180
 5118SOL    HW126990   0.096   3.058   5.282 -0.8489  0.7414  1.1957
 5118SOL    HW226991   0.126   3.189   5.345 -1.1180 -2.9091  1.4682
 5119SOL     OW26992   2.089   0.150  14.859  0.2640 -0.6471  0.6000
 5119SOL    HW126993   2.092   0.080  14.794  0.1830 -2.9960  3.1423
 5119SOL    HW226994   2.085   0.227  14.802  2.1208 -0.8334  0.2133
 5120SOL     OW26995   4.731   3.094   3.807  0.0410  0.1023  0.6279
 5120SOL    HW126996   0.053   3.073   3.735 -1.8103  0.6982 -1.0735
 5120SOL    HW226997   0.003   3.190   3.810  2.2564 -0.1152  0.9818
 5121SOL     OW26998   1.299   3.485   6.859  0.0537  0.1373  0.6521
 5121SOL    HW126999   1.227   3.437   6.817  1.5108 -0.7069 -0.8485
 5121SOL    HW227000   1.351   3.497   6.780 -1.3900  1.4696 -0.0831
 5122SOL     OW27001   2.108   4.546  16.637  0.1519 -0.5859  0.3526
 5122SOL    HW127002   2.131   4.483  16.706  2.6418 -0.5987 -0.4777
 5122SOL    HW227003   2.125   4.491  16.561 -1.5270 -1.3238  0.5123
 5123SOL     OW27004   3.691   2.389   1.517  0.9395  0.1873  0.0154
 5123SOL    HW127005   3.744   2.326   1.567  0.1637 -0.1629  0.4124
 5123SOL    HW227006   3.743   2.391   1.437 -0.1549  2.5374 -0.6353
 5124SOL     OW27007   2.997   1.555  11.369 -0.3018  0.4233 -0.5705
 5124SOL    HW127008   3.092   1.567  11.371 -0.0700 -1.2454 -1.2698
 5124SOL    HW227009   2.981   1.529  11.459 -0.5119  2.1023 -0.1302
 5125SOL     OW27010   2.601   2.892   9.340  0.1806 -0.4576 -0.0061
 5125SOL    HW127011   2.590   2.824   9.273 -0.4332 -1.5014  1.1465
 5125SOL    HW227012   2.560   2.968   9.299  2.5635  0.3769 -0.8416
 5126SOL     OW27013   1.992   0.303   5.870  0.1772 -0.2130 -0.4129
 5126SOL    HW127014   1.961   0.393   5.884  3.2155  0.7640  0.0958
 5126SOL    HW227015   2.086   0.310   5.888  0.3714  0.5453 -1.7406
 5127SOL     OW27016   3.231   4.641   9.059 -0.2343 -0.0298 -0.7017
 5127SOL    HW127017   3.148   4.607   9.024 -1.8299  1.8706  1.2226
 5127SOL    HW227018   3.297   4.595   9.007  2.0404  0.8059  1.4524
 5128SOL     OW27019   2.955   0.765   3.742 -0.5256 -0.0201 -0.3273
 5128SOL    HW127020   2.985   0.684   3.700  1.4113  0.3927  0.2303
 5128SOL    HW227021   3.039   0.808   3.762 -0.2560 -0.1041 -1.2870
 5129SOL     OW27022   3.480   1.546   9.487  0.3702  0.2885 -0.5099
 5129SOL    HW127023   3.524   1.553   9.402 -0.0917 -0.3239 -0.8049
 5129SOL    HW227024   3.479   1.451   9.497  0.9190  0.2260 -1.0759
 5130SOL     OW27025   0.274   0.049   8.292 -0.7375 -0.4255  0.2115
 5130SOL    HW127026   0.187   0.049   8.333 -1.1573 -1.3331 -0.6751
 5130SOL    HW227027   0.270   4.699   8.251  2.3314 -1.6870  2.6665
 5131SOL     OW27028   3.710   1.529  15.131  0.2965 -0.7855 -0.0902
 5131SOL    HW127029   3.714   1.575  15.215  1.2438 -0.3576 -0.3692
 5131SOL    HW227030   3.797   1.489  15.124  0.9062  0.4718  0.3167
 5132SOL     OW27031   4.586   1.275   7.576  0.2490 -0.3064 -0.4514
 5132SOL    HW127032   4.620   1.187   7.558 -1.6816 -1.1985  0.2690
 5132SOL    HW227033   4.509   1.291   7.522  0.8520  0.3521 -1.1131
 5133SOL     OW27034   0.603   3.913  13.660  0.4313  0.2109 -0.4704
 5133SOL    HW127035   0.637   3.888  13.574 -1.7959  0.3525 -1.3874
 5133SOL    HW227036   0.676   3.895  13.719  1.1486  3.4718 -0.3944
 5134SOL     OW27037   2.630   3.532  15.083 -0.2156 -0.0526  0.5562
 5134SOL    HW127038   2.647   3.588  15.007 -1.0083  0.7982  0.9966
 5134SOL    HW227039   2.625   3.446  15.041 -1.5357  0.3838 -0.2042
 5135SOL     OW27040   0.350   0.342   8.416  0.6710  0.2990 -0.2248
 5135SOL    HW127041   0.395   0.258   8.417  1.4733  0.7351 -0.2453
 5135SOL    HW227042   0.265   0.302   8.437  0.8791  0.2455  0.5175
 5136SOL     OW27043   0.718   2.799   9.128  0.4940  0.0922  0.1057
 5136SOL    HW127044   0.724   2.709   9.160 -1.2459  0.5176  1.6226
 5136SOL    HW227045   0.626   2.795   9.103  0.3975 -1.7387  0.8141
 5137SOL     OW27046   0.300   1.666  16.197  0.6567  0.0324 -0.1832
 5137SOL    HW127047   0.257   1.654  16.113  1.3078  1.8688 -0.7910
 5137SOL    HW227048   0.331   1.577  16.209  0.8424  0.1506  0.2260
 5138SOL     OW27049   1.492   2.485  14.010  0.4195 -0.0652 -0.2593
 5138SOL    HW127050   1.405   2.501  13.974  0.4986 -1.9653 -1.3053
 5138SOL    HW227051   1.531   2.433  13.939  0.5487  0.8057 -0.8270
 5139SOL     OW27052   0.667   1.549   4.456  0.0581 -0.5170  0.2964
 5139SOL    HW127053   0.688   1.486   4.387 -0.2609 -1.7437  1.3209
 5139SOL    HW227054   0.584   1.578   4.420 -0.0611  0.2029  1.1595
 5140SOL     OW27055   1.613   4.111  14.039 -0.2701 -0.8166 -0.8511
 5140SOL    HW127056   1.630   4.071  14.124  1.6372 -1.7381 -1.6619
 5140SOL    HW227057   1.546   4.052  14.002 -0.7830 -0.5516 -0.3467
 5141SOL     OW27058   2.884   2.832  14.792 -0.0072 -0.4183 -0.5937
 5141SOL    HW127059   2.819   2.886  14.747 -0.2813  0.3155  0.6622
 5141SOL    HW227060   2.868   2.744  14.758 -1.2943 -1.5838  3.0079
 5142SOL     OW27061   1.169   2.013   8.473  0.2963  0.3571  0.0191
 5142SOL    HW127062   1.135   2.103   8.476  1.2639  0.7303 -0.1267
 5142SOL    HW227063   1.088   1.961   8.476  0.3027  0.3369 -0.1795
 5143SOL     OW27064   2.052   1.729  10.875 -0.5557  0.4697 -0.1574
 5143SOL    HW127065   1.984   1.740  10.809  0.2445  1.2034 -0.8560
 5143SOL    HW227066   2.117   1.676  10.829 -0.8794  0.6753 -0.8477
 5144SOL     OW27067   3.004   2.250   5.449 -0.3498 -0.6337 -0.3111
 5144SOL    HW127068   3.046   2.165   5.459  2.2937  0.7034 -0.0998
 5144SOL    HW227069   3.057   2.311   5.499  0.4907 -0.8610 -0.9230
 5145SOL     OW27070   3.829   0.037   5.986 -0.0328 -0.4688  0.0838
 5145SOL    HW127071   3.812   4.682   5.964  0.2007 -0.1871 -1.3296
 5145SOL    HW227072   3.849   0.038   6.079  0.3993 -0.3703 -0.0115
 5146SOL     OW27073   1.435   0.363   8.921 -0.1827  0.0372  0.0130
 5146SOL    HW127074   1.364   0.376   8.858 -1.9019  0.7332  2.0864
 5146SOL    HW227075   1.386   0.311   8.985  0.6713 -0.6067  0.1462
 5147SOL     OW27076   2.012   2.139   7.375 -0.2241  0.2920  0.8095
 5147SOL    HW127077   1.918   2.141   7.392 -0.4644 -0.4427 -0.3840
 5147SOL    HW227078   2.045   2.207   7.432  2.4618  2.1377 -2.9461
 5148SOL     OW27079   3.230   4.736  11.904 -0.3342 -0.0108  0.0670
 5148SOL    HW127080   3.263   4.665  11.958 -0.0851  0.3778  0.4253
 5148SOL    HW227081   3.263   0.078  11.947 -1.0091  0.9963 -1.2810
 5149SOL     OW27082   3.714   3.517   0.316 -0.2852 -0.5029  0.0213
 5149SOL    HW127083   3.790   3.491   0.368 -0.3992  1.9599  1.4226
 5149SOL    HW227084   3.753   3.598   0.282  0.5673 -0.5926  0.7884
 5150SOL     OW27085   2.887   4.601   1.993 -0.5650 -0.7027  0.8924
 5150SOL    HW127086   2.899   4.651   1.913  3.1267  1.2077  2.6477
 5150SOL    HW227087   2.977   4.595   2.025 -0.2629 -1.0202 -0.0273
 5151SOL     OW27088   2.032   4.032   9.489  0.1664  0.3569 -0.6155
 5151SOL    HW127089   2.112   4.082   9.505  1.8333 -3.4918  3.1846
 5151SOL    HW227090   1.979   4.049   9.567 -1.0814  0.7389 -1.5595
 5152SOL     OW27091   2.323   4.022   0.179 -0.1233 -0.5002  0.6510
 5152SOL    HW127092   2.380   3.946   0.176 -0.6749 -0.9658  1.8126
 5152SOL    HW227093   2.237   3.987   0.155 -0.2450 -0.5954  1.2080
 5153SOL     OW27094   0.232   0.501   8.836 -0.5153 -0.1617 -0.0347
 5153SOL    HW127095   0.171   0.427   8.834  0.1066 -0.7019  0.5763
 5153SOL    HW227096   0.217   0.528   8.927 -0.5992  0.6490 -0.2910
 5154SOL     OW27097   2.171   2.277   7.533  0.4578  0.4197 -0.1764
 5154SOL    HW127098   2.182   2.192   7.576  0.0195  0.4372 -0.0288
 5154SOL    HW227099   2.263   2.295   7.516  0.6483 -0.1892  0.1909
 5155SOL     OW27100   1.775   0.323  12.148  0.4095  0.1217 -0.1285
 5155SOL    HW127101   1.804   0.268  12.220 -0.2099  1.7436  1.3638
 5155SOL    HW227102   1.720   0.388  12.192 -0.4767 -2.0583  1.9851
 5156SOL     OW27103   3.889   0.363  14.042 -0.4280 -0.4066  0.2233
 5156SOL    HW127104   3.976   0.386  14.010 -0.6474 -1.5800 -1.2074
 5156SOL    HW227105   3.837   0.434  14.004  1.8349  0.4169 -1.3144
 5157SOL     OW27106   2.861   3.909   4.182 -0.0368  0.0677 -0.3815
 5157SOL    HW127107   2.813   3.839   4.226 -2.7716  1.4981 -1.0179
 5157SOL    HW227108   2.799   3.929   4.111 -0.8467 -0.5622  0.1394
 5158SOL     OW27109   1.328   1.497   9.180  0.3805 -0.2959 -0.2059
 5158SOL    HW127110   1.412   1.529   9.210 -0.7286  1.9921  0.4841
 5158SOL    HW227111   1.262   1.556   9.218  0.8046 -2.0919  3.2579
 5159SOL     OW27112   1.178   4.737   2.587  0.4781  0.1566 -0.8129
 5159SOL    HW127113   1.239   0.040   2.649 -0.3836  1.5546 -0.8577
 5159SOL    HW227114   1.235   4.711   2.515  1.1805 -0.7630  0.0739
 5160SOL     OW27115   4.633   1.094   4.360  0.0431 -0.3288  0.2394
 5160SOL    HW127116   4.701   1.150   4.397 -0.0043 -0.4728  0.5408
 5160SOL    HW227117   4.647   1.007   4.398  0.9645 -0.7441 -1.0821
 5161SOL     OW27118   0.122   0.891   2.328  0.2294 -0.3114 -0.0358
 5161SOL    HW127119   0.050   0.829   2.331 -0.0172 -0.1083 -2.2904
 5161SOL    HW227120   0.196   0.852   2.374  0.5817 -1.3906 -1.5569
 5162SOL     OW27121   0.431   0.609  11.291 -0.4697 -0.2286 -0.5690
 5162SOL    HW127122   0.421   0.615  11.196 -1.0878  1.0114 -0.4320
 5162SOL    HW227123   0.474   0.694  11.304  2.3670 -2.0826  2.0653
 5163SOL     OW27124   1.813   2.410   3.937 -0.0476 -0.3835  0.0500
 5163SOL    HW127125   1.742   2.347   3.927 -1.1403  0.6922  1.0499
 5163SOL    HW227126   1.771   2.473   3.995  0.3070 -0.8438  0.8031
 5164SOL     OW27127   2.062   2.427   9.605 -0.1064  0.1378  0.1533
 5164SOL    HW127128   2.000   2.417   9.676 -0.8356  1.5333 -0.2979
 5164SOL    HW227129   2.080   2.521   9.610  1.4521 -0.2113  1.2112
 5165SOL     OW27130   1.270   3.242   5.879  0.5784  0.1888  0.5630
 5165SOL    HW127131   1.219   3.270   5.804  1.0052  1.9577  0.9238
 5165SOL    HW227132   1.309   3.163   5.842 -0.9446 -1.0148  1.5230
 5166SOL     OW27133   3.056   0.488   9.987 -0.4631  0.7230 -0.0819
 5166SOL    HW127134   3.062   0.421  10.055  0.8552 -0.3913 -1.2903
 5166SOL    HW227135   3.143   0.474   9.948 -0.4883 -0.7432  0.3910
 5167SOL     OW27136   1.355   2.532  13.525  0.4203  0.5835 -0.0089
 5167SOL    HW127137   1.282   2.543  13.464  1.9710  1.2098 -1.7727
 5167SOL    HW227138   1.433   2.518  13.471 -0.3005  1.7479 -1.3567
 5168SOL     OW27139   3.804   4.662   4.706 -0.5611 -0.0483 -0.6441
 5168SOL    HW127140   3.820   4.713   4.785  0.6173  0.1470 -1.0196
 5168SOL    HW227141   3.719   4.621   4.724 -0.7586  0.7752  0.3173
 5169SOL     OW27142   0.205   1.303   6.352 -0.1480 -0.1747  0.3450
 5169SOL    HW127143   0.249   1.224   6.320 -2.4370 -0.2743 -2.5236
 5169SOL    HW227144   0.277   1.366   6.348 -0.8169  0.4598 -1.6336
 5170SOL     OW27145   3.691   4.339   4.688  0.2408  0.2376  0.1504
 5170SOL    HW127146   3.644   4.419   4.711 -1.4971 -1.1389  1.3860
 5170SOL    HW227147   3.638   4.322   4.610 -2.5724  1.2406  1.8524
 5171SOL     OW27148   2.100   0.799   6.308 -0.0297  0.2751  0.2868
 5171SOL    HW127149   2.119   0.889   6.284 -0.7336 -0.3500 -2.5707
 5171SOL    HW227150   2.074   0.758   6.226  1.6853 -0.5589  0.1422
 5172SOL     OW27151   1.830   1.342  17.693 -0.4392  0.3712 -0.1787
 5172SOL    HW127152   1.800   1.258  17.726  1.6113 -0.2978 -0.0223
 5172SOL    HW227153   1.751   1.380  17.654 -1.9927 -1.7846  0.8810
 5173SOL     OW27154   2.293   2.416   3.796 -0.1498 -0.1728  0.5346
 5173SOL    HW127155   2.205   2.452   3.781 -0.9253 -2.3113 -0.0606
 5173SOL    HW227156   2.323   2.491   3.847  0.7206  0.9377 -1.6387
 5174SOL     OW27157   1.878   3.630  17.301  0.4466  0.3965  0.0095
 5174SOL    HW127158   1.936   3.640  17.376  0.4580 -1.3481  0.2320
 5174SOL    HW227159   1.834   3.548  17.321 -1.1753  1.0568 -0.8421
 5175SOL     OW27160   2.314   0.201   9.093 -0.4139  0.5215  0.1514
 5175SOL    HW127161   2.223   0.233   9.091  0.0327  1.7752 -0.4297
 5175SOL    HW227162   2.323   0.161   9.180  3.5847 -1.0619 -1.0170
 5176SOL     OW27163   0.876   1.722   4.023  0.5052  0.2910  0.2940
 5176SOL    HW127164   0.845   1.651   3.966 -0.7151  1.3790 -0.3934
 5176SOL    HW227165   0.871   1.800   3.968  0.1417  0.7509  0.9715
 5177SOL     OW27166   2.397   2.715  12.739  0.0757  0.1032 -0.2242
 5177SOL    HW127167   2.476   2.768  12.752 -1.0829  1.0878  2.8704
 5177SOL    HW227168   2.367   2.703  12.829 -0.8281 -1.0935 -0.6926
 5178SOL     OW27169   2.191   3.186   7.363 -0.1411 -0.2233 -0.3990
 5178SOL    HW127170   2.272   3.148   7.398 -0.4801  0.5135  1.1749
 5178SOL    HW227171   2.203   3.278   7.384 -2.4741  0.4145 -1.9184
 5179SOL     OW27172   0.299   4.133   8.929 -0.0249  0.0787 -0.2583
 5179SOL    HW127173   0.355   4.189   8.982  1.2797 -1.8931  0.4723
 5179SOL    HW227174   0.217   4.147   8.976 -1.3864 -0.3163 -2.5432
 5180SOL     OW27175   0.135   0.146   5.757  0.3449  0.2902  0.4803
 5180SOL    HW127176   0.156   0.061   5.719 -1.1266 -0.5508  1.5317
 5180SOL    HW227177   0.171   0.120   5.841  3.1451  0.7008 -0.5789
 5181SOL     OW27178   0.331   0.861   1.542  0.1821 -0.4169  0.4252
 5181SOL    HW127179   0.305   0.771   1.558 -1.8154  0.5423  2.6043
 5181SOL    HW227180   0.387   0.860   1.619  4.2108  0.0159 -2.4811
 5182SOL     OW27181   1.183   1.949   6.247  0.4381 -0.3360 -0.0515
 5182SOL    HW127182   1.259   1.896   6.220  1.4213  0.5760  0.9475
 5182SOL    HW227183   1.225   2.033   6.264  0.0266 -0.3390  0.9653
 5183SOL     OW27184   1.562   3.567   6.378  0.0395  0.0038  0.1770
 5183SOL    HW127185   1.654   3.554   6.355  0.2613 -0.7782  1.4884
 5183SOL    HW227186   1.520   3.518   6.307  1.3050 -2.0706  0.8608
 5184SOL     OW27187   1.379   2.292   8.301 -0.3136 -0.1908 -0.1038
 5184SOL    HW127188   1.390   2.385   8.282 -1.7129  0.4743  2.3812
 5184SOL    HW227189   1.384   2.292   8.397  0.7955 -0.0505 -0.1630
 5185SOL     OW27190   3.669   0.647  15.325  0.0515 -0.0735 -0.0550
 5185SOL    HW127191   3.652   0.580  15.392  0.4552  0.3919  0.5077
 5185SOL    HW227192   3.755   0.614  15.297 -0.0834 -0.3220 -0.1792
 5186SOL     OW27193   1.358   4.458   5.869 -0.0193  0.1356 -0.4384
 5186SOL    HW127194   1.386   4.479   5.780  1.5961  1.2827  0.3254
 5186SOL    HW227195   1.438   4.477   5.920  0.4053 -1.2651 -0.5771
 5187SOL     OW27196   0.414   1.367   3.085  0.4207 -0.2371  0.0395
 5187SOL    HW127197   0.456   1.450   3.107  0.6304  0.0517 -1.4228
 5187SOL    HW227198   0.348   1.386   3.019 -1.2034  0.7679  1.9852
 5188SOL     OW27199   0.734   0.291   7.350  0.2261 -0.6863  0.0956
 5188SOL    HW127200   0.726   0.360   7.416 -0.4628 -1.1318  0.4753
 5188SOL    HW227201   0.766   0.335   7.270 -1.0621 -0.0805 -0.0905
 5189SOL     OW27202   3.997   3.865   7.479  0.0880  0.3276 -0.3573
 5189SOL    HW127203   3.987   3.942   7.535 -0.5119 -0.7149  0.9703
 5189SOL    HW227204   3.906   3.851   7.452  0.5244 -0.3275 -1.4507
 5190SOL     OW27205   3.193   0.863   2.895  0.2317 -0.5298 -0.1062
 5190SOL    HW127206   3.165   0.859   2.987  1.1417 -1.3055  0.1343
 5190SOL    HW227207   3.218   0.955   2.889 -0.1525 -0.4863 -1.0695
 5191SOL     OW27208   4.116   2.910   6.437  0.1362  0.0851  0.5782
 5191SOL    HW127209   4.109   2.829   6.388  0.0376  2.4651 -3.3092
 5191SOL    HW227210   4.200   2.950   6.413 -0.0294  0.3058  0.3676
 5192SOL     OW27211   0.657   2.686   4.297 -0.0534 -0.2755  0.2137
 5192SOL    HW127212   0.677   2.780   4.297 -0.4014 -0.1944 -1.4361
 5192SOL    HW227213   0.562   2.674   4.304 -0.0988  0.4265  0.7145
 5193SOL     OW27214   1.019   0.003   7.903  0.3353 -0.5650 -0.5072
 5193SOL    HW127215   1.071   0.079   7.878 -0.0352 -0.0394  0.3146
 5193SOL    HW227216   0.961   0.010   7.827 -1.2806 -0.2038  0.7450
 5194SOL     OW27217   2.435   4.335   1.352  0.2283 -0.5707  0.6955
 5194SOL    HW127218   2.522   4.295   1.344  1.5383  2.4814 -0.3555
 5194SOL    HW227219   2.454   4.428   1.362  0.1072 -0.5428  0.6698
 5195SOL     OW27220   2.233   1.447   2.452 -0.9335 -0.5711 -0.3027
 5195SOL    HW127221   2.188   1.516   2.500 -1.1285  0.1617 -1.5407
 5195SOL    HW227222   2.315   1.492   2.432 -0.6421 -0.5077  1.0229
 5196SOL     OW27223   1.489   0.344  17.135 -0.0610 -0.2940  0.3756
 5196SOL    HW127224   1.447   0.428  17.153 -1.5920 -1.0477  0.3201
 5196SOL    HW227225   1.566   0.383  17.094 -1.7151  2.1640 -0.3751
 5197SOL     OW27226   2.810   2.768   6.937 -0.1067  0.2250 -0.4231
 5197SOL    HW127227   2.766   2.689   6.968  2.1006 -0.4524  0.9801
 5197SOL    HW227228   2.743   2.823   6.897 -0.5112 -0.1928 -0.3135
 5198SOL     OW27229   3.108   1.985   5.427 -0.6933  0.2038 -0.1702
 5198SOL    HW127230   3.042   1.935   5.476 -2.2030  3.9231  1.6196
 5198SOL    HW227231   3.187   1.981   5.481 -0.9261  2.1426  0.2992
 5199SOL     OW27232   2.561   4.362  15.948  0.1297  0.3829 -0.2056
 5199SOL    HW127233   2.627   4.348  16.015 -0.7813  0.9237  0.7914
 5199SOL    HW227234   2.611   4.330  15.872  0.4112 -1.2133  0.6496
 5200SOL     OW27235   0.240   1.654   4.871 -0.0965 -0.6488 -0.1712
 5200SOL    HW127236   0.171   1.712   4.903  1.2115  0.2909  0.9470
 5200SOL    HW227237   0.225   1.640   4.778  1.2117 -0.3712 -0.4243
 5201SOL     OW27238   0.093   2.365   2.369  0.0343  0.1161  0.1327
 5201SOL    HW127239   0.165   2.357   2.306  1.0461  1.7168  1.0934
 5201SOL    HW227240   0.051   2.445   2.339  0.8452  0.7041  0.5974
 5202SOL     OW27241   1.051   3.919  14.144  0.2192 -0.0108 -0.1144
 5202SOL    HW127242   0.971   3.867  14.155  1.2735 -1.4878  0.6170
 5202SOL    HW227243   1.019   4.006  14.167  0.0421 -0.2642  0.5830
 5203SOL     OW27244   1.582   0.118   8.793  0.0272 -0.8076  0.0104
 5203SOL    HW127245   1.528   0.196   8.799  0.6965 -0.4625  1.3980
 5203SOL    HW227246   1.573   0.101   8.886  1.2130  0.2744  0.3121
 5204SOL     OW27247   4.692   1.796   2.625 -0.2211 -0.6080  0.0741
 5204SOL    HW127248   4.662   1.707   2.607 -1.3641 -0.5135  1.5468
 5204SOL    HW227249   4.691   1.800   2.721 -1.4995  2.2147 -0.0716
 5205SOL     OW27250   4.116   2.048   5.823  0.5497  0.0711  0.5699
 5205SOL    HW127251   4.069   1.976   5.781 -0.1958  0.5654  0.5465
 5205SOL    HW227252   4.133   2.000   5.903  0.1015 -0.9860  0.0315
 5206SOL     OW27253   0.408   2.812  12.825 -0.4604 -0.3551  0.3412
 5206SOL    HW127254   0.485   2.819  12.768 -0.0945 -1.5691  0.7059
 5206SOL    HW227255   0.387   2.722  12.847 -0.0712 -0.5405 -0.0409
 5207SOL     OW27256   3.435   3.050   5.413  0.0545  0.2483 -0.3453
 5207SOL    HW127257   3.454   2.962   5.379 -1.6987  0.0691 -0.8697
 5207SOL    HW227258   3.457   3.038   5.505 -1.1718  0.3085 -0.0433
 5208SOL     OW27259   3.241   1.264   2.687  0.3158  0.0350  0.0195
 5208SOL    HW127260   3.328   1.244   2.651  0.0607  1.3872 -1.3497
 5208SOL    HW227261   3.234   1.349   2.643  1.0648  0.7658  1.3046
 5209SOL     OW27262   3.117   2.687   5.443 -0.2267  0.4499  0.0120
 5209SOL    HW127263   3.046   2.724   5.390  0.7588  1.0693 -0.8701
 5209SOL    HW227264   3.128   2.606   5.392 -1.0758 -0.1364  0.7580
 5210SOL     OW27265   0.033   4.182  14.729 -0.4682 -0.8032 -0.0741
 5210SOL    HW127266   4.704   4.200  14.661  2.7286  1.5214 -2.5547
 5210SOL    HW227267   4.712   4.152  14.799  0.5052 -1.2729  0.5268
 5211SOL     OW27268   4.372   4.675   1.216  0.3571 -0.2213 -0.2578
 5211SOL    HW127269   4.347   4.678   1.124  0.1413  0.8843 -0.1669
 5211SOL    HW227270   4.425   0.015   1.238  0.5578 -0.8810  1.5711
 5212SOL     OW27271   4.317   0.896   3.545 -0.3796  0.0269 -0.6031
 5212SOL    HW127272   4.265   0.929   3.618  1.3786 -1.0588  1.1532
 5212SOL    HW227273   4.314   0.968   3.483 -0.1845 -0.0100 -0.6560
 5213SOL     OW27274   2.669   0.214   9.131 -0.0335  0.1720 -0.3668
 5213SOL    HW127275   2.587   0.246   9.093 -0.9148  1.7201  2.8503
 5213SOL    HW227276   2.722   0.189   9.055 -1.6341 -0.6659 -1.1928
 5214SOL     OW27277   2.445   1.770   3.106 -0.1038  0.1737  0.2986
 5214SOL    HW127278   2.436   1.798   3.015 -0.0940  0.2685  0.3273
 5214SOL    HW227279   2.492   1.686   3.102 -1.3423 -0.6380  2.4027
 5215SOL     OW27280   1.530   3.933   2.433 -0.0207 -0.6088 -0.0853
 5215SOL    HW127281   1.575   3.957   2.352 -0.7938  0.4123 -0.2026
 5215SOL    HW227282   1.599   3.876   2.467 -0.9247  0.0521  2.8797
 5216SOL     OW27283   2.440   4.244   2.758 -0.2246 -0.6517  0.2075
 5216SOL    HW127284   2.496   4.297   2.701 -1.0325  2.4725  2.3199
 5216SOL    HW227285   2.416   4.314   2.818 -2.1281  0.7082 -2.1352
 5217SOL     OW27286   1.889   2.737   5.138  0.0118  0.1974  0.2085
 5217SOL    HW127287   1.821   2.683   5.098  1.0194 -1.7701  1.1603
 5217SOL    HW227288   1.867   2.718   5.229 -1.9124 -0.8198 -0.4833
 5218SOL     OW27289   4.521   4.319   7.510  0.7918 -0.5986  0.0652
 5218SOL    HW127290   4.557   4.407   7.502 -0.8573 -0.0538 -1.7149
 5218SOL    HW227291   4.594   4.260   7.529  0.5828 -0.6139  0.8259
 5219SOL     OW27292   1.566   0.013   3.648 -0.5977 -0.1780  0.0398
 5219SOL    HW127293   1.643   4.694   3.659  0.8775  1.5762 -1.2287
 5219SOL    HW227294   1.495   4.686   3.648 -1.0505  0.3300  0.3226
 5220SOL     OW27295   1.874   3.588   8.028 -0.1182 -0.1882  0.1822
 5220SOL    HW127296   1.894   3.680   8.045 -0.9128 -0.2507  1.4352
 5220SOL    HW227297   1.919   3.557   8.107 -1.5992  3.4881  2.4534
 5221SOL     OW27298   2.184   1.343   6.298 -0.2639  0.1921  0.4410
 5221SOL    HW127299   2.120   1.414   6.296 -0.5407 -0.1372 -3.3286
 5221SOL    HW227300   2.264   1.379   6.260 -1.7904  0.4967 -2.4644
 5222SOL     OW27301   1.819   4.091   2.551  0.0404  0.4827  0.1701
 5222SOL    HW127302   1.876   4.032   2.600 -0.4445  0.4105  0.6469
 5222SOL    HW227303   1.846   4.071   2.461 -1.1081  2.7001 -0.6836
 5223SOL     OW27304   4.001   1.821  17.218  0.2986 -0.4882 -0.1617
 5223SOL    HW127305   3.978   1.786  17.133 -0.5776 -0.3467  0.0126
 5223SOL    HW227306   3.977   1.747  17.274  0.3479 -1.3895 -1.3393
 5224SOL     OW27307   2.794   4.002  17.096  0.1169 -0.3958  0.4061
 5224SOL    HW127308   2.772   4.014  17.003  0.4105  0.9339  0.5124
 5224SOL    HW227309   2.864   4.064  17.114 -0.3173  0.9339 -2.3939
 5225SOL     OW27310   3.952   2.335   8.071 -0.3000 -0.3137 -0.0383
 5225SOL    HW127311   3.917   2.246   8.061  0.5474 -0.6609  0.0745
 5225SOL    HW227312   4.021   2.310   8.132  0.4686 -0.2675 -0.8867
 5226SOL     OW27313   0.878   3.288  12.422 -0.2156  0.3237  0.4157
 5226SOL    HW127314   0.896   3.356  12.357  0.7088 -0.3133  0.0019
 5226SOL    HW227315   0.965   3.257  12.447  0.1356  0.5003 -0.5852
 5227SOL     OW27316   0.406   3.057   5.411  0.4396  0.1945 -0.3083
 5227SOL    HW127317   0.321   3.024   5.382  0.2666 -1.0566  1.6503
 5227SOL    HW227318   0.454   2.975   5.398 -1.2267 -0.5816 -1.5053
 5228SOL     OW27319   1.527   1.236   3.481 -0.1678  0.2847  0.8074
 5228SOL    HW127320   1.544   1.303   3.415  2.1287 -0.5869  0.4936
 5228SOL    HW227321   1.619   1.220   3.505  0.9629  2.6623 -2.0430
 5229SOL     OW27322   3.220   3.429   6.459 -0.2368 -0.2784 -0.1993
 5229SOL    HW127323   3.208   3.361   6.392  1.1062 -1.0939  0.3904
 5229SOL    HW227324   3.194   3.507   6.410  3.0711  0.4970 -0.6634
 5230SOL     OW27325   3.194   4.554   7.160 -0.3003  0.0482  0.1941
 5230SOL    HW127326   3.231   4.635   7.124  0.6799 -0.0725  0.9250
 5230SOL    HW227327   3.210   4.494   7.087  2.8928 -0.2550  1.1076
 5231SOL     OW27328   4.247   2.993   9.463  0.0511  0.4960 -1.1513
 5231SOL    HW127329   4.283   3.080   9.481  2.1719 -0.7243  0.4833
 5231SOL    HW227330   4.230   3.003   9.370 -0.8368 -1.7373 -1.2310
 5232SOL     OW27331   0.100   4.381   2.766 -0.5282  0.1672  0.4463
 5232SOL    HW127332   0.014   4.404   2.731 -1.5184  0.5233  3.0785
 5232SOL    HW227333   0.111   4.461   2.818  0.9172  0.9780 -1.0965
 5233SOL     OW27334   3.474   0.223   1.791 -0.3233 -0.1022 -0.0407
 5233SOL    HW127335   3.532   0.276   1.846  0.5524 -0.4077 -0.6641
 5233SOL    HW227336   3.389   0.249   1.826  0.0883 -1.0343  1.6457
 5234SOL     OW27337   1.727   2.388  17.190  0.3681 -0.0543  0.4411
 5234SOL    HW127338   1.796   2.455  17.186  0.2091  0.1836  1.7939
 5234SOL    HW227339   1.680   2.407  17.108  0.2608  0.6131  0.6521
 5235SOL     OW27340   0.202   0.743  14.515  0.2830 -0.1117  0.1194
 5235SOL    HW127341   0.149   0.805  14.464  0.6082 -0.7403 -0.9903
 5235SOL    HW227342   0.157   0.750  14.599  1.6333  1.7204  0.6867
 5236SOL     OW27343   2.608   3.133   4.498 -0.2750  0.2854 -0.2752
 5236SOL    HW127344   2.620   3.226   4.516 -0.7859 -0.0864  2.0441
 5236SOL    HW227345   2.629   3.084   4.578  0.7846  0.6101 -0.3578
 5237SOL     OW27346   4.484   3.083  12.683 -0.0730  0.1316  0.1845
 5237SOL    HW127347   4.510   3.020  12.751  2.5968 -0.5773 -1.5118
 5237SOL    HW227348   4.522   3.040  12.607 -1.3388  0.1676 -0.4648
 5238SOL     OW27349   1.120   3.760   1.796 -0.0322  0.1012 -0.4495
 5238SOL    HW127350   1.067   3.831   1.760 -1.3835 -0.1097  1.1330
 5238SOL    HW227351   1.172   3.727   1.723 -1.4722 -0.3522 -1.2812
 5239SOL     OW27352   0.359   2.980   1.308 -0.0943  0.2581 -0.5486
 5239SOL    HW127353   0.314   2.913   1.359  1.3669  1.7975  2.7253
 5239SOL    HW227354   0.303   3.055   1.326 -1.1303 -0.6189 -0.1421
 5240SOL     OW27355   2.178   1.838   5.037 -0.2345 -0.3574 -0.6715
 5240SOL    HW127356   2.125   1.857   5.114 -1.2467  3.1960 -2.2603
 5240SOL    HW227357   2.233   1.772   5.079  0.1128 -0.2603 -0.9708
 5241SOL     OW27358   3.957   0.272   2.388 -0.0914  0.8942  0.2731
 5241SOL    HW127359   4.007   0.278   2.469  1.0152  1.0831 -0.4274
 5241SOL    HW227360   4.017   0.329   2.340  2.2426  0.2521  2.3870
 5242SOL     OW27361   2.287   1.134  14.344  0.0663  0.1090 -0.3857
 5242SOL    HW127362   2.318   1.183  14.421  1.6981 -1.1484 -0.2412
 5242SOL    HW227363   2.202   1.101  14.374  1.2433 -0.6206  2.1948
 5243SOL     OW27364   2.736   2.066  13.549  0.5893  0.2735 -0.1545
 5243SOL    HW127365   2.714   2.140  13.492 -0.0193 -1.0963 -1.6926
 5243SOL    HW227366   2.660   2.051  13.605  0.9221  0.9704  0.4834
 5244SOL     OW27367   2.145   3.986  14.529  0.0029 -0.1454 -0.1830
 5244SOL    HW127368   2.069   3.988  14.472 -0.0840  2.9095  0.0283
 5244SOL    HW227369   2.205   4.057  14.508 -0.5487  1.1353  2.4818
 5245SOL     OW27370   1.226   0.642   7.520  0.2090 -0.6337 -0.3852
 5245SOL    HW127371   1.314   0.615   7.494  0.0358  2.2574 -4.0259
 5245SOL    HW227372   1.249   0.644   7.613 -1.5420  1.2151 -0.0088
 5246SOL     OW27373   4.305   4.045   8.255  0.3519  0.4775  0.0099
 5246SOL    HW127374   4.355   4.086   8.325 -2.2495  1.4018  1.3197
 5246SOL    HW227375   4.242   3.993   8.304 -0.0380  2.6243  1.7768
 5247SOL     OW27376   0.106   2.334   0.036  0.0530  0.0893 -0.2244
 5247SOL    HW127377   0.113   2.347  17.687 -2.0221  1.2003 -0.2426
 5247SOL    HW227378   0.138   2.245   0.029 -1.9518 -0.7194  0.8249
 5248SOL     OW27379   4.403   1.701   2.382 -0.5462  0.1135 -0.3682
 5248SOL    HW127380   4.366   1.761   2.446 -1.9754 -1.1556  0.0012
 5248SOL    HW227381   4.331   1.670   2.326  0.7744 -1.7506 -1.0456
 5249SOL     OW27382   0.487   2.845   6.606  0.3234  0.4928 -0.8770
 5249SOL    HW127383   0.433   2.908   6.653 -0.4446  0.0552 -1.1830
 5249SOL    HW227384   0.451   2.770   6.652  0.9557  1.7004  1.5790
 5250SOL     OW27385   4.496   0.948  10.570 -0.1987 -0.4213  0.0611
 5250SOL    HW127386   4.401   0.958  10.580 -0.0980 -0.6423  1.3101
 5250SOL    HW227387   4.501   0.877  10.634 -1.8899 -0.3290  0.3158
 5251SOL     OW27388   4.028   4.696   6.968  0.0094  0.2693 -0.4404
 5251SOL    HW127389   4.008   4.622   7.027  1.9572 -0.1761 -0.3537
 5251SOL    HW227390   3.939   4.722   6.944 -0.8637 -0.4843  1.8702
 5252SOL     OW27391   1.430   0.714   1.721 -0.2466 -0.0579  0.2864
 5252SOL    HW127392   1.462   0.672   1.641 -1.3750 -2.2315  0.9764
 5252SOL    HW227393   1.505   0.702   1.779  0.8645  0.3480 -1.0544
 5253SOL     OW27394   3.074   1.894   4.595 -0.2103 -0.5335  0.7796
 5253SOL    HW127395   3.081   1.802   4.620 -1.5357 -1.1886 -1.2457
 5253SOL    HW227396   3.087   1.890   4.501 -0.7817  3.2991  0.5331
 5254SOL     OW27397   0.814   1.003   6.920  0.1325 -0.4417 -0.0321
 5254SOL    HW127398   0.731   1.039   6.953 -0.1336  2.4311 -3.7947
 5254SOL    HW227399   0.783   0.943   6.852 -2.5364  0.9185 -0.0346
 5255SOL     OW27400   0.752   0.571  17.745 -0.6406 -0.1125 -0.0750
 5255SOL    HW127401   0.843   0.546   0.019 -0.1548  1.2465 -0.6117
 5255SOL    HW227402   0.747   0.569  17.649 -1.0656 -0.1177 -0.0514
 5256SOL     OW27403   2.100   0.447   6.175  0.1834 -0.3047  0.0137
 5256SOL    HW127404   2.101   0.365   6.225 -1.4711 -0.1671  0.2707
 5256SOL    HW227405   2.147   0.436   6.093  0.0033 -2.3692  0.1833
 5257SOL     OW27406   2.107   0.098  11.694 -0.1326 -0.8321  0.3668
 5257SOL    HW127407   2.089   0.070  11.783 -0.8134  2.0057  1.1394
 5257SOL    HW227408   2.047   0.037  11.651  3.9714 -3.8699 -1.0258
 5258SOL     OW27409   4.676   2.871   7.669  0.1622  0.3522 -0.5469
 5258SOL    HW127410   4.715   2.911   7.591 -0.4448  0.8723 -0.5910
 5258SOL    HW227411   4.586   2.904   7.672  0.3000  0.5738  1.3487
 5259SOL     OW27412   2.948   1.168   0.173  0.0219  0.4696  0.7386
 5259SOL    HW127413   2.944   1.190   0.266  1.7699 -0.3944  1.0211
 5259SOL    HW227414   2.909   1.242   0.127  2.0918  1.1415  0.1011
 5260SOL     OW27415   2.890   0.139  15.149 -0.1127  0.2241 -0.1792
 5260SOL    HW127416   2.934   0.094  15.221 -1.3612 -0.3905  0.2100
 5260SOL    HW227417   2.929   0.092  15.076 -2.0427  0.5829 -1.4335
 5261SOL     OW27418   4.680   0.126   0.777  0.0411  0.8567 -0.3034
 5261SOL    HW127419   4.715   0.098   0.693  0.3908  3.7118 -1.1345
 5261SOL    HW227420   4.639   0.044   0.805  2.7074  0.8949  3.6342
 5262SOL     OW27421   1.496   4.076   5.948 -0.0256 -0.2304 -0.7329
 5262SOL    HW127422   1.513   4.085   5.854 -1.0702  1.6703 -0.7369
 5262SOL    HW227423   1.563   4.128   5.992 -2.0996  0.3993  1.7077
 5263SOL     OW27424   4.224   1.930   3.970  0.2973  0.2842  0.0739
 5263SOL    HW127425   4.246   1.847   4.013  2.8090  0.3996 -0.9769
 5263SOL    HW227426   4.173   1.967   4.042 -0.0568  0.1273 -0.0938
 5264SOL     OW27427   0.285   4.542   1.947 -0.4076 -0.6780  0.2984
 5264SOL    HW127428   0.313   4.561   1.857 -0.6702  0.5199  0.4782
 5264SOL    HW227429   0.244   4.625   1.969  0.1635  0.3774 -2.5540
 5265SOL     OW27430   2.972   3.057   9.214  0.0640 -0.3653  0.6258
 5265SOL    HW127431   2.916   3.015   9.280 -1.4063 -0.8326 -0.9417
 5265SOL    HW227432   3.048   3.001   9.232  0.8165  0.2206 -0.7624
 5266SOL     OW27433   1.455   4.127   7.700  0.2200 -0.1390  0.5180
 5266SOL    HW127434   1.403   4.050   7.724 -0.0585 -0.1074  0.0164
 5266SOL    HW227435   1.514   4.099   7.631 -0.5145 -1.1692  0.3082
 5267SOL     OW27436   1.061   1.735   8.015  0.3363  0.4328  0.2005
 5267SOL    HW127437   1.049   1.781   7.932  1.8341  1.0774  0.3191
 5267SOL    HW227438   1.086   1.811   8.069 -1.8765 -0.4499  2.4733
 5268SOL     OW27439   0.772   0.299   8.464  0.1869 -0.2225 -0.7003
 5268SOL    HW127440   0.783   0.237   8.392  0.0991  0.7683 -1.5724
 5268SOL    HW227441   0.833   0.259   8.527  1.5793 -0.0320 -1.9174
 5269SOL     OW27442   2.411   2.198   6.737 -0.1624  0.2897  0.7185
 5269SOL    HW127443   2.432   2.262   6.669  1.5809 -1.2272 -0.1629
 5269SOL    HW227444   2.476   2.130   6.719 -1.5460 -1.0587  0.8406
 5270SOL     OW27445   0.397   2.613   6.755  0.2377  0.4970  0.1871
 5270SOL    HW127446   0.321   2.591   6.701  0.2494 -1.5892  1.0302
 5270SOL    HW227447   0.349   2.629   6.837  0.5732 -0.9790  0.6591
 5271SOL     OW27448   3.350   2.238   6.430 -0.3478 -0.4279  0.5546
 5271SOL    HW127449   3.384   2.210   6.515 -3.3441 -0.3695  1.7911
 5271SOL    HW227450   3.430   2.234   6.379  0.2861  0.5416  1.4737
 5272SOL     OW27451   1.190   1.454   8.237 -0.3790 -0.4290 -0.3363
 5272SOL    HW127452   1.130   1.380   8.238 -0.2959 -0.4848  1.0489
 5272SOL    HW227453   1.143   1.520   8.288 -0.9280 -1.6329  0.7254
 5273SOL     OW27454   4.709   2.310   7.440  0.3702  0.8582  0.1246
 5273SOL    HW127455   0.017   2.370   7.381 -0.9876  1.7167 -0.0353
 5273SOL    HW227456   4.702   2.364   7.519  1.4698 -1.2417  1.6453
 5274SOL     OW27457   3.869   4.447  12.845  0.0320  0.0325  0.0593
 5274SOL    HW127458   3.902   4.528  12.884 -0.4589  0.1697  0.1955
 5274SOL    HW227459   3.916   4.386  12.903  0.3127 -0.9219 -1.1715
 5275SOL     OW27460   3.055   1.135   2.874  0.0961  0.6829  0.2678
 5275SOL    HW127461   3.093   1.120   2.960 -0.2801 -0.1270  0.3000
 5275SOL    HW227462   3.128   1.175   2.828 -0.6001 -0.6714 -2.0425
 5276SOL     OW27463   1.433   2.073  17.018 -0.7720  0.4015 -0.2908
 5276SOL    HW127464   1.527   2.079  17.034 -0.9354 -0.0514  0.8385
 5276SOL    HW227465   1.400   2.159  17.045  0.4552  0.2176  1.7761
 5277SOL     OW27466   3.485   0.217   9.228  0.2353  0.0849  0.1697
 5277SOL    HW127467   3.421   0.272   9.274  0.4782  1.1233 -0.7447
 5277SOL    HW227468   3.421   0.151   9.202  0.8038 -0.5658  0.3995
 5278SOL     OW27469   3.597   1.813   2.711 -0.8337 -0.4686  0.1861
 5278SOL    HW127470   3.588   1.864   2.791  0.1436  0.3614 -0.2423
 5278SOL    HW227471   3.686   1.778   2.716 -0.7158 -0.2025 -0.0596
 5279SOL     OW27472   2.561   1.458   8.537  0.6022 -1.0119  0.0951
 5279SOL    HW127473   2.634   1.474   8.476 -0.2460  0.1737 -0.6185
 5279SOL    HW227474   2.490   1.452   8.472 -0.5264 -0.0235  1.2388
 5280SOL     OW27475   0.584   2.868   3.350 -0.1893  0.2327 -0.5668
 5280SOL    HW127476   0.677   2.875   3.371 -0.6475  0.0891  1.4608
 5280SOL    HW227477   0.594   2.784   3.304 -0.9296 -0.0200 -0.2748
 5281SOL     OW27478   3.652   3.789  16.496  0.1152 -0.3498 -0.2975
 5281SOL    HW127479   3.713   3.808  16.568  0.8227 -0.0410 -0.9753
 5281SOL    HW227480   3.579   3.745  16.541  0.2037  0.6085  0.7857
 5282SOL     OW27481   0.345   0.519  14.446  0.0186  0.7137 -0.0778
 5282SOL    HW127482   0.292   0.596  14.467 -0.2400  0.2755  0.8783
 5282SOL    HW227483   0.374   0.544  14.359  0.5162  0.9733  0.1612
 5283SOL     OW27484   2.291   2.040   6.149 -0.2855  0.2748  0.0723
 5283SOL    HW127485   2.340   2.068   6.071 -1.1596 -0.3861 -0.7190
 5283SOL    HW227486   2.319   1.948   6.149  0.1230  0.4061  1.0093
 5284SOL     OW27487   0.126   1.974   0.830  0.1991  0.2575 -0.0976
 5284SOL    HW127488   0.182   1.915   0.781 -1.4418 -0.5003 -1.0652
 5284SOL    HW227489   0.145   2.055   0.782  1.0885  0.0181 -0.1398
 5285SOL     OW27490   1.262   3.514   5.049 -0.7065  0.3376  0.4412
 5285SOL    HW127491   1.168   3.531   5.054 -0.8904 -0.4931 -0.2613
 5285SOL    HW227492   1.259   3.419   5.044  1.6817  0.3708 -1.1386
 5286SOL     OW27493   3.384   3.045   8.410 -0.1996 -0.7886 -0.2541
 5286SOL    HW127494   3.320   3.030   8.480  1.2518 -0.1645  1.2174
 5286SOL    HW227495   3.407   2.961   8.372 -3.8356 -1.0933 -1.7431
 5287SOL     OW27496   0.125   4.393  11.466 -0.3276 -0.6585  0.4450
 5287SOL    HW127497   0.219   4.379  11.480 -0.5174 -2.6708 -0.3322
 5287SOL    HW227498   0.116   4.401  11.371  0.1275  1.2515  0.5525
 5288SOL     OW27499   2.161   2.728   3.717 -0.2410  0.1944 -0.4110
 5288SOL    HW127500   2.104   2.746   3.793 -0.3859  3.1291 -1.2378
 5288SOL    HW227501   2.135   2.635   3.722  1.2765 -0.1384  1.2964
 5289SOL     OW27502   2.891   1.603   9.334 -0.1553 -0.3164 -0.1505
 5289SOL    HW127503   2.936   1.661   9.396  1.6944 -1.6258 -0.2991
 5289SOL    HW227504   2.958   1.534   9.338 -0.9214 -1.0321  0.6137
 5290SOL     OW27505   4.106   2.807   3.281  0.5356  0.3806  0.0870
 5290SOL    HW127506   4.179   2.855   3.242  0.4614 -0.0908 -0.6174
 5290SOL    HW227507   4.112   2.836   3.373 -2.7725 -1.8037  0.9805
 5291SOL     OW27508   4.103   2.101  11.188  0.6696 -0.0547 -0.4759
 5291SOL    HW127509   4.028   2.139  11.141  1.3228 -1.1380 -2.4120
 5291SOL    HW227510   4.100   2.153  11.268  0.8869  1.6569 -1.5962
 5292SOL     OW27511   3.392   2.325   5.452  0.6314 -0.4527 -0.2449
 5292SOL    HW127512   3.380   2.406   5.502 -0.2342  0.3725 -1.7822
 5292SOL    HW227513   3.411   2.254   5.513 -1.9897 -1.5472 -0.7235
 5293SOL     OW27514   0.338   4.105  10.067  0.0969 -0.4444 -0.2737
 5293SOL    HW127515   0.362   4.036  10.129  0.7111 -1.0516 -1.1813
 5293SOL    HW227516   0.346   4.055   9.986  1.8581  0.1479 -0.4752
 5294SOL     OW27517   3.268   4.410   4.329 -0.0874  0.6975  0.4939
 5294SOL    HW127518   3.343   4.420   4.271 -1.6038  1.0463 -1.3973
 5294SOL    HW227519   3.240   4.320   4.312  1.4402  0.5098 -0.9846
 5295SOL     OW27520   1.089   3.824   7.280 -0.4976  0.1984 -0.1469
 5295SOL    HW127521   1.022   3.762   7.251 -0.9373 -0.0647  1.4202
 5295SOL    HW227522   1.051   3.892   7.335 -1.9517 -1.3856  0.8030
 5296SOL     OW27523   2.282   4.069  14.990 -0.0707 -0.2438  0.3050
 5296SOL    HW127524   2.324   4.105  14.912 -0.2641  0.1796  0.3955
 5296SOL    HW227525   2.321   4.114  15.065  0.3665 -2.6764  1.5268
 5297SOL     OW27526   0.902   2.771   3.645 -0.1036 -0.0862  0.0590
 5297SOL    HW127527   0.840   2.704   3.675  1.3930  0.3121  4.1030
 5297SOL    HW227528   0.975   2.763   3.707 -1.2887 -0.7070  1.3799
 5298SOL     OW27529   2.413   1.301  16.467 -0.0844  0.0289 -0.1586
 5298SOL    HW127530   2.477   1.366  16.495  1.7404 -1.1530 -1.6001
 5298SOL    HW227531   2.340   1.361  16.448  0.7109  2.1950  3.7183
 5299SOL     OW27532   3.435   0.301   1.525  0.0628 -0.5240 -0.0295
 5299SOL    HW127533   3.438   0.251   1.606  0.2130 -0.7632 -0.1814
 5299SOL    HW227534   3.427   0.394   1.546  0.3856 -0.8855  1.6770
 5300SOL     OW27535   3.266   3.195   9.715 -0.2637 -0.1184  0.1421
 5300SOL    HW127536   3.335   3.171   9.777  0.2477  2.8153  0.7073
 5300SOL    HW227537   3.197   3.154   9.768 -0.8229  0.2885 -0.2688
 5301SOL     OW27538   0.641   2.049   2.908  0.3507 -0.5094  0.2145
 5301SOL    HW127539   0.720   2.098   2.888 -0.1139  0.6722  1.2882
 5301SOL    HW227540   0.603   2.030   2.822  0.2389 -1.3805  0.4491
 5302SOL     OW27541   0.211   2.972  11.709  0.0435  0.7214 -0.0671
 5302SOL    HW127542   0.192   3.015  11.793 -1.7590 -0.8638  0.3487
 5302SOL    HW227543   0.287   3.026  11.687  0.8986 -0.1883  0.6612
 5303SOL     OW27544   0.127   3.453   4.488 -0.4810 -0.8723 -0.3319
 5303SOL    HW127545   0.054   3.506   4.455  0.6300  0.1693 -1.1291
 5303SOL    HW227546   0.102   3.435   4.579 -0.6200  0.5615 -0.0761
 5304SOL     OW27547   4.473   3.651   5.876 -0.4184  0.4269 -0.1166
 5304SOL    HW127548   4.516   3.566   5.865 -1.1204  0.3473 -2.2706
 5304SOL    HW227549   4.537   3.705   5.922  1.7098 -2.1665 -0.0758
 5305SOL     OW27550   3.627   2.337   7.354  0.3784 -0.1306 -0.1186
 5305SOL    HW127551   3.666   2.369   7.273  0.5317 -0.0884 -0.0285
 5305SOL    HW227552   3.644   2.244   7.342 -1.6201 -0.5070 -0.0555
 5306SOL     OW27553   0.827   3.532   5.525  0.1144 -0.2596 -0.1681
 5306SOL    HW127554   0.907   3.504   5.568 -1.2234 -0.4480  2.1855
 5306SOL    HW227555   0.790   3.450   5.492  0.3183 -0.6272  0.5237
 5307SOL     OW27556   4.597   4.652   6.373  0.5582 -0.1724  0.9130
 5307SOL    HW127557   4.618   4.558   6.373  1.3239 -0.0023 -1.5351
 5307SOL    HW227558   4.559   4.668   6.287  0.7299  1.6407  1.1843
 5308SOL     OW27559   1.473   0.592   7.387 -0.0351 -0.0293  0.5309
 5308SOL    HW127560   1.498   0.606   7.296 -0.3935  0.6018  0.5291
 5308SOL    HW227561   1.484   0.497   7.385  1.4733  0.2004 -1.2341
 5309SOL     OW27562   4.045   1.440   7.386 -0.4933  0.0471  0.4947
 5309SOL    HW127563   3.952   1.423   7.372  0.0993 -1.5685 -1.5886
 5309SOL    HW227564   4.061   1.395   7.468 -1.4253 -3.2235 -1.1160
 5310SOL     OW27565   3.718   3.506   5.363 -0.4680 -0.0157  0.0903
 5310SOL    HW127566   3.805   3.487   5.329 -0.6115 -3.4574  1.6501
 5310SOL    HW227567   3.688   3.415   5.364 -0.0150 -0.1670 -0.1979
 5311SOL     OW27568   3.000   4.673   8.752  0.0162  0.8524 -0.0679
 5311SOL    HW127569   2.910   4.697   8.729 -0.5835 -1.1575  0.1645
 5311SOL    HW227570   2.985   4.646   8.843  0.2005 -0.3440 -0.3829
 5312SOL     OW27571   3.357   3.434   9.613  0.4976  0.0540  0.5376
 5312SOL    HW127572   3.320   3.359   9.660 -0.1887  1.0693  1.6039
 5312SOL    HW227573   3.406   3.387   9.545 -3.1617  0.1385 -2.1437
 5313SOL     OW27574   2.311   0.533  16.824  0.6009  0.2170  0.3409
 5313SOL    HW127575   2.252   0.533  16.749  0.3999 -3.9039  0.5083
 5313SOL    HW227576   2.380   0.598  16.810 -0.1819  1.0561  0.3574
 5314SOL     OW27577   3.226   4.641   1.051  0.2454 -0.2372 -0.1467
 5314SOL    HW127578   3.291   4.710   1.034 -0.8883  0.5123 -1.4835
 5314SOL    HW227579   3.168   4.641   0.975  0.7368  1.0036 -0.5167
 5315SOL     OW27580   1.005   3.473   1.053 -0.0861 -0.0071 -0.0537
 5315SOL    HW127581   1.077   3.411   1.063  0.3439  0.6659  0.9303
 5315SOL    HW227582   1.048   3.541   1.001  1.4620 -1.0173 -0.0868
 5316SOL     OW27583   3.174   1.572  11.607 -0.1486  0.4956  0.6252
 5316SOL    HW127584   3.201   1.528  11.526  1.8956 -0.3800  1.7841
 5316SOL    HW227585   3.260   1.598  11.639  0.0233 -1.0134  1.3941
 5317SOL     OW27586   2.246   1.038   4.327 -0.1915 -0.1659 -0.4405
 5317SOL    HW127587   2.201   0.971   4.378  0.2228  2.6649  3.7008
 5317SOL    HW227588   2.242   1.107   4.394  0.4051 -1.1383  0.6011
 5318SOL     OW27589   0.518   1.047   1.435  0.5767  0.8582  0.3823
 5318SOL    HW127590   0.471   1.128   1.453 -0.1940  1.0219 -2.2752
 5318SOL    HW227591   0.470   0.992   1.496  0.9450  0.5062  0.3533
 5319SOL     OW27592   1.601   4.528  17.696  0.0923  0.0939  0.1433
 5319SOL    HW127593   1.588   4.615  17.661  1.7009  0.3167  0.0616
 5319SOL    HW227594   1.524   4.479  17.668  0.8619  0.8578 -3.2253
 5320SOL     OW27595   0.057   4.185  10.965  0.3504 -0.3784  0.0452
 5320SOL    HW127596   0.024   4.105  11.005 -0.6440 -0.5641 -1.1424
 5320SOL    HW227597   4.709   4.227  10.950 -0.6626 -2.8818 -1.2610
 5321SOL     OW27598   2.553   4.719   0.405 -0.0991 -0.3139  0.5724
 5321SOL    HW127599   2.551   0.063   0.456  0.5720  0.1132 -0.0623
 5321SOL    HW227600   2.497   0.003   0.330  2.7055  3.1542 -0.5407
 5322SOL     OW27601   2.039   3.791   2.541 -0.4019 -0.4586 -0.3180
 5322SOL    HW127602   2.088   3.740   2.605 -2.0769 -1.7702 -0.0639
 5322SOL    HW227603   2.085   3.776   2.458  0.2635  1.4874 -0.3016
 5323SOL     OW27604   2.433   1.353   5.883 -0.0341  0.4123 -0.3165
 5323SOL    HW127605   2.434   1.362   5.978 -0.0445 -1.5834 -0.1381
 5323SOL    HW227606   2.351   1.305   5.881  0.5707 -0.6166 -0.5851
 5324SOL     OW27607   2.117   0.868   5.072  0.4527 -0.0550  0.0507
 5324SOL    HW127608   2.141   0.820   4.993 -2.5483  2.9373 -2.6712
 5324SOL    HW227609   2.094   0.959   5.053 -0.3534 -0.7266 -2.1981
 5325SOL     OW27610   2.547   0.167   1.729 -0.3687 -0.9289 -0.3682
 5325SOL    HW127611   2.546   0.095   1.667 -1.3713 -0.3787 -0.9909
 5325SOL    HW227612   2.555   0.244   1.672 -0.5018 -1.2104 -0.7614
 5326SOL     OW27613   4.525   2.079   5.548  0.4316 -0.0467 -0.8518
 5326SOL    HW127614   4.483   2.051   5.467 -2.3563  0.3720  0.4716
 5326SOL    HW227615   4.614   2.045   5.558  0.6209  0.3513 -1.1713
 5327SOL     OW27616   3.904   1.432   9.212 -0.0051 -0.7047 -0.3583
 5327SOL    HW127617   3.832   1.380   9.177 -0.8813  1.5734 -1.9498
 5327SOL    HW227618   3.851   1.510   9.226 -0.2977 -0.9782  0.0747
 5328SOL     OW27619   0.706   2.658   5.433  0.3492 -0.0473 -0.5057
 5328SOL    HW127620   0.679   2.727   5.494  1.3477  0.7858 -0.9886
 5328SOL    HW227621   0.763   2.715   5.381  1.1337  1.0591  1.5914
 5329SOL     OW27622   1.608   0.337   5.975  0.2326  0.1096  0.5927
 5329SOL    HW127623   1.518   0.305   5.991 -0.2398  0.5899 -1.1270
 5329SOL    HW227624   1.637   0.276   5.907 -0.2379  0.1106  0.3903
 5330SOL     OW27625   1.944   4.652   3.047  0.0076  0.1918 -0.0681
 5330SOL    HW127626   2.004   4.577   3.046 -1.6660 -1.1242 -0.5595
 5330SOL    HW227627   1.955   4.684   3.137  1.2674 -0.1161 -0.1060
 5331SOL     OW27628   2.540   4.104   6.089  0.1222 -0.0333  0.4949
 5331SOL    HW127629   2.597   4.155   6.146  1.0745 -1.5632  0.9162
 5331SOL    HW227630   2.596   4.089   6.012 -0.5557  3.6924 -0.7565
 5332SOL     OW27631   3.529   1.262   9.570 -0.3358 -0.3346  0.0997
 5332SOL    HW127632   3.555   1.273   9.661  0.4796 -0.7480 -0.0823
 5332SOL    HW227633   3.495   1.172   9.575 -1.1375 -0.1437 -1.8215
 5333SOL     OW27634   3.800   0.621   7.964 -0.0340  0.2544  0.3655
 5333SOL    HW127635   3.892   0.601   7.984 -0.1614 -1.4726 -0.7609
 5333SOL    HW227636   3.784   0.698   8.018 -0.6445  0.9296 -0.8022
 5334SOL     OW27637   1.048   3.342   1.472  0.6790  0.1169 -0.1428
 5334SOL    HW127638   0.984   3.391   1.523  3.1640  0.7461  2.3450
 5334SOL    HW227639   1.003   3.260   1.494  2.4787 -0.6111  0.8463
 5335SOL     OW27640   1.363   2.927   6.155  0.6871  0.0006  0.7403
 5335SOL    HW127641   1.344   3.020   6.146 -1.0413 -0.5899 -1.9233
 5335SOL    HW227642   1.426   2.914   6.084 -0.0319  1.9727 -0.2584
 5336SOL     OW27643   2.761   4.328   8.154 -0.2213  0.2635 -0.3091
 5336SOL    HW127644   2.817   4.367   8.221 -0.9785 -0.0297  0.5003
 5336SOL    HW227645   2.818   4.318   8.078  1.0826  1.3959  0.5118
 5337SOL     OW27646   4.375   1.211   0.846 -0.1173 -0.2604 -0.0649
 5337SOL    HW127647   4.404   1.282   0.789 -0.2276 -0.5099 -0.4252
 5337SOL    HW227648   4.399   1.247   0.932 -0.5744 -0.0105 -0.0387
 5338SOL     OW27649   1.718   4.687  13.272 -0.3273 -0.0282  0.1021
 5338SOL    HW127650   1.806   4.667  13.303 -0.5136  1.2757  1.5026
 5338SOL    HW227651   1.679   4.600  13.277 -0.1404 -0.0528  1.2719
 5339SOL     OW27652   2.781   0.626  13.226 -0.4835 -0.0536 -0.1614
 5339SOL    HW127653   2.809   0.676  13.149  0.6927  0.0514  0.3335
 5339SOL    HW227654   2.800   0.691  13.293  2.6895 -2.0442  0.8725
 5340SOL     OW27655   2.549   4.481   8.801  0.2364 -0.3322  0.0511
 5340SOL    HW127656   2.498   4.427   8.861 -0.2544  1.0205  0.8745
 5340SOL    HW227657   2.611   4.507   8.870 -1.0393  0.6837  0.8264
 5341SOL     OW27658   3.794   2.749   2.878 -0.5982 -0.1414  0.1766
 5341SOL    HW127659   3.799   2.710   2.790 -3.4855  0.5865 -0.3047
 5341SOL    HW227660   3.878   2.714   2.908 -0.4873 -1.5898 -1.7912
 5342SOL     OW27661   1.733   2.421  13.798 -0.1398  0.5568 -0.0486
 5342SOL    HW127662   1.714   2.354  13.732 -0.2350 -0.8515  1.4263
 5342SOL    HW227663   1.756   2.489  13.734  1.4210  0.7704  0.7492
 5343SOL     OW27664   2.487   0.195   8.423 -0.4199  0.4963 -0.3915
 5343SOL    HW127665   2.413   0.209   8.482  0.6426 -0.6444  1.1952
 5343SOL    HW227666   2.455   0.112   8.386  0.2687  0.9032 -1.9211
 5344SOL     OW27667   3.761   0.542  13.519 -0.2663 -0.3111  0.2261
 5344SOL    HW127668   3.703   0.503  13.584  0.9690  0.9624  2.1054
 5344SOL    HW227669   3.835   0.482  13.521 -0.3436 -0.3812  0.9252
 5345SOL     OW27670   3.481   4.186   7.147  0.0278 -0.2545 -0.2640
 5345SOL    HW127671   3.545   4.115   7.158 -0.0972 -0.3918 -0.4336
 5345SOL    HW227672   3.404   4.133   7.130  0.4751 -0.7019 -0.8892
 5346SOL     OW27673   0.419   1.634   4.327 -0.2212 -0.4902 -0.0636
 5346SOL    HW127674   0.399   1.726   4.343  0.3686  0.0252 -2.2844
 5346SOL    HW227675   0.447   1.632   4.236  1.4483 -0.4541  0.4372
 5347SOL     OW27676   4.041   4.639  10.684 -0.1159  0.5614 -0.3650
 5347SOL    HW127677   4.078   4.727  10.695  0.7886  0.2173 -0.6767
 5347SOL    HW227678   4.106   4.594  10.737  0.0421 -0.4490 -1.4164
 5348SOL     OW27679   2.322   1.387  13.797 -0.0044  0.1786 -0.9786
 5348SOL    HW127680   2.228   1.403  13.789 -0.4614 -1.4034  1.1426
 5348SOL    HW227681   2.344   1.395  13.890  0.2265  2.7500 -1.2570
 5349SOL     OW27682   1.237   2.792   5.243  0.4224 -0.5514  0.0301
 5349SOL    HW127683   1.323   2.791   5.202  1.0205 -0.7385  1.3028
 5349SOL    HW227684   1.174   2.774   5.173  0.2179  0.7794 -0.1328
 5350SOL     OW27685   3.443   1.834   8.045  0.4813 -0.0295  0.4827
 5350SOL    HW127686   3.374   1.778   8.009  0.4114  0.1467  0.3464
 5350SOL    HW227687   3.391   1.891   8.101 -0.5040  0.3213 -0.7841
 5351SOL     OW27688   2.453   2.714   8.635 -0.6602  0.1709  0.2829
 5351SOL    HW127689   2.493   2.702   8.549 -2.1588  2.4842 -0.7371
 5351SOL    HW227690   2.365   2.692   8.604 -0.6032  0.1463  0.1365
 5352SOL     OW27691   4.393   1.337   5.367  0.2208 -0.2379  0.4896
 5352SOL    HW127692   4.456   1.409   5.369  1.3252 -1.2140  0.4847
 5352SOL    HW227693   4.314   1.389   5.380 -1.1433 -2.4834  1.1352
 5353SOL     OW27694   0.466   3.732  10.370  0.2254  0.2642 -0.2402
 5353SOL    HW127695   0.420   3.703  10.291 -0.3897  0.7692 -0.0647
 5353SOL    HW227696   0.416   3.810  10.393 -1.0016  0.1882 -2.6033
 5354SOL     OW27697   1.939   1.040  11.579 -0.4660 -0.0820  0.2447
 5354SOL    HW127698   2.031   1.054  11.597 -0.0763  3.0615 -4.0832
 5354SOL    HW227699   1.907   1.130  11.565  0.4853  0.0469 -1.1053
 5355SOL     OW27700   0.096   3.533  16.378 -0.4249  0.3313  0.1287
 5355SOL    HW127701   0.159   3.551  16.309 -1.2744  0.7531 -0.5443
 5355SOL    HW227702   0.017   3.505  16.331 -0.1681 -1.9124  1.0157
 5356SOL     OW27703   1.355   0.848   3.793  0.3277 -0.3242  0.2476
 5356SOL    HW127704   1.403   0.913   3.845 -0.5905  1.5507 -1.2470
 5356SOL    HW227705   1.425   0.803   3.746  1.9683  1.4439  0.9827
 5357SOL     OW27706   2.544   1.443   9.682 -0.6430  0.5259 -0.3509
 5357SOL    HW127707   2.634   1.476   9.676 -0.0060 -1.0856  0.3425
 5357SOL    HW227708   2.564   1.352   9.705  1.7877  1.2150  0.2352
 5358SOL     OW27709   4.626   1.319   0.346 -0.4459  0.0618 -0.3370
 5358SOL    HW127710   4.588   1.395   0.303 -1.6978 -1.5614 -2.0665
 5358SOL    HW227711   4.551   1.265   0.372 -0.5673  0.3703 -0.0437
 5359SOL     OW27712   1.325   3.931   1.928 -0.6590  0.5437  0.4411
 5359SOL    HW127713   1.329   4.022   1.899 -2.1939  1.1331  2.0495
 5359SOL    HW227714   1.255   3.902   1.870 -1.4996  1.3123  1.0636
 5360SOL     OW27715   2.168   0.310   1.835 -0.2059 -0.4267  0.2371
 5360SOL    HW127716   2.256   0.285   1.864  0.3488  2.3706  1.0152
 5360SOL    HW227717   2.139   0.340   1.922  0.4531 -0.2513  0.3990
 5361SOL     OW27718   4.680   4.386   7.157 -0.4825 -0.5110 -0.0830
 5361SOL    HW127719   4.676   4.413   7.066 -0.2152 -0.3720 -0.0546
 5361SOL    HW227720   0.022   4.333   7.142  1.5871  1.4411  3.8078
 5362SOL     OW27721   4.040   1.789   2.942 -0.3544 -0.4176  0.0235
 5362SOL    HW127722   4.029   1.829   3.028 -0.9196  0.0642 -0.2756
 5362SOL    HW227723   4.127   1.820   2.918 -0.5816  2.6575  3.2055
 5363SOL     OW27724   2.848   1.535   9.722  0.0952  0.2320  0.3944
 5363SOL    HW127725   2.841   1.590   9.800  1.3523  0.2458  0.5057
 5363SOL    HW227726   2.898   1.595   9.666  2.0271  1.4965  3.4556
 5364SOL     OW27727   4.572   2.774   1.713  0.4477 -0.1921  0.2416
 5364SOL    HW127728   4.567   2.790   1.807 -1.1772  2.5148 -0.2833
 5364SOL    HW227729   4.482   2.745   1.699  0.8793 -1.4989  0.2498
 5365SOL     OW27730   0.899   4.247   4.494 -0.5639 -0.1044 -0.2103
 5365SOL    HW127731   0.809   4.273   4.473 -0.0846  0.7775 -1.1603
 5365SOL    HW227732   0.951   4.324   4.470  1.1696 -1.2715 -0.2017
 5366SOL     OW27733   1.710   1.723   4.126  0.0794  0.5338 -0.1264
 5366SOL    HW127734   1.649   1.708   4.198 -1.4850 -0.3836 -1.6307
 5366SOL    HW227735   1.771   1.782   4.170  1.7735 -1.0792 -0.3268
 5367SOL     OW27736   2.352   2.089   2.374 -0.3900  0.1832  0.0619
 5367SOL    HW127737   2.326   2.108   2.284 -0.9528 -0.1902  0.1442
 5367SOL    HW227738   2.440   2.125   2.383 -0.1067 -0.1146 -1.5272
 5368SOL     OW27739   1.927   0.576   4.098  0.2540  0.2700  0.1964
 5368SOL    HW127740   2.002   0.555   4.153  0.7506  2.1449  0.2490
 5368SOL    HW227741   1.906   0.663   4.133 -1.5545 -0.5143  1.0497
 5369SOL     OW27742   3.849   2.097  16.506 -0.5459 -0.5280  0.5850
 5369SOL    HW127743   3.793   2.086  16.583  1.0718 -0.4420  1.7755
 5369SOL    HW227744   3.800   2.158  16.450  1.4963  2.4118  1.9624
 5370SOL     OW27745   3.689   0.202   8.645 -0.3697 -0.0132 -0.6586
 5370SOL    HW127746   3.782   0.177   8.648 -0.0735  0.9851 -1.3370
 5370SOL    HW227747   3.693   0.277   8.705 -1.9998  1.1146 -1.9640
 5371SOL     OW27748   0.015   3.194   9.895 -0.4472 -0.6942 -0.2487
 5371SOL    HW127749   0.077   3.265   9.880 -0.0082 -0.8884  0.6065
 5371SOL    HW227750   0.075   3.120   9.908  0.8341  0.2118 -1.1159
 5372SOL     OW27751   0.661   4.206   0.788 -0.0944  0.1898  0.8513
 5372SOL    HW127752   0.751   4.238   0.795  0.5825 -1.6067  0.5556
 5372SOL    HW227753   0.638   4.258   0.711 -1.2230 -1.5578  0.0028
 5373SOL     OW27754   4.104   3.604   3.918 -0.0733  0.0024 -0.0598
 5373SOL    HW127755   4.166   3.533   3.929  0.0353 -0.3096 -2.7990
 5373SOL    HW227756   4.025   3.561   3.952  0.3693 -0.1875  0.7276
 5374SOL     OW27757   1.934   0.760   2.020  0.0488  0.1061  0.1515
 5374SOL    HW127758   1.933   0.746   2.115 -0.3001  0.5890  0.2191
 5374SOL    HW227759   2.027   0.777   2.004 -0.3661 -2.3699 -4.7063
 5375SOL     OW27760   2.184   4.095   5.561 -0.4546  0.4639  0.0727
 5375SOL    HW127761   2.108   4.075   5.507 -1.7872 -0.6375  2.3589
 5375SOL    HW227762   2.209   4.006   5.586 -1.2353 -0.2403 -1.6847
 5376SOL     OW27763   3.942   2.052   6.630  0.3358  0.3895 -0.2055
 5376SOL    HW127764   3.941   2.034   6.724  2.3415  0.8275 -0.0958
 5376SOL    HW227765   4.033   2.059   6.600 -0.0356 -0.6309 -1.5752
 5377SOL     OW27766   0.218   2.810   7.284 -0.3613  0.2784  0.0696
 5377SOL    HW127767   0.185   2.763   7.207 -0.1084  1.1045 -0.5490
 5377SOL    HW227768   0.226   2.899   7.250 -0.2833 -0.3685 -1.6118
 5378SOL     OW27769   3.992   4.323   9.876  0.2809  0.1184 -0.1224
 5378SOL    HW127770   3.953   4.344   9.791  0.8127  0.6976 -0.2129
 5378SOL    HW227771   4.073   4.284   9.846  1.2752  2.7216 -0.7898
 5379SOL     OW27772   3.700   0.286   2.634 -0.0143  0.6492 -0.5445
 5379SOL    HW127773   3.703   0.320   2.545 -1.9261  0.8910 -0.5306
 5379SOL    HW227774   3.709   0.191   2.634 -0.4215  0.6091  0.3465
 5380SOL     OW27775   2.536   2.947   4.716 -0.6567 -0.4139  0.2143
 5380SOL    HW127776   2.575   2.861   4.720 -0.4706 -0.2890  1.0124
 5380SOL    HW227777   2.605   2.998   4.758 -0.2335 -1.2360  0.5113
 5381SOL     OW27778   0.732   0.445   4.351  0.1922  0.2208  0.0583
 5381SOL    HW127779   0.800   0.430   4.286  0.3092 -0.6350  0.3788
 5381SOL    HW227780   0.775   0.404   4.427  0.1771  0.8047  0.3803
 5382SOL     OW27781   1.723   2.117  16.591  0.0413 -0.2672  0.1261
 5382SOL    HW127782   1.659   2.185  16.569 -1.3909 -2.0762 -1.3417
 5382SOL    HW227783   1.801   2.161  16.556  0.1383 -0.1949  0.4340
 5383SOL     OW27784   0.743   0.564   6.869  0.7681  0.0359 -0.7695
 5383SOL    HW127785   0.791   0.609   6.799  1.1849 -0.7544 -0.9965
 5383SOL    HW227786   0.683   0.632   6.897  1.4396 -0.0531  0.8603
 5384SOL     OW27787   2.724   1.372   7.014  0.3048  0.1447 -0.8629
 5384SOL    HW127788   2.785   1.431   6.969  0.3222  0.3599 -0.5596
 5384SOL    HW227789   2.753   1.377   7.105  1.4012  1.1767 -1.2658
 5385SOL     OW27790   3.678   3.903   7.791 -0.5748 -0.6373  0.9440
 5385SOL    HW127791   3.762   3.907   7.744 -1.5030 -0.6613 -0.7009
 5385SOL    HW227792   3.668   3.994   7.818 -2.6849 -0.3521 -0.7658
 5386SOL     OW27793   3.901   4.034   3.495 -0.1408 -0.7838 -0.5950
 5386SOL    HW127794   3.848   4.005   3.569 -3.5986  3.9312 -1.2585
 5386SOL    HW227795   3.834   4.052   3.428 -1.0232 -0.5148  0.3685
 5387SOL     OW27796   2.545   3.501  13.922 -0.6629 -0.5506 -0.2063
 5387SOL    HW127797   2.558   3.444  13.997  1.1451  1.1352  0.7476
 5387SOL    HW227798   2.455   3.528  13.942 -0.7731 -2.1460  1.3809
 5388SOL     OW27799   3.529   0.580  12.684  0.4023  0.6566 -0.1141
 5388SOL    HW127800   3.483   0.511  12.732  1.9204 -0.6505 -0.5251
 5388SOL    HW227801   3.577   0.525  12.622  1.0306  1.7984 -0.6532
 5389SOL     OW27802   3.014   2.857   2.468  0.0686 -1.0077  0.6362
 5389SOL    HW127803   2.987   2.949   2.465 -0.7029 -1.2271  1.0328
 5389SOL    HW227804   3.080   2.850   2.399  0.4257 -1.3894  1.0134
 5390SOL     OW27805   4.549   3.746  16.528 -0.4762  0.1024 -0.1002
 5390SOL    HW127806   4.614   3.680  16.550  1.7301  1.6850 -1.9121
 5390SOL    HW227807   4.471   3.695  16.550 -1.4030  1.1589 -0.9597
 5391SOL     OW27808   3.539   2.759   7.899 -0.7715 -0.3609 -0.5876
 5391SOL    HW127809   3.469   2.721   7.846 -0.6558  0.3040 -1.2110
 5391SOL    HW227810   3.531   2.703   7.977  3.4707 -1.5628 -1.0319
 5392SOL     OW27811   1.183   0.848   5.801  0.2835  0.1188  0.1999
 5392SOL    HW127812   1.098   0.866   5.841  0.8670  0.7160  1.1602
 5392SOL    HW227813   1.236   0.896   5.864  1.1091 -2.9178  1.8485
 5393SOL     OW27814   2.188   0.061   6.157 -0.2522  0.6499  0.2881
 5393SOL    HW127815   2.150   0.113   6.229 -2.0726 -1.4243  0.8094
 5393SOL    HW227816   2.112   0.034   6.106 -0.4856  1.2414  0.3169
 5394SOL     OW27817   1.235   0.159   7.807 -0.2714  0.5776  0.3891
 5394SOL    HW127818   1.231   0.123   7.718 -0.7558  0.8421  0.2984
 5394SOL    HW227819   1.295   0.095   7.844 -0.0672 -0.0694 -1.0447
 5395SOL     OW27820   2.965   4.071   2.901  0.1216 -0.5139  0.2755
 5395SOL    HW127821   2.952   4.100   2.811  1.2848 -0.2761  0.1751
 5395SOL    HW227822   2.925   4.148   2.943  0.0373 -0.4227  0.0253
 5396SOL     OW27823   4.449   4.139   2.050 -0.0406  0.7602  0.3244
 5396SOL    HW127824   4.389   4.157   1.979 -0.7529 -0.0508  0.7189
 5396SOL    HW227825   4.494   4.059   2.023 -2.7754 -0.5695 -0.2188
 5397SOL     OW27826   4.023   4.228   2.377 -0.0425  0.4374  0.5995
 5397SOL    HW127827   4.109   4.191   2.395  0.4210  0.9295 -0.6317
 5397SOL    HW227828   4.041   4.290   2.306 -2.0729 -0.7061 -0.9192
 5398SOL     OW27829   0.483   1.166  10.037  0.0144 -0.6004  0.0808
 5398SOL    HW127830   0.484   1.255  10.071  3.1429  0.1074 -1.8195
 5398SOL    HW227831   0.449   1.113  10.109 -2.6694  2.0347  0.7393
 5399SOL     OW27832   3.367   1.134   3.329 -0.0034  0.4922 -0.4302
 5399SOL    HW127833   3.279   1.146   3.296 -0.6384  0.5115  1.2545
 5399SOL    HW227834   3.355   1.088   3.413  0.3063  3.6561  1.3633
 5400SOL     OW27835   1.610   1.774   7.045  0.1974  0.2126 -0.0196
 5400SOL    HW127836   1.566   1.692   7.068 -1.1755  0.6586 -1.0813
 5400SOL    HW227837   1.536   1.818   7.003 -0.5425 -0.5896  0.4416
 5401SOL     OW27838   4.236   3.657   9.877 -0.2957 -0.6460  0.0597
 5401SOL    HW127839   4.172   3.618   9.817 -0.6728 -1.2509  0.8595
 5401SOL    HW227840   4.302   3.688   9.815 -0.6140 -1.4589 -0.6941
 5402SOL     OW27841   2.785   0.396   6.648 -0.0236  0.0886 -0.1491
 5402SOL    HW127842   2.735   0.477   6.647  0.3809  0.3301 -1.3856
 5402SOL    HW227843   2.856   0.417   6.587  1.0118  1.4502  1.5461
 5403SOL     OW27844   0.840   2.099   8.813 -0.1666  0.5520  0.3715
 5403SOL    HW127845   0.779   2.036   8.775 -1.0066  1.2449  0.5699
 5403SOL    HW227846   0.887   2.134   8.737  1.5116  2.1051  2.1423
 5404SOL     OW27847   2.646   4.426   9.065  0.0622  0.2377  0.8289
 5404SOL    HW127848   2.720   4.366   9.070  2.3495  3.0995  1.4809
 5404SOL    HW227849   2.674   4.503   9.115  1.3293  0.8357 -0.8037
 5405SOL     OW27850   3.154   0.211   4.576  0.0713 -0.0453  0.0746
 5405SOL    HW127851   3.227   0.197   4.515  0.3043 -1.6213  0.7216
 5405SOL    HW227852   3.078   0.188   4.522 -0.4880 -1.3011  1.4023
 5406SOL     OW27853   3.838   4.479   0.629  0.1822 -0.1814 -0.9665
 5406SOL    HW127854   3.825   4.397   0.676  2.2260  0.4348  0.6757
 5406SOL    HW227855   3.920   4.461   0.582  0.3834 -0.4602 -0.5101
 5407SOL     OW27856   2.011   0.261   0.032 -0.5689  0.0634 -0.0094
 5407SOL    HW127857   1.925   0.297   0.010 -1.0181  0.2574  1.9991
 5407SOL    HW227858   2.045   0.330   0.090  3.7997 -0.1687 -2.2482
 5408SOL     OW27859   0.786   0.053   3.268 -0.0708  0.2334 -0.3390
 5408SOL    HW127860   0.749   4.702   3.256  0.7182 -0.1472  0.0496
 5408SOL    HW227861   0.875   0.019   3.266 -0.9080 -1.8872 -2.2818
 5409SOL     OW27862   0.726   1.877   1.458  0.0570  0.5130 -0.1182
 5409SOL    HW127863   0.767   1.941   1.401  0.7310  1.0818  1.0197
 5409SOL    HW227864   0.690   1.815   1.393 -1.4526 -1.0411  2.1864
 5410SOL     OW27865   0.606   1.399  11.604  0.2246  0.4185  0.2868
 5410SOL    HW127866   0.521   1.391  11.561  0.3580  2.3813 -0.3240
 5410SOL    HW227867   0.569   1.432  11.686 -0.4776  1.0491 -0.2768
 5411SOL     OW27868   1.962   4.511   8.727 -0.5337 -0.2373  0.0529
 5411SOL    HW127869   1.964   4.544   8.638  1.0097 -3.1486 -1.0088
 5411SOL    HW227870   1.869   4.525   8.742 -0.4117  1.2580 -0.5688
 5412SOL     OW27871   4.312   4.176   3.371  0.4272  0.5794 -0.6430
 5412SOL    HW127872   4.374   4.227   3.424 -1.3671  3.1003 -0.9567
 5412SOL    HW227873   4.366   4.151   3.296  0.6627 -1.1974  0.1200
 5413SOL     OW27874   3.748   3.913  11.186  0.1037  0.2604  0.2947
 5413SOL    HW127875   3.775   3.990  11.136  0.3989  0.8884  1.4162
 5413SOL    HW227876   3.658   3.939  11.205 -0.7961 -2.4420 -0.2415
 5414SOL     OW27877   1.473   2.674   2.814 -0.5440 -0.3284  0.4234
 5414SOL    HW127878   1.449   2.582   2.826  0.4289 -0.7212 -0.6105
 5414SOL    HW227879   1.508   2.672   2.725  0.2331 -1.3493  0.7451
 5415SOL     OW27880   2.534   4.648  17.271  0.2276 -0.2701 -0.0351
 5415SOL    HW127881   2.581   4.724  17.238 -1.5498 -0.2301 -2.4693
 5415SOL    HW227882   2.445   4.682  17.258  0.1028 -0.1908  1.0614
 5416SOL     OW27883   1.378   2.845  12.381 -0.2464 -0.7788 -0.3126
 5416SOL    HW127884   1.463   2.880  12.408 -0.4512 -0.1943 -0.4216
 5416SOL    HW227885   1.403   2.804  12.298  0.1696  0.2094 -0.6773
 5417SOL     OW27886   1.431   3.696  10.719  0.0364  1.0619 -0.2652
 5417SOL    HW127887   1.408   3.759  10.650 -0.7789  0.7993 -0.2281
 5417SOL    HW227888   1.399   3.732  10.801 -2.4036  0.0206 -0.7671
 5418SOL     OW27889   2.412   4.198  10.419  0.4594 -0.2837  0.0782
 5418SOL    HW127890   2.357   4.256  10.471  1.2245  1.4541 -1.0217
 5418SOL    HW227891   2.364   4.116  10.426 -0.5199  0.2406 -0.4351
 5419SOL     OW27892   3.538   3.202   9.880  0.2265 -0.0482  0.6136
 5419SOL    HW127893   3.614   3.150   9.907 -0.2686 -0.2946  1.5280
 5419SOL    HW227894   3.547   3.217   9.786 -0.4481  1.0368  0.7125
 5420SOL     OW27895   1.676   3.502   7.054 -0.2560  1.0340  0.1980
 5420SOL    HW127896   1.588   3.513   7.090  0.9818  3.0066  2.5828
 5420SOL    HW227897   1.726   3.574   7.092 -0.0790  0.3488  1.2604
 5421SOL     OW27898   4.724   3.966  16.475  0.2467  0.3440 -0.2423
 5421SOL    HW127899   0.028   3.938  16.392  1.8774 -1.8400  1.3105
 5421SOL    HW227900   4.642   3.918  16.464 -0.9530  2.4183 -0.4718
 5422SOL     OW27901   1.539   0.103  16.849 -0.0940 -0.0487  0.2972
 5422SOL    HW127902   1.469   0.118  16.786 -0.3690  0.2649  0.6816
 5422SOL    HW227903   1.571   0.191  16.871 -1.8944  0.0047  2.6598
 5423SOL     OW27904   4.019   3.040   5.930 -0.0424  0.4697  0.1824
 5423SOL    HW127905   4.008   3.117   5.984 -2.8121 -0.8142  1.4094
 5423SOL    HW227906   4.069   3.076   5.856 -2.2689  0.9834 -1.0792
 5424SOL     OW27907   1.691   0.098   2.192 -0.1125  0.5790 -0.0865
 5424SOL    HW127908   1.672   0.135   2.278 -0.1968 -0.3257  0.2771
 5424SOL    HW227909   1.787   0.105   2.199 -0.1669  1.0611  0.1904
 5425SOL     OW27910   0.480   4.347   2.031 -0.3744 -0.1433 -0.0435
 5425SOL    HW127911   0.436   4.263   2.043 -0.2609  0.2588  3.0622
 5425SOL    HW227912   0.412   4.398   1.987 -0.4260  0.7177  1.0413
 5426SOL     OW27913   1.514   2.210   2.208 -0.1414  0.4962  0.2497
 5426SOL    HW127914   1.604   2.224   2.179 -0.5967  0.4196 -1.1876
 5426SOL    HW227915   1.490   2.297   2.241 -1.9580 -0.2513  0.9268
 5427SOL     OW27916   0.057   1.011   2.569 -0.3257  0.2592 -0.2674
 5427SOL    HW127917   0.087   0.959   2.495 -4.5200 -2.5536  0.0263
 5427SOL    HW227918   4.706   1.040   2.544 -0.8578  0.6501  1.9690
 5428SOL     OW27919   3.679   2.810   8.224  0.3426  0.1538  0.1508
 5428SOL    HW127920   3.588   2.785   8.211  0.5995 -1.8476  2.1193
 5428SOL    HW227921   3.726   2.756   8.160 -0.2320 -0.2416  0.0701
 5429SOL     OW27922   4.398   3.416   8.308  0.3443  0.0048 -0.1806
 5429SOL    HW127923   4.348   3.475   8.364 -0.2895  0.8964 -1.6850
 5429SOL    HW227924   4.422   3.485   8.246 -0.1063  0.4484  0.1409
 5430SOL     OW27925   0.789   2.533   8.879 -0.0799  0.1581 -0.1954
 5430SOL    HW127926   0.711   2.533   8.823 -0.3258 -0.7682  0.1547
 5430SOL    HW227927   0.749   2.478   8.946  2.4576 -1.6975 -0.2201
 5431SOL     OW27928   1.400   3.667   5.831 -0.2108  0.7598 -0.0190
 5431SOL    HW127929   1.481   3.669   5.882 -0.9671 -0.2376  1.2195
 5431SOL    HW227930   1.333   3.621   5.882 -0.1440  0.4177 -0.2390
 5432SOL     OW27931   4.347   3.188   4.861 -0.4438  0.1036 -0.1413
 5432SOL    HW127932   4.367   3.155   4.949 -0.3342  0.6071  0.0239
 5432SOL    HW227933   4.253   3.169   4.852 -1.4440  3.6927  2.3459
 5433SOL     OW27934   3.424   2.420   6.998 -0.1055 -0.1308 -0.0256
 5433SOL    HW127935   3.384   2.373   6.924 -0.5554  0.0197  0.1229
 5433SOL    HW227936   3.353   2.476   7.028 -1.1753 -2.6741  2.1757
 5434SOL     OW27937   4.696   0.168  12.073 -0.0171 -0.0350 -0.1868
 5434SOL    HW127938   4.674   0.093  12.017 -0.0768  0.2077 -0.4893
 5434SOL    HW227939   4.725   0.235  12.010 -0.7039  0.9299  0.5226
 5435SOL     OW27940   0.602   3.116   7.551 -0.3546 -0.1473  0.5519
 5435SOL    HW127941   0.531   3.175   7.526 -1.9470 -1.0370  3.0202
 5435SOL    HW227942   0.553   3.034   7.555 -0.9689  0.3015  2.4506
 5436SOL     OW27943   0.753   0.860  14.388  0.2411 -0.2188  0.0290
 5436SOL    HW127944   0.759   0.948  14.426 -0.1209  0.2803 -1.0635
 5436SOL    HW227945   0.657   0.858  14.382  0.0402 -0.5763  3.2559
 5437SOL     OW27946   2.471   4.493   0.130 -0.5514 -0.2195 -0.0665
 5437SOL    HW127947   2.526   4.491   0.209 -1.4724 -0.6652  0.5694
 5437SOL    HW227948   2.445   4.401   0.122 -0.3909 -0.2519 -0.2027
 5438SOL     OW27949   2.563   3.946   1.564  0.0072 -0.0923  0.1556
 5438SOL    HW127950   2.553   3.921   1.656  1.8437  0.7968  0.5995
 5438SOL    HW227951   2.601   3.867   1.525  1.6751  1.2600 -0.9514
 5439SOL     OW27952   0.001   4.350  11.848  0.1075 -0.3273  0.5833
 5439SOL    HW127953   4.716   4.256  11.850  1.8996 -0.7591  0.1925
 5439SOL    HW227954   4.712   4.365  11.939  0.8111 -0.5021  0.8063
 5440SOL     OW27955   0.911   2.960   1.788 -0.1530 -0.2051 -0.4011
 5440SOL    HW127956   0.892   2.875   1.827  1.1324  0.4784  1.7474
 5440SOL    HW227957   0.827   2.987   1.753 -0.4757 -0.1509  0.4165
 5441SOL     OW27958   4.028   3.181   3.067  0.0527  0.3592 -0.3248
 5441SOL    HW127959   3.963   3.207   3.001 -1.2262  1.1152  1.2308
 5441SOL    HW227960   4.027   3.087   3.048  0.2532  0.4426 -0.7537
 5442SOL     OW27961   4.313   3.110   4.063  0.0469 -0.4419 -0.6412
 5442SOL    HW127962   4.386   3.142   4.116  1.2982 -2.1154 -1.3510
 5442SOL    HW227963   4.366   3.075   3.992  1.9710 -2.0109  1.5535
 5443SOL     OW27964   1.910   2.740  16.545 -0.1821  0.9946  0.1550
 5443SOL    HW127965   1.892   2.682  16.471 -3.1861  0.8025  1.0358
 5443SOL    HW227966   1.922   2.823  16.499 -0.0767  2.1584  2.2617
 5444SOL     OW27967   3.397   1.026   9.591  0.0240 -0.1340  0.0773
 5444SOL    HW127968   3.441   0.960   9.537  0.6606  0.8592 -0.6118
 5444SOL    HW227969   3.336   1.057   9.524  0.1863  0.5210  0.2280
 5445SOL     OW27970   0.186   0.899  11.694 -0.2715  0.1027  0.2296
 5445SOL    HW127971   0.096   0.895  11.661  0.5867 -0.4406 -2.0876
 5445SOL    HW227972   0.212   0.807  11.702  1.3251  0.6975  1.8843
 5446SOL     OW27973   1.997   2.030   1.070  0.2971  0.2443  0.5694
 5446SOL    HW127974   1.926   1.973   1.098  1.4697 -1.4822  0.0081
 5446SOL    HW227975   2.052   1.971   1.019  0.9334  2.3330 -1.1771
 5447SOL     OW27976   2.961   0.150   2.726  0.2719 -0.3420  0.3994
 5447SOL    HW127977   3.052   0.136   2.750  0.9974  0.0870 -2.1026
 5447SOL    HW227978   2.922   0.090   2.789  2.1970 -0.1132  1.8183
 5448SOL     OW27979   1.141   1.191   2.358  0.3330  0.3662 -0.4126
 5448SOL    HW127980   1.184   1.269   2.395 -1.2178  1.4463 -0.8698
 5448SOL    HW227981   1.121   1.215   2.267 -2.5105 -0.0651  0.1083
 5449SOL     OW27982   4.576   2.610   2.630 -0.0399  0.3710 -0.1857
 5449SOL    HW127983   4.640   2.600   2.560 -0.7712 -0.4078 -0.7414
 5449SOL    HW227984   4.573   2.518   2.658  0.0933 -0.2175 -2.1229
 5450SOL     OW27985   0.774   1.883   4.701  0.3494  0.2868  0.1618
 5450SOL    HW127986   0.762   1.924   4.787  2.5379 -0.8092  0.9882
 5450SOL    HW227987   0.684   1.853   4.688  0.7534 -0.7073 -0.3559
 5451SOL     OW27988   0.812   4.021   3.226  0.1059 -0.1787  0.2366
 5451SOL    HW127989   0.855   3.947   3.268  1.6849 -0.1152 -1.2609
 5451SOL    HW227990   0.830   4.000   3.134  1.9209  0.7399  0.4017
 5452SOL     OW27991   4.115   2.227   9.732 -0.3478  0.1244 -0.0116
 5452SOL    HW127992   4.154   2.278   9.804  0.6341 -1.4857  0.5992
 5452SOL    HW227993   4.030   2.270   9.738  0.5314  1.8031  0.3100
 5453SOL     OW27994   3.456   0.293   1.214  0.2199 -0.4796  0.2893
 5453SOL    HW127995   3.411   0.270   1.296 -0.2383 -1.4994 -0.2539
 5453SOL    HW227996   3.458   0.216   1.158 -0.2840 -2.2543  2.7125
 5454SOL     OW27997   1.583   0.597   3.448  0.1996 -0.1948 -0.1894
 5454SOL    HW127998   1.668   0.626   3.418  0.4373 -0.6466  0.0406
 5454SOL    HW227999   1.540   0.681   3.465  1.3708  0.8813 -2.6723
 5455SOL     OW28000   1.943   0.984   2.678  0.2661  0.0267 -0.0817
 5455SOL    HW128001   1.991   1.061   2.710 -2.0951  1.9807 -1.2822
 5455SOL    HW228002   1.957   0.993   2.584 -1.7645  3.7610  0.0041
 5456SOL     OW28003   4.202   1.309   6.511  0.4646 -0.4194 -0.2696
 5456SOL    HW128004   4.260   1.384   6.498 -0.2358  0.1574 -0.0612
 5456SOL    HW228005   4.261   1.241   6.479  0.7909 -0.3783  0.2340
 5457SOL     OW28006   0.785   0.365   4.915  0.5052  0.4624  0.2593
 5457SOL    HW128007   0.854   0.327   4.860  0.1404 -0.4550  0.4341
 5457SOL    HW228008   0.768   0.293   4.975  3.1718  1.1316  1.8293
 5458SOL     OW28009   0.687   1.788  13.407 -0.3949  0.2187 -0.2894
 5458SOL    HW128010   0.764   1.825  13.363 -1.6055  0.5041 -2.1580
 5458SOL    HW228011   0.615   1.850  13.396 -0.2888  0.7288  1.8061
 5459SOL     OW28012   0.548   0.662   1.446 -0.4997  0.6782 -0.0318
 5459SOL    HW128013   0.589   0.579   1.469  0.7857  1.7892  1.6388
 5459SOL    HW228014   0.466   0.658   1.496 -0.9963  0.7655 -0.8267
 5460SOL     OW28015   3.481   1.529   3.197  0.0161  0.5394 -0.3079
 5460SOL    HW128016   3.416   1.584   3.153  1.3027  0.6510 -2.0842
 5460SOL    HW228017   3.565   1.573   3.206  1.2773 -1.7136 -1.1824
 5461SOL     OW28018   3.017   2.883  13.291  0.1923  0.1884  0.1352
 5461SOL    HW128019   3.024   2.798  13.247 -1.2406  0.1981 -0.1073
 5461SOL    HW228020   3.085   2.926  13.239  0.6441 -1.2332 -0.4728
 5462SOL     OW28021   3.116   4.607   2.211  0.5006  0.0014  0.2152
 5462SOL    HW128022   3.172   4.552   2.155  2.8288  1.1023  1.4833
 5462SOL    HW228023   3.102   4.538   2.276  1.9865 -1.0170 -0.5415
 5463SOL     OW28024   1.129   0.034  15.370  0.2592  0.0998 -0.2029
 5463SOL    HW128025   1.118   4.685  15.328 -0.4734  0.3051 -0.4328
 5463SOL    HW228026   1.137   0.082  15.287  2.5497 -2.3393 -1.3986
 5464SOL     OW28027   3.525   0.373   8.401 -0.3482  0.0155 -0.1125
 5464SOL    HW128028   3.456   0.330   8.453  1.2468  1.1452  2.9260
 5464SOL    HW228029   3.607   0.328   8.421  0.7023  1.3995 -1.3122
 5465SOL     OW28030   3.812   2.201   0.641  0.4928  0.1995 -0.4581
 5465SOL    HW128031   3.833   2.231   0.730  0.2424 -0.2441 -0.2484
 5465SOL    HW228032   3.895   2.218   0.597  0.7287 -1.2557 -0.5597
 5466SOL     OW28033   0.337   1.494   0.231  0.8910 -0.3556 -0.3401
 5466SOL    HW128034   0.416   1.495   0.285 -0.0943 -1.7800  1.1460
 5466SOL    HW228035   0.362   1.510   0.140  0.5696  2.6017  0.0855
 5467SOL     OW28036   1.778   0.500   1.997  0.0836  0.2348  0.1042
 5467SOL    HW128037   1.848   0.558   2.027  2.7591 -2.1363 -1.5329
 5467SOL    HW228038   1.780   0.433   2.066 -1.5607 -0.2769 -0.3517
 5468SOL     OW28039   2.237   4.124   3.188 -0.0660  0.3333 -0.5957
 5468SOL    HW128040   2.275   4.209   3.213 -1.8985  1.1817 -0.6469
 5468SOL    HW228041   2.274   4.122   3.101 -1.4553 -0.7087 -1.1623
 5469SOL     OW28042   4.460   0.395   7.149  0.2231 -0.3872  0.9198
 5469SOL    HW128043   4.475   0.363   7.060  0.8737  2.9065 -0.1487
 5469SOL    HW228044   4.441   0.315   7.197 -3.0952  0.0207  0.3286
 5470SOL     OW28045   2.733   1.936   3.172  0.2996  0.9220 -0.1319
 5470SOL    HW128046   2.821   1.899   3.168 -0.0904 -0.0809  0.3449
 5470SOL    HW228047   2.697   1.894   3.250 -1.4401 -0.3913 -1.6290
 5471SOL     OW28048   1.520   2.419   8.773  0.7235 -0.5908  0.1818
 5471SOL    HW128049   1.460   2.487   8.804 -0.3787 -1.2440 -0.5183
 5471SOL    HW228050   1.574   2.404   8.851  1.4757  2.5849  0.2717
 5472SOL     OW28051   2.011   4.403   2.606  0.1597  0.3313  0.2515
 5472SOL    HW128052   1.970   4.478   2.562 -0.1156  0.6756  1.1072
 5472SOL    HW228053   1.974   4.324   2.567  1.0667  0.9653 -1.9052
 5473SOL     OW28054   2.958   0.416   5.805  0.1917 -0.0741  0.1098
 5473SOL    HW128055   2.895   0.440   5.873  0.6199 -1.3872  0.9674
 5473SOL    HW228056   2.988   0.499   5.768  0.3935  0.9942  2.6231
 5474SOL     OW28057   2.476   3.696   0.631 -0.0785 -0.6033  0.1936
 5474SOL    HW128058   2.522   3.612   0.635  1.5117  0.2827  0.3229
 5474SOL    HW228059   2.425   3.686   0.551  2.5135 -0.4231 -1.4775
 5475SOL     OW28060   2.602   0.301   7.009 -0.1674  0.3625  0.1455
 5475SOL    HW128061   2.597   0.383   7.058 -0.7818  1.0336 -1.0308
 5475SOL    HW228062   2.561   0.333   6.929 -0.6858 -0.4676  0.0714
 5476SOL     OW28063   0.705   0.757   2.303 -0.3819  0.1514 -0.1643
 5476SOL    HW128064   0.785   0.749   2.250 -0.0356  2.9651 -0.0339
 5476SOL    HW228065   0.652   0.805   2.240 -0.8355 -2.9079 -2.1346
 5477SOL     OW28066   1.329   1.703  12.643 -0.2798  0.1065 -0.3393
 5477SOL    HW128067   1.291   1.671  12.725  3.1000  2.1204  2.0106
 5477SOL    HW228068   1.372   1.622  12.613  0.9428  0.3920  0.6588
 5478SOL     OW28069   1.272   4.201  13.110  0.0732  0.3020  0.6026
 5478SOL    HW128070   1.332   4.276  13.111 -0.0566  0.4420 -2.2330
 5478SOL    HW228071   1.326   4.126  13.135  1.6263  0.6940 -1.5730
 5479SOL     OW28072   3.511   0.197  12.896  0.3228 -0.3681  0.4476
 5479SOL    HW128073   3.590   0.234  12.936  1.5864 -0.2827 -2.1006
 5479SOL    HW228074   3.467   0.264  12.843  0.8655  1.7394  2.6570
 5480SOL     OW28075   1.184   4.626   0.026  0.5795  0.7051  0.1292
 5480SOL    HW128076   1.217   4.716   0.037  0.4364  0.6872  0.6718
 5480SOL    HW228077   1.179   4.646  17.678 -1.0255 -1.1105 -0.1594
 5481SOL     OW28078   0.464   1.800   0.188  0.4497  0.1761  0.5676
 5481SOL    HW128079   0.512   1.717   0.187 -0.5616 -0.4089  0.4199
 5481SOL    HW228080   0.473   1.821   0.095 -0.0325 -0.9775  0.2633
 5482SOL     OW28081   2.037   4.658   1.853  0.2848 -0.0907 -0.7397
 5482SOL    HW128082   2.031   4.593   1.784 -0.8560 -1.5428  0.7471
 5482SOL    HW228083   2.130   4.664   1.877 -0.7204 -0.1697  3.0652
 5483SOL     OW28084   2.785   3.617   3.241 -0.2409  0.4665  0.6463
 5483SOL    HW128085   2.816   3.527   3.254 -0.7226  0.2527  0.2833
 5483SOL    HW228086   2.710   3.603   3.184  0.2907 -1.2511  0.3746
 5484SOL     OW28087   4.530   1.409  15.626 -0.0279 -0.4667 -0.8214
 5484SOL    HW128088   4.457   1.417  15.687 -0.4153 -1.8109 -1.1051
 5484SOL    HW228089   4.576   1.493  15.630  0.2547 -0.6406 -0.3626
 5485SOL     OW28090   1.839   4.000   1.450 -0.4430 -0.1367 -0.5333
 5485SOL    HW128091   1.775   4.009   1.520  1.9428  2.6151  1.3181
 5485SOL    HW228092   1.921   3.988   1.497 -0.6052  0.4058 -0.1052
 5486SOL     OW28093   0.212   4.088   4.279 -0.4591  0.4788  0.7826
 5486SOL    HW128094   0.254   4.003   4.296 -2.0374 -0.3937  0.3560
 5486SOL    HW228095   0.238   4.106   4.189 -1.9955 -2.1581 -0.1748
 5487SOL     OW28096   3.832   0.804   4.613  0.1374 -0.1574 -0.0051
 5487SOL    HW128097   3.884   0.745   4.668 -0.7208 -0.4384  0.4990
 5487SOL    HW228098   3.897   0.863   4.574  1.4487 -0.9471  0.9718
 5488SOL     OW28099   3.805   3.733   8.985 -0.2049  0.0691 -0.1556
 5488SOL    HW128100   3.772   3.804   9.040  1.9755  0.3186  0.8464
 5488SOL    HW228101   3.754   3.735   8.904 -1.4423  2.0043  0.6659
 5489SOL     OW28102   2.630   1.810   3.757 -0.2302  0.7165  0.4765
 5489SOL    HW128103   2.552   1.831   3.809 -0.2578 -0.2404  0.8320
 5489SOL    HW228104   2.609   1.816   3.664  0.1843  0.1985  0.3502
 5490SOL     OW28105   0.595   4.135   7.231 -0.0763 -0.1809 -0.0935
 5490SOL    HW128106   0.531   4.200   7.201  1.8944  0.4558 -2.8847
 5490SOL    HW228107   0.535   4.088   7.289  1.2668 -2.2870 -0.3878
 5491SOL     OW28108   2.920   4.690   5.758 -0.6657 -0.5808 -0.6937
 5491SOL    HW128109   2.901   0.040   5.722 -0.1763 -0.1153  0.1848
 5491SOL    HW228110   2.852   4.698   5.825  0.3492  3.2577 -0.0880
 5492SOL     OW28111   2.105   1.130   8.451 -0.3394 -0.0376 -0.2501
 5492SOL    HW128112   2.071   1.191   8.517  0.6693  0.0966  0.1441
 5492SOL    HW228113   2.041   1.060   8.464 -0.0620 -0.1983  0.2480
 5493SOL     OW28114   4.096   1.011   3.085 -0.1440 -0.1993 -0.0973
 5493SOL    HW128115   4.153   1.043   3.155 -2.8712  2.4046  0.9321
 5493SOL    HW228116   4.099   0.916   3.100  1.5103  0.0282  0.9556
 5494SOL     OW28117   1.180   3.703  10.536  0.2904 -0.0711 -0.4983
 5494SOL    HW128118   1.253   3.709  10.474 -0.5665 -3.3538 -1.8615
 5494SOL    HW228119   1.122   3.775  10.512  0.0834 -0.3043 -0.6920
 5495SOL     OW28120   2.564   3.314   9.139 -0.0541 -0.9028  0.2882
 5495SOL    HW128121   2.572   3.220   9.121 -1.0040 -0.6377 -1.5013
 5495SOL    HW228122   2.497   3.308   9.207 -1.5389  2.0770 -0.9570
 5496SOL     OW28123   2.735   1.984  14.148  0.3653  0.1464 -0.3188
 5496SOL    HW128124   2.799   2.046  14.113 -0.9158  1.9948  0.5957
 5496SOL    HW228125   2.661   2.041  14.172  1.1081 -0.8217  4.1812
 5497SOL     OW28126   1.613   2.846  13.240  0.0397  0.0714  0.2344
 5497SOL    HW128127   1.683   2.781  13.228 -0.0252  0.4954 -2.5244
 5497SOL    HW228128   1.612   2.864  13.146  1.1036  0.7788  0.3595
 5498SOL     OW28129   2.731   3.542  13.108  1.2062  0.3795  0.0177
 5498SOL    HW128130   2.780   3.473  13.063 -0.4401 -1.1820  0.6423
 5498SOL    HW228131   2.770   3.519  13.193 -2.8433 -2.0970  1.1939
 5499SOL     OW28132   3.865   1.278   3.017  0.2602 -0.1935 -0.6328
 5499SOL    HW128133   3.820   1.194   3.028  1.1796 -0.6888 -0.6007
 5499SOL    HW228134   3.957   1.254   3.032 -0.0797  0.7681  2.8661
 5500SOL     OW28135   2.545   1.292  17.226 -0.0377 -0.1189  0.2821
 5500SOL    HW128136   2.498   1.218  17.186 -0.7633  0.9689 -0.8698
 5500SOL    HW228137   2.575   1.257  17.310 -0.4385 -0.5535  0.2494
 5501SOL     OW28138   3.810   4.062   6.702  0.4701 -0.4362 -0.0124
 5501SOL    HW128139   3.723   4.029   6.679 -0.4406  1.4721  0.7060
 5501SOL    HW228140   3.800   4.078   6.796  0.1756 -0.3789 -0.0505
 5502SOL     OW28141   3.499   2.760   3.502  0.0628 -0.3507 -0.3647
 5502SOL    HW128142   3.556   2.755   3.578  0.0031  0.8615 -0.2396
 5502SOL    HW228143   3.498   2.666   3.484 -1.4642 -0.2050 -1.0985
 5503SOL     OW28144   1.642   0.261   5.345  0.0795 -0.3212  0.4245
 5503SOL    HW128145   1.583   0.200   5.388  1.0212 -0.4964  1.4679
 5503SOL    HW228146   1.700   0.203   5.296  0.5623  2.6911 -2.5405
 5504SOL     OW28147   3.274   4.399   2.118  0.5281  0.1340  0.5453
 5504SOL    HW128148   3.306   4.431   2.034  0.6490 -1.2623  0.0552
 5504SOL    HW228149   3.243   4.311   2.094  1.4899  0.0567 -0.4250
 5505SOL     OW28150   3.046   4.303   3.769 -0.5627 -0.3344  0.0584
 5505SOL    HW128151   3.020   4.254   3.847  2.0518 -2.9552 -0.6998
 5505SOL    HW228152   3.141   4.292   3.777 -0.8116 -1.3406  1.6505
 5506SOL     OW28153   3.564   0.303  16.880 -0.5415  0.6197 -0.6630
 5506SOL    HW128154   3.495   0.263  16.828 -1.5188  0.6201  0.6284
 5506SOL    HW228155   3.510   0.322  16.957 -0.4771 -0.0157 -0.4634
 5507SOL     OW28156   0.886   1.755   6.538 -0.3041  0.1315  0.2558
 5507SOL    HW128157   0.964   1.703   6.558 -1.4370 -1.1343  1.3609
 5507SOL    HW228158   0.833   1.701   6.479  0.5934  0.6664 -1.0601
 5508SOL     OW28159   4.166   2.332   7.475 -0.1535 -0.3982 -0.0886
 5508SOL    HW128160   4.207   2.245   7.472  0.4329 -0.2258  2.7888
 5508SOL    HW228161   4.244   2.383   7.455  0.7428 -1.1385  1.5234
 5509SOL     OW28162   0.016   1.886   4.426 -0.0848 -0.6321  0.3255
 5509SOL    HW128163   4.659   1.869   4.438 -0.6064  2.7057  0.9146
 5509SOL    HW228164   0.031   1.835   4.346  1.4981 -2.8388  2.0616
 5510SOL     OW28165   3.925   2.325   1.338 -0.3494  0.0787 -0.5873
 5510SOL    HW128166   4.019   2.336   1.323 -0.6466  1.7560 -1.2586
 5510SOL    HW228167   3.923   2.231   1.353  0.8183  0.0385 -0.6972
 5511SOL     OW28168   1.275   3.156   9.758 -0.1831 -0.1652  0.8867
 5511SOL    HW128169   1.238   3.244   9.748 -0.9095 -0.3087  2.3220
 5511SOL    HW228170   1.368   3.179   9.749 -0.5621  0.7895 -0.6348
 5512SOL     OW28171   4.043   2.118   3.499 -0.3665  0.1159 -0.3550
 5512SOL    HW128172   4.098   2.184   3.540 -0.1807 -0.8351  0.8958
 5512SOL    HW228173   3.962   2.130   3.549  0.3685  2.1284  0.3512
 5513SOL     OW28174   4.412   2.799   6.351  0.1967  0.0997  0.0546
 5513SOL    HW128175   4.343   2.744   6.311  1.5188 -1.7032  0.2493
 5513SOL    HW228176   4.495   2.756   6.330  0.9540 -0.0188  3.3166
 5514SOL     OW28177   3.516   2.417   9.770  0.1041 -0.8858  0.0812
 5514SOL    HW128178   3.520   2.352   9.841  0.8205 -0.0628  0.8015
 5514SOL    HW228179   3.506   2.501   9.814 -1.8078 -0.3623 -1.3776
 5515SOL     OW28180   3.631   0.238  17.532 -0.0804  0.1888  0.0021
 5515SOL    HW128181   3.610   0.304  17.466 -0.4398  0.9686  0.9115
 5515SOL    HW228182   3.544   0.209  17.559 -0.2398  2.5435  1.9958
 5516SOL     OW28183   1.929   2.979   7.072  0.2958 -0.6093 -0.0905
 5516SOL    HW128184   1.905   2.935   7.154  0.6723  1.8211  1.3355
 5516SOL    HW228185   1.853   3.036   7.069  0.8987  0.1758 -0.5778
 5517SOL     OW28186   3.552   1.367  10.264 -0.1605 -0.8999  0.0435
 5517SOL    HW128187   3.489   1.435  10.238  0.8589 -0.3418 -0.9463
 5517SOL    HW228188   3.508   1.341  10.345  2.5682 -0.5881  1.6139
 5518SOL     OW28189   4.512   4.280   3.543 -0.2353 -0.7389 -0.1469
 5518SOL    HW128190   4.604   4.303   3.526 -0.2452  0.9908  2.1790
 5518SOL    HW228191   4.526   4.200   3.595  0.2964 -0.8463 -0.4446
 5519SOL     OW28192   2.744   1.179  16.965  0.0876  0.5759 -0.6028
 5519SOL    HW128193   2.836   1.204  16.978 -0.4488  2.2728 -0.1406
 5519SOL    HW228194   2.759   1.154  16.873 -1.7362 -1.8736 -0.2390
 5520SOL     OW28195   3.714   3.106   7.727  0.3485 -0.3487  0.4527
 5520SOL    HW128196   3.737   3.018   7.755 -3.1583 -1.3623  0.0867
 5520SOL    HW228197   3.619   3.103   7.732  0.2157 -0.4167 -1.9651
 5521SOL     OW28198   4.365   4.118   8.950 -0.0007  0.0885  0.6017
 5521SOL    HW128199   4.313   4.062   8.893 -1.6425  0.2492  1.9322
 5521SOL    HW228200   4.297   4.167   8.999  0.4491  0.4166  0.8976
 5522SOL     OW28201   0.494   3.053   5.749 -0.1120 -0.1924 -0.4667
 5522SOL    HW128202   0.399   3.050   5.733 -0.0023 -0.8380 -0.9787
 5522SOL    HW228203   0.498   3.147   5.729  0.1042 -0.6855 -2.7869
 5523SOL     OW28204   1.530   3.931  12.758 -0.0692 -0.1038 -0.6588
 5523SOL    HW128205   1.519   4.025  12.772 -1.0400 -0.3549  0.2672
 5523SOL    HW228206   1.616   3.915  12.795  0.0669  0.3518 -0.7826
 5524SOL     OW28207   4.265   0.688   6.854 -0.1454 -0.0118 -0.1667
 5524SOL    HW128208   4.175   0.722   6.858 -0.2529 -0.2441 -0.6354
 5524SOL    HW228209   4.294   0.726   6.937 -0.8990  3.9923 -1.7144
 5525SOL     OW28210   2.944   0.378   8.872  0.6246 -0.0930  0.6212
 5525SOL    HW128211   2.942   0.289   8.907  1.9858 -0.4339 -0.1993
 5525SOL    HW228212   2.857   0.416   8.886  0.3530 -0.4647 -0.0921
 5526SOL     OW28213   2.233   4.067   8.969  0.1554 -0.2883 -0.2886
 5526SOL    HW128214   2.171   4.016   8.917 -0.2607 -1.4489  1.3690
 5526SOL    HW228215   2.319   4.035   8.943  0.8040  0.6381  0.7177
 5527SOL     OW28216   4.617   1.434   2.446  0.1390  0.5022  0.3114
 5527SOL    HW128217   4.625   1.476   2.532  1.1077  0.8528  0.0571
 5527SOL    HW228218   4.624   1.511   2.390  0.0974  0.7224  0.6104
 5528SOL     OW28219   2.840   1.275   7.240 -0.0589  0.1817  0.6666
 5528SOL    HW128220   2.903   1.206   7.262 -0.6869 -0.3469  0.8077
 5528SOL    HW228221   2.755   1.232   7.251 -0.1810  0.4312  0.6888
 5529SOL     OW28222   0.708   1.727  13.882  0.7023 -0.1365  0.0470
 5529SOL    HW128223   0.697   1.641  13.923  2.3187 -2.1389 -3.7161
 5529SOL    HW228224   0.647   1.718  13.808 -2.4249 -0.1284  2.6137
 5530SOL     OW28225   2.254   4.296   7.465  0.6051 -0.1720  0.6167
 5530SOL    HW128226   2.207   4.329   7.541 -0.3940 -1.4712  0.5533
 5530SOL    HW228227   2.343   4.290   7.500  1.0113  2.0358 -0.0180
 5531SOL     OW28228   2.319   4.533  17.560  0.4089 -0.4832  0.2411
 5531SOL    HW128229   2.291   4.588  17.487  0.0970 -0.7002  0.1949
 5531SOL    HW228230   2.303   4.449  17.515 -0.0023 -0.4162  0.2630
 5532SOL     OW28231   2.090   2.446   2.410 -0.4163  0.0957  0.4969
 5532SOL    HW128232   2.158   2.453   2.343 -0.0114 -1.2566  0.7758
 5532SOL    HW228233   2.148   2.456   2.485  0.7811  1.6596 -0.6166
 5533SOL     OW28234   0.227   2.793   0.185  0.6079  0.4405  0.1600
 5533SOL    HW128235   0.151   2.846   0.161 -0.1800 -0.1520  1.3589
 5533SOL    HW228236   0.187   2.706   0.198 -0.5458  0.5141 -3.0097
 5534SOL     OW28237   2.199   2.487   7.035 -0.5733 -0.1088  0.3950
 5534SOL    HW128238   2.148   2.406   7.028  1.1801 -0.9580 -2.4906
 5534SOL    HW228239   2.225   2.505   6.945 -2.3919  0.6851  0.0206
 5535SOL     OW28240   3.633   2.228   3.321 -0.1468 -0.2780  0.0207
 5535SOL    HW128241   3.708   2.172   3.297  0.3483  0.9264 -1.2397
 5535SOL    HW228242   3.577   2.209   3.246  2.4036 -0.4858 -1.8537
 5536SOL     OW28243   2.333   3.083   5.549 -0.7751  0.1020  0.3946
 5536SOL    HW128244   2.364   3.031   5.623  0.6140 -0.5146 -0.6319
 5536SOL    HW228245   2.376   3.048   5.471  2.3095 -0.4807  2.3720
 5537SOL     OW28246   3.955   1.902   6.871  0.0791  0.5124  0.1599
 5537SOL    HW128247   3.935   1.991   6.899 -1.2976  0.1548  0.3037
 5537SOL    HW228248   3.987   1.859   6.950 -0.5658 -1.5893 -0.6992
 5538SOL     OW28249   4.365   1.277   5.983  0.1089 -0.3641 -0.0618
 5538SOL    HW128250   4.440   1.301   5.929 -2.0362  0.5505 -2.5906
 5538SOL    HW228251   4.342   1.215   5.914 -0.8348 -0.6399  0.4881
 5539SOL     OW28252   3.578   4.474   6.432 -0.1575  0.2880 -0.0953
 5539SOL    HW128253   3.644   4.418   6.472 -0.0124 -2.7446 -4.5822
 5539SOL    HW228254   3.495   4.428   6.444 -0.2166  0.6187  0.7712
 5540SOL     OW28255   2.024   0.605  16.950  0.0953 -0.0455 -0.4675
 5540SOL    HW128256   2.104   0.585  16.997  0.6966  0.6660 -1.1816
 5540SOL    HW228257   2.042   0.552  16.872 -0.4802 -0.7443 -0.1274
 5541SOL     OW28258   0.670   4.139  14.018 -0.1450  0.1850  0.2677
 5541SOL    HW128259   0.612   4.149  14.093 -0.3073  2.4149 -0.1689
 5541SOL    HW228260   0.739   4.079  14.049 -0.5185 -0.7989 -0.7995
 5542SOL     OW28261   2.236   1.930   0.706  0.2849 -0.3173 -0.1983
 5542SOL    HW128262   2.320   1.960   0.740  1.2452 -0.5209 -2.3496
 5542SOL    HW228263   2.188   1.905   0.785 -1.1011  1.8617 -0.3567
 5543SOL     OW28264   1.068   0.311   5.240  0.2416  0.4045  0.3037
 5543SOL    HW128265   1.146   0.310   5.294  1.9894  1.3024 -2.1887
 5543SOL    HW228266   1.095   0.248   5.174 -2.0168 -0.5441  0.2735
 5544SOL     OW28267   4.588   4.060   3.677  0.1661 -0.3681  0.2212
 5544SOL    HW128268   4.512   4.003   3.689 -0.5213  0.3977 -0.4856
 5544SOL    HW228269   4.619   4.072   3.767 -0.3263 -1.4058  0.5279
 5545SOL     OW28270   3.658   2.453   9.526  0.2078  0.2048  0.3961
 5545SOL    HW128271   3.609   2.440   9.607  1.3177  0.3941  1.1019
 5545SOL    HW228272   3.671   2.365   9.493 -2.1287 -1.0844  2.9631
 5546SOL     OW28273   1.731   2.333   4.944 -0.0749  0.7615  0.3100
 5546SOL    HW128274   1.826   2.345   4.940 -0.3525  3.1207  0.7614
 5546SOL    HW228275   1.713   2.332   5.038 -0.7025  1.7995  0.1950
 5547SOL     OW28276   0.359   2.049   0.248  0.0061  1.0154 -0.5018
 5547SOL    HW128277   0.364   1.959   0.215  2.7609  0.6109  1.0862
 5547SOL    HW228278   0.363   2.097   0.165 -1.0427  0.9794 -0.5728
 5548SOL     OW28279   1.433   4.321  16.607  0.0532 -0.1627  0.0265
 5548SOL    HW128280   1.401   4.362  16.688 -1.4151  0.6821 -0.9776
 5548SOL    HW228281   1.354   4.319  16.553 -0.0756  1.9207  0.1495
 5549SOL     OW28282   0.527   3.478  15.034  0.1743  0.2062  0.0816
 5549SOL    HW128283   0.536   3.469  15.129 -1.3496 -1.4667  0.0651
 5549SOL    HW228284   0.510   3.386  15.014 -1.9788  0.8152 -0.9693
 5550SOL     OW28285   2.552   0.089  15.584 -0.4264  0.4482 -1.3085
 5550SOL    HW128286   2.520   0.177  15.562 -1.8249  0.4894  0.9120
 5550SOL    HW228287   2.560   0.089  15.679  3.2888 -0.3750 -1.6417
 5551SOL     OW28288   4.473   1.067   6.316 -0.4210 -0.4196 -0.4851
 5551SOL    HW128289   4.550   1.072   6.372  0.3133  0.4228 -1.5660
 5551SOL    HW228290   4.434   1.154   6.318  1.8118  0.6273 -2.5830
 5552SOL     OW28291   2.670   1.406   9.228 -0.0672 -0.3008 -0.0889
 5552SOL    HW128292   2.728   1.481   9.236  3.0096 -2.6871 -0.1268
 5552SOL    HW228293   2.723   1.336   9.267  2.3126  0.6497 -1.6222
 5553SOL     OW28294   0.315   0.365  16.431 -0.5971  0.2085 -0.0441
 5553SOL    HW128295   0.250   0.316  16.379 -1.7076  0.3228  1.2358
 5553SOL    HW228296   0.264   0.440  16.461 -4.0999 -1.5239 -1.5737
 5554SOL     OW28297   2.557   0.791   3.918  0.3601  0.4885  0.0841
 5554SOL    HW128298   2.641   0.752   3.895  1.0560  1.6263  0.6621
 5554SOL    HW228299   2.531   0.721   3.978 -0.6215  1.8716  1.2996
 5555SOL     OW28300   2.603   3.637  16.965 -0.2068 -0.2439 -0.7313
 5555SOL    HW128301   2.570   3.549  16.986  3.4174 -1.0329  1.5811
 5555SOL    HW228302   2.628   3.674  17.050  0.9719 -2.3684 -0.1401
 5556SOL     OW28303   3.192   2.808  16.986 -0.8236  0.3354 -0.0629
 5556SOL    HW128304   3.174   2.727  16.938 -1.2782  0.6430 -0.4226
 5556SOL    HW228305   3.181   2.767  17.072 -1.0042  0.7802  0.1276
 5557SOL     OW28306   3.856   2.980   3.263 -0.3959  0.3833  0.0708
 5557SOL    HW128307   3.892   2.902   3.222 -0.9532  0.3652 -0.3784
 5557SOL    HW228308   3.809   3.024   3.193 -2.4185 -0.1333  1.1112
 5558SOL     OW28309   1.550   0.688   7.150 -0.5898  0.0242  0.2890
 5558SOL    HW128310   1.625   0.682   7.092 -0.4162  1.2775  0.3870
 5558SOL    HW228311   1.548   0.779   7.180 -1.2649  0.9751 -2.7401
 5559SOL     OW28312   1.780   0.555  12.466  0.3744 -0.2182 -0.0660
 5559SOL    HW128313   1.756   0.646  12.446  2.4864  0.3362 -0.1216
 5559SOL    HW228314   1.868   0.557  12.428 -0.0060 -0.8343 -0.9830
 5560SOL     OW28315   0.196   1.339  10.121 -0.8142  0.0340  0.5802
 5560SOL    HW128316   0.262   1.362  10.186  0.2164  0.6846 -0.6877
 5560SOL    HW228317   0.128   1.301  10.177 -1.3735  1.4388  0.8544
 5561SOL     OW28318   0.458   3.007   5.100  0.3787  0.0125  0.6161
 5561SOL    HW128319   0.441   2.920   5.066  2.1910 -0.1186  0.0005
 5561SOL    HW228320   0.508   2.988   5.180  0.9021  2.5337  0.8965
 5562SOL     OW28321   0.351   1.267   1.451  0.1874  0.5338  0.4453
 5562SOL    HW128322   0.292   1.287   1.378  0.0094 -1.0104  0.1673
 5562SOL    HW228323   0.319   1.320   1.524 -1.0189 -0.3354  0.5495
 5563SOL     OW28324   4.044   4.142   5.474 -0.5978  0.1003 -0.0878
 5563SOL    HW128325   4.103   4.068   5.488 -0.1104  0.1919 -1.6059
 5563SOL    HW228326   4.013   4.130   5.384  1.7798 -1.6112 -0.6779
 5564SOL     OW28327   0.530   1.504   8.538  0.3151  0.4124 -0.2620
 5564SOL    HW128328   0.550   1.529   8.628  1.0483 -3.7749  0.7140
 5564SOL    HW228329   0.442   1.539   8.523 -0.1614 -1.3474 -1.4980
 5565SOL     OW28330   0.868   2.229   2.872 -0.4222  0.7202 -0.0876
 5565SOL    HW128331   0.835   2.238   2.783 -0.3350 -2.5082 -0.4409
 5565SOL    HW228332   0.856   2.321   2.898  4.5835  0.7648  2.0227
 5566SOL     OW28333   0.364   2.958   4.387 -0.1205  0.0134  0.2451
 5566SOL    HW128334   0.320   2.958   4.472  1.2586  0.7337  0.9481
 5566SOL    HW228335   0.453   2.966   4.420  0.8378 -0.8750 -2.1435
 5567SOL     OW28336   1.215   2.818  15.772 -0.4373 -0.5650 -0.0331
 5567SOL    HW128337   1.298   2.777  15.796 -0.2735 -0.5445 -0.5694
 5567SOL    HW228338   1.241   2.884  15.708 -1.8268  1.1659  1.1883
 5568SOL     OW28339   1.330   1.685   4.634  0.1699 -0.1070  0.5454
 5568SOL    HW128340   1.287   1.730   4.706  1.1570 -2.5964  2.6783
 5568SOL    HW228341   1.305   1.733   4.554  2.3346  0.0048 -0.0864
 5569SOL     OW28342   2.200   2.944   2.842 -0.5058  0.0239  0.3719
 5569SOL    HW128343   2.189   3.038   2.860 -1.6479 -0.5221  2.5420
 5569SOL    HW228344   2.192   2.916   2.933  2.2388 -1.0433  0.2766
 5570SOL     OW28345   0.750   1.658  12.997  0.5088  0.4005  0.7941
 5570SOL    HW128346   0.663   1.694  13.014  0.1337 -0.1268  0.0327
 5570SOL    HW228347   0.772   1.624  13.084 -0.9968 -1.6397  0.3900
 5571SOL     OW28348   3.866   0.329   9.490 -0.0792  0.1346  0.4278
 5571SOL    HW128349   3.919   0.371   9.423 -1.2007 -1.4489 -1.4780
 5571SOL    HW228350   3.811   0.267   9.440 -0.7393  2.4075 -1.6565
 5572SOL     OW28351   3.721   1.928   3.166  0.0596  0.4535  0.5553
 5572SOL    HW128352   3.700   1.872   3.240 -0.2063  0.6200  0.6076
 5572SOL    HW228353   3.793   1.980   3.202 -1.4128  2.7655  0.1708
 5573SOL     OW28354   0.819   2.121  13.440 -0.1287 -0.0493  0.5881
 5573SOL    HW128355   0.869   2.200  13.420  0.2962 -0.4193  0.1872
 5573SOL    HW228356   0.880   2.057  13.402  1.2719  0.8592  1.3289
 5574SOL     OW28357   1.207   0.548   5.919  0.2824  0.7062  0.2178
 5574SOL    HW128358   1.287   0.585   5.880 -0.6008  0.8446 -1.4694
 5574SOL    HW228359   1.197   0.606   5.994 -0.2479 -1.4061  1.7728
 5575SOL     OW28360   3.525   3.902  17.029 -0.5248 -0.6363 -0.2634
 5575SOL    HW128361   3.602   3.860  16.991  0.9670 -0.5789  2.6607
 5575SOL    HW228362   3.470   3.911  16.952  0.9153  3.6302 -0.7968
 5576SOL     OW28363   2.533   3.295  16.163  0.0261 -0.2473 -0.4409
 5576SOL    HW128364   2.561   3.208  16.133  1.8773  1.1922 -2.9317
 5576SOL    HW228365   2.498   3.272  16.248  1.0204  2.2023  0.6285
 5577SOL     OW28366   2.845   2.086   1.349 -0.0630 -0.2675  0.2778
 5577SOL    HW128367   2.836   2.126   1.436 -1.4268  0.6890 -0.2893
 5577SOL    HW228368   2.929   2.119   1.318 -0.1074 -0.9023 -0.4960
 5578SOL     OW28369   1.617   0.163   7.435 -0.2769  0.1285 -0.0026
 5578SOL    HW128370   1.574   0.249   7.439  0.6600  0.5561  0.7963
 5578SOL    HW228371   1.553   0.131   7.370 -0.3836 -0.3027  0.3158
 5579SOL     OW28372   2.056   1.856   3.767 -0.5847 -0.6282 -0.0239
 5579SOL    HW128373   1.965   1.841   3.744 -1.0390  0.1919  1.2445
 5579SOL    HW228374   2.065   1.941   3.724 -0.4882 -0.6944 -0.1342
 5580SOL     OW28375   2.469   3.377  16.832  0.4087  0.2096 -0.1647
 5580SOL    HW128376   2.410   3.441  16.792 -1.5833 -1.0527  0.7703
 5580SOL    HW228377   2.434   3.372  16.921 -3.3791  2.5754 -1.4887
 5581SOL     OW28378   4.268   0.348   5.023 -0.8499 -0.5534  0.1646
 5581SOL    HW128379   4.297   0.321   4.936 -2.1283  0.2268 -0.4913
 5581SOL    HW228380   4.324   0.299   5.084  2.3333  1.3643 -1.1835
 5582SOL     OW28381   3.612   4.605   0.810 -0.4840  0.1175 -0.4227
 5582SOL    HW128382   3.696   4.639   0.779 -1.3378  2.0622 -0.6196
 5582SOL    HW228383   3.630   4.595   0.904  1.4643 -0.8581 -0.9035
 5583SOL     OW28384   1.865   0.031   6.936  0.2172  0.5407 -0.1840
 5583SOL    HW128385   1.903   0.056   7.021  0.1001  1.5601 -0.4387
 5583SOL    HW228386   1.910   4.684   6.923 -1.4972 -0.7050  1.9919
 5584SOL     OW28387   0.532   4.405   8.171  0.4364 -0.1419 -0.0700
 5584SOL    HW128388   0.504   4.322   8.132  1.5335  0.0900 -1.3286
 5584SOL    HW228389   0.586   4.370   8.242 -1.8826 -0.5681  1.4983
 5585SOL     OW28390   4.229   4.662   7.259 -0.3234 -0.0446 -0.3851
 5585SOL    HW128391   4.283   4.584   7.248 -0.6635 -0.6182  1.8651
 5585SOL    HW228392   4.282   4.726   7.213  1.2710 -1.3759 -0.4222
 5586SOL     OW28393   3.411   2.786   8.697 -0.7028 -0.5314 -0.3779
 5586SOL    HW128394   3.359   2.818   8.622  2.0865 -0.1149 -2.1260
 5586SOL    HW228395   3.469   2.857   8.724 -1.5165 -0.1743  0.4387
 5587SOL     OW28396   1.676   0.666   2.865  0.1438  0.2007 -0.8719
 5587SOL    HW128397   1.637   0.665   2.952  0.5351  0.6915 -0.6911
 5587SOL    HW228398   1.621   0.605   2.816  0.8506 -1.7586  0.7918
 5588SOL     OW28399   1.187   3.216   4.454  0.4688 -0.6153 -0.0529
 5588SOL    HW128400   1.265   3.197   4.402  0.7700 -0.0257  0.1774
 5588SOL    HW228401   1.209   3.303   4.489  0.0178 -0.4122 -0.2759
 5589SOL     OW28402   0.390   3.425   4.774 -0.0708  0.7810 -0.7402
 5589SOL    HW128403   0.320   3.488   4.756  2.6225  4.4733  1.6576
 5589SOL    HW228404   0.441   3.444   4.695 -0.4433  1.8965 -0.7119
 5590SOL     OW28405   3.946   1.594   1.988  0.4646 -0.0757 -1.0259
 5590SOL    HW128406   3.902   1.509   1.985 -0.8011  0.5280  0.3804
 5590SOL    HW228407   3.923   1.637   1.905 -1.1007 -0.8648 -1.0010
 5591SOL     OW28408   1.637   1.516   0.746  0.3950 -0.0436  0.3997
 5591SOL    HW128409   1.722   1.559   0.739  0.4194 -0.0758  0.4954
 5591SOL    HW228410   1.655   1.432   0.704 -2.4621  0.4195 -1.6832
 5592SOL     OW28411   3.056   2.515   6.327 -0.5364  0.2889  0.4657
 5592SOL    HW128412   2.961   2.520   6.314 -0.6763 -1.7558  0.7332
 5592SOL    HW228413   3.083   2.431   6.289  0.8172  1.6327 -1.4971
 5593SOL     OW28414   1.478   4.163  17.292 -0.1065  0.5467 -0.2856
 5593SOL    HW128415   1.395   4.117  17.283  0.9185 -1.8407  2.5855
 5593SOL    HW228416   1.464   4.221  17.368 -1.5084 -1.2726  0.8297
 5594SOL     OW28417   4.168   0.237   4.246 -0.0367 -0.1243  0.2319
 5594SOL    HW128418   4.243   0.181   4.228  0.7927  0.4688  1.8716
 5594SOL    HW228419   4.121   0.235   4.162 -0.0415 -0.6528  0.2449
 5595SOL     OW28420   0.297   1.345   1.930  0.2855  0.0798 -0.3035
 5595SOL    HW128421   0.203   1.340   1.948  0.0226  0.3462 -1.5428
 5595SOL    HW228422   0.325   1.342   2.021 -0.7559 -1.4585 -0.0279
 5596SOL     OW28423   1.680   3.453   5.062 -0.2149 -0.1948  0.2103
 5596SOL    HW128424   1.633   3.536   5.057 -0.6255 -0.4755 -0.7469
 5596SOL    HW228425   1.619   3.392   5.105  1.1091 -1.5827  0.1118
 5597SOL     OW28426   3.756   3.172   9.017 -0.0250  0.4076 -0.2185
 5597SOL    HW128427   3.712   3.099   9.061  1.8650 -1.3195 -1.1832
 5597SOL    HW228428   3.682   3.227   8.991  0.6246  1.4759  0.2009
 5598SOL     OW28429   1.749   0.393   7.007  0.5670  0.0853 -0.7074
 5598SOL    HW128430   1.751   0.368   7.099  0.7602  0.5650 -0.5820
 5598SOL    HW228431   1.685   0.334   6.968  2.4636 -1.6624 -1.1712
 5599SOL     OW28432   4.076   2.225   0.593 -0.2506 -0.0793  0.4797
 5599SOL    HW128433   4.113   2.267   0.670  0.2849 -1.1546  0.8072
 5599SOL    HW228434   4.143   2.226   0.525 -0.2767 -1.5237  0.4413
 5600SOL     OW28435   2.547   2.713   5.959 -0.4268  0.1839 -0.2536
 5600SOL    HW128436   2.616   2.744   6.018  1.2023 -0.5984 -1.7770
 5600SOL    HW228437   2.582   2.632   5.923  0.3211 -0.4946  1.9635
 5601SOL     OW28438   1.507   0.738   5.796 -0.1201  0.2649 -0.1198
 5601SOL    HW128439   1.480   0.826   5.769  0.4284  0.6321  0.5356
 5601SOL    HW228440   1.584   0.757   5.850 -0.6408 -1.0937  1.1086
 5602SOL     OW28441   1.338   3.624   5.560  0.3352  0.0518  0.0926
 5602SOL    HW128442   1.376   3.647   5.645  0.7835 -0.8792  0.1442
 5602SOL    HW228443   1.411   3.601   5.504  0.1198  0.4012 -0.3294
 5603SOL     OW28444   1.656   2.895   5.671 -0.2126  0.0958  0.1400
 5603SOL    HW128445   1.691   2.976   5.707  1.3531 -1.2388  1.6554
 5603SOL    HW228446   1.722   2.826   5.682  1.0954  1.0046 -2.1214
 5604SOL     OW28447   0.337   3.512   2.700 -0.4514 -0.1600  0.1535
 5604SOL    HW128448   0.425   3.499   2.735  0.1262 -0.8261 -1.5698
 5604SOL    HW228449   0.286   3.452   2.754 -0.9146 -0.7433 -0.9202
 5605SOL     OW28450   1.323   2.338  13.057  0.0226 -0.4536  0.4122
 5605SOL    HW128451   1.405   2.378  13.029 -0.1274 -1.4066 -1.3930
 5605SOL    HW228452   1.333   2.252  13.017 -1.1250  0.3781 -1.6804
 5606SOL     OW28453   1.523   0.030   6.006 -0.5765  0.7145  0.5829
 5606SOL    HW128454   1.588   4.717   6.055 -1.7129  0.1173  1.4713
 5606SOL    HW228455   1.446   0.008   6.058  0.2209 -1.9718  0.6060
 5607SOL     OW28456   0.461   1.304   6.932 -0.0960  0.0990  0.2593
 5607SOL    HW128457   0.458   1.362   7.008 -0.6003 -1.0068  1.0859
 5607SOL    HW228458   0.381   1.332   6.889 -1.4359 -2.4081  1.1468
 5608SOL     OW28459   2.574   2.564   7.244  0.4331  0.0705 -0.2796
 5608SOL    HW128460   2.594   2.575   7.151 -0.1515 -1.2349 -0.5632
 5608SOL    HW228461   2.603   2.475   7.262  0.1388 -0.4390 -2.2846
 5609SOL     OW28462   2.885   1.361   5.857  0.8311 -0.3728  0.4017
 5609SOL    HW128463   2.793   1.366   5.833  1.4017 -0.7301 -1.8691
 5609SOL    HW228464   2.898   1.270   5.882 -0.1536  0.0425  2.4498
 5610SOL     OW28465   3.309   1.871   9.337  0.0052 -0.1124 -0.1036
 5610SOL    HW128466   3.395   1.906   9.359  0.9897 -4.5610  3.3232
 5610SOL    HW228467   3.324   1.813   9.262 -1.3127 -1.9667  1.0583
 5611SOL     OW28468   2.474   3.525   0.003  0.3263 -0.3120 -0.5877
 5611SOL    HW128469   2.467   3.608  17.702  0.7522 -0.5623 -1.1051
 5611SOL    HW228470   2.414   3.473  17.695  0.3148  0.1166 -0.9881
 5612SOL     OW28471   3.737   0.271   5.147 -0.8602 -0.1327  0.3097
 5612SOL    HW128472   3.802   0.222   5.197 -0.7201  0.3926  0.6438
 5612SOL    HW228473   3.662   0.236   5.195 -1.5252 -1.9780 -2.1009
 5613SOL     OW28474   1.384   2.546  12.391 -0.2264  0.2691 -0.7957
 5613SOL    HW128475   1.289   2.559  12.387 -0.0716  2.1198  1.5091
 5613SOL    HW228476   1.381   2.450  12.389 -2.2369  0.3393 -1.4186
 5614SOL     OW28477   1.009   1.282  13.631  0.0774  0.2637  0.0256
 5614SOL    HW128478   1.045   1.196  13.610 -2.7199 -1.1654  1.0405
 5614SOL    HW228479   1.082   1.308  13.687 -0.5621  1.2349  0.3986
 5615SOL     OW28480   0.150   0.967   2.051 -0.2656 -0.4979 -0.0729
 5615SOL    HW128481   0.145   1.016   2.133  1.8809 -2.0819  1.0149
 5615SOL    HW228482   0.061   0.982   2.020  0.6795  1.2802 -1.8435
 5616SOL     OW28483   1.347   2.365   6.067 -0.2033 -0.2450 -0.2433
 5616SOL    HW128484   1.343   2.341   5.974 -2.1110  0.0901 -0.2568
 5616SOL    HW228485   1.310   2.284   6.101  0.0612  0.9170  2.8485
 5617SOL     OW28486   3.420   0.434   8.949  0.2476 -0.4102 -0.2519
 5617SOL    HW128487   3.405   0.341   8.935  1.1477 -0.5124 -0.5511
 5617SOL    HW228488   3.336   0.478   8.937 -1.2283 -2.7407  1.7839
 5618SOL     OW28489   0.293   2.662   0.461 -0.4202 -0.1241  0.2367
 5618SOL    HW128490   0.329   2.727   0.401 -0.9795 -1.6744 -1.7637
 5618SOL    HW228491   0.200   2.663   0.441 -0.4669  0.4222  0.4878
 5619SOL     OW28492   3.327   2.292   3.704 -0.0661  0.2243  0.0009
 5619SOL    HW128493   3.236   2.272   3.684  0.1026 -1.2369  0.7240
 5619SOL    HW228494   3.372   2.222   3.657  0.6083  1.1961 -0.8029
 5620SOL     OW28495   2.105   3.725  10.472  0.1063  0.3480 -0.5690
 5620SOL    HW128496   2.067   3.702  10.387 -1.7781 -0.7125  0.5693
 5620SOL    HW228497   2.024   3.761  10.509  0.8370 -0.2057  1.5577
 5621SOL     OW28498   2.051   0.423   2.679 -0.0726 -0.0630  0.1982
 5621SOL    HW128499   1.988   0.352   2.669 -0.6116  0.3982  0.3662
 5621SOL    HW228500   2.009   0.483   2.739  0.5919  1.6824 -1.0891
 5622SOL     OW28501   4.381   3.786   4.271 -0.5491 -0.0042 -0.3453
 5622SOL    HW128502   4.403   3.830   4.353 -1.4745  0.1689 -0.1818
 5622SOL    HW228503   4.393   3.856   4.207  3.2830 -1.4932 -1.2110
 5623SOL     OW28504   0.961   3.024   9.598  0.3215  0.0703  0.6662
 5623SOL    HW128505   0.948   3.050   9.689 -1.3695  0.2680  0.3714
 5623SOL    HW228506   0.914   2.942   9.586 -0.5948  0.7866 -0.8021
 5624SOL     OW28507   1.937   2.300   9.433 -0.1130  0.5209  0.0945
 5624SOL    HW128508   1.874   2.255   9.489  0.9436 -1.7598 -0.5105
 5624SOL    HW228509   1.994   2.349   9.492 -0.4534  1.9110 -0.7576
 5625SOL     OW28510   1.350   3.126   6.674  0.0107 -0.2691 -0.7339
 5625SOL    HW128511   1.273   3.080   6.641 -1.5511  1.5162  0.3812
 5625SOL    HW228512   1.360   3.177   6.593 -1.0906  1.5358  0.2789
 5626SOL     OW28513   2.298   3.855   5.576 -0.4644  0.2876  0.1713
 5626SOL    HW128514   2.308   3.807   5.658  0.3553 -0.0899 -0.1459
 5626SOL    HW228515   2.308   3.793   5.503  1.3196  1.0258 -0.2095
 5627SOL     OW28516   3.041   0.132   6.597 -0.6021 -0.1339 -0.4957
 5627SOL    HW128517   3.129   0.161   6.573  0.4348 -2.5882  0.3690
 5627SOL    HW228518   3.025   0.187   6.674 -0.4873 -1.0567  0.1845
 5628SOL     OW28519   1.138   2.893   8.338 -0.2127  0.3172  0.0638
 5628SOL    HW128520   1.114   2.932   8.255 -2.0243 -4.1671 -1.5520
 5628SOL    HW228521   1.097   2.808   8.321 -0.2299  0.2509  0.4330
 5629SOL     OW28522   4.032   2.918  15.394 -0.3642  0.2558 -0.8408
 5629SOL    HW128523   3.993   3.003  15.417  0.1065  0.5097 -0.9751
 5629SOL    HW228524   4.088   2.951  15.324  1.1495  0.8979  0.6729
 5630SOL     OW28525   4.504   0.621   4.948  0.5536 -0.1325 -0.6381
 5630SOL    HW128526   4.432   0.654   4.895  1.3379 -1.8931 -2.8287
 5630SOL    HW228527   4.551   0.576   4.877 -2.5697 -2.5856 -1.1390
 5631SOL     OW28528   3.882   2.633   9.829 -0.4827 -0.5696 -0.3504
 5631SOL    HW128529   3.845   2.609   9.914  0.5755 -0.2730  0.1907
 5631SOL    HW228530   3.969   2.641   9.866 -0.5538  0.1483 -0.3388
 5632SOL     OW28531   4.130   1.289  17.631 -0.1407 -0.4410  0.2663
 5632SOL    HW128532   4.037   1.277  17.649  0.1044  0.4878  2.0681
 5632SOL    HW228533   4.146   1.382  17.645 -1.5966  0.2180 -2.4110
 5633SOL     OW28534   4.181   3.540   7.414  0.6431 -0.4257  0.1508
 5633SOL    HW128535   4.156   3.518   7.504 -1.1710 -1.5752 -0.6323
 5633SOL    HW228536   4.158   3.462   7.363  1.1107  0.0623 -0.7938
 5634SOL     OW28537   2.599   4.523   5.457  0.0564  0.0894 -0.1249
 5634SOL    HW128538   2.513   4.495   5.487 -0.5159  0.7476 -1.1445
 5634SOL    HW228539   2.607   4.598   5.516 -2.0757 -1.1569  1.7328
 5635SOL     OW28540   0.472   2.560   7.702  0.4431 -0.3482  0.5955
 5635SOL    HW128541   0.441   2.585   7.615  0.2234  0.1931  0.8322
 5635SOL    HW228542   0.408   2.492   7.724 -1.7908  1.2805 -1.0234
 5636SOL     OW28543   4.502   1.553   7.159  0.3723 -0.1014 -0.0910
 5636SOL    HW128544   4.435   1.509   7.212  0.3702 -1.0369 -0.8687
 5636SOL    HW228545   4.560   1.578   7.230 -0.2465 -1.0331  0.7404
 5637SOL     OW28546   2.883   2.759   8.915  0.0850 -0.2285  0.5196
 5637SOL    HW128547   2.957   2.705   8.943  0.4060 -0.0153  0.0718
 5637SOL    HW228548   2.917   2.849   8.919 -2.7888  0.8123  1.7019
 5638SOL     OW28549   0.325   2.372   0.351 -0.3165 -0.2455  0.1600
 5638SOL    HW128550   0.392   2.383   0.284  1.8289 -0.1083  2.3538
 5638SOL    HW228551   0.342   2.457   0.392  2.2479 -0.8019  0.2689
 5639SOL     OW28552   0.592   3.488   9.338  0.3060  0.0503  0.0864
 5639SOL    HW128553   0.577   3.418   9.401  1.2933  0.2069  0.4915
 5639SOL    HW228554   0.644   3.446   9.270 -0.5928 -0.0723 -0.5221
 5640SOL     OW28555   3.105   0.833   9.745  0.4219  0.2573 -0.0309
 5640SOL    HW128556   3.130   0.803   9.658  0.4130 -0.7347  0.3087
 5640SOL    HW228557   3.053   0.755   9.766  3.0875 -1.4999  0.0499
 5641SOL     OW28558   0.154   1.728   9.447 -0.2982  0.9316  0.2914
 5641SOL    HW128559   0.160   1.792   9.376  1.0609  2.0589  1.4232
 5641SOL    HW228560   0.151   1.787   9.522 -1.4515 -1.7618  2.3719
 5642SOL     OW28561   0.473   3.160   2.766 -0.2740  0.2417 -0.2328
 5642SOL    HW128562   0.482   3.253   2.745  1.1875 -0.2729 -1.9062
 5642SOL    HW228563   0.553   3.121   2.732 -0.2294 -1.1694  1.5167
 5643SOL     OW28564   2.420   1.602  17.503 -0.4912  0.2543 -0.2427
 5643SOL    HW128565   2.328   1.580  17.520 -0.4011 -0.7541 -1.0372
 5643SOL    HW228566   2.415   1.601  17.407  0.0001  2.0113 -0.2943
 5644SOL     OW28567   2.487   2.369   3.607  0.4615 -0.1904 -0.1152
 5644SOL    HW128568   2.448   2.422   3.537 -0.6612 -0.6364  0.1746
 5644SOL    HW228569   2.421   2.370   3.676 -0.8933 -1.8356 -1.3762
 5645SOL     OW28570   2.372   0.421  12.367 -0.1958  0.3352 -1.0904
 5645SOL    HW128571   2.356   0.515  12.355 -2.1705  0.2125  0.6026
 5645SOL    HW228572   2.289   0.392  12.329  0.3315 -0.8699 -1.3114
 5646SOL     OW28573   3.168   0.729   9.495  0.4294  0.6646  0.2375
 5646SOL    HW128574   3.147   0.788   9.422 -1.8249  1.1177  1.2580
 5646SOL    HW228575   3.158   0.640   9.463 -0.8699  0.5331  1.0010
 5647SOL     OW28576   4.719   0.674   9.292 -0.0819  0.1472  0.3206
 5647SOL    HW128577   4.731   0.759   9.335  1.9804 -0.0472  0.1027
 5647SOL    HW228578   4.674   0.703   9.213  0.5019 -0.5021 -0.2442
 5648SOL     OW28579   4.093   3.115   1.986  0.1819  0.1599 -0.3595
 5648SOL    HW128580   4.070   3.160   2.067 -0.2254  0.3684 -0.5907
 5648SOL    HW228581   4.055   3.169   1.917 -2.2746  1.4345  1.9872
 5649SOL     OW28582   1.820   4.622   2.041  0.1346  0.2639 -0.8250
 5649SOL    HW128583   1.820   4.693   2.105  0.4391 -0.2864 -0.2192
 5649SOL    HW228584   1.892   4.653   1.987  2.8712  0.2084  2.8306
 5650SOL     OW28585   4.364   0.930   8.729 -0.4016  0.7993  0.0626
 5650SOL    HW128586   4.364   0.980   8.647  2.0355 -0.8668 -0.9665
 5650SOL    HW228587   4.382   0.991   8.800  1.8835  1.2229 -0.8709
 5651SOL     OW28588   1.850   2.730   7.953  0.1175  0.3212 -0.7631
 5651SOL    HW128589   1.915   2.722   8.022  1.0905  0.6671 -1.6346
 5651SOL    HW228590   1.827   2.822   7.954  0.2493  0.3076  4.1677
 5652SOL     OW28591   4.161   2.240  16.386 -0.1312 -0.3065 -0.0991
 5652SOL    HW128592   4.243   2.283  16.414 -0.8642 -1.1825  3.3239
 5652SOL    HW228593   4.117   2.318  16.353  0.7049  0.6747  1.0652
 5653SOL     OW28594   0.160   1.092   5.957 -0.3305  0.4754 -0.0873
 5653SOL    HW128595   0.147   1.067   5.865 -0.5853 -1.4956  0.4780
 5653SOL    HW228596   0.202   1.177   5.943  0.3332 -0.0386 -1.2874
 5654SOL     OW28597   3.725   2.790   1.357  0.0535 -0.5554 -0.1951
 5654SOL    HW128598   3.709   2.717   1.417 -0.9638  0.2942  0.5624
 5654SOL    HW228599   3.812   2.776   1.319 -0.2527 -0.0878 -1.0587
 5655SOL     OW28600   1.050   2.224  17.595  0.2492  0.2153  0.8598
 5655SOL    HW128601   1.128   2.247  17.545  0.0044  0.1258  0.4412
 5655SOL    HW228602   1.082   2.200  17.683  2.2321  2.4044  0.7455
 5656SOL     OW28603   0.459   1.447   3.837 -0.2288  0.1274  0.4344
 5656SOL    HW128604   0.475   1.390   3.912  1.3166  1.0347  0.8113
 5656SOL    HW228605   0.502   1.531   3.855  1.5086 -0.6387 -0.0909
 5657SOL     OW28606   1.701   0.659   0.076 -0.1296 -0.2107 -0.0976
 5657SOL    HW128607   1.689   0.669  17.727  2.0476  1.6859 -0.1511
 5657SOL    HW228608   1.708   0.749   0.107  0.9836  0.4185 -2.2395
 5658SOL     OW28609   3.141   3.483  10.705  0.1433 -0.4883 -0.1104
 5658SOL    HW128610   3.151   3.440  10.790 -0.7093  1.2656  0.9073
 5658SOL    HW228611   3.122   3.574  10.729  0.9987 -0.6194  1.0786
 5659SOL     OW28612   0.355   2.859  14.532  0.0702 -0.0958 -0.1636
 5659SOL    HW128613   0.445   2.828  14.537  0.0791  0.1060  1.0451
 5659SOL    HW228614   0.361   2.907  14.450  0.2635  0.7968  0.3661
 5660SOL     OW28615   0.377   1.538   5.129 -0.4003 -0.2886 -0.1033
 5660SOL    HW128616   0.450   1.563   5.072  0.0400 -1.4699 -0.0529
 5660SOL    HW228617   0.307   1.550   5.065  0.5752  1.7516 -0.7972
 5661SOL     OW28618   0.999   1.793   9.162 -0.7389  0.1917  0.0518
 5661SOL    HW128619   0.986   1.751   9.077 -0.4401  0.5466 -0.1724
 5661SOL    HW228620   0.961   1.881   9.151  1.0377  1.0594  0.9274
 5662SOL     OW28621   1.745   4.209   0.643  0.1063  0.4729 -0.2619
 5662SOL    HW128622   1.725   4.125   0.602  1.5171  1.7221 -3.4633
 5662SOL    HW228623   1.653   4.237   0.648 -0.1449 -0.3196 -0.4378
 5663SOL     OW28624   0.437   2.411  15.489  0.3064 -0.2371 -0.3312
 5663SOL    HW128625   0.431   2.340  15.552  0.5110  1.3691  1.5088
 5663SOL    HW228626   0.367   2.396  15.426  0.1418  0.8947 -0.4232
 5664SOL     OW28627   3.677   2.125   1.632 -0.1882  0.5712  0.1805
 5664SOL    HW128628   3.735   2.115   1.557  1.6088  1.9807  1.3793
 5664SOL    HW228629   3.644   2.035   1.643  2.2022 -0.4162 -0.8603
 5665SOL     OW28630   3.296   2.401   5.002  0.2063  0.0926  0.1476
 5665SOL    HW128631   3.288   2.398   4.906  0.7258  0.0876  0.1062
 5665SOL    HW228632   3.255   2.485   5.025 -2.9230 -1.2015 -0.7122
 5666SOL     OW28633   3.775   2.698   9.597  0.4180 -0.7586 -0.1898
 5666SOL    HW128634   3.826   2.684   9.677  0.2143  2.1473  0.4692
 5666SOL    HW228635   3.731   2.616   9.576 -0.7635 -0.3049  0.5127
 5667SOL     OW28636   4.189   2.402   1.347  0.0757  0.5220  0.1647
 5667SOL    HW128637   4.277   2.419   1.378 -0.0647 -0.3137  0.9985
 5667SOL    HW228638   4.207   2.318   1.306 -0.5219  1.0467 -1.1867
 5668SOL     OW28639   0.417   2.231   2.940 -0.3027  0.4973 -0.1811
 5668SOL    HW128640   0.502   2.186   2.940 -0.4938  0.1315 -1.6887
 5668SOL    HW228641   0.413   2.267   3.028  1.0221 -0.3995  0.2465
 5669SOL     OW28642   0.511   4.326  14.610  0.2426  0.2889 -0.1876
 5669SOL    HW128643   0.459   4.405  14.591 -0.8948 -0.2568  0.6790
 5669SOL    HW228644   0.439   4.268  14.586  0.0760  1.1655 -1.8056
 5670SOL     OW28645   2.757   2.971  10.043 -0.0871  0.5709  0.2178
 5670SOL    HW128646   2.708   2.916  10.105 -1.9090  2.6306  0.6414
 5670SOL    HW228647   2.833   2.914  10.031  0.6281  1.6652 -0.4355
 5671SOL     OW28648   1.880   3.651   6.575  0.4406 -0.2253 -0.0316
 5671SOL    HW128649   1.955   3.603   6.539 -0.5034 -0.6469 -1.4326
 5671SOL    HW228650   1.820   3.579   6.596 -0.5276  0.1684 -1.4688
 5672SOL     OW28651   2.222   0.135  15.108  0.1902  0.4726  0.2418
 5672SOL    HW128652   2.159   0.116  15.040  0.3216 -0.8634  0.4878
 5672SOL    HW228653   2.195   0.218  15.148 -0.5646 -0.6102  1.9695
 5673SOL     OW28654   0.023   2.484   3.077  0.0267  0.1769  0.9820
 5673SOL    HW128655   4.716   2.556   3.032 -0.1435 -0.5462 -0.0290
 5673SOL    HW228656   0.116   2.495   3.056 -0.0424 -0.3914  0.3742
 5674SOL     OW28657   0.443   3.548  11.223  0.6119  0.3176  0.3490
 5674SOL    HW128658   0.365   3.600  11.244  0.4228  0.1551  0.0528
 5674SOL    HW228659   0.464   3.584  11.136  0.8424  1.2401  0.7845
 5675SOL     OW28660   2.645   2.808   7.349  0.2301 -0.0552 -0.4724
 5675SOL    HW128661   2.637   2.868   7.275 -0.3624  1.2409  0.6651
 5675SOL    HW228662   2.639   2.723   7.304  1.5683  0.8063 -2.2585
 5676SOL     OW28663   2.493   2.052   8.291  0.2942  0.1759  0.3925
 5676SOL    HW128664   2.425   2.110   8.256 -0.3002 -0.0719  1.1408
 5676SOL    HW228665   2.536   2.021   8.211  1.1634  3.4009 -0.3817
 5677SOL     OW28666   1.255   2.119   6.566  0.4803 -0.0191 -0.9032
 5677SOL    HW128667   1.254   2.029   6.534 -0.9619 -0.2094 -0.3455
 5677SOL    HW228668   1.161   2.139   6.566 -0.0232 -2.3432 -0.2588
 5678SOL     OW28669   1.060   0.583  17.465  0.2801 -0.1536 -0.0247
 5678SOL    HW128670   1.107   0.559  17.544  2.6908 -3.2622 -2.3688
 5678SOL    HW228671   1.036   0.499  17.426  1.0124 -0.2770 -0.2017
 5679SOL     OW28672   0.661   2.046  14.358 -0.4690 -0.2747 -0.7661
 5679SOL    HW128673   0.582   2.081  14.318 -1.0910 -0.4481  0.3089
 5679SOL    HW228674   0.625   1.978  14.415  0.1231 -0.2657 -0.3778
 5680SOL     OW28675   4.102   3.519   7.721 -0.2711 -0.6129  0.3879
 5680SOL    HW128676   4.184   3.486   7.758 -0.6569  0.0830  1.8834
 5680SOL    HW228677   4.042   3.473   7.779 -0.1925 -0.2417  0.7682
 5681SOL     OW28678   3.030   3.805  13.520  0.5355 -0.1500 -0.1311
 5681SOL    HW128679   3.057   3.855  13.597  1.4438  0.3284 -0.7624
 5681SOL    HW228680   2.968   3.863  13.477  1.1262  1.3713  1.0399
 5682SOL     OW28681   1.626   2.468   5.334  0.5670 -0.0630 -0.0146
 5682SOL    HW128682   1.645   2.388   5.285 -1.9548 -0.0188 -1.0539
 5682SOL    HW228683   1.589   2.426   5.412 -1.1734 -0.9253 -1.2917
 5683SOL     OW28684   1.316   1.865  16.833 -0.0573  0.4405  0.2317
 5683SOL    HW128685   1.358   1.937  16.880 -0.7632  1.3840 -0.5663
 5683SOL    HW228686   1.369   1.794  16.870  1.3087  0.6160 -1.4000
 5684SOL     OW28687   2.061   1.507   4.378 -0.7204 -0.0343 -0.1451
 5684SOL    HW128688   2.004   1.440   4.415  0.6584 -1.2230 -0.1431
 5684SOL    HW228689   2.000   1.578   4.398  0.2016  1.8225 -3.7966
 5685SOL     OW28690   0.199   2.025   4.568 -0.2531 -0.3859 -0.0952
 5685SOL    HW128691   0.211   2.104   4.514  0.1580 -1.3302 -1.3781
 5685SOL    HW228692   0.115   1.995   4.534 -1.0156  1.6156  0.0043
 5686SOL     OW28693   2.371   1.011   2.594 -0.1700 -0.0093  0.2194
 5686SOL    HW128694   2.439   1.038   2.532 -0.9690 -0.4904 -0.8754
 5686SOL    HW228695   2.405   0.928   2.627  0.8505  0.3004 -0.0491
 5687SOL     OW28696   2.927   3.595   4.533 -0.6057 -0.2403  0.3164
 5687SOL    HW128697   2.940   3.689   4.540 -2.8806  0.1860 -1.3440
 5687SOL    HW228698   2.986   3.572   4.605 -2.2754  0.3898  1.8638
 5688SOL     OW28699   0.278   3.275  15.570  0.4247 -0.6336 -0.1838
 5688SOL    HW128700   0.202   3.217  15.570  0.0071 -0.0778  3.1226
 5688SOL    HW228701   0.301   3.284  15.478 -2.4632  0.4712 -0.7964
 5689SOL     OW28702   1.133   1.628   6.504 -0.7343  0.1345 -0.0676
 5689SOL    HW128703   1.170   1.565   6.567  0.1539  1.5685  0.8366
 5689SOL    HW228704   1.176   1.591   6.428 -2.4204 -1.4943 -0.2482
 5690SOL     OW28705   0.210   0.212   8.073  0.0570  0.1236 -0.3134
 5690SOL    HW128706   0.145   0.153   8.036  0.5223  0.9578 -2.4908
 5690SOL    HW228707   0.260   0.161   8.136  1.4646 -1.1161 -2.4327
 5691SOL     OW28708   0.545   1.545   7.750 -0.0155  0.2417 -0.2808
 5691SOL    HW128709   0.568   1.633   7.777  1.8249 -0.3557  0.1128
 5691SOL    HW228710   0.629   1.509   7.721  0.6036  0.5723  1.1272
 5692SOL     OW28711   0.860   2.558  11.956  0.2548  0.2722 -0.5359
 5692SOL    HW128712   0.839   2.576  12.048 -2.3186  1.5489 -1.3608
 5692SOL    HW228713   0.789   2.498  11.936  1.3689 -1.6635  1.3399
 5693SOL     OW28714   1.952   0.924  10.719 -0.3481  0.4477 -0.7754
 5693SOL    HW128715   1.904   0.977  10.655  0.9232  0.4655 -1.7105
 5693SOL    HW228716   1.930   0.961  10.804  0.0136  0.5238 -0.7173
 5694SOL     OW28717   4.306   0.084   8.309  0.0068  0.2616  0.1887
 5694SOL    HW128718   4.232   0.105   8.366  0.3677 -0.1500  0.8210
 5694SOL    HW228719   4.302   0.149   8.239  1.6626  1.4444  1.1967
 5695SOL     OW28720   2.231   4.377  12.902 -0.7850  0.3822  0.3879
 5695SOL    HW128721   2.160   4.343  12.955 -0.1250 -0.5788  0.6538
 5695SOL    HW228722   2.264   4.297  12.861 -2.0150  0.4011 -0.6483
 5696SOL     OW28723   3.379   1.367  13.166 -0.0123  0.2458  0.0351
 5696SOL    HW128724   3.383   1.445  13.111  2.7796 -0.9863 -1.5186
 5696SOL    HW228725   3.404   1.308  13.095  1.1691  1.7357 -0.8001
 5697SOL     OW28726   3.989   3.439   3.175  0.3784 -0.0583 -0.1386
 5697SOL    HW128727   3.901   3.443   3.214 -0.1760 -0.5555 -1.3356
 5697SOL    HW228728   4.005   3.346   3.160  1.4651  0.1799 -0.4176
 5698SOL     OW28729   4.471   4.197   2.803  0.2947  0.3135  0.0999
 5698SOL    HW128730   4.498   4.285   2.825  0.6997  0.9387 -2.8244
 5698SOL    HW228731   4.534   4.176   2.734  0.5685 -2.0658  1.0480
 5699SOL     OW28732   3.200   2.685   5.946  0.1437 -0.5749  0.0114
 5699SOL    HW128733   3.276   2.638   5.912  1.6937  1.8681  0.1324
 5699SOL    HW228734   3.128   2.649   5.895  0.7780  2.5879 -3.0715
 5700SOL     OW28735   2.943   0.463   4.981  0.1500  0.4924 -0.2781
 5700SOL    HW128736   2.860   0.427   5.013  0.8326 -1.5649 -0.8466
 5700SOL    HW228737   2.936   0.421   4.895 -1.6269 -0.0416  0.1136
 5701SOL     OW28738   0.467   0.226   5.504  0.1407 -0.2307  0.5796
 5701SOL    HW128739   0.376   0.254   5.506 -0.0975 -1.1333  2.0158
 5701SOL    HW228740   0.473   0.221   5.599 -1.7268 -1.1258  0.6367
 5702SOL     OW28741   3.771   0.827   1.499 -0.0902 -0.0661 -0.8138
 5702SOL    HW128742   3.832   0.753   1.500 -1.4428 -1.1642 -0.7234
 5702SOL    HW228743   3.821   0.893   1.549  0.4310 -1.1680  0.1202
 5703SOL     OW28744   4.600   2.933  13.977 -0.1751  0.0261  0.5548
 5703SOL    HW128745   4.610   2.838  13.968 -1.3098  0.1938 -2.5922
 5703SOL    HW228746   4.552   2.930  14.060 -0.9747 -0.9686  0.0524
 5704SOL     OW28747   4.198   1.233   1.728 -0.0588 -0.3285  0.0928
 5704SOL    HW128748   4.136   1.224   1.656  0.3234 -2.5558  0.0616
 5704SOL    HW228749   4.152   1.222   1.811 -0.7014  1.5896 -0.0061
 5705SOL     OW28750   4.001   0.435   3.454  0.3051  0.1862  0.1044
 5705SOL    HW128751   4.082   0.428   3.505 -0.4891  0.8691  1.4543
 5705SOL    HW228752   4.012   0.363   3.392 -0.9367  0.7664 -0.8012
 5706SOL     OW28753   2.404   2.670   5.245 -0.9993  0.3149  0.0366
 5706SOL    HW128754   2.492   2.634   5.231  0.1472  2.6431  1.2522
 5706SOL    HW228755   2.403   2.674   5.341 -3.4947 -0.9881  0.0579
 5707SOL     OW28756   3.113   3.078  15.758 -0.4452 -1.2252  0.4242
 5707SOL    HW128757   3.077   3.111  15.676 -2.5918  0.5655  2.0778
 5707SOL    HW228758   3.202   3.114  15.764 -0.2607 -1.6184  0.0043
 5708SOL     OW28759   0.116   4.287   5.499 -0.4758  0.3043 -0.2605
 5708SOL    HW128760   0.139   4.204   5.540  1.0388  1.2675  0.7940
 5708SOL    HW228761   0.202   4.327   5.489 -0.6490  0.7491  0.0106
 5709SOL     OW28762   3.627   4.312  12.010  1.0014  0.2224 -0.5680
 5709SOL    HW128763   3.690   4.241  12.022 -1.5515 -2.0540 -0.5679
 5709SOL    HW228764   3.569   4.298  12.085 -0.3617 -0.4398 -1.7531
 5710SOL     OW28765   1.707   4.662   5.401 -0.0238  0.1075 -0.1866
 5710SOL    HW128766   1.785   4.682   5.452 -0.1579 -1.9660  0.8065
 5710SOL    HW228767   1.708   4.567   5.394  0.2342  0.0967  0.0157
 5711SOL     OW28768   3.678   1.774   2.154 -0.8792 -0.5665  0.6993
 5711SOL    HW128769   3.648   1.698   2.103  0.9893 -0.6747 -0.2413
 5711SOL    HW228770   3.731   1.819   2.088 -1.5234 -1.4792 -0.4451
 5712SOL     OW28771   3.976   2.556   3.013 -0.0205  0.1247  0.2934
 5712SOL    HW128772   3.917   2.483   2.992  0.0797  0.9018 -2.7428
 5712SOL    HW228773   4.058   2.514   2.987 -1.7037 -1.4624 -2.5403
 5713SOL     OW28774   2.058   3.975   2.205 -0.1315  0.0731  0.5305
 5713SOL    HW128775   1.966   3.954   2.188  0.6532 -1.7466 -1.4047
 5713SOL    HW228776   2.100   3.890   2.216  1.2693  0.4596 -1.7009
 5714SOL     OW28777   3.263   3.756   2.734  0.4916 -0.1500  0.2950
 5714SOL    HW128778   3.355   3.774   2.713  0.7653 -0.2405  1.3892
 5714SOL    HW228779   3.258   3.839   2.782 -2.7188  0.8062 -1.7780
 5715SOL     OW28780   2.519   4.729   3.325  0.5679  0.3063  0.1399
 5715SOL    HW128781   2.576   4.697   3.255 -0.5998 -0.8392 -0.2902
 5715SOL    HW228782   2.439   0.013   3.277  0.3133 -2.6298 -0.6842
 5716SOL     OW28783   2.480   2.782   4.216 -0.1760 -0.3575  0.3940
 5716SOL    HW128784   2.537   2.707   4.229  1.1558  0.5622 -0.2142
 5716SOL    HW228785   2.455   2.808   4.305 -0.2380 -3.7542  1.3629
 5717SOL     OW28786   0.469   0.359   4.285 -0.2795  0.4196 -0.0317
 5717SOL    HW128787   0.514   0.438   4.315  0.5365  0.3574 -1.0680
 5717SOL    HW228788   0.474   0.376   4.191 -1.8946  0.6639 -0.0669
 5718SOL     OW28789   2.104   1.918   6.603 -0.3675  0.3565  0.0366
 5718SOL    HW128790   2.080   2.011   6.597 -4.7303 -0.8495 -1.0619
 5718SOL    HW228791   2.173   1.900   6.539 -0.1589  0.3107  0.2747
 5719SOL     OW28792   3.108   0.562   8.620  0.3035 -0.3968 -0.0824
 5719SOL    HW128793   3.115   0.556   8.715  3.8065 -1.6575 -0.4365
 5719SOL    HW228794   3.017   0.589   8.605 -0.1243 -0.1214  2.9631
 5720SOL     OW28795   4.663   4.240  10.577  0.6597 -0.1431 -0.4755
 5720SOL    HW128796   4.637   4.151  10.599 -0.0334 -0.1725 -1.4384
 5720SOL    HW228797   4.592   4.290  10.618  0.5722 -0.6475 -0.0231
 5721SOL     OW28798   1.156   2.279   3.988  0.5760  0.0661  0.6030
 5721SOL    HW128799   1.149   2.372   4.008 -1.0500 -0.3200  1.7933
 5721SOL    HW228800   1.187   2.250   4.074  1.0322 -0.0035  0.4160
 5722SOL     OW28801   0.697   2.054   1.656  0.9222  0.2254  0.4302
 5722SOL    HW128802   0.700   2.002   1.577 -0.4607  1.0960 -0.1984
 5722SOL    HW228803   0.758   2.124   1.633  1.3053 -0.3010 -0.1290
 5723SOL     OW28804   3.770   0.718   7.050  0.0587 -0.4030  0.5171
 5723SOL    HW128805   3.774   0.623   7.066 -0.0626 -0.3956  0.5876
 5723SOL    HW228806   3.676   0.734   7.048  0.0802 -0.1488  1.3800
 5724SOL     OW28807   0.807   0.872   1.927  0.1754  0.1532  0.2448
 5724SOL    HW128808   0.742   0.813   1.888  0.5194 -1.2163  1.7498
 5724SOL    HW228809   0.830   0.915   1.845  0.0697 -0.1877  0.0364
 5725SOL     OW28810   1.496   3.203   1.847 -0.2552  0.3256  0.4957
 5725SOL    HW128811   1.439   3.131   1.820 -0.1361  0.2545  0.4314
 5725SOL    HW228812   1.560   3.182   1.778 -1.0771 -0.2606 -0.0965
 5726SOL     OW28813   1.112   1.701   7.391 -0.3002  0.5125  0.5153
 5726SOL    HW128814   1.156   1.741   7.466  0.2416  3.8646 -1.5848
 5726SOL    HW228815   1.114   1.607   7.408  1.3116  0.3248 -0.7852
 5727SOL     OW28816   1.437   4.690   1.336 -0.5853  0.2514  0.2497
 5727SOL    HW128817   1.345   4.680   1.359 -0.1345 -0.4681  1.7997
 5727SOL    HW228818   1.462   0.041   1.366  1.1943  0.0586 -0.6650
 5728SOL     OW28819   3.937   0.769   7.258  0.2466  0.1300  0.3399
 5728SOL    HW128820   3.884   0.773   7.178  1.3452 -1.6650 -0.4922
 5728SOL    HW228821   3.866   0.753   7.320  1.4753 -0.5381  1.5756
 5729SOL     OW28822   2.438   4.101  11.471 -0.2238  0.4160 -0.1087
 5729SOL    HW128823   2.430   4.074  11.563 -2.6061 -1.7253 -0.9507
 5729SOL    HW228824   2.525   4.068  11.447 -0.1863  0.5703 -0.1849
 5730SOL     OW28825   0.760   1.761  15.783  0.2523 -0.0776  0.2542
 5730SOL    HW128826   0.714   1.677  15.778 -1.2774  0.7693  0.1750
 5730SOL    HW228827   0.686   1.818  15.764 -1.9478 -2.9787  0.1943
 5731SOL     OW28828   0.734   2.335  11.245  0.2058 -0.7830  0.0806
 5731SOL    HW128829   0.745   2.245  11.277  1.8762  0.1176  2.0173
 5731SOL    HW228830   0.690   2.370  11.323 -2.7174 -0.2692 -1.8055
 5732SOL     OW28831   4.699   0.089  14.212 -0.3568 -0.3593  0.0497
 5732SOL    HW128832   0.004   0.002  14.206  1.1330  0.2112  2.1895
 5732SOL    HW228833   0.029   0.130  14.267 -1.8050 -0.4035  1.8067
 5733SOL     OW28834   1.888   0.387  11.902  0.2077 -0.4495 -0.3726
 5733SOL    HW128835   1.930   0.466  11.938 -1.7735  0.2244  0.4938
 5733SOL    HW228836   1.839   0.354  11.978  0.4371  1.8045  0.7771
 5734SOL     OW28837   3.183   2.262   8.383 -0.2728  0.4814 -0.5012
 5734SOL    HW128838   3.193   2.277   8.289  0.9772  2.4695 -0.0540
 5734SOL    HW228839   3.091   2.253   8.408 -0.2276 -0.0666 -0.5343
 5735SOL     OW28840   2.272   1.762   9.281  0.1695  0.1962  0.1235
 5735SOL    HW128841   2.361   1.791   9.263  0.4595 -1.5034 -1.1875
 5735SOL    HW228842   2.259   1.700   9.209 -1.2474  2.1550 -1.3282
 5736SOL     OW28843   1.608   2.152   3.782 -0.3877 -0.1367 -0.3278
 5736SOL    HW128844   1.616   2.098   3.704  3.3621 -3.0872  2.0926
 5736SOL    HW228845   1.623   2.242   3.752  2.5459 -0.8120 -0.9368
 5737SOL     OW28846   2.889   1.534   7.249 -0.7278  0.2091 -0.8786
 5737SOL    HW128847   2.962   1.526   7.187  1.0095 -0.4049  1.2557
 5737SOL    HW228848   2.859   1.443   7.254  1.4641 -0.6154 -2.5103
 5738SOL     OW28849   0.245   1.920   8.289  0.2484 -0.0932 -0.1738
 5738SOL    HW128850   0.167   1.920   8.345  0.1601 -0.8669 -0.2921
 5738SOL    HW228851   0.225   1.832   8.255  1.7602  0.3679 -2.2398
 5739SOL     OW28852   3.142   2.668   2.105  0.3394  0.1364  0.1767
 5739SOL    HW128853   3.164   2.725   2.179 -0.4461 -2.7658  2.6073
 5739SOL    HW228854   3.146   2.736   2.038 -1.6845  1.3243  1.2334
 5740SOL     OW28855   2.608   3.755  14.424  0.6236  0.2543  0.5880
 5740SOL    HW128856   2.520   3.739  14.458  0.2243  0.5963 -0.2976
 5740SOL    HW228857   2.611   3.684  14.361 -1.6526  0.5906  0.0867
 5741SOL     OW28858   0.294   3.347   1.712 -0.1420 -0.8724  0.4610
 5741SOL    HW128859   0.210   3.391   1.720  0.3757  0.0008  1.0904
 5741SOL    HW228860   0.257   3.259   1.722 -0.8998 -0.4467  1.3879
 5742SOL     OW28861   4.350   4.547   7.672  0.2039 -0.3661  0.0740
 5742SOL    HW128862   4.416   4.486   7.705  0.4263 -1.5181 -2.5187
 5742SOL    HW228863   4.409   4.611   7.632 -0.5328  1.4887  1.9644
 5743SOL     OW28864   1.397   4.398  14.611  0.3266  0.0787  0.1056
 5743SOL    HW128865   1.442   4.441  14.539  0.0394  3.2690  1.8049
 5743SOL    HW228866   1.467   4.387  14.676 -1.0099 -0.3669  1.4534
 5744SOL     OW28867   0.227   2.578   3.735  0.0198 -0.6511  0.2465
 5744SOL    HW128868   0.205   2.585   3.642  1.7620  0.7916 -0.0780
 5744SOL    HW228869   0.164   2.515   3.769 -0.0112  0.1626  1.6634
 5745SOL     OW28870   2.929   4.557   7.271  0.5588  0.0535 -0.3577
 5745SOL    HW128871   3.010   4.566   7.221  0.0419  1.3897 -0.9444
 5745SOL    HW228872   2.905   4.649   7.285 -0.2354 -0.1084 -0.6344
 5746SOL     OW28873   3.855   0.667   9.038  0.1178 -0.2348  0.0941
 5746SOL    HW128874   3.764   0.650   9.065  0.4282 -1.6584  0.2422
 5746SOL    HW228875   3.842   0.714   8.956  0.1966  2.3356  1.5445
 5747SOL     OW28876   1.074   4.505   4.427  0.8153 -0.0297  0.5731
 5747SOL    HW128877   1.049   4.521   4.336 -2.0266 -0.9196  1.1931
 5747SOL    HW228878   1.163   4.473   4.414  0.5608 -1.2060  1.7301
 5748SOL     OW28879   2.534   0.068   5.067 -0.0322  0.0098 -0.0915
 5748SOL    HW128880   2.508   4.716   5.040 -0.7441 -0.2724  1.4987
 5748SOL    HW228881   2.629   0.068   5.071 -0.0190  2.4271 -0.6597
 5749SOL     OW28882   1.779   0.107   2.980 -0.3227  0.0657 -0.1257
 5749SOL    HW128883   1.832   0.036   3.016  0.0356  0.7512  0.7215
 5749SOL    HW228884   1.772   0.170   3.053 -1.2929  0.9624 -0.9827
 5750SOL     OW28885   2.896   4.027   1.821 -0.2701 -0.2377 -0.1536
 5750SOL    HW128886   2.940   4.095   1.769 -1.6934  0.1111 -0.9066
 5750SOL    HW228887   2.975   3.988   1.858  0.4953 -0.7197 -2.3320
 5751SOL     OW28888   1.364   4.587  10.326  0.1886 -0.7283 -0.2219
 5751SOL    HW128889   1.297   4.652  10.345  1.8028  0.6117  0.8998
 5751SOL    HW228890   1.355   4.533  10.405 -1.5097 -2.1517 -1.3847
 5752SOL     OW28891   0.034   0.805   8.852  0.0844  0.5170 -0.0417
 5752SOL    HW128892   0.007   0.830   8.940 -0.3299  0.2304 -0.0833
 5752SOL    HW228893   4.702   0.740   8.836  2.8407 -1.9489 -2.0079
 5753SOL     OW28894   3.449   0.665  10.447 -0.2909 -0.4461  0.1557
 5753SOL    HW128895   3.445   0.575  10.414 -1.4537 -0.3238 -0.0532
 5753SOL    HW228896   3.392   0.707  10.383 -0.5322 -1.7327 -0.4608
 5754SOL     OW28897   1.747   1.853   8.229  0.4693 -0.0133  0.5662
 5754SOL    HW128898   1.809   1.816   8.166 -0.2891  0.0334 -0.2231
 5754SOL    HW228899   1.765   1.944   8.205  1.3132 -0.3683 -0.1741
 5755SOL     OW28900   3.564   3.618   4.100  0.2851  0.2416 -0.3197
 5755SOL    HW128901   3.656   3.594   4.107  0.3385  0.7890  0.8597
 5755SOL    HW228902   3.511   3.540   4.116  1.2280 -0.6392 -1.4745
 5756SOL     OW28903   0.937   2.244   7.661  0.0896 -0.3190  0.1973
 5756SOL    HW128904   0.969   2.255   7.572 -0.2999  1.6446  0.3038
 5756SOL    HW228905   0.921   2.334   7.690  1.6933  0.2223 -0.6002
 5757SOL     OW28906   3.785   0.238  12.772  0.0375  0.4231 -0.3634
 5757SOL    HW128907   3.880   0.240  12.771  0.0740 -1.8693 -0.9176
 5757SOL    HW228908   3.770   0.296  12.697  2.4205  0.5536 -0.7218
 5758SOL     OW28909   1.716   3.060   7.385 -0.8083 -0.9223 -0.1952
 5758SOL    HW128910   1.753   3.043   7.472 -0.3780 -1.1431 -0.4227
 5758SOL    HW228911   1.746   2.977   7.347  0.3553 -1.5901  2.1704
 5759SOL     OW28912   1.803   1.897   2.164 -0.1774  0.4647  0.1262
 5759SOL    HW128913   1.736   1.936   2.221  0.5257  0.6750  0.8099
 5759SOL    HW228914   1.799   1.804   2.188  0.9537  0.4465  0.2674
 5760SOL     OW28915   2.894   3.311   9.565 -0.0391  0.1244  0.1789
 5760SOL    HW128916   2.803   3.308   9.537 -0.6116 -1.7319  2.2163
 5760SOL    HW228917   2.897   3.241   9.631 -0.3086  0.6235  0.7257
 5761SOL     OW28918   3.196   4.722  11.633 -0.1621 -0.0866 -0.2613
 5761SOL    HW128919   3.238   0.004  11.717  0.9992  1.4140 -1.1726
 5761SOL    HW228920   3.255   4.660  11.591 -1.0360 -1.0045 -0.1287
 5762SOL     OW28921   0.540   2.413   6.525  0.8822 -1.0408  0.0438
 5762SOL    HW128922   0.576   2.329   6.495  0.5790 -1.0088 -0.4142
 5762SOL    HW228923   0.478   2.385   6.592 -0.3935 -0.6045 -0.9418
 5763SOL     OW28924   2.128   3.297   6.752  0.7088  0.8216 -0.6801
 5763SOL    HW128925   2.171   3.243   6.818 -2.1810 -1.3646 -0.6085
 5763SOL    HW228926   2.044   3.305   6.797  0.4783  1.0826 -1.1500
 5764SOL     OW28927   4.312   3.988  10.031 -0.2263  0.1010  0.9391
 5764SOL    HW128928   4.240   3.945  10.077 -1.8067  0.4624 -1.1875
 5764SOL    HW228929   4.387   3.951  10.077  1.2601  2.6472  0.5872
 5765SOL     OW28930   1.410   0.722   3.205  0.6343  0.5815 -0.0961
 5765SOL    HW128931   1.390   0.797   3.261 -0.3307 -1.1507  1.9174
 5765SOL    HW228932   1.392   0.651   3.268 -3.2535  0.9230 -0.8341
 5766SOL     OW28933   3.114   0.298  17.492 -0.0890  0.1093 -0.0604
 5766SOL    HW128934   3.064   0.355  17.549 -1.3498 -1.8255  0.7776
 5766SOL    HW228935   3.098   0.216  17.540 -0.5689 -0.2052 -0.7504
 5767SOL     OW28936   2.794   0.889   5.978 -0.2878 -0.1489  0.2833
 5767SOL    HW128937   2.834   0.925   6.058 -0.1466  1.6075 -0.5799
 5767SOL    HW228938   2.702   0.915   5.983  0.1015  0.9375  1.7535
 5768SOL     OW28939   1.776   1.539  10.515 -0.3277 -0.5842 -0.9628
 5768SOL    HW128940   1.687   1.566  10.536  0.4875  0.7504  0.6944
 5768SOL    HW228941   1.816   1.594  10.582 -0.5317 -0.0005 -1.3258
 5769SOL     OW28942   2.782   3.618   7.816 -0.2715 -0.1738 -0.1742
 5769SOL    HW128943   2.824   3.616   7.730  0.3074  0.2588  0.0953
 5769SOL    HW228944   2.727   3.696   7.816  1.5366  1.1124  1.6956
 5770SOL     OW28945   4.383   4.148   6.355 -0.4698 -0.2130 -0.0785
 5770SOL    HW128946   4.432   4.202   6.417 -1.0398  0.7966 -0.5019
 5770SOL    HW228947   4.439   4.172   6.281  0.4919  1.4017  1.1563
 5771SOL     OW28948   1.321   0.690   8.813  0.2805 -0.3984 -0.5307
 5771SOL    HW128949   1.262   0.630   8.859  1.8138 -1.0984  0.5201
 5771SOL    HW228950   1.363   0.624   8.757  2.3606 -0.8730  1.5695
 5772SOL     OW28951   0.111   0.225   8.505 -0.2003 -0.2477  0.5387
 5772SOL    HW128952   0.071   0.211   8.419 -0.9118 -0.2893  0.8808
 5772SOL    HW228953   0.044   0.194   8.566 -1.5970  0.1088 -0.8262
 5773SOL     OW28954   1.557   0.093   8.262 -0.1297  0.2347  0.8840
 5773SOL    HW128955   1.470   0.133   8.267 -0.3212  0.1720 -1.6522
 5773SOL    HW228956   1.606   0.176   8.260  1.2494 -0.5630  1.8293
 5774SOL     OW28957   1.714   3.801   5.550  0.1829 -0.3247  0.5286
 5774SOL    HW128958   1.711   3.821   5.457 -0.3383  0.6159  0.7494
 5774SOL    HW228959   1.709   3.881   5.602  2.6781 -0.1883  0.5834
 5775SOL     OW28960   2.395   4.565   1.733 -0.2418 -0.2634 -0.5576
 5775SOL    HW128961   2.464   4.578   1.668  0.5411  0.9676  0.5218
 5775SOL    HW228962   2.401   4.470   1.744  0.8605  0.0528  1.7063
 5776SOL     OW28963   3.274   1.545  13.785  0.2785 -0.3901  0.2140
 5776SOL    HW128964   3.217   1.475  13.754  1.3522  0.3774 -3.5007
 5776SOL    HW228965   3.328   1.495  13.847 -0.6170  0.0876  1.3744
 5777SOL     OW28966   2.253   2.598  11.979  0.3251  0.3128 -0.2079
 5777SOL    HW128967   2.157   2.599  11.981  0.2890 -2.9393 -0.1686
 5777SOL    HW228968   2.265   2.638  12.065 -1.2759 -0.4624  0.3721
 5778SOL     OW28969   1.158   1.052  11.461  0.8442 -0.0370  0.6236
 5778SOL    HW128970   1.182   1.116  11.394 -1.1478 -1.2338 -1.2601
 5778SOL    HW228971   1.203   1.087  11.538  0.4300 -0.5201  1.0856
 5779SOL     OW28972   0.845   1.311  11.516 -0.0973  0.1938 -0.3841
 5779SOL    HW128973   0.777   1.361  11.562  0.3155 -0.6576  1.1485
 5779SOL    HW228974   0.878   1.271  11.596 -0.8765 -0.2788 -0.3000
 5780SOL     OW28975   3.046   0.187   2.066  0.0420 -0.4124 -0.3867
 5780SOL    HW128976   2.994   0.192   1.985 -1.0546 -0.2812  0.3163
 5780SOL    HW228977   2.977   0.161   2.128  1.1177  0.1091  1.0434
 5781SOL     OW28978   0.949   4.568   3.544  0.3091 -0.5764  0.2770
 5781SOL    HW128979   0.866   4.615   3.553  1.0353  1.0717 -1.6513
 5781SOL    HW228980   0.952   4.536   3.634 -0.8032  1.9528  1.1926
 5782SOL     OW28981   2.011   4.282   4.446  0.8788  0.8908 -0.0360
 5782SOL    HW128982   1.928   4.313   4.482  0.4199 -1.7814  1.1896
 5782SOL    HW228983   1.995   4.189   4.465  1.4551  0.7029 -0.4537
 5783SOL     OW28984   2.638   3.298  14.970  0.0855  0.1902 -0.4530
 5783SOL    HW128985   2.586   3.247  14.908 -0.1135  0.0215 -0.1424
 5783SOL    HW228986   2.681   3.228  15.019  2.5016  2.1496  0.2039
 5784SOL     OW28987   2.261   2.789  17.698 -0.2117 -0.4374 -0.1352
 5784SOL    HW128988   2.329   2.856  17.705  0.5238 -1.1210 -0.6772
 5784SOL    HW228989   2.300   2.706  17.669 -0.7626 -0.7947  0.1542
 5785SOL     OW28990   2.436   0.540   2.459 -0.1559 -0.6798  0.1853
 5785SOL    HW128991   2.484   0.460   2.435  3.1316  1.6805 -1.1850
 5785SOL    HW228992   2.484   0.568   2.537  0.9287 -0.0981 -0.6776
 5786SOL     OW28993   4.370   2.007   2.338  0.3252 -0.2305  0.9767
 5786SOL    HW128994   4.429   2.008   2.413 -0.8054 -0.3841  1.8811
 5786SOL    HW228995   4.435   1.967   2.279 -0.0979 -1.6073  1.4335
 5787SOL     OW28996   3.045   2.127   9.824 -0.0880 -0.6865  0.3809
 5787SOL    HW128997   2.973   2.066   9.807 -0.8532  0.2277  0.3482
 5787SOL    HW228998   3.010   2.186   9.890 -0.1353 -0.9494  0.5865
 5788SOL     OW28999   3.637   4.547   8.674  0.6609 -0.1222 -0.1120
 5788SOL    HW129000   3.575   4.530   8.603 -1.0468 -0.3843  1.4319
 5788SOL    HW229001   3.653   4.458   8.706 -1.7958 -1.0030 -1.3566
 5789SOL     OW29002   0.534   2.774   3.748  0.0181  0.0527  0.0220
 5789SOL    HW129003   0.503   2.685   3.731 -2.5018  1.1464 -1.2289
 5789SOL    HW229004   0.480   2.835   3.697  1.0844  1.3266  0.4290
 5790SOL     OW29005   0.610   4.484  13.715 -0.2297  0.4981 -0.4943
 5790SOL    HW129006   0.520   4.515  13.709 -0.5212 -0.3363 -0.3831
 5790SOL    HW229007   0.614   4.397  13.677  0.0705  0.5794 -0.6510
 5791SOL     OW29008   4.654   0.853   3.059  0.0619 -0.6652 -0.5801
 5791SOL    HW129009   4.686   0.839   2.970  0.4936  0.3403 -0.5870
 5791SOL    HW229010   0.002   0.876   3.097  0.1495  1.0992 -1.8279
 5792SOL     OW29011   2.217   3.001   3.644  0.1220 -0.5681 -0.0481
 5792SOL    HW129012   2.264   2.937   3.697  0.1650 -1.5621 -1.2836
 5792SOL    HW229013   2.131   2.959   3.648 -0.3232  0.3450 -0.0446
 5793SOL     OW29014   4.579   0.790   7.346  0.0046  0.2776 -0.4600
 5793SOL    HW129015   4.560   0.741   7.426  0.5743  1.1843  0.2307
 5793SOL    HW229016   4.548   0.718   7.290  0.0297 -1.0850  1.2793
 5794SOL     OW29017   3.869   2.681  16.670 -0.2899 -0.0741  0.6227
 5794SOL    HW129018   3.879   2.600  16.720 -1.2783  0.0243  0.9801
 5794SOL    HW229019   3.781   2.707  16.697 -0.8466 -1.0052 -0.3092
 5795SOL     OW29020   1.172   4.731   3.976 -0.2071  0.0484  0.3852
 5795SOL    HW129021   1.257   0.015   4.015 -0.8453  0.9895  1.2717
 5795SOL    HW229022   1.149   0.073   3.928  0.8865 -0.8181 -1.5722
 5796SOL     OW29023   4.352   4.660   1.805 -0.2409 -0.0729 -0.0137
 5796SOL    HW129024   4.412   4.734   1.797 -0.0930 -0.1966 -0.0533
 5796SOL    HW229025   4.298   4.689   1.878  0.9768  0.3080  0.7410
 5797SOL     OW29026   1.215   2.837   6.788 -0.2163  0.0706  0.3226
 5797SOL    HW129027   1.234   2.930   6.800 -2.3020  0.2487  2.3521
 5797SOL    HW229028   1.294   2.807   6.744  0.3325  1.4043  0.4132
 5798SOL     OW29029   3.175   4.691  16.853 -0.5742 -0.4328 -0.0268
 5798SOL    HW129030   3.157   4.623  16.917  0.7811 -0.8957 -0.1357
 5798SOL    HW229031   3.113   4.667  16.783 -1.5940  1.7749  0.1503
 5799SOL     OW29032   0.665   4.697  11.152  0.0156  0.1517  0.6056
 5799SOL    HW129033   0.748   4.651  11.162  0.1609  0.7367  2.1013
 5799SOL    HW229034   0.673   0.028  11.219  0.9429 -1.8605  2.5318
 5800SOL     OW29035   1.458   0.693  12.601  0.5454 -0.2860 -0.1030
 5800SOL    HW129036   1.392   0.682  12.532 -1.5838  1.8573  1.5877
 5800SOL    HW229037   1.536   0.716  12.550  1.7900 -1.8668  1.0892
 5801SOL     OW29038   3.944   3.300  10.688  0.4627 -0.3077  0.4959
 5801SOL    HW129039   3.925   3.380  10.639 -0.1203  1.0722  2.9718
 5801SOL    HW229040   3.965   3.234  10.622 -1.5268 -0.8065  0.3734
 5802SOL     OW29041   0.794   2.099   1.296 -0.3358  0.2611 -0.0991
 5802SOL    HW129042   0.734   2.149   1.351 -0.0565  0.5661 -0.0700
 5802SOL    HW229043   0.832   2.175   1.252  1.8871  0.0493  1.4593
 5803SOL     OW29044   0.065   0.457   7.796 -0.9817 -0.6014  0.0774
 5803SOL    HW129045   0.095   0.464   7.705  0.2506 -1.0454  0.4435
 5803SOL    HW229046   0.002   0.386   7.782 -0.5493 -0.5857 -1.9845
 5804SOL     OW29047   3.086   0.572   5.442  0.8944  0.3321 -0.1461
 5804SOL    HW129048   3.095   0.558   5.347 -3.7325 -0.0577 -0.5203
 5804SOL    HW229049   3.152   0.641   5.449 -0.2880  1.3220  1.1949
 5805SOL     OW29050   4.353   3.416   3.495  0.0189  0.1994  0.7004
 5805SOL    HW129051   4.433   3.382   3.455  0.9853  4.0584 -0.6342
 5805SOL    HW229052   4.365   3.388   3.586  1.0358  1.2538  0.8862
 5806SOL     OW29053   3.778   0.097   6.882 -0.1164 -1.1386  0.2798
 5806SOL    HW129054   3.711   0.029   6.876 -1.1518  0.0459 -1.7035
 5806SOL    HW229055   3.737   0.183   6.877  1.3727 -0.4042  0.7395
 5807SOL     OW29056   2.284   2.748   8.369  0.6409  0.3775 -0.3831
 5807SOL    HW129057   2.195   2.741   8.402  0.0358  1.2546 -1.8308
 5807SOL    HW229058   2.302   2.840   8.389  0.2631 -0.0340  1.8516
 5808SOL     OW29059   4.041   0.377   7.117 -0.4634  0.0392 -0.5349
 5808SOL    HW129060   4.039   0.291   7.160 -0.3472 -0.5884 -1.7810
 5808SOL    HW229061   4.080   0.361   7.031 -0.9284 -0.5537 -0.6388
 5809SOL     OW29062   4.390   4.098   5.920 -0.1817 -0.6328  0.0924
 5809SOL    HW129063   4.327   4.170   5.912  0.5584 -0.0222 -0.1951
 5809SOL    HW229064   4.356   4.055   5.999  1.0116 -2.0365 -0.1643
 5810SOL     OW29065   1.849   0.724   7.259 -0.5077 -0.1640  1.1113
 5810SOL    HW129066   1.847   0.694   7.168  0.9587 -0.5680  1.2103
 5810SOL    HW229067   1.840   0.640   7.303  1.1028 -1.0784 -0.2843
 5811SOL     OW29068   3.833   0.109   5.353 -0.0734 -0.1438  0.0237
 5811SOL    HW129069   3.901   0.158   5.400  0.3035 -0.5512 -0.0957
 5811SOL    HW229070   3.850   0.028   5.401 -1.5556 -2.2091 -2.9533
 5812SOL     OW29071   2.540   2.982   7.151  0.4429 -0.5096 -0.7315
 5812SOL    HW129072   2.590   3.060   7.129  0.0377 -0.1665 -0.4394
 5812SOL    HW229073   2.464   2.995   7.094  2.1088 -1.1519 -3.1186
 5813SOL     OW29074   4.518   4.607   4.307  0.1131 -0.2492  0.6562
 5813SOL    HW129075   4.510   4.579   4.216 -0.8466  1.2031  0.2917
 5813SOL    HW229076   4.430   4.644   4.318  0.0104 -0.7058  1.3589
 5814SOL     OW29077   0.968   3.350   2.138  0.3372 -0.1891  0.1572
 5814SOL    HW129078   0.991   3.434   2.177 -1.5569  0.1628  0.5334
 5814SOL    HW229079   0.962   3.373   2.046 -2.1301 -1.3166  0.0176
 5815SOL     OW29080   1.632   3.584   5.975 -0.3358 -0.6289  0.1969
 5815SOL    HW129081   1.677   3.665   6.000  1.1691 -1.2211 -0.5688
 5815SOL    HW229082   1.672   3.513   6.025 -1.0774  0.1045  1.8506
 5816SOL     OW29083   3.819   4.092  11.013 -0.0875 -0.4691  0.3904
 5816SOL    HW129084   3.840   4.015  10.961 -0.3216 -1.1948  1.3707
 5816SOL    HW229085   3.759   4.140  10.957 -0.0615  0.3033  1.0152
 5817SOL     OW29086   1.163   0.339   0.596  0.0913 -0.4186  0.0744
 5817SOL    HW129087   1.168   0.395   0.518 -0.7321  0.7725  0.8808
 5817SOL    HW229088   1.167   0.249   0.563  1.3738 -0.1655 -0.4687
 5818SOL     OW29089   0.883   1.821   2.614 -0.0204  0.1180  0.4120
 5818SOL    HW129090   0.973   1.807   2.585 -0.7144 -0.9766 -1.1639
 5818SOL    HW229091   0.887   1.866   2.699 -2.4569  0.0518  0.5437
 5819SOL     OW29092   3.798   0.422   7.389  0.3691  0.5250 -0.0729
 5819SOL    HW129093   3.825   0.388   7.474 -0.4721 -0.3518 -0.1588
 5819SOL    HW229094   3.794   0.339   7.341 -0.9235  0.5613 -0.0256
 5820SOL     OW29095   1.965   1.207   6.553  0.2250  0.1375 -0.1673
 5820SOL    HW129096   2.015   1.136   6.593 -1.6447 -0.1876  1.6577
 5820SOL    HW229097   2.020   1.233   6.479 -0.3402  0.8422 -0.3392
 5821SOL     OW29098   1.220   1.425  13.735  0.1041 -0.0266  0.2059
 5821SOL    HW129099   1.232   1.461  13.822 -0.9948 -0.8520  0.7063
 5821SOL    HW229100   1.305   1.393  13.706 -1.0584 -0.5050 -2.7729
 5822SOL     OW29101   1.586   0.690   1.988 -0.0688 -0.2550  0.2735
 5822SOL    HW129102   1.603   0.729   2.073 -0.1177 -1.0214  0.6295
 5822SOL    HW229103   1.648   0.617   1.988  0.3550  0.0883 -3.3448
 5823SOL     OW29104   2.622   1.533   3.429  0.2640 -0.0015 -0.2713
 5823SOL    HW129105   2.706   1.532   3.475 -0.9807  0.8362  2.0328
 5823SOL    HW229106   2.590   1.447   3.456 -2.0169  0.2586 -2.2032
 5824SOL     OW29107   1.677   1.393   5.812  0.1127  0.7112  0.7169
 5824SOL    HW129108   1.651   1.439   5.732 -0.7002  2.1098  1.7707
 5824SOL    HW229109   1.745   1.448   5.851  0.5227  0.9163 -0.2652
 5825SOL     OW29110   3.120   0.419  11.653 -0.6624  0.4297 -0.1208
 5825SOL    HW129111   3.134   0.451  11.742 -0.5427  0.4651 -0.1525
 5825SOL    HW229112   3.081   0.497  11.614 -0.3173  0.9055  0.4888
 5826SOL     OW29113   3.684   0.088   2.007 -0.1462 -0.0385 -0.1446
 5826SOL    HW129114   3.684   0.183   1.992  1.6115 -0.7598 -4.6905
 5826SOL    HW229115   3.707   0.075   2.099 -1.2769  3.4463  0.6177
 5827SOL     OW29116   0.924   3.415   1.883 -0.2942 -0.1861  0.0042
 5827SOL    HW129117   0.939   3.437   1.791  1.2533  0.6749  0.4540
 5827SOL    HW229118   0.850   3.356   1.870 -0.4066  0.1217 -0.7362
 5828SOL     OW29119   3.937   3.303   6.487 -0.4579 -0.3548 -0.5002
 5828SOL    HW129120   3.922   3.358   6.409 -0.6844 -1.4178 -1.2087
 5828SOL    HW229121   3.956   3.375   6.547 -0.4525  0.1074 -1.0461
 5829SOL     OW29122   3.967   1.321   2.716  0.1137  0.2076 -0.1825
 5829SOL    HW129123   3.898   1.298   2.779 -0.1090  2.9000  0.5344
 5829SOL    HW229124   4.046   1.323   2.772 -1.4856  1.0367  2.0553
 5830SOL     OW29125   0.660   1.572   0.991  0.0149 -0.1658  0.4231
 5830SOL    HW129126   0.630   1.644   0.935  1.5764 -0.7216 -1.1389
 5830SOL    HW229127   0.606   1.500   0.959 -0.7550  0.3770  0.5080
 5831SOL     OW29128   1.286   0.285   3.152  0.3404  0.3637  0.2158
 5831SOL    HW129129   1.292   0.211   3.213 -0.1577  0.9465  0.9767
 5831SOL    HW229130   1.268   0.231   3.075 -2.3603 -0.2913  1.3027
 5832SOL     OW29131   0.613   1.199   2.349 -0.4089 -0.0605 -0.1718
 5832SOL    HW129132   0.594   1.189   2.442 -0.2083  0.0870 -0.1136
 5832SOL    HW229133   0.700   1.238   2.356 -1.2533  1.8457 -0.3887
 5833SOL     OW29134   3.545   1.984  16.400 -0.4601 -0.3354 -0.2078
 5833SOL    HW129135   3.479   1.915  16.409  0.0970 -1.1751 -2.4914
 5833SOL    HW229136   3.616   1.947  16.452 -0.9606 -1.0063 -0.0015
 5834SOL     OW29137   0.128   1.631   8.785 -0.1772 -0.3158 -0.3914
 5834SOL    HW129138   0.039   1.650   8.816  0.6580  1.5339  0.9354
 5834SOL    HW229139   0.129   1.537   8.803 -1.8916 -0.6929 -2.2874
 5835SOL     OW29140   0.568   2.239  13.471  0.2928  0.2718  0.0608
 5835SOL    HW129141   0.649   2.190  13.466 -0.4898 -0.8554 -1.7011
 5835SOL    HW229142   0.509   2.165  13.454  0.4989 -0.0956  0.9710
 5836SOL     OW29143   4.461   1.102   2.791 -0.1258 -0.5454  0.0769
 5836SOL    HW129144   4.371   1.082   2.817 -0.8251  0.2646 -1.7310
 5836SOL    HW229145   4.499   1.022   2.753 -0.7574 -1.9142  2.3273
 5837SOL     OW29146   2.387   0.948   6.904  0.4047 -0.6205 -0.4980
 5837SOL    HW129147   2.304   0.902   6.903  1.0339 -1.7743  1.1828
 5837SOL    HW229148   2.356   1.036   6.884  0.6924 -0.1387  1.2323
 5838SOL     OW29149   0.327   0.907   8.347 -0.0792 -0.5887  0.0859
 5838SOL    HW129150   0.288   0.937   8.429  1.5584  1.2922  0.2009
 5838SOL    HW229151   0.366   0.825   8.377 -1.4756 -1.5874 -0.8737
 5839SOL     OW29152   0.126   4.393   3.862 -0.5046 -0.9050 -0.0751
 5839SOL    HW129153   0.036   4.383   3.894 -0.0291  0.0819  1.5539
 5839SOL    HW229154   0.124   4.487   3.848  0.4233 -0.5936  1.7948
 5840SOL     OW29155   4.490   2.533   7.522 -0.0118  0.2075 -0.0008
 5840SOL    HW129156   4.578   2.525   7.560  0.3115  0.1453 -0.7587
 5840SOL    HW229157   4.460   2.442   7.523  3.3217 -0.9179  0.0625
 5841SOL     OW29158   0.858   2.786   5.263  0.2181 -0.7991 -0.2758
 5841SOL    HW129159   0.785   2.790   5.201  1.0113 -0.1611 -1.1649
 5841SOL    HW229160   0.868   2.881   5.267 -1.4381 -0.6654  0.7336
 5842SOL     OW29161   2.869   3.393   1.630 -0.6801  0.1112 -0.0868
 5842SOL    HW129162   2.801   3.436   1.681 -0.6982  0.0738 -0.0793
 5842SOL    HW229163   2.930   3.465   1.613  1.6825 -2.0340 -0.6933
 5843SOL     OW29164   2.477   1.163  14.940 -0.5008  0.1859  0.0395
 5843SOL    HW129165   2.452   1.193  15.028  2.6712  0.7886  0.7535
 5843SOL    HW229166   2.425   1.089  14.911  2.3230 -1.4769 -0.8466
 5844SOL     OW29167   4.448   0.584   0.998 -0.2204  0.0540  0.6072
 5844SOL    HW129168   4.470   0.548   0.912  0.5679  0.2896  0.7148
 5844SOL    HW229169   4.359   0.549   0.995 -1.1236  2.4490 -0.6333
 5845SOL     OW29170   1.096   3.791  10.992 -0.4021 -0.2282 -0.0010
 5845SOL    HW129171   1.191   3.786  10.996 -0.4549 -0.5459  0.8509
 5845SOL    HW229172   1.081   3.863  11.054  1.5129 -0.9308  1.2658
 5846SOL     OW29173   2.463   1.589   4.915  0.2451 -0.2298  0.1697
 5846SOL    HW129174   2.485   1.679   4.939  0.9097 -0.5266  0.6697
 5846SOL    HW229175   2.538   1.563   4.862  0.5901  0.4819  0.3014
 5847SOL     OW29176   2.575   4.722   2.738  0.3369 -0.5969  0.0357
 5847SOL    HW129177   2.669   4.731   2.755 -0.0975  3.2990  0.3880
 5847SOL    HW229178   2.546   0.024   2.820  0.3831 -1.6238  0.5252
 5848SOL     OW29179   3.570   1.610   1.638 -0.5005 -0.5111 -0.6313
 5848SOL    HW129180   3.655   1.572   1.615  1.0971  1.4724  1.9820
 5848SOL    HW229181   3.501   1.553   1.604 -0.3001  0.3952 -2.5688
 5849SOL     OW29182   4.118   2.320  11.348  0.0527  0.2703  0.1105
 5849SOL    HW129183   4.063   2.386  11.389  0.0913  0.6104 -0.3895
 5849SOL    HW229184   4.197   2.368  11.325  1.5391 -1.9089  0.6744
 5850SOL     OW29185   1.649   2.990  16.837  0.6368  0.3308 -0.2952
 5850SOL    HW129186   1.631   3.079  16.808  0.7017  0.8695  1.3327
 5850SOL    HW229187   1.663   2.932  16.762  1.5417  2.1302 -1.5207
 5851SOL     OW29188   1.349   2.093   3.468  0.6590  0.4062 -0.4731
 5851SOL    HW129189   1.371   2.068   3.378  0.0920 -0.9383 -0.2312
 5851SOL    HW229190   1.385   2.182   3.467  0.8246  0.3454  0.2096
 5852SOL     OW29191   0.148   0.765   1.881 -0.5760  0.1523 -0.1156
 5852SOL    HW129192   0.158   0.844   1.934 -1.0221  0.5520 -0.6336
 5852SOL    HW229193   0.089   0.798   1.814  0.0251 -0.5027 -0.9749
 5853SOL     OW29194   1.145   4.537  17.520  0.1599 -0.1951 -0.1808
 5853SOL    HW129195   1.122   4.444  17.518 -3.6068  0.7248  1.8449
 5853SOL    HW229196   1.199   4.549  17.441 -1.1623 -1.6750 -1.2994
 5854SOL     OW29197   0.323   1.696   1.795 -0.1175 -0.0506  0.5184
 5854SOL    HW129198   0.235   1.726   1.776 -0.5364 -1.1105  0.7850
 5854SOL    HW229199   0.372   1.740   1.726 -0.9242  1.0659  0.6769
 5855SOL     OW29200   1.738   4.229   8.909  0.0276  0.1604 -0.7480
 5855SOL    HW129201   1.721   4.309   8.959  2.4765  0.4315 -0.3212
 5855SOL    HW229202   1.833   4.217   8.920 -0.7393 -1.2310  4.1864
 5856SOL     OW29203   3.001   4.523   1.548  0.1574 -0.1913  0.0586
 5856SOL    HW129204   3.071   4.466   1.517 -0.1677  0.3581 -1.6769
 5856SOL    HW229205   3.025   4.610   1.517 -1.0691  0.1337 -0.0177
 5857SOL     OW29206   0.106   1.337  14.157  0.0681  0.0831  0.0683
 5857SOL    HW129207   0.044   1.407  14.181  0.4579  0.4087  0.1185
 5857SOL    HW229208   0.183   1.393  14.167 -2.3121  3.0368  1.9702
 5858SOL     OW29209   4.245   1.945   2.870  0.0914 -0.2766 -0.2474
 5858SOL    HW129210   4.217   1.987   2.789  0.2987  2.2341  0.9850
 5858SOL    HW229211   4.339   1.960   2.873  0.1385 -0.2613 -2.0887
 5859SOL     OW29212   2.696   0.346  12.232  0.0012 -0.4754  0.1026
 5859SOL    HW129213   2.680   0.268  12.284 -0.5827 -0.6473 -0.3373
 5859SOL    HW229214   2.776   0.310  12.195  1.0643  1.4102  0.5736
 5860SOL     OW29215   1.054   2.604   9.178 -0.2296  0.0054 -0.0097
 5860SOL    HW129216   1.120   2.670   9.199 -1.4034  0.9022  0.8091
 5860SOL    HW229217   1.052   2.618   9.083  1.6529  1.3472  0.1551
 5861SOL     OW29218   1.951   0.861  15.698  0.0676 -0.6484  0.2673
 5861SOL    HW129219   1.954   0.897  15.610 -1.0399 -1.6433 -0.1836
 5861SOL    HW229220   1.985   0.774  15.677  1.0364 -0.6991  2.0859
 5862SOL     OW29221   0.240   0.152   6.804 -0.0121 -0.2819  0.0422
 5862SOL    HW129222   0.187   0.114   6.734 -0.9713 -1.1410  1.2295
 5862SOL    HW229223   0.217   0.090   6.873 -0.2881  1.6881  1.7036
 5863SOL     OW29224   0.398   1.839   4.537  0.0615 -0.0580 -0.7327
 5863SOL    HW129225   0.454   1.900   4.490 -0.8127  0.5648 -0.9741
 5863SOL    HW229226   0.327   1.901   4.558  1.6066  1.7930 -1.0010
 5864SOL     OW29227   1.838   0.881   6.784 -0.2563 -0.1497 -0.1955
 5864SOL    HW129228   1.755   0.927   6.775 -1.7375 -2.0549  3.8698
 5864SOL    HW229229   1.854   0.846   6.696  0.2164  0.4649 -0.3519
 5865SOL     OW29230   0.477   1.155   4.255 -0.0389 -0.1644  0.2398
 5865SOL    HW129231   0.545   1.133   4.320  0.8195  1.9127  0.0312
 5865SOL    HW229232   0.455   1.241   4.289 -2.1564 -0.7224  0.2452
 5866SOL     OW29233   4.155   1.607   2.327  0.0456 -0.1142 -0.0095
 5866SOL    HW129234   4.096   1.573   2.394  0.1388  0.9576  0.6132
 5866SOL    HW229235   4.104   1.682   2.295  2.2079  1.2758 -0.1790
 5867SOL     OW29236   0.274   4.251  14.530  0.5829 -0.9078  0.4507
 5867SOL    HW129237   0.208   4.299  14.478  1.9384 -1.2937 -1.6220
 5867SOL    HW229238   0.218   4.219  14.601 -0.8050  0.4346 -0.0441
 5868SOL     OW29239   2.638   0.770   7.364  0.2440 -0.3729 -0.1041
 5868SOL    HW129240   2.554   0.727   7.348 -1.5977  2.8075  1.0088
 5868SOL    HW229241   2.666   0.793   7.275  3.0447 -0.9837  0.6029
 5869SOL     OW29242   4.714   3.015  14.318  0.0463 -0.1855 -0.2068
 5869SOL    HW129243   0.024   2.943  14.277 -0.4743 -1.0488  0.7325
 5869SOL    HW229244   4.624   2.989  14.298  0.2267 -1.4620  0.6923
 5870SOL     OW29245   4.541   0.555   2.938 -0.0357 -0.1177 -0.2751
 5870SOL    HW129246   4.617   0.498   2.926 -0.3071 -0.1751 -1.6989
 5870SOL    HW229247   4.477   0.487   2.917 -0.2308  0.4295 -1.4665
 5871SOL     OW29248   4.136   3.695   1.829  0.3672  0.0487  0.1518
 5871SOL    HW129249   4.190   3.680   1.751 -0.9456 -0.8741 -0.5864
 5871SOL    HW229250   4.198   3.740   1.887 -0.5440  0.3746  0.8716
 5872SOL     OW29251   4.176   0.407   2.490  0.3393  0.4960 -0.0252
 5872SOL    HW129252   4.149   0.475   2.428 -0.8906  0.0333  0.0086
 5872SOL    HW229253   4.140   0.439   2.572 -2.8706 -2.5913 -0.2328
 5873SOL     OW29254   2.327   0.052  13.054  0.6372 -0.1393  0.0582
 5873SOL    HW129255   2.351   4.713  13.001 -0.1542 -0.2468 -0.1462
 5873SOL    HW229256   2.400   0.048  13.115  1.2471 -1.2042 -0.7370
 5874SOL     OW29257   1.594   4.445   3.589  0.0453  0.1139  0.9352
 5874SOL    HW129258   1.612   4.361   3.546 -0.4986  1.2492 -1.5106
 5874SOL    HW229259   1.503   4.439   3.619  0.2612  2.5944  2.0709
 5875SOL     OW29260   1.443   4.382   8.284  0.5451 -0.5392  0.3618
 5875SOL    HW129261   1.430   4.464   8.236 -0.5821 -1.4477 -0.8825
 5875SOL    HW229262   1.458   4.330   8.206 -0.1058 -0.1077 -0.0490
 5876SOL     OW29263   1.555   3.845   7.264  0.1991  0.0072 -0.4160
 5876SOL    HW129264   1.463   3.844   7.292  0.2973  0.2423 -0.0887
 5876SOL    HW229265   1.544   3.886   7.178  2.1030 -1.0063 -1.1511
 5877SOL     OW29266   2.864   0.325   3.721 -0.4424  0.2734 -0.0253
 5877SOL    HW129267   2.860   0.241   3.674  3.2748  1.0605 -1.7614
 5877SOL    HW229268   2.778   0.364   3.707  0.8085  1.9081 -3.1403
 5878SOL     OW29269   0.158   2.583   7.032  0.2860 -0.4302 -0.1147
 5878SOL    HW129270   0.114   2.501   7.013  1.2501 -1.7587  3.3681
 5878SOL    HW229271   0.128   2.647   6.967  0.1110 -0.2855  0.1111
 5879SOL     OW29272   3.081   2.151  16.624 -0.2236  0.3843  0.3690
 5879SOL    HW129273   3.161   2.109  16.655 -0.2601  0.9435  1.2335
 5879SOL    HW229274   3.022   2.143  16.699  0.0218 -0.2633  0.4869
 5880SOL     OW29275   3.162   0.114   6.034  0.6190  0.6632  0.1125
 5880SOL    HW129276   3.202   0.147   6.115  0.2244  0.2245  0.4841
 5880SOL    HW229277   3.133   0.030   6.070  2.8106  0.4034  1.3070
 5881SOL     OW29278   3.474   4.514   2.282  0.0689 -0.3034 -0.2409
 5881SOL    HW129279   3.415   4.489   2.211 -1.4304 -0.7324  1.1714
 5881SOL    HW229280   3.427   4.473   2.354  2.0235 -1.2585  0.4978
 5882SOL     OW29281   4.354   1.425   2.248 -0.1668  0.5088 -0.3944
 5882SOL    HW129282   4.279   1.484   2.255  1.1942  1.9811  1.6486
 5882SOL    HW229283   4.408   1.446   2.324 -1.0100  1.8614 -0.1649
 5883SOL     OW29284   0.558   1.769   8.313 -0.3000  0.5339  0.7714
 5883SOL    HW129285   0.558   1.828   8.237 -0.8430 -2.1542 -1.3019
 5883SOL    HW229286   0.470   1.780   8.348 -1.4241 -0.1501 -1.7880
 5884SOL     OW29287   3.055   2.251  10.262 -0.1957  0.6238 -0.5039
 5884SOL    HW129288   3.009   2.275  10.182  1.8862  3.1242 -0.9269
 5884SOL    HW229289   3.024   2.318  10.323 -0.7654  0.4146 -0.5607
 5885SOL     OW29290   3.414   1.529   5.683 -0.8321  0.1604  0.3041
 5885SOL    HW129291   3.326   1.529   5.719 -0.6614  0.6155  0.7229
 5885SOL    HW229292   3.456   1.446   5.706  0.9916  0.6412 -1.2654
 5886SOL     OW29293   1.598   3.749   4.621 -0.3473  0.0472  0.1855
 5886SOL    HW129294   1.656   3.675   4.603 -1.6751 -1.6936  3.0791
 5886SOL    HW229295   1.597   3.748   4.717 -0.4282  1.5797  0.1930
 5887SOL     OW29296   3.097   0.060  15.593  0.0415  0.2266 -0.0975
 5887SOL    HW129297   3.152   4.727  15.630 -0.0706 -0.5886 -1.4622
 5887SOL    HW229298   3.044   0.077  15.670 -0.4732  0.8110 -0.5826
 5888SOL     OW29299   4.218   3.900   1.386  0.0017 -0.0938  0.1181
 5888SOL    HW129300   4.146   3.852   1.345 -0.8904  0.1605  1.4028
 5888SOL    HW229301   4.173   3.982   1.404  2.4350  1.2065  0.3733
 5889SOL     OW29302   4.058   4.584   9.150  0.1960 -0.6853 -0.1893
 5889SOL    HW129303   4.046   4.528   9.073 -1.6129  0.1494 -0.5001
 5889SOL    HW229304   4.063   4.668   9.105 -1.2169 -0.2206  0.5436
 5890SOL     OW29305   2.448   0.242   0.479 -0.2536  0.1650  0.1618
 5890SOL    HW129306   2.412   0.212   0.396  0.5095  1.0704 -0.4999
 5890SOL    HW229307   2.463   0.333   0.454  0.9947 -0.8714 -2.8198
 5891SOL     OW29308   0.678   0.332   1.904 -0.0895 -0.6324 -0.0509
 5891SOL    HW129309   0.592   0.325   1.864  0.2526  2.3145 -1.2857
 5891SOL    HW229310   0.646   0.389   1.974  0.4274 -1.6347  1.0001
 5892SOL     OW29311   4.402   3.703   7.478 -0.1156  0.1460 -0.2739
 5892SOL    HW129312   4.317   3.661   7.472  0.3721 -0.5519 -2.3124
 5892SOL    HW229313   4.430   3.698   7.386 -0.9622 -1.4425 -0.4542
 5893SOL     OW29314   2.680   2.324   4.884  0.0318  0.3093 -0.5212
 5893SOL    HW129315   2.738   2.259   4.925 -1.4627 -0.9088 -0.3409
 5893SOL    HW229316   2.593   2.292   4.907  0.1972 -0.7637 -1.3615
 5894SOL     OW29317   3.075   3.928   2.013  0.1760  0.0649 -0.4913
 5894SOL    HW129318   3.018   3.896   2.083  0.6869 -1.4631 -0.7805
 5894SOL    HW229319   3.111   3.844   1.982 -2.9826 -1.2866 -0.4230
 5895SOL     OW29320   3.004   1.246   2.361  0.1549  0.4784  0.8780
 5895SOL    HW129321   3.038   1.331   2.389  0.5868  0.5867  0.0360
 5895SOL    HW229322   2.969   1.260   2.273 -0.7630  1.2715  1.3757
 5896SOL     OW29323   2.798   1.371   4.159 -0.3835  0.3060 -0.4218
 5896SOL    HW129324   2.884   1.333   4.173 -0.5690 -0.4174 -1.2497
 5896SOL    HW229325   2.816   1.464   4.145  1.3148 -0.0137 -0.3530
 5897SOL     OW29326   1.417   3.584   7.104 -0.5012 -0.5527 -0.2384
 5897SOL    HW129327   1.326   3.583   7.133  0.2854  2.3165  2.2830
 5897SOL    HW229328   1.408   3.558   7.012  2.0936  1.6813 -1.1381
 5898SOL     OW29329   3.176   2.959   4.017  0.1234 -0.5070  0.0746
 5898SOL    HW129330   3.150   2.980   3.928  1.1290  1.1288  0.1728
 5898SOL    HW229331   3.150   3.035   4.068  1.7660  0.1789 -0.1083
 5899SOL     OW29332   3.238   4.338   3.108  0.1617 -0.2405 -0.5183
 5899SOL    HW129333   3.235   4.297   3.194  0.4988 -1.7170 -1.2135
 5899SOL    HW229334   3.305   4.294   3.055  0.9817  0.8251 -0.3766
 5900SOL     OW29335   3.083   2.508   9.433 -0.2255 -0.0762 -0.0106
 5900SOL    HW129336   3.010   2.568   9.449  0.1212  0.1065  0.8568
 5900SOL    HW229337   3.040   2.442   9.379 -0.3120 -2.0250  2.4445
 5901SOL     OW29338   3.311   0.755   5.528  0.4463  0.7657  0.3213
 5901SOL    HW129339   3.390   0.741   5.579 -0.4340  1.9551  1.9820
 5901SOL    HW229340   3.337   0.784   5.440 -0.5633 -1.2070 -0.6411
 5902SOL     OW29341   4.159   4.069  16.377 -0.6753 -0.5402  0.5199
 5902SOL    HW129342   4.161   4.031  16.464 -3.3747 -0.4462  0.6192
 5902SOL    HW229343   4.080   4.025  16.345 -0.7124 -0.2752  0.2411
 5903SOL     OW29344   2.416   3.053   8.678 -0.1690  0.2940 -0.1405
 5903SOL    HW129345   2.494   3.021   8.723 -0.1688 -0.2864 -0.5637
 5903SOL    HW229346   2.364   2.977   8.654  0.5421  0.1270 -1.1489
 5904SOL     OW29347   3.604   0.502  11.204 -0.0252  0.1105 -0.5974
 5904SOL    HW129348   3.690   0.460  11.209  0.5250  1.1049 -1.6068
 5904SOL    HW229349   3.630   0.589  11.175  2.9003 -0.3060  0.7871
 5905SOL     OW29350   3.350   1.019   8.054 -0.5358  0.1495 -0.3062
 5905SOL    HW129351   3.285   1.057   7.996 -0.2568  0.6288 -0.3080
 5905SOL    HW229352   3.423   0.992   7.997 -0.2121 -0.6240  0.4747
 5906SOL     OW29353   3.053   3.951   8.091 -0.3854  0.4988  0.4195
 5906SOL    HW129354   3.117   4.019   8.113 -1.2056  1.9952 -1.7753
 5906SOL    HW229355   2.968   3.983   8.119  0.5912  2.4712  1.1183
 5907SOL     OW29356   1.371   2.857  10.089 -0.0926 -0.6303  0.0657
 5907SOL    HW129357   1.446   2.916  10.095  0.9641 -2.0323  0.6581
 5907SOL    HW229358   1.338   2.868  10.000  0.7618  0.6832 -0.0922
 5908SOL     OW29359   3.034   1.337   3.785 -0.5271 -0.2312 -0.0385
 5908SOL    HW129360   2.939   1.334   3.791 -0.4816 -0.7190  0.3830
 5908SOL    HW229361   3.057   1.259   3.835  1.5818  0.5924  0.2711
 5909SOL     OW29362   1.643   2.941   3.171 -0.4641  0.6827 -0.2339
 5909SOL    HW129363   1.605   2.945   3.083 -0.0667 -2.2554 -0.5318
 5909SOL    HW229364   1.597   3.010   3.220  1.9017  0.0319  2.8618
 5910SOL     OW29365   2.349   3.246   3.798  0.7584 -0.1990 -0.1083
 5910SOL    HW129366   2.357   3.225   3.891 -0.0680 -0.0988 -0.0099
 5910SOL    HW229367   2.331   3.340   3.798 -0.1053 -0.3625 -1.4809
 5911SOL     OW29368   2.467   3.876   3.256  0.3482  0.3806  0.0764
 5911SOL    HW129369   2.377   3.843   3.252  0.4103  0.0839  1.1040
 5911SOL    HW229370   2.459   3.956   3.307 -1.7023 -0.0733  0.4911
 5912SOL     OW29371   0.602   1.107   7.057  0.7486 -0.5242  0.1464
 5912SOL    HW129372   0.555   1.028   7.085 -0.2575  0.1577  0.3745
 5912SOL    HW229373   0.527   1.155   7.022  0.8964 -1.3910 -1.3614
 5913SOL     OW29374   3.059   3.831   7.260 -0.0919  0.4490  0.2889
 5913SOL    HW129375   3.001   3.832   7.336  0.7623  1.7181  0.9209
 5913SOL    HW229376   3.122   3.901   7.276 -0.0721  0.1034  1.7392
 5914SOL     OW29377   3.028   1.887  15.451  0.4406 -0.1879  0.0946
 5914SOL    HW129378   3.092   1.933  15.505 -0.7856 -0.6010  1.9368
 5914SOL    HW229379   3.075   1.890  15.368  0.3061 -2.8376 -0.0835
 5915SOL     OW29380   2.705   4.071  11.447  0.1157 -0.3165  0.1525
 5915SOL    HW129381   2.695   4.139  11.513 -1.2851  1.0235 -1.4588
 5915SOL    HW229382   2.800   4.059  11.443  0.1665  0.3494 -0.5302
 5916SOL     OW29383   4.137   4.163  13.394  0.4147  0.1344 -0.4953
 5916SOL    HW129384   4.197   4.178  13.468  2.3791  1.1537 -2.2763
 5916SOL    HW229385   4.079   4.238  13.409  3.0036  1.4928  2.8826
 5917SOL     OW29386   0.835   2.840  10.720  0.0565  0.1920 -0.4140
 5917SOL    HW129387   0.919   2.882  10.700  0.7282  0.1535  2.2638
 5917SOL    HW229388   0.825   2.858  10.813 -2.3777  0.3298 -0.7264
 5918SOL     OW29389   2.568   2.747   2.739  0.7261 -0.1855  0.0108
 5918SOL    HW129390   2.504   2.759   2.669  1.3497  0.4734 -0.4449
 5918SOL    HW229391   2.650   2.733   2.691  1.2549 -0.6677  1.0497
 5919SOL     OW29392   3.019   4.215   3.478 -0.6154  0.0295 -0.2662
 5919SOL    HW129393   2.964   4.139   3.499 -1.2767  0.9114  1.2051
 5919SOL    HW229394   3.029   4.244   3.569 -2.6720 -0.8869  0.2610
 5920SOL     OW29395   4.707   1.425   6.395 -0.1960  0.2943  0.0462
 5920SOL    HW129396   0.051   1.377   6.375 -0.6520  0.4979 -2.3174
 5920SOL    HW229397   0.008   1.513   6.387 -0.7851  0.5326 -0.0793
 5921SOL     OW29398   4.266   4.717   6.415 -0.5850  0.0496 -0.4000
 5921SOL    HW129399   4.268   0.067   6.375  2.8458  0.0070 -0.2673
 5921SOL    HW229400   4.314   4.733   6.496 -0.4459  2.3505 -0.9316
 5922SOL     OW29401   4.522   4.225   3.180 -0.4342  0.4322  0.1793
 5922SOL    HW129402   4.582   4.191   3.114  0.8563  0.1020  1.5065
 5922SOL    HW229403   4.453   4.265   3.128  1.0247  0.1503 -1.9844
 5923SOL     OW29404   0.700   0.740   7.407  0.4042 -0.2516 -0.4562
 5923SOL    HW129405   0.794   0.742   7.426 -0.1280  0.9682  1.9927
 5923SOL    HW229406   0.677   0.652   7.438  1.2001 -0.8391 -1.5523
 5924SOL     OW29407   0.792   4.287   9.286  0.5104 -0.5021 -0.4168
 5924SOL    HW129408   0.860   4.334   9.335  0.0969  0.1824 -0.4963
 5924SOL    HW229409   0.752   4.351   9.226  1.1147  0.5435  0.2911
 5925SOL     OW29410   3.191   3.370  16.192 -0.4141 -0.1284 -0.1612
 5925SOL    HW129411   3.113   3.339  16.238 -0.2937  1.6370  1.2200
 5925SOL    HW229412   3.210   3.452  16.238 -0.3485 -0.7586  0.9260
 5926SOL     OW29413   4.595   2.996  16.694  0.4746 -0.2426  0.1905
 5926SOL    HW129414   4.564   2.994  16.784 -1.3783 -2.4020 -0.4949
 5926SOL    HW229415   4.529   3.052  16.655  0.0421 -0.6506  0.3352
 5927SOL     OW29416   3.159   3.255   3.750 -0.4437 -0.2341  0.0678
 5927SOL    HW129417   3.125   3.256   3.661 -1.0066  2.0554  0.3138
 5927SOL    HW229418   3.147   3.348   3.769 -0.8253 -0.1413 -0.6604
 5928SOL     OW29419   1.706   3.361   2.951 -0.5086 -0.2474 -0.0281
 5928SOL    HW129420   1.764   3.285   2.951 -1.6932 -1.1376  0.8841
 5928SOL    HW229421   1.737   3.406   3.029 -1.6435  0.9160 -0.2537
 5929SOL     OW29422   0.222   2.117   3.360 -0.0430 -0.1337 -0.1446
 5929SOL    HW129423   0.310   2.138   3.328 -0.3702  2.8325  0.8893
 5929SOL    HW229424   0.160   2.187   3.340  1.3685  0.7706 -1.3517
 5930SOL     OW29425   0.453   0.439   3.962  0.1688  0.2854  0.4536
 5930SOL    HW129426   0.371   0.392   3.977 -0.9364  2.4510  1.1621
 5930SOL    HW229427   0.423   0.530   3.955 -0.7754 -0.0734 -0.2084
 5931SOL     OW29428   0.771   0.380   5.459  0.1076  0.1419  0.1675
 5931SOL    HW129429   0.677   0.398   5.461 -0.3104 -1.9901 -0.0785
 5931SOL    HW229430   0.783   0.355   5.551  1.3252  0.7304  0.1679
 5932SOL     OW29431   3.250   0.321   1.911 -0.0729 -0.2406  0.4852
 5932SOL    HW129432   3.194   0.252   1.947 -2.3597  0.6811 -1.3468
 5932SOL    HW229433   3.217   0.400   1.953  0.3778 -0.4765  1.2951
 5933SOL     OW29434   3.496   2.913   9.002  0.0247  0.2448 -0.7610
 5933SOL    HW129435   3.589   2.895   8.993  0.2533  1.0067  0.0239
 5933SOL    HW229436   3.455   2.828   8.987 -0.3512  0.5079 -1.2179
 5934SOL     OW29437   3.546   3.543   4.417  0.3488  0.2037 -0.3721
 5934SOL    HW129438   3.479   3.609   4.438 -1.3796 -1.6146 -0.1512
 5934SOL    HW229439   3.621   3.601   4.404  0.4280  0.2031  0.0962
 5935SOL     OW29440   2.227   4.377   6.802  0.0569  0.1381 -0.1766
 5935SOL    HW129441   2.182   4.381   6.718  0.5797  0.8175 -0.4305
 5935SOL    HW229442   2.317   4.406   6.786  0.7944 -2.2654 -0.4705
 5936SOL     OW29443   3.401   1.097   4.025  0.1680  0.5501 -0.1592
 5936SOL    HW129444   3.406   1.186   4.060 -0.3413  0.4489  0.1569
 5936SOL    HW229445   3.452   1.045   4.087 -1.1313 -0.3528  0.1473
 5937SOL     OW29446   3.144   2.635  14.964 -0.5108  0.3950  0.4059
 5937SOL    HW129447   3.066   2.612  14.913  0.1109  0.0881 -0.4117
 5937SOL    HW229448   3.107   2.686  15.037 -0.3942 -1.4505  1.7361
 5938SOL     OW29449   1.588   4.133   5.104  0.1671 -0.1485 -0.3708
 5938SOL    HW129450   1.623   4.132   5.193 -0.0087 -1.1636 -0.3148
 5938SOL    HW229451   1.669   4.159   5.060 -0.3157  2.5140  0.2773
 5939SOL     OW29452   4.068   0.363  13.041  0.0483 -0.8087 -0.3198
 5939SOL    HW129453   3.991   0.415  13.066  0.4990 -0.8973  1.2353
 5939SOL    HW229454   4.050   0.352  12.948 -2.3555 -3.7272  0.4968
 5940SOL     OW29455   1.231   0.711  12.911  0.1864 -0.1293 -0.4918
 5940SOL    HW129456   1.145   0.704  12.869 -0.3572  1.2103  0.3682
 5940SOL    HW229457   1.249   0.617  12.915 -1.4017 -0.2956  3.6445
 5941SOL     OW29458   3.483   4.334   6.773 -0.6233  0.4762 -0.4460
 5941SOL    HW129459   3.455   4.336   6.682 -3.2020 -0.3597  0.3114
 5941SOL    HW229460   3.575   4.312   6.759 -1.5226 -5.4224  2.5223
 5942SOL     OW29461   2.606   1.989   9.345  0.1098 -0.2049 -0.0347
 5942SOL    HW129462   2.513   2.002   9.361  0.4270 -1.5733  2.9554
 5942SOL    HW229463   2.645   1.965   9.430 -0.7248 -0.4381  0.2789
 5943SOL     OW29464   0.324   1.179   5.427 -0.1564  0.1703 -0.1002
 5943SOL    HW129465   0.256   1.199   5.363 -1.5582 -0.3741  1.2322
 5943SOL    HW229466   0.272   1.117   5.478 -0.9839  0.3038 -0.7778
 5944SOL     OW29467   3.250   1.810   4.038 -0.5922 -0.3128  0.3955
 5944SOL    HW129468   3.240   1.739   3.976  1.2204 -1.0611  0.9451
 5944SOL    HW229469   3.206   1.885   3.998  1.8420 -0.0659 -1.8553
 5945SOL     OW29470   3.033   2.939   6.589 -0.3805  0.2672  0.0668
 5945SOL    HW129471   3.062   3.030   6.598 -1.6783  0.9422 -2.8007
 5945SOL    HW229472   3.031   2.913   6.682  0.5100 -1.4392 -0.3861
 5946SOL     OW29473   1.206   1.305   3.277  0.3062 -0.2793 -0.2281
 5946SOL    HW129474   1.131   1.249   3.294 -0.4478  0.9389  0.4881
 5946SOL    HW229475   1.276   1.240   3.270  0.1988 -0.6801  2.5309
 5947SOL     OW29476   2.008   3.657   5.739 -0.0128 -0.2303 -0.2415
 5947SOL    HW129477   1.919   3.627   5.756 -0.6096  2.1393  0.8519
 5947SOL    HW229478   2.049   3.572   5.750  0.3757  0.2499  1.9425
 5948SOL     OW29479   0.231   0.555   7.591 -0.5656  0.2056  1.0908
 5948SOL    HW129480   0.287   0.525   7.519 -0.6139  1.6734  0.4456
 5948SOL    HW229481   0.300   0.545   7.657  0.5427 -0.2953 -0.1592
 5949SOL     OW29482   1.043   0.188   9.898  0.0109  0.8549  0.1677
 5949SOL    HW129483   1.049   0.146   9.984  1.0603  0.6308 -0.0139
 5949SOL    HW229484   0.961   0.145   9.873  2.0654 -2.3519 -0.9776
 5950SOL     OW29485   2.010   2.843   2.630 -0.1208  0.4785 -0.7078
 5950SOL    HW129486   2.056   2.898   2.693 -2.0039 -1.3260  2.2449
 5950SOL    HW229487   1.952   2.786   2.681  0.7394  0.8701  0.7022
 5951SOL     OW29488   2.540   3.536   4.965  0.3506  0.5798 -0.1373
 5951SOL    HW129489   2.612   3.535   5.027  1.2083 -2.7062 -1.1798
 5951SOL    HW229490   2.471   3.529   5.031 -2.5834  2.3613 -2.9914
 5952SOL     OW29491   1.943   2.849   4.203 -0.2240 -0.4925 -0.0328
 5952SOL    HW129492   2.020   2.872   4.152 -0.3230  2.6298  1.2166
 5952SOL    HW229493   1.984   2.782   4.258  0.7594  0.4287  0.3608
 5953SOL     OW29494   1.586   0.363  16.731  0.0340 -0.1083 -0.1722
 5953SOL    HW129495   1.604   0.303  16.658 -0.4417 -0.4939  0.0299
 5953SOL    HW229496   1.505   0.409  16.712 -1.1932 -1.4854  1.7396
 5954SOL     OW29497   0.266   1.140   1.742 -0.2007 -0.1844  0.5640
 5954SOL    HW129498   0.353   1.118   1.708 -0.7875  1.4817 -2.0433
 5954SOL    HW229499   0.286   1.165   1.832 -2.1847  0.0118  0.9530
 5955SOL     OW29500   3.008   2.417   4.030 -0.0874 -0.3703 -0.0488
 5955SOL    HW129501   3.000   2.481   3.959  0.3346 -2.0632 -1.6521
 5955SOL    HW229502   2.943   2.355   3.997  0.6430 -0.3900 -1.4938
 5956SOL     OW29503   4.156   1.461   7.953  0.6504 -0.1355  0.0367
 5956SOL    HW129504   4.080   1.404   7.945  0.5037 -0.0805  1.0956
 5956SOL    HW229505   4.200   1.413   8.023  3.4124 -2.8857 -3.5525
 5957SOL     OW29506   0.382   3.896   8.790  0.6337 -0.0401  0.1075
 5957SOL    HW129507   0.305   3.921   8.740  0.0633 -1.6676  0.1794
 5957SOL    HW229508   0.375   3.951   8.868 -2.0834 -0.6782  0.3163
 5958SOL     OW29509   1.064   0.087   6.131  0.1369 -0.5008 -0.8410
 5958SOL    HW129510   1.139   0.135   6.166  1.0754 -1.3725 -1.6413
 5958SOL    HW229511   1.109   0.026   6.072 -0.0284 -1.7645  0.3153
 5959SOL     OW29512   0.224   1.551   6.102  0.8699  0.8304  0.0920
 5959SOL    HW129513   0.209   1.580   6.192 -0.3652  0.6787 -0.0589
 5959SOL    HW229514   0.303   1.601   6.084  0.5221  1.6218  0.7323
 5960SOL     OW29515   0.279   2.581   2.994 -0.2212 -0.7403  0.2364
 5960SOL    HW129516   0.287   2.536   2.909 -0.1995 -1.3092  0.5410
 5960SOL    HW229517   0.252   2.668   2.965  2.4702 -0.6043 -1.8421
 5961SOL     OW29518   0.196   2.490   9.602 -0.1846  0.7385  0.5638
 5961SOL    HW129519   0.232   2.441   9.676  0.6279 -1.0020 -0.9716
 5961SOL    HW229520   0.198   2.582   9.627  0.8805  1.2034 -1.2360
 5962SOL     OW29521   2.597   3.175   1.796  0.3016 -0.4038  0.1789
 5962SOL    HW129522   2.594   3.083   1.770  1.1598 -0.2285 -0.5267
 5962SOL    HW229523   2.689   3.192   1.776  0.0566  0.3378 -0.3167
 5963SOL     OW29524   2.296   2.635   6.006 -0.5927  0.1773  0.8420
 5963SOL    HW129525   2.316   2.546   5.977 -1.3042 -0.2280  1.6114
 5963SOL    HW229526   2.384   2.673   6.003 -0.7762  0.3795 -1.7508
 5964SOL     OW29527   4.489   0.531   9.364  0.3327  0.4455 -0.1802
 5964SOL    HW129528   4.409   0.583   9.375 -0.1678 -0.0585 -1.4316
 5964SOL    HW229529   4.561   0.594   9.367 -0.5713  1.5767 -2.6120
 5965SOL     OW29530   2.572   1.324   4.380  0.3959 -0.4077 -0.2283
 5965SOL    HW129531   2.501   1.276   4.336  0.0352 -0.5192  0.4854
 5965SOL    HW229532   2.642   1.313   4.315  0.8578 -0.8523  0.3494
 5966SOL     OW29533   1.997   2.609   7.151 -0.2017 -0.3273 -0.1344
 5966SOL    HW129534   2.061   2.558   7.101  0.2724  1.9228 -1.8556
 5966SOL    HW229535   2.038   2.607   7.237 -2.4851 -0.3540  0.9561
 5967SOL     OW29536   4.281   2.517   2.713  0.2296 -0.4156 -0.2866
 5967SOL    HW129537   4.362   2.563   2.693 -1.5012  2.3360 -0.9851
 5967SOL    HW229538   4.250   2.497   2.624 -1.6126  0.8432  0.0666
 5968SOL     OW29539   1.636   1.900   6.161  0.1305 -0.1869 -0.4547
 5968SOL    HW129540   1.725   1.882   6.193 -0.1959 -0.5204  0.2807
 5968SOL    HW229541   1.640   1.995   6.172  0.5181 -0.5221  2.2906
 5969SOL     OW29542   4.283   3.250   4.363  0.5621  0.0291  0.3613
 5969SOL    HW129543   4.323   3.253   4.450  1.0317  2.3565  0.0515
 5969SOL    HW229544   4.238   3.333   4.347  1.4046  0.3095 -0.5447
 5970SOL     OW29545   2.415   1.446   6.174  0.1732 -0.1695  0.7156
 5970SOL    HW129546   2.456   1.408   6.251 -1.4402 -1.3796  0.9811
 5970SOL    HW229547   2.493   1.478   6.128 -0.5673 -0.7516 -0.9455
 5971SOL     OW29548   0.760   0.951   3.522  0.5505  0.3489  0.1874
 5971SOL    HW129549   0.836   1.000   3.490  0.9388 -0.6869 -0.5084
 5971SOL    HW229550   0.689   1.000   3.482  1.4317  1.3165 -0.1921
 5972SOL     OW29551   2.397   0.024   6.756 -0.2343 -0.4702  0.2025
 5972SOL    HW129552   2.488   0.052   6.744 -0.0474 -1.0626  0.2279
 5972SOL    HW229553   2.411   4.667   6.740 -2.2397 -1.0175  1.8277
 5973SOL     OW29554   0.696   2.482  16.308 -0.1830  0.2450 -0.5733
 5973SOL    HW129555   0.650   2.404  16.339 -0.2102 -0.1707 -1.6564
 5973SOL    HW229556   0.788   2.474  16.335  0.0501  0.2005 -1.3617
 5974SOL     OW29557   2.809   4.610   3.491  0.2082  0.4117  0.0492
 5974SOL    HW129558   2.904   4.619   3.485  0.2561 -0.3882 -0.3309
 5974SOL    HW229559   2.776   4.695   3.462  0.1371  0.2948 -0.2122
 5975SOL     OW29560   0.188   0.131   1.509 -0.0048 -0.2232 -0.1452
 5975SOL    HW129561   0.204   0.208   1.454  1.1025 -0.1537  0.2763
 5975SOL    HW229562   0.238   0.065   1.461 -1.6066 -1.2185 -0.4272
 5976SOL     OW29563   3.020   1.961   2.078 -0.5868  0.1155  0.2666
 5976SOL    HW129564   3.084   1.977   2.008 -0.5948 -0.4437  0.1252
 5976SOL    HW229565   2.977   2.046   2.084 -0.1104  0.4166 -0.6041
 5977SOL     OW29566   2.605   3.045  15.722 -0.2055  0.5567  0.0410
 5977SOL    HW129567   2.670   3.067  15.788 -1.1279  0.1693  1.0889
 5977SOL    HW229568   2.620   3.113  15.658  1.8570 -0.1436 -0.1950
 5978SOL     OW29569   2.241   1.282   5.053 -0.0935 -0.3069  0.7177
 5978SOL    HW129570   2.283   1.266   5.137  0.9318  1.6962  0.5989
 5978SOL    HW229571   2.159   1.236   5.068 -0.8296  0.5237 -0.7363
 5979SOL     OW29572   3.889   3.216   2.825 -0.4445  0.0161 -0.1866
 5979SOL    HW129573   3.940   3.296   2.813  1.2677 -0.8637  1.2493
 5979SOL    HW229574   3.830   3.225   2.750  1.7872 -1.1841 -2.0782
 5980SOL     OW29575   3.003   2.064   7.375  0.5514  0.2722 -0.1753
 5980SOL    HW129576   3.007   1.972   7.401 -1.0429  0.6248  1.3146
 5980SOL    HW229577   2.916   2.065   7.416  0.1119 -1.4996 -1.0720
 5981SOL     OW29578   2.688   0.136   1.952 -0.0231  0.3525 -0.7656
 5981SOL    HW129579   2.774   0.146   1.910 -0.4429 -1.5450 -2.0908
 5981SOL    HW229580   2.633   0.154   1.875 -0.8951 -0.5082 -0.3441
 5982SOL     OW29581   2.881   0.312   5.244  0.6449  0.8475  0.1206
 5982SOL    HW129582   2.894   0.248   5.314 -0.9904  1.0941  0.6521
 5982SOL    HW229583   2.940   0.270   5.181 -0.2658 -0.2440 -0.0038
 5983SOL     OW29584   2.575   0.465   4.903 -0.3939  0.0965 -0.0610
 5983SOL    HW129585   2.566   0.377   4.866 -2.4836  0.1751  0.2867
 5983SOL    HW229586   2.638   0.503   4.842  0.9680  0.0578  1.3159
 5984SOL     OW29587   2.785   3.441   5.960 -0.8586  0.6463  0.2294
 5984SOL    HW129588   2.774   3.521   6.012  1.6608  2.1160 -1.4950
 5984SOL    HW229589   2.705   3.434   5.908 -0.5125  0.0205 -0.2202
 5985SOL     OW29590   0.941   3.997   4.574  0.2904 -0.4636 -0.1876
 5985SOL    HW129591   1.036   4.006   4.585 -0.1596  1.2433  2.3129
 5985SOL    HW229592   0.913   4.080   4.534 -2.8371 -1.7239 -0.5675
 5986SOL     OW29593   0.319   2.973   8.619  0.0976  0.6671 -0.1039
 5986SOL    HW129594   0.225   2.969   8.631  0.2038 -4.5904 -1.0895
 5986SOL    HW229595   0.321   2.988   8.524 -0.2986  1.5845  0.0338
 5987SOL     OW29596   3.844   3.006   8.119  0.2816  0.3546  0.0849
 5987SOL    HW129597   3.800   2.933   8.161  0.0356 -0.0731 -0.9189
 5987SOL    HW229598   3.779   3.077   8.122  0.9323  0.9275  0.9016
 5988SOL     OW29599   1.956   2.173   3.938 -0.0729  0.4155  0.2438
 5988SOL    HW129600   1.908   2.256   3.935  0.3614  0.6119 -1.3944
 5988SOL    HW229601   1.950   2.149   3.846  0.1646  0.3843  0.2353
 5989SOL     OW29602   0.437   1.577  14.531  0.8388 -0.3179  0.4260
 5989SOL    HW129603   0.486   1.646  14.488 -0.3523 -0.1415 -0.6507
 5989SOL    HW229604   0.483   1.556  14.612  1.5499  0.8810  0.3247
 5990SOL     OW29605   3.603   0.714   2.656  0.0171 -0.1593 -0.0272
 5990SOL    HW129606   3.518   0.754   2.671  0.4843  1.3346 -1.3453
 5990SOL    HW229607   3.574   0.623   2.652  0.1437 -0.3019  2.2003
 5991SOL     OW29608   1.788   4.389   4.593  0.0503 -0.8703  0.2545
 5991SOL    HW129609   1.784   4.483   4.574  0.7050 -0.9157 -0.1167
 5991SOL    HW229610   1.848   4.386   4.667  0.3670  0.4876  0.0563
 5992SOL     OW29611   0.264   4.254   6.349  0.0557 -0.1995  0.3355
 5992SOL    HW129612   0.320   4.226   6.277  0.7961 -1.0302  1.2210
 5992SOL    HW229613   0.296   4.187   6.410 -0.5172 -0.1599  0.6762
 5993SOL     OW29614   3.936   4.308  16.612  0.3455 -1.0492  0.1400
 5993SOL    HW129615   3.967   4.342  16.528  2.1292 -1.6366  0.5526
 5993SOL    HW229616   3.904   4.221  16.585 -1.1672 -0.1536 -0.9502
 5994SOL     OW29617   1.629   1.074   2.485 -0.2424  0.2037 -0.0848
 5994SOL    HW129618   1.673   1.008   2.537 -2.6596 -2.8929 -2.0124
 5994SOL    HW229619   1.589   1.115   2.561 -0.5826 -1.0386  0.3998
 5995SOL     OW29620   4.488   4.266  16.203 -0.1463  0.2071 -0.5088
 5995SOL    HW129621   4.482   4.183  16.251 -0.6210  0.4389 -0.1672
 5995SOL    HW229622   4.568   4.249  16.154  0.3677 -1.1646  0.7706
 5996SOL     OW29623   0.854   3.262   3.245  0.2602  0.1127  0.2724
 5996SOL    HW129624   0.854   3.183   3.300 -0.4853 -1.2152 -1.5994
 5996SOL    HW229625   0.905   3.321   3.299 -0.1546 -1.5641  2.4981
 5997SOL     OW29626   1.448   2.785   0.452 -0.5278  0.0551 -0.4247
 5997SOL    HW129627   1.521   2.724   0.444 -1.6150 -1.6153  2.5124
 5997SOL    HW229628   1.452   2.805   0.546  0.7846 -3.0783  0.1863
 5998SOL     OW29629   1.103   1.048   4.086 -0.0979  0.2700  0.0970
 5998SOL    HW129630   1.125   1.062   3.994 -0.2838 -3.1065 -0.4646
 5998SOL    HW229631   1.151   0.968   4.105 -2.1442 -0.6015  1.7046
 5999SOL     OW29632   2.988   1.821  10.800  0.6664  0.3429  0.7925
 5999SOL    HW129633   2.963   1.908  10.832 -0.9379 -0.5012  1.8689
 5999SOL    HW229634   3.033   1.789  10.878 -0.1847 -1.7037  0.4289
 6000SOL     OW29635   3.195   4.077   4.604 -0.2763  0.0544 -0.5626
 6000SOL    HW129636   3.172   3.985   4.597 -0.0617 -0.2449  2.8289
 6000SOL    HW229637   3.242   4.099   4.523 -0.3729 -0.0512 -0.6465
 6001SOL     OW29638   4.580   2.845   0.546 -0.1678 -0.2105  0.2797
 6001SOL    HW129639   4.668   2.840   0.510 -1.2737  0.0898 -2.4811
 6001SOL    HW229640   4.560   2.939   0.555 -1.1627 -0.0050 -3.7815
 6002SOL     OW29641   1.811   2.098  17.404 -0.6277 -0.3706 -0.1558
 6002SOL    HW129642   1.822   2.104  17.499  0.6848 -1.4081 -0.2570
 6002SOL    HW229643   1.727   2.142  17.388 -0.2831  0.4180  0.2305
 6003SOL     OW29644   2.988   3.217  16.357 -0.1034 -0.2362 -0.1870
 6003SOL    HW129645   3.055   3.170  16.407 -1.9042  0.4850  2.9052
 6003SOL    HW229646   2.912   3.214  16.414 -0.2696  0.3145 -0.3853
 6004SOL     OW29647   0.530   2.001   2.108 -0.4594 -0.7425 -0.5190
 6004SOL    HW129648   0.564   2.055   2.037 -1.3086  1.2821  0.5702
 6004SOL    HW229649   0.436   2.012   2.091 -0.1330  1.7037 -0.7459
 6005SOL     OW29650   0.361   4.017   8.369 -0.2610  0.6323  0.0742
 6005SOL    HW129651   0.422   4.070   8.420  1.7614 -0.9256 -0.7550
 6005SOL    HW229652   0.423   3.968   8.316  0.5162 -0.5542  2.0454
 6006SOL     OW29653   0.074   4.165   5.864 -0.5278 -0.1256 -0.3974
 6006SOL    HW129654   0.108   4.246   5.902  0.0422  0.1982 -1.6074
 6006SOL    HW229655   0.026   4.200   5.789 -2.2900 -2.1498 -0.2330
 6007SOL     OW29656   4.545   0.779   6.222 -0.6141 -0.3299 -0.6423
 6007SOL    HW129657   4.466   0.779   6.275  1.2939  1.1016  2.1532
 6007SOL    HW229658   4.573   0.870   6.233  0.0165 -0.7633  1.3267
 6008SOL     OW29659   1.491   1.009   1.781  0.0818  0.5820  0.2392
 6008SOL    HW129660   1.523   0.920   1.799 -0.6428 -0.0520 -1.5212
 6008SOL    HW229661   1.431   1.005   1.855  0.4444  0.2227  0.5136
 6009SOL     OW29662   1.014   2.584   1.927  0.1969  0.0152  0.4620
 6009SOL    HW129663   0.983   2.528   1.999 -1.1517  1.4873  1.0304
 6009SOL    HW229664   0.940   2.644   1.915 -0.2960 -0.2661  2.0828
 6010SOL     OW29665   3.754   1.760   5.958  0.1884  0.0534  0.5981
 6010SOL    HW129666   3.684   1.779   5.896  0.9657 -0.3033 -0.3839
 6010SOL    HW229667   3.738   1.674   5.997 -1.9329 -0.3078 -1.0627
 6011SOL     OW29668   3.230   1.862   3.715  0.4935  0.0676 -0.1741
 6011SOL    HW129669   3.235   1.932   3.649 -0.5003  0.2838 -0.0262
 6011SOL    HW229670   3.259   1.907   3.794  0.7786  0.4642 -0.4988
 6012SOL     OW29671   4.603   2.594   1.308  0.2706 -0.0899 -0.1400
 6012SOL    HW129672   4.604   2.677   1.356 -1.6550 -0.1915  0.0591
 6012SOL    HW229673   4.592   2.618   1.216 -0.6597 -0.9336 -0.2528
 6013SOL     OW29674   2.557   1.754   9.216  0.2001  0.2851 -1.0840
 6013SOL    HW129675   2.641   1.729   9.177 -0.2957 -1.4152 -1.0413
 6013SOL    HW229676   2.574   1.845   9.240  1.8387  0.0537 -1.3327
 6014SOL     OW29677   4.628   3.360   7.442  0.8870  0.0343  0.2051
 6014SOL    HW129678   4.612   3.409   7.361 -1.1974  2.1216  1.8779
 6014SOL    HW229679   4.570   3.402   7.506 -2.8356 -0.3306 -2.8809
 6015SOL     OW29680   4.534   3.465   4.295  0.3466  0.1424  0.2927
 6015SOL    HW129681   4.627   3.444   4.286  0.2807 -0.1904  0.4069
 6015SOL    HW229682   4.530   3.513   4.378  0.7278  1.3538 -0.3904
 6016SOL     OW29683   2.926   3.334   3.412  0.1194  0.2385 -0.1329
 6016SOL    HW129684   2.883   3.259   3.454  1.3054 -1.9697 -2.9163
 6016SOL    HW229685   3.019   3.321   3.429  0.9422  2.8277 -2.6458
 6017SOL     OW29686   1.462   0.431  12.695 -0.2057  0.3238  0.1294
 6017SOL    HW129687   1.481   0.525  12.697 -0.4693  0.4074 -1.3796
 6017SOL    HW229688   1.459   0.413  12.601 -2.2656  0.5528  0.1561
 6018SOL     OW29689   0.828   2.828   7.587  0.1671 -0.2374 -0.1209
 6018SOL    HW129690   0.876   2.882   7.649  0.9936 -1.0042 -0.0802
 6018SOL    HW229691   0.834   2.871   7.502  1.9687 -0.6058 -0.1835
 6019SOL     OW29692   3.293   3.754   1.013 -0.1868 -0.7294 -0.2098
 6019SOL    HW129693   3.362   3.732   0.950 -0.2241 -0.3353 -0.3888
 6019SOL    HW229694   3.222   3.700   0.979 -0.5982 -1.2342  1.4639
 6020SOL     OW29695   0.061   0.531   3.902  0.1411  0.1347 -0.6027
 6020SOL    HW129696   0.067   0.556   3.810 -1.4605  0.0319 -0.7346
 6020SOL    HW229697   0.008   0.602   3.937 -0.5122  0.2489 -1.8502
 6021SOL     OW29698   0.427   1.090   0.741 -0.9589 -0.3232 -0.1478
 6021SOL    HW129699   0.494   1.022   0.734  0.7006  0.9723  2.7149
 6021SOL    HW229700   0.372   1.066   0.816 -1.0258  0.0502 -0.0794
 6022SOL     OW29701   3.163   1.515   5.802  0.6474 -0.2218 -0.7147
 6022SOL    HW129702   3.069   1.515   5.785  0.1608 -0.5189  1.9826
 6022SOL    HW229703   3.177   1.439   5.858  0.5111 -0.3256 -0.8246
 6023SOL     OW29704   1.058   0.190   7.090  0.5063 -0.6160  0.1004
 6023SOL    HW129705   0.967   0.221   7.097  0.0703 -1.1958 -3.1924
 6023SOL    HW229706   1.078   0.165   7.000 -1.0062  1.0650 -0.7189
 6024SOL     OW29707   3.895   4.384   5.462 -0.2974 -0.1239 -0.2603
 6024SOL    HW129708   3.947   4.311   5.496  0.4758 -0.0250 -1.2418
 6024SOL    HW229709   3.948   4.406   5.386  0.6819 -0.6062  0.2734
 6025SOL     OW29710   4.405   0.072   7.102 -0.2513 -0.0493 -0.2642
 6025SOL    HW129711   4.353   0.105   7.029 -2.1340 -0.4081  0.9211
 6025SOL    HW229712   4.492   0.065   7.063  1.5390  2.6554  3.2975
 6026SOL     OW29713   3.919   1.364   5.798 -0.2396  0.4320 -0.2687
 6026SOL    HW129714   3.949   1.295   5.858  0.4674  1.5667  0.6803
 6026SOL    HW229715   3.912   1.303   5.724 -2.2802  0.3354  0.0054
 6027SOL     OW29716   3.239   4.341   5.706  0.4836 -0.0151 -0.0458
 6027SOL    HW129717   3.182   4.356   5.631  0.8732 -0.0855 -0.3540
 6027SOL    HW229718   3.228   4.424   5.754  0.5513 -0.0114 -0.0362
 6028SOL     OW29719   3.930   3.106   4.646  0.5392 -0.3729 -0.0034
 6028SOL    HW129720   3.962   3.107   4.555 -0.5605 -0.3454 -0.3957
 6028SOL    HW229721   3.852   3.162   4.645  1.8534  1.4611 -2.8961
 6029SOL     OW29722   0.167   4.552  16.676  0.4774 -0.2791 -1.0757
 6029SOL    HW129723   0.110   4.485  16.636  0.8736 -2.6278  2.2814
 6029SOL    HW229724   0.099   4.596  16.728  1.9617 -0.3389  0.9073
 6030SOL     OW29725   3.864   1.438   8.493  0.3246  0.5330 -0.8238
 6030SOL    HW129726   3.955   1.440   8.524  0.6957 -0.4907 -1.8275
 6030SOL    HW229727   3.874   1.377   8.420 -0.0500 -0.0964 -0.3510
 6031SOL     OW29728   0.997   3.172   2.361  0.1185  0.1746 -0.2426
 6031SOL    HW129729   0.980   3.252   2.312  0.1324 -0.4903 -1.3289
 6031SOL    HW229730   1.048   3.211   2.432  1.7366 -0.2221 -1.1693
 6032SOL     OW29731   1.300   1.215   4.195  0.2863  0.7826  0.3607
 6032SOL    HW129732   1.257   1.296   4.221  0.2549  1.2071 -1.0364
 6032SOL    HW229733   1.227   1.156   4.178 -0.8526  2.1133  0.6180
 6033SOL     OW29734   2.870   2.338   9.683 -0.3120  0.6768 -0.7563
 6033SOL    HW129735   2.927   2.293   9.621 -0.8767 -0.8131 -0.1814
 6033SOL    HW229736   2.806   2.269   9.698  0.1987  0.3685 -0.0379
 6034SOL     OW29737   0.655   3.559   7.704  0.1360 -0.4114 -0.6470
 6034SOL    HW129738   0.712   3.483   7.699 -0.4954 -0.9317  0.0815
 6034SOL    HW229739   0.705   3.612   7.642  1.8413 -0.0456  1.0525
 6035SOL     OW29740   4.527   3.584  13.512  0.1832  0.2747 -0.1323
 6035SOL    HW129741   4.521   3.588  13.608 -2.8055  0.2782 -0.3145
 6035SOL    HW229742   4.449   3.635  13.490 -0.0733  0.9749  2.3156
 6036SOL     OW29743   0.465   3.251   4.269 -0.4505  0.0481 -0.6722
 6036SOL    HW129744   0.528   3.323   4.269 -1.4257  0.8875 -0.5144
 6036SOL    HW229745   0.459   3.217   4.179 -0.8082  0.1851 -0.6998
 6037SOL     OW29746   2.352   0.763   5.148 -0.1926  0.0862  0.3215
 6037SOL    HW129747   2.337   0.684   5.095 -0.4365  1.1532 -1.2069
 6037SOL    HW229748   2.272   0.810   5.123  0.7899  1.0495 -1.0243
 6038SOL     OW29749   3.587   3.996  12.291 -0.2299  0.3775 -0.6348
 6038SOL    HW129750   3.584   3.972  12.383  0.6949  2.7630  0.0214
 6038SOL    HW229751   3.609   4.088  12.305  0.7616  0.1268 -0.4821
 6039SOL     OW29752   0.982   0.812  12.477 -0.1926  0.1698 -0.1051
 6039SOL    HW129753   1.017   0.749  12.414 -2.5130 -1.9108  0.7007
 6039SOL    HW229754   0.906   0.818  12.419 -0.1609 -2.8196 -0.4430
 6040SOL     OW29755   4.225   1.520   6.754  0.6529  0.0013  0.2079
 6040SOL    HW129756   4.292   1.456   6.726  0.0827 -1.2768  1.7550
 6040SOL    HW229757   4.222   1.577   6.678  0.2431 -0.8296 -0.3947
 6041SOL     OW29758   2.126   4.339  10.903 -0.2648 -0.0576  0.1899
 6041SOL    HW129759   2.123   4.253  10.946  0.1333  0.1241  0.5720
 6041SOL    HW229760   2.220   4.356  10.897 -0.0946 -1.0727 -0.0283
 6042SOL     OW29761   1.676   4.036  14.661  0.3450 -0.0548 -0.4909
 6042SOL    HW129762   1.752   4.093  14.675  0.1423  0.6752 -2.3031
 6042SOL    HW229763   1.716   3.959  14.701  0.9014  0.2224 -0.5127
 6043SOL     OW29764   0.276   2.895   7.781  0.3172  0.7865  0.5306
 6043SOL    HW129765   0.341   2.942   7.834  0.3781  0.9464  0.3156
 6043SOL    HW229766   0.219   2.960   7.739 -1.5131 -0.4876  1.0599
 6044SOL     OW29767   1.271   3.229   4.151  0.3356 -0.5089 -0.3659
 6044SOL    HW129768   1.288   3.150   4.099  0.9205 -0.8792  0.3911
 6044SOL    HW229769   1.357   3.240   4.190 -0.2011  2.0344  0.0825
 6045SOL     OW29770   3.466   0.473   2.616 -0.1343 -0.0250 -0.0218
 6045SOL    HW129771   3.485   0.407   2.682  0.9976 -2.0230 -2.3319
 6045SOL    HW229772   3.442   0.417   2.542  0.3566  0.3397 -0.4645
 6046SOL     OW29773   1.687   0.005  15.219 -0.7578  0.7019  0.1169
 6046SOL    HW129774   1.647   0.065  15.156 -3.2833 -0.8990  0.2114
 6046SOL    HW229775   1.773   4.731  15.180 -0.0539  2.3411  1.2088
 6047SOL     OW29776   3.966   2.847   6.114  0.5590  0.0181  0.9218
 6047SOL    HW129777   3.871   2.839   6.122  0.5699  0.0851  1.1207
 6047SOL    HW229778   3.980   2.906   6.040  2.0166 -2.2647 -0.5866
 6048SOL     OW29779   0.106   4.645   3.783 -0.1221  0.0626  0.3578
 6048SOL    HW129780   0.072   4.728   3.816 -0.7128  0.3092 -0.8728
 6048SOL    HW229781   0.142   4.681   3.702 -0.7998 -0.7173 -0.2876
 6049SOL     OW29782   3.228   0.533   3.478  0.3470 -0.7286 -0.7525
 6049SOL    HW129783   3.136   0.531   3.504 -0.0276  3.3992 -1.9063
 6049SOL    HW229784   3.263   0.450   3.512  3.2181  0.7901 -0.0154
 6050SOL     OW29785   1.753   2.143   9.595  0.2339 -0.3977 -0.6597
 6050SOL    HW129786   1.777   2.076   9.531  2.5101 -1.6558  1.5003
 6050SOL    HW229787   1.660   2.123   9.606  0.4257 -0.7240  0.3364
 6051SOL     OW29788   4.634   0.360   8.035  0.3887 -0.0089  0.5729
 6051SOL    HW129789   4.541   0.371   8.055  0.2310  3.1129 -1.7432
 6051SOL    HW229790   4.667   0.448   8.012 -0.7214 -0.0489 -1.2256
 6052SOL     OW29791   1.613   1.134  14.935 -0.1969 -0.1870 -0.5777
 6052SOL    HW129792   1.643   1.092  14.854 -0.0542 -2.6876  0.7946
 6052SOL    HW229793   1.569   1.062  14.981  0.2643 -0.9550 -1.3374
 6053SOL     OW29794   3.405   3.465  13.093 -0.4069 -0.3675 -0.4399
 6053SOL    HW129795   3.333   3.518  13.057 -1.9217 -1.1130  1.4627
 6053SOL    HW229796   3.357   3.383  13.082  0.3164 -0.7062 -0.9900
 6054SOL     OW29797   2.756   1.001   4.858  0.2734 -0.0237  0.1250
 6054SOL    HW129798   2.695   1.027   4.788 -1.2298  0.2556  1.5414
 6054SOL    HW229799   2.824   1.068   4.852 -0.0458  0.3135  0.2534
 6055SOL     OW29800   1.898   1.043   1.303 -0.2601 -0.1109 -0.9663
 6055SOL    HW129801   1.858   1.058   1.389  1.0766 -1.2417 -0.1357
 6055SOL    HW229802   1.981   1.088   1.316  0.4251 -1.3516 -1.0034
 6056SOL     OW29803   3.396   3.113   3.383 -0.2512 -0.0454 -0.8166
 6056SOL    HW129804   3.485   3.143   3.400 -0.0328 -2.3471  2.1109
 6056SOL    HW229805   3.386   3.035   3.438 -0.9714  1.0523  0.6182
 6057SOL     OW29806   0.565   0.671  15.375 -0.1105  0.0566 -0.4570
 6057SOL    HW129807   0.503   0.672  15.447  0.3627 -1.7201 -0.0294
 6057SOL    HW229808   0.608   0.756  15.381  2.3290 -1.0450 -2.2759
 6058SOL     OW29809   1.446   0.670   4.613  0.1196 -0.2280 -0.6305
 6058SOL    HW129810   1.381   0.677   4.683 -0.9905 -2.0694 -1.4700
 6058SOL    HW229811   1.472   0.761   4.602  2.5584 -0.8852 -0.2698
 6059SOL     OW29812   3.472   3.203   5.178  0.0188  0.5946  0.0749
 6059SOL    HW129813   3.385   3.187   5.142 -0.1040  1.7952 -0.1700
 6059SOL    HW229814   3.455   3.178   5.269 -0.8894  1.6911  0.2049
 6060SOL     OW29815   0.650   4.204   2.257  1.0654 -0.3913 -0.1291
 6060SOL    HW129816   0.617   4.245   2.177 -0.5634 -2.3327 -0.4594
 6060SOL    HW229817   0.708   4.134   2.229  0.7528 -0.0033 -1.7374
 6061SOL     OW29818   3.679   4.136   7.922 -0.2533 -0.1002 -0.1314
 6061SOL    HW129819   3.682   4.140   8.017  3.7336  0.4731 -0.2616
 6061SOL    HW229820   3.770   4.126   7.893  0.5538 -0.4879  2.5823
 6062SOL     OW29821   1.604   4.157   6.455  1.2217  0.2538 -0.4479
 6062SOL    HW129822   1.531   4.195   6.503 -1.2328 -1.4049 -2.8290
 6062SOL    HW229823   1.609   4.063   6.472 -1.6970  0.0860 -0.4792
 6063SOL     OW29824   0.883   1.628   3.666 -0.1136  0.3966 -0.1777
 6063SOL    HW129825   0.947   1.560   3.688 -1.0030 -0.9673 -1.8536
 6063SOL    HW229826   0.930   1.709   3.687 -1.1586  1.2555 -1.2461
 6064SOL     OW29827   2.690   0.253  14.273 -0.1583  0.2388  0.7826
 6064SOL    HW129828   2.745   0.252  14.195 -0.0211  1.9812  0.8651
 6064SOL    HW229829   2.610   0.211  14.241  0.3143 -1.3550  1.6991
 6065SOL     OW29830   3.467   1.015   5.746  0.0039  0.1393  0.1865
 6065SOL    HW129831   3.528   0.945   5.722 -0.1802  0.0496 -0.0209
 6065SOL    HW229832   3.412   1.027   5.669 -0.3796  1.7255  0.7071
 6066SOL     OW29833   3.010   3.979   0.091 -0.0687  0.1879 -0.5763
 6066SOL    HW129834   3.000   3.935   0.175  0.4636  0.3179 -0.4460
 6066SOL    HW229835   2.951   4.054   0.100 -2.5431 -1.6797 -1.2697
 6067SOL     OW29836   0.196   0.544   5.420 -0.0992 -0.5836 -0.2040
 6067SOL    HW129837   0.289   0.540   5.443  0.3251  0.0431 -1.7615
 6067SOL    HW229838   0.163   0.556   5.509 -1.4348  1.5555 -0.9897
 6068SOL     OW29839   0.288   1.526  17.255 -0.2915 -0.0801  0.0158
 6068SOL    HW129840   0.362   1.481  17.215 -1.7171 -0.9643 -1.6478
 6068SOL    HW229841   0.300   1.608  17.206 -1.6354  0.8412  1.2512
 6069SOL     OW29842   0.197   3.895   5.900 -0.2195 -0.0527  0.6351
 6069SOL    HW129843   0.172   3.974   5.852  0.7899  0.0947  0.3582
 6069SOL    HW229844   0.284   3.878   5.866 -0.8199 -2.3120  0.1662
 6070SOL     OW29845   0.602   2.421   5.383  0.3204 -0.2308 -0.7337
 6070SOL    HW129846   0.649   2.503   5.376 -0.7372  0.5505  1.1326
 6070SOL    HW229847   0.551   2.440   5.462 -2.5366  2.6923 -3.3013
 6071SOL     OW29848   2.494   0.483   6.849 -0.7301 -0.2389 -0.0388
 6071SOL    HW129849   2.448   0.550   6.900 -0.8540  0.3302 -0.9039
 6071SOL    HW229850   2.545   0.534   6.786  0.8699 -2.3396 -0.4616
 6072SOL     OW29851   2.264   1.684   3.770  0.1505 -0.2536  0.4513
 6072SOL    HW129852   2.184   1.735   3.756  1.7503  1.2478 -3.3940
 6072SOL    HW229853   2.271   1.668   3.864  0.5349 -1.9853  0.1411
 6073SOL     OW29854   3.343   4.683   0.766 -0.3130  0.0972 -0.4427
 6073SOL    HW129855   3.429   4.641   0.777  0.4284  1.9486  0.9652
 6073SOL    HW229856   3.282   4.610   0.769  0.5100 -0.6210 -1.1174
 6074SOL     OW29857   1.562   4.128   1.558 -0.7721 -0.1881 -0.7243
 6074SOL    HW129858   1.517   4.210   1.576  0.9000  0.4342  0.6037
 6074SOL    HW229859   1.557   4.129   1.462  0.0810 -0.9026 -0.7738
 6075SOL     OW29860   3.797   1.235   8.807 -0.3993  0.0389 -0.0527
 6075SOL    HW129861   3.874   1.180   8.820  0.8404  1.3732 -1.7117
 6075SOL    HW229862   3.829   1.309   8.755 -0.0285  0.5390  0.8948
 6076SOL     OW29863   0.217   1.473   4.585  1.3765  0.3794 -0.1056
 6076SOL    HW129864   0.174   1.558   4.598  0.9643  0.1750 -0.1498
 6076SOL    HW229865   0.294   1.483   4.642  1.7151 -1.0251 -0.3215
 6077SOL     OW29866   1.511   0.716   7.721 -0.0178 -0.4600  0.1182
 6077SOL    HW129867   1.418   0.734   7.709 -0.0967 -1.6533 -1.1546
 6077SOL    HW229868   1.520   0.679   7.809  2.4390 -2.8863 -1.1441
 6078SOL     OW29869   1.380   1.947   4.062  0.2109  0.0771 -0.0376
 6078SOL    HW129870   1.323   1.943   3.986 -0.9637 -0.9134  0.8849
 6078SOL    HW229871   1.366   2.035   4.097  2.7043  0.5495 -0.2546
 6079SOL     OW29872   3.624   4.184  16.724  0.1319  0.6235  0.6224
 6079SOL    HW129873   3.659   4.179  16.635  0.6532 -1.3045  0.9498
 6079SOL    HW229874   3.558   4.253  16.714 -0.7166 -0.1754  0.7608
 6080SOL     OW29875   1.986   1.051  15.483  0.1468  0.3162  0.5007
 6080SOL    HW129876   2.029   1.115  15.539 -0.6842 -0.3203  1.8434
 6080SOL    HW229877   1.940   1.110  15.423 -0.3015 -0.4239  0.1061
 6081SOL     OW29878   3.366   4.501   9.261 -0.0413 -0.4424  0.1603
 6081SOL    HW129879   3.352   4.414   9.223  0.0260 -0.3289 -0.1265
 6081SOL    HW229880   3.306   4.560   9.215 -1.0993 -0.2127  1.8441
 6082SOL     OW29881   0.827   2.973   2.462 -0.7699 -0.8441 -0.1244
 6082SOL    HW129882   0.873   3.043   2.415  0.4613 -0.0048  2.3214
 6082SOL    HW229883   0.904   2.920   2.481 -1.7879 -1.5304  2.0980
 6083SOL     OW29884   0.493   4.161   0.237 -0.6594  0.2788  0.0741
 6083SOL    HW129885   0.475   4.095   0.304  1.6913  1.9754  2.3787
 6083SOL    HW229886   0.446   4.234   0.278  0.3292  0.0767  1.5618
 6084SOL     OW29887   0.392   3.246  14.947  0.0347  0.1294 -0.3767
 6084SOL    HW129888   0.367   3.250  14.855 -0.2601  1.5326 -0.2287
 6084SOL    HW229889   0.448   3.168  14.949 -2.7285 -1.8930 -2.3570
 6085SOL     OW29890   2.367   1.620  13.636 -0.6734  0.4680  0.2401
 6085SOL    HW129891   2.324   1.579  13.561 -0.5397  0.7600  0.0046
 6085SOL    HW229892   2.346   1.559  13.707  0.0637 -1.1886 -0.9644
 6086SOL     OW29893   0.647   0.179  10.952 -0.2664  0.4356  0.4993
 6086SOL    HW129894   0.554   0.204  10.953  0.0743  1.7294  0.0604
 6086SOL    HW229895   0.679   0.197  11.041  1.6598 -0.9402  0.0659
 6087SOL     OW29896   3.133   3.262   6.260  0.3675  0.6019  0.1356
 6087SOL    HW129897   3.107   3.321   6.190  0.2417  1.0453  0.5556
 6087SOL    HW229898   3.057   3.204   6.266 -0.0015  1.3654  3.1392
 6088SOL     OW29899   2.552   3.103   6.539 -0.1229 -0.1537 -0.1112
 6088SOL    HW129900   2.616   3.168   6.509 -0.4758 -0.5459 -1.7365
 6088SOL    HW229901   2.599   3.027   6.505  0.4489  0.3888 -0.5284
 6089SOL     OW29902   4.050   4.583   2.378 -0.4896  0.0619  0.1038
 6089SOL    HW129903   4.143   4.564   2.390 -0.2839  2.2803  2.0299
 6089SOL    HW229904   4.039   4.532   2.297  1.4387 -2.5385  1.4588
 6090SOL     OW29905   1.205   1.774   4.857  0.0734  0.0227 -0.0774
 6090SOL    HW129906   1.159   1.855   4.835 -1.3225 -0.8832 -0.5589
 6090SOL    HW229907   1.134   1.710   4.845  1.0086 -0.6325 -2.1701
 6091SOL     OW29908   0.825   1.144   6.435 -0.0207 -0.4611  0.0042
 6091SOL    HW129909   0.757   1.116   6.495 -0.9072  0.2098 -0.6855
 6091SOL    HW229910   0.800   1.111   6.349 -3.4463  2.7082 -0.2392
 6092SOL     OW29911   2.626   4.030   3.093  0.3198  0.6284  0.1377
 6092SOL    HW129912   2.546   3.984   3.117 -0.9730  2.3923 -0.7786
 6092SOL    HW229913   2.689   3.992   3.154 -1.5536 -1.2411  0.9206
 6093SOL     OW29914   4.356   3.125   0.413  0.3434 -0.3996 -0.3134
 6093SOL    HW129915   4.311   3.041   0.419 -1.0573  0.3732  0.0662
 6093SOL    HW229916   4.291   3.185   0.376  1.1603  1.2464  0.9416
 6094SOL     OW29917   3.922   2.180   6.023  0.3186  0.2204  0.1804
 6094SOL    HW129918   3.945   2.267   5.993  0.6164 -0.1261 -0.5948
 6094SOL    HW229919   3.967   2.128   5.957 -2.9952 -2.0202 -0.3482
 6095SOL     OW29920   3.652   0.966   8.172 -0.2175 -0.2209 -0.3536
 6095SOL    HW129921   3.726   1.014   8.208  0.3853 -0.6291 -1.0580
 6095SOL    HW229922   3.578   0.983   8.230 -0.3080 -2.6729  0.2127
 6096SOL     OW29923   3.985   1.555  10.681 -0.4438 -0.2738  0.0099
 6096SOL    HW129924   4.077   1.575  10.701  0.2960 -1.6293 -2.0197
 6096SOL    HW229925   3.984   1.581  10.589  0.9109 -2.0483 -0.5026
 6097SOL     OW29926   3.086   0.929   8.603  0.4161  0.1580  0.1288
 6097SOL    HW129927   3.124   0.975   8.528 -0.0963  0.1528 -0.1346
 6097SOL    HW229928   2.994   0.955   8.608  0.9116  2.1909 -1.4309
 6098SOL     OW29929   0.552   4.578   7.147  0.0811  0.3056 -0.5119
 6098SOL    HW129930   0.573   4.535   7.230 -0.3352 -0.8506 -1.0180
 6098SOL    HW229931   0.462   4.602   7.168 -0.0383  0.0564 -0.7446
 6099SOL     OW29932   4.409   0.672  11.475  0.2642 -0.4143  0.1502
 6099SOL    HW129933   4.412   0.581  11.446 -3.4440 -0.1978 -0.9093
 6099SOL    HW229934   4.440   0.676  11.566 -0.9733  1.2978  0.4987
 6100SOL     OW29935   1.874   1.360   2.406  0.5912 -0.0036 -0.5591
 6100SOL    HW129936   1.889   1.377   2.313 -1.7260  0.9994 -0.7457
 6100SOL    HW229937   1.936   1.293   2.435  1.2229  1.1375  0.7490
 6101SOL     OW29938   3.650   2.828  16.995 -0.5976  0.3341 -0.4603
 6101SOL    HW129939   3.703   2.895  17.037  2.2062 -1.2719 -1.4082
 6101SOL    HW229940   3.683   2.818  16.906 -0.5621 -0.2606 -0.3813
 6102SOL     OW29941   4.660   3.472   8.816  0.3695 -0.2666  0.0642
 6102SOL    HW129942   0.006   3.516   8.838 -0.1235 -0.3500  2.0710
 6102SOL    HW229943   4.611   3.527   8.877  0.3149  0.5715 -0.7558
 6103SOL     OW29944   4.385   2.348  17.254 -0.2888 -0.1278  0.0707
 6103SOL    HW129945   4.441   2.273  17.276 -0.9021 -1.3509 -2.4430
 6103SOL    HW229946   4.319   2.304  17.200  0.9963 -1.9955 -0.0123
 6104SOL     OW29947   2.309   2.525   2.565  0.0504  0.1455  0.3450
 6104SOL    HW129948   2.348   2.611   2.581 -0.0958  0.3388 -0.3373
 6104SOL    HW229949   2.380   2.484   2.515  0.2201  2.1537 -1.0613
 6105SOL     OW29950   3.370   3.283  11.147  0.1601 -0.4104  0.1945
 6105SOL    HW129951   3.349   3.209  11.204  2.0091 -0.4064  0.9069
 6105SOL    HW229952   3.426   3.337  11.203 -2.5596  0.1662  2.2948
 6106SOL     OW29953   1.450   2.633   5.154 -0.1933 -0.3711  0.2644
 6106SOL    HW129954   1.521   2.606   5.212  0.6660  1.0106 -0.1414
 6106SOL    HW229955   1.489   2.701   5.099  1.2136 -0.0876  1.6313
 6107SOL     OW29956   1.358   3.424   1.841  0.0331  0.2620  0.2766
 6107SOL    HW129957   1.332   3.404   1.751  0.9824 -0.4804  0.1705
 6107SOL    HW229958   1.423   3.353   1.840  1.2575  1.3684  0.8998
 6108SOL     OW29959   2.563   3.587   2.578 -0.0494 -0.0036 -0.1056
 6108SOL    HW129960   2.599   3.500   2.561 -2.5282 -0.9664 -0.5277
 6108SOL    HW229961   2.478   3.576   2.622  0.4402  0.5261  0.9724
 6109SOL     OW29962   3.067   1.765   5.934 -0.0916  0.2037 -0.1615
 6109SOL    HW129963   3.082   1.672   5.915  1.6283  0.2636  0.8490
 6109SOL    HW229964   3.147   1.799   5.976  1.7453 -3.2534 -0.8812
 6110SOL     OW29965   4.346   3.683  13.040 -1.0417  0.1768  0.3200
 6110SOL    HW129966   4.292   3.644  13.110  0.0399  2.4673  2.4332
 6110SOL    HW229967   4.283   3.745  13.003 -0.4948  0.8413  0.5035
 6111SOL     OW29968   1.475   3.987   3.167 -0.1394 -0.6562 -0.0828
 6111SOL    HW129969   1.381   3.969   3.171 -0.4541  0.5805 -2.2753
 6111SOL    HW229970   1.480   4.079   3.192  1.6193 -0.4095 -1.3671
 6112SOL     OW29971   2.122   3.224  11.468  0.0140 -0.0733 -0.6956
 6112SOL    HW129972   2.142   3.178  11.550  1.3444 -2.0805 -2.1389
 6112SOL    HW229973   2.214   3.229  11.440 -0.4902 -0.2216 -2.4122
 6113SOL     OW29974   1.793   3.480   4.568  0.5812  0.2086 -0.1020
 6113SOL    HW129975   1.849   3.439   4.502  0.8598  0.4863 -0.0417
 6113SOL    HW229976   1.741   3.408   4.602 -1.2483  1.9734  0.8528
 6114SOL     OW29977   1.545   3.677   1.850  0.2878  0.2863 -0.3986
 6114SOL    HW129978   1.534   3.741   1.781  1.1719  2.0860  1.1362
 6114SOL    HW229979   1.491   3.605   1.818  0.6878  1.2921 -3.3053
 6115SOL     OW29980   1.543   4.509   0.489  0.0562  0.0800 -0.2769
 6115SOL    HW129981   1.539   4.413   0.483 -3.8827  0.2851 -0.9746
 6115SOL    HW229982   1.501   4.530   0.406  2.5737  1.1052 -1.3130
 6116SOL     OW29983   0.796   3.111   5.651 -0.2202 -0.6889 -0.0742
 6116SOL    HW129984   0.880   3.074   5.623 -0.6133 -0.1735 -1.9192
 6116SOL    HW229985   0.739   3.034   5.659 -0.2344 -0.5798  0.9393
 6117SOL     OW29986   4.456   3.325  13.076 -0.1136 -0.1048  0.2184
 6117SOL    HW129987   4.478   3.389  13.009 -0.3796  1.4918  1.6714
 6117SOL    HW229988   4.362   3.315  13.057 -0.4397  1.1692  1.1536
 6118SOL     OW29989   3.156   2.434   8.806  0.2482  0.2206 -0.4256
 6118SOL    HW129990   3.096   2.489   8.756 -0.8856 -0.8775 -0.2718
 6118SOL    HW229991   3.236   2.462   8.762  0.1084  0.3228 -0.6172
 6119SOL     OW29992   1.901   3.041   7.745  0.5136 -0.0322  0.0896
 6119SOL    HW129993   1.846   3.040   7.823  0.1093 -0.2324 -0.2019
 6119SOL    HW229994   1.986   3.027   7.788  0.7595  0.2242 -0.3113
 6120SOL     OW29995   1.247   4.733  10.036  0.2705 -0.4000  0.6060
 6120SOL    HW129996   1.308   0.046  10.090 -0.1337  1.3834 -0.5872
 6120SOL    HW229997   1.274   0.022   9.949  0.9622 -2.1557  0.3059
 6121SOL     OW29998   2.102   2.340  13.928 -0.2603  0.8384  0.0476
 6121SOL    HW129999   2.146   2.423  13.945  0.8446  0.0796  0.9290
 6121SOL    HW230000   2.050   2.364  13.852 -2.1096 -0.9160  0.7692
 6122SOL     OW30001   2.244   2.569   4.525 -0.3549 -0.2936 -0.0689
 6122SOL    HW130002   2.331   2.602   4.548 -1.2332  1.6334  0.4608
 6122SOL    HW230003   2.261   2.475   4.530  0.4780 -0.0667  1.4042
 6123SOL     OW30004   1.846   2.815   8.417 -0.0833  0.1259  0.1157
 6123SOL    HW130005   1.766   2.822   8.365 -0.2013 -3.1700 -0.1942
 6123SOL    HW230006   1.834   2.886   8.480 -1.4649  0.0025 -0.0105
 6124SOL     OW30007   0.201   1.581   7.242  0.2019  0.0614 -0.3731
 6124SOL    HW130008   0.174   1.542   7.325  2.5847  0.0763  0.4195
 6124SOL    HW230009   0.199   1.673   7.271  0.1900 -0.0615  0.0115
 6125SOL     OW30010   3.567   4.349   1.925 -0.4752 -0.6210  0.0414
 6125SOL    HW130011   3.482   4.312   1.900 -0.1599 -2.3133  1.4613
 6125SOL    HW230012   3.549   4.442   1.936 -0.2005 -0.6690  0.8500
 6126SOL     OW30013   2.432   4.226   0.044  0.3000 -0.5403 -0.0838
 6126SOL    HW130014   2.379   4.153   0.076  0.8955 -1.0543 -0.2570
 6126SOL    HW230015   2.412   4.226  17.696 -0.8010  0.6198  0.1524
 6127SOL     OW30016   4.287   3.280   1.757 -0.4171  0.1224  0.0245
 6127SOL    HW130017   4.199   3.318   1.753 -1.0175 -0.9933  2.3118
 6127SOL    HW230018   4.306   3.317   1.844 -1.1476 -0.3792  0.3979
 6128SOL     OW30019   1.109   1.810   3.689 -0.3961 -0.5124 -0.0662
 6128SOL    HW130020   1.176   1.836   3.626  0.8962 -1.9040  0.7615
 6128SOL    HW230021   1.127   1.878   3.753  0.3605  0.1887 -1.0215
 6129SOL     OW30022   3.192   2.292  17.214 -0.2176  0.1894 -0.0877
 6129SOL    HW130023   3.113   2.329  17.176 -0.6607  0.1562  0.8217
 6129SOL    HW230024   3.262   2.339  17.168 -0.1060 -1.1616 -1.3230
 6130SOL     OW30025   4.335   1.043   4.514  0.6091 -0.3081 -0.0279
 6130SOL    HW130026   4.420   1.003   4.527 -0.4779 -2.3884  0.7118
 6130SOL    HW230027   4.334   1.100   4.591  0.2919  2.6260 -2.1767
 6131SOL     OW30028   1.444   0.783  16.962 -0.0687 -0.1017  0.1689
 6131SOL    HW130029   1.531   0.811  16.934 -0.8489  1.0957 -1.0694
 6131SOL    HW230030   1.397   0.866  16.952 -0.9431 -0.7931 -1.4264
 6132SOL     OW30031   4.166   2.124   3.067  0.4481  0.2635 -0.2750
 6132SOL    HW130032   4.182   2.080   3.151 -1.3116 -0.2954 -0.2226
 6132SOL    HW230033   4.188   2.045   3.018  0.9624 -0.0059  0.3849
 6133SOL     OW30034   1.892   4.098   8.234 -0.6382  0.1275 -0.1171
 6133SOL    HW130035   1.837   4.166   8.273 -0.5648  0.1022  0.0303
 6133SOL    HW230036   1.921   4.131   8.148 -0.2000 -0.9081 -0.3659
 6134SOL     OW30037   2.903   1.196   3.483 -0.1457 -0.0784  0.9608
 6134SOL    HW130038   2.922   1.202   3.576  0.6235 -1.3356  0.8971
 6134SOL    HW230039   2.894   1.289   3.463 -0.0202 -0.4540 -0.8479
 6135SOL     OW30040   4.495   2.196   3.164  0.1062 -0.9381  0.3044
 6135SOL    HW130041   4.482   2.114   3.116 -2.3540  0.3979 -1.2936
 6135SOL    HW230042   4.538   2.242   3.093  1.5945 -0.6040  1.4196
 6136SOL     OW30043   1.645   4.460  12.952 -0.3235  0.2316 -0.0309
 6136SOL    HW130044   1.715   4.510  12.994  0.5531 -1.7202  0.8288
 6136SOL    HW230045   1.673   4.483  12.863 -1.1822  0.1198 -0.3252
 6137SOL     OW30046   1.290   3.481  13.345  0.5245 -0.6762 -0.0630
 6137SOL    HW130047   1.358   3.416  13.327  2.1094  1.4510 -1.7431
 6137SOL    HW230048   1.239   3.441  13.416  0.7562 -0.5117  0.1986
 6138SOL     OW30049   2.864   4.074  10.820 -0.0847  0.0092 -0.0306
 6138SOL    HW130050   2.928   4.144  10.827 -0.9762  0.7755  0.4349
 6138SOL    HW230051   2.860   4.068  10.725  1.9096  2.1287 -0.2386
 6139SOL     OW30052   4.674   2.178   4.666  0.0340  0.2258 -0.2435
 6139SOL    HW130053   4.600   2.141   4.618  0.8905 -1.2920 -0.3958
 6139SOL    HW230054   4.712   2.109   4.719  0.0607 -0.6361 -1.3924
 6140SOL     OW30055   2.803   1.808   4.812 -0.1262  0.4650  0.1810
 6140SOL    HW130056   2.785   1.829   4.903 -0.1703  0.3604  0.1962
 6140SOL    HW230057   2.898   1.795   4.818  0.0357  1.7113  0.1531
 6141SOL     OW30058   3.463   3.266   4.473  0.4790 -0.6823  0.1701
 6141SOL    HW130059   3.407   3.272   4.395  1.0292 -0.9729 -0.2449
 6141SOL    HW230060   3.485   3.358   4.483 -0.9549 -0.4310  0.9480
 6142SOL     OW30061   4.002   4.388   8.552  0.2988 -0.2928  0.4207
 6142SOL    HW130062   4.011   4.347   8.466  0.5925  0.3300  0.1552
 6142SOL    HW230063   4.031   4.478   8.538  2.6670 -1.4299 -1.9250
 6143SOL     OW30064   4.218   1.096   5.031 -0.0871  0.7684  0.3421
 6143SOL    HW130065   4.227   1.000   5.028  0.3483  0.8793 -1.8338
 6143SOL    HW230066   4.185   1.106   5.120 -1.8710 -1.8688 -0.0264
 6144SOL     OW30067   4.107   3.172   3.378  0.5060 -0.1976  0.3064
 6144SOL    HW130068   4.080   3.157   3.288  0.2038  0.5605  0.2797
 6144SOL    HW230069   4.202   3.185   3.379  0.4163  0.4664 -0.1222
 6145SOL     OW30070   4.440   2.785   3.219 -0.2389 -0.1732 -0.6262
 6145SOL    HW130071   4.412   2.846   3.150  0.7105  0.0569 -0.8065
 6145SOL    HW230072   4.407   2.709   3.171  0.1852  0.8045 -2.4579
 6146SOL     OW30073   2.252   0.248   2.711  0.2706  0.1145  0.0843
 6146SOL    HW130074   2.218   0.160   2.693  2.7789 -0.9105  0.2189
 6146SOL    HW230075   2.180   0.302   2.681  0.2168 -0.3465 -0.6359
 6147SOL     OW30076   4.659   1.951  11.782 -0.3407 -0.2283 -0.3606
 6147SOL    HW130077   4.707   2.027  11.749 -0.6523  0.0035 -0.2759
 6147SOL    HW230078   4.729   1.890  11.806  0.4623  0.8889  0.1260
 6148SOL     OW30079   4.650   4.026   6.047  0.0352  0.2857 -0.3213
 6148SOL    HW130080   0.005   4.038   6.024 -0.8353 -0.6062 -4.2199
 6148SOL    HW230081   4.601   4.039   5.966  0.0265  0.8786 -0.2229
 6149SOL     OW30082   0.678   4.548   5.145 -0.1076 -0.7939 -0.4479
 6149SOL    HW130083   0.660   4.545   5.051 -1.7899  0.0821 -0.1569
 6149SOL    HW230084   0.754   4.490   5.145  0.9455  0.6044 -0.5623
 6150SOL     OW30085   1.174   1.161   1.150  0.0167 -0.2036  0.4252
 6150SOL    HW130086   1.180   1.072   1.116 -0.3164 -0.3110  0.6405
 6150SOL    HW230087   1.223   1.152   1.231 -0.9112 -2.5368  0.7266
 6151SOL     OW30088   2.454   0.758   3.361  0.1667 -0.6000 -0.4088
 6151SOL    HW130089   2.516   0.829   3.345  0.3251 -1.3710 -3.1514
 6151SOL    HW230090   2.512   0.689   3.330  0.7192  0.2887 -1.3491
 6152SOL     OW30091   4.540   3.072   2.710 -0.0536 -0.7596 -0.2698
 6152SOL    HW130092   4.506   2.991   2.670 -0.5479 -0.8328  0.3041
 6152SOL    HW230093   4.459   3.121   2.724  0.4907 -0.3078  1.2360
 6153SOL     OW30094   0.330   0.807   7.965 -0.0791 -0.7914 -0.5543
 6153SOL    HW130095   0.346   0.714   7.947  0.3123 -1.0123  0.9960
 6153SOL    HW230096   0.421   0.838   7.967 -0.7454  1.2185 -1.0308
 6154SOL     OW30097   1.451   2.587   4.835 -0.1448 -0.4853 -0.6049
 6154SOL    HW130098   1.386   2.522   4.861 -1.1982  0.6596 -0.3671
 6154SOL    HW230099   1.493   2.541   4.762 -1.3248 -1.9729 -0.3521
 6155SOL     OW30100   2.634   3.545   1.767 -0.1142 -0.0850 -0.1925
 6155SOL    HW130101   2.668   3.634   1.765 -0.1091  0.0122  3.7540
 6155SOL    HW230102   2.604   3.541   1.858 -1.5579  1.1196 -0.6211
 6156SOL     OW30103   4.058   4.679   7.936 -0.2443  0.0070 -0.0259
 6156SOL    HW130104   3.969   4.687   7.902  0.1745 -0.8091 -1.3182
 6156SOL    HW230105   4.089   0.032   7.926 -3.7939  1.2726  0.3796
 6157SOL     OW30106   3.070   3.246   1.716  0.1668  0.4532 -0.3728
 6157SOL    HW130107   3.040   3.261   1.806  1.4328 -0.0375  0.1305
 6157SOL    HW230108   3.005   3.304   1.675  0.1659 -0.1000 -1.1324
 6158SOL     OW30109   1.118   2.306   8.227 -0.1316  0.1524  0.7596
 6158SOL    HW130110   1.209   2.286   8.248  0.0204 -0.5965 -0.6044
 6158SOL    HW230111   1.123   2.402   8.223 -1.7951  0.2754  1.3709
 6159SOL     OW30112   3.495   2.014   7.828  0.2004 -0.0198  0.1358
 6159SOL    HW130113   3.503   1.957   7.905 -2.6932  1.6917  1.7008
 6159SOL    HW230114   3.401   1.999   7.820 -0.2424  1.9066  1.5760
 6160SOL     OW30115   4.570   4.429  11.294  0.5906 -0.5111 -0.1251
 6160SOL    HW130116   4.496   4.372  11.278  0.8866 -1.3087  1.3800
 6160SOL    HW230117   4.583   4.419  11.388 -0.4145 -0.8903 -0.0365
 6161SOL     OW30118   4.602   3.052   2.107  0.4772 -0.1712 -0.0442
 6161SOL    HW130119   4.665   3.024   2.041 -0.9624 -1.0792 -1.0368
 6161SOL    HW230120   4.619   3.146   2.116  1.0473 -0.2527 -0.2732
 6162SOL     OW30121   0.844   0.826   7.755  0.4815 -0.1923  0.5437
 6162SOL    HW130122   0.761   0.798   7.794  0.4735  0.1371  0.7580
 6162SOL    HW230123   0.909   0.780   7.809  1.4650  1.2673  0.5844
 6163SOL     OW30124   2.952   1.951   8.929  0.1619 -0.2453 -0.3594
 6163SOL    HW130125   2.887   1.988   8.868  0.2319  1.7918  0.7962
 6163SOL    HW230126   3.026   2.005   8.903  0.0087  0.1838  0.0820
 6164SOL     OW30127   1.706   2.637   4.968 -0.1887  0.4304  0.2886
 6164SOL    HW130128   1.706   2.547   4.935  0.0859  1.0231 -1.3038
 6164SOL    HW230129   1.622   2.665   4.930  0.7565 -0.9222 -2.8193
 6165SOL     OW30130   2.665   1.538   1.848  0.4204 -0.0839  0.4824
 6165SOL    HW130131   2.664   1.614   1.907  0.9420  0.0645  0.3011
 6165SOL    HW230132   2.638   1.469   1.909 -1.6674  0.4671  0.1673
 6166SOL     OW30133   2.430   2.339   4.985 -0.6144  0.3347  0.0449
 6166SOL    HW130134   2.377   2.260   4.986 -0.0633  0.0211  3.7009
 6166SOL    HW230135   2.356   2.400   4.992 -0.0359  0.8410  1.7526
 6167SOL     OW30136   0.214   3.271   8.647 -0.5332 -0.1176 -0.2363
 6167SOL    HW130137   0.210   3.191   8.700  0.9077 -0.3711 -0.5272
 6167SOL    HW230138   0.121   3.293   8.640  0.0592  2.6803  0.5367
 6168SOL     OW30139   2.797   2.258   8.094 -0.1987  0.3110 -0.2486
 6168SOL    HW130140   2.764   2.348   8.100 -1.2918 -0.0025 -1.5489
 6168SOL    HW230141   2.751   2.214   8.165  1.3228 -1.7379 -0.5295
 6169SOL     OW30142   4.412   4.254   9.375  0.2213  0.7150 -0.8361
 6169SOL    HW130143   4.480   4.276   9.438 -0.9955  2.2998 -0.0785
 6169SOL    HW230144   4.366   4.338   9.368 -0.8029  0.0853 -1.6215
 6170SOL     OW30145   4.077   3.481   8.086  0.1243  0.4636  0.0323
 6170SOL    HW130146   4.111   3.560   8.043  1.9618 -0.1687  0.3214
 6170SOL    HW230147   4.020   3.438   8.022 -1.5477  2.4324  0.2090
 6171SOL     OW30148   1.450   3.453   4.805  0.2267  0.5116 -0.3301
 6171SOL    HW130149   1.371   3.461   4.859  1.8660 -2.6715  2.5208
 6171SOL    HW230150   1.492   3.533   4.838  0.2116 -0.1073  1.1930
 6172SOL     OW30151   3.820   1.912  12.884 -0.5344 -0.4928  0.5940
 6172SOL    HW130152   3.878   1.899  12.959 -0.7070  0.8062  0.9526
 6172SOL    HW230153   3.876   1.888  12.811 -2.1961 -0.3676 -0.7176
 6173SOL     OW30154   4.692   2.393   9.183  0.4913 -0.4518 -0.2757
 6173SOL    HW130155   0.049   2.377   9.175  0.6484  0.6037 -0.5694
 6173SOL    HW230156   4.690   2.473   9.236  1.3778 -0.4031 -0.3216
 6174SOL     OW30157   3.607   3.025   3.908 -0.9180 -0.0494 -0.2635
 6174SOL    HW130158   3.697   3.011   3.878 -1.0285  0.7910 -0.9714
 6174SOL    HW230159   3.569   2.945   3.872  1.6056 -1.6857  0.6641
 6175SOL     OW30160   4.407   0.525   5.975  0.3089 -0.1010 -0.7568
 6175SOL    HW130161   4.422   0.445   6.027 -0.5861  0.9936  1.2108
 6175SOL    HW230162   4.487   0.520   5.924  1.4364 -1.9571  1.1775
 6176SOL     OW30163   4.163   1.334   2.904  0.1664 -0.1949 -0.3672
 6176SOL    HW130164   4.164   1.356   2.997  2.5269 -1.8710  0.0256
 6176SOL    HW230165   4.254   1.308   2.886  0.3980 -0.7716  1.6203
 6177SOL     OW30166   3.617   2.046   0.425 -0.0975  0.3568 -0.2716
 6177SOL    HW130167   3.668   2.106   0.480 -0.7823  0.7064 -0.0158
 6177SOL    HW230168   3.526   2.068   0.449  0.9885  2.8616  1.5762
 6178SOL     OW30169   4.244   1.817  14.848 -0.4922  0.4036  0.3099
 6178SOL    HW130170   4.332   1.854  14.839  0.1833 -1.7883 -1.8548
 6178SOL    HW230171   4.197   1.888  14.804 -0.4398  0.0573 -0.3001
 6179SOL     OW30172   0.348   0.801   3.353 -0.5760 -0.1338  0.2507
 6179SOL    HW130173   0.327   0.877   3.299  0.0314 -0.5964 -0.6266
 6179SOL    HW230174   0.441   0.783   3.342 -1.0012 -0.9775 -2.0000
 6180SOL     OW30175   3.695   0.784   5.000 -0.0264 -0.9532  0.1205
 6180SOL    HW130176   3.600   0.790   4.987 -0.0606  1.9479  1.6765
 6180SOL    HW230177   3.715   0.705   4.950  0.2002 -1.9664  1.8176
 6181SOL     OW30178   2.607   2.693   8.426  0.0531 -0.0525 -0.4096
 6181SOL    HW130179   2.683   2.699   8.483 -0.5818 -1.1453  0.5576
 6181SOL    HW230180   2.607   2.763   8.361  1.4330 -1.0747 -1.5092
 6182SOL     OW30181   3.333   4.434   4.899 -0.0338  0.2550 -0.0094
 6182SOL    HW130182   3.270   4.494   4.938  0.0594  0.0263  0.4943
 6182SOL    HW230183   3.281   4.361   4.866  1.7923 -0.0716 -2.1600
 6183SOL     OW30184   3.772   0.694  10.069 -0.4670  0.0265 -0.2530
 6183SOL    HW130185   3.695   0.751  10.076  0.7797  1.9260 -2.1345
 6183SOL    HW230186   3.742   0.646   9.991  0.5744 -2.2781  0.7590
 6184SOL     OW30187   2.679   0.066   3.759  0.1735  0.3757 -0.3643
 6184SOL    HW130188   2.632   0.086   3.840  1.0295 -1.4052  0.5933
 6184SOL    HW230189   2.617   0.017   3.706 -0.4103  1.3507 -0.5756
 6185SOL     OW30190   2.053   2.926   7.517 -0.5407 -0.6216 -0.3748
 6185SOL    HW130191   2.083   2.993   7.456 -0.8002 -0.5193 -0.3895
 6185SOL    HW230192   2.000   2.975   7.580 -0.8455 -1.9133  0.3750
 6186SOL     OW30193   0.632   1.537   9.031 -0.4292  0.0194 -0.0733
 6186SOL    HW130194   0.723   1.548   9.060 -0.4422 -0.9785  0.3238
 6186SOL    HW230195   0.620   1.450   9.068 -0.3831  1.1120  2.5374
 6187SOL     OW30196   0.793   1.445  13.597  0.3787 -0.7942 -0.1959
 6187SOL    HW130197   0.875   1.397  13.601  1.1479  0.3843 -1.6498
 6187SOL    HW230198   0.832   1.521  13.640  0.2833 -1.0966  0.4243
 6188SOL     OW30199   0.048   2.770   5.843  0.4558  0.0774 -0.2324
 6188SOL    HW130200   0.016   2.859   5.826 -0.5875 -0.4146 -0.8361
 6188SOL    HW230201   4.709   2.719   5.816  1.0207 -1.0644  0.3261
 6189SOL     OW30202   1.787   1.534   0.180 -0.0660  0.1360  0.2395
 6189SOL    HW130203   1.732   1.589   0.124  1.9230  0.9379 -0.9080
 6189SOL    HW230204   1.840   1.490   0.113 -1.6319  1.1011 -1.6611
 6190SOL     OW30205   2.262   1.787  15.570 -0.3455  0.1241  0.3512
 6190SOL    HW130206   2.211   1.797  15.489  2.0581  0.5233 -1.1136
 6190SOL    HW230207   2.354   1.796  15.547  0.0233 -0.9879  1.3661
 6191SOL     OW30208   4.412   1.004   8.472  0.0791  0.3438 -0.4116
 6191SOL    HW130209   4.475   0.934   8.455  0.6973  0.3566  1.8923
 6191SOL    HW230210   4.456   1.072   8.420  0.9578 -0.6231 -0.9209
 6192SOL     OW30211   0.102   1.263   4.493  0.0183  0.5020  0.1173
 6192SOL    HW130212   0.035   1.252   4.559  1.8307 -2.0958  1.5139
 6192SOL    HW230213   0.131   1.352   4.516 -1.0849  0.5889  1.1572
 6193SOL     OW30214   1.694   4.008   4.511  0.0554  0.2557  0.3236
 6193SOL    HW130215   1.783   4.036   4.534  1.2155 -3.0276 -0.2247
 6193SOL    HW230216   1.659   3.961   4.587  0.7384 -1.2864 -0.3217
 6194SOL     OW30217   3.070   4.039   6.884 -0.2013  0.2523 -0.2124
 6194SOL    HW130218   3.021   4.117   6.857 -1.2162  0.0160  0.9238
 6194SOL    HW230219   3.005   4.003   6.945  1.3362 -1.0882  0.6579
 6195SOL     OW30220   1.572   2.428  11.674 -0.3462  0.2635 -0.7520
 6195SOL    HW130221   1.592   2.457  11.763  0.2153 -0.5468 -0.6135
 6195SOL    HW230222   1.486   2.390  11.691  0.2654 -1.5233 -1.7013
 6196SOL     OW30223   1.180   0.949  14.252 -0.3246 -0.4703  0.3152
 6196SOL    HW130224   1.123   0.954  14.328 -0.4538  1.1685  0.0995
 6196SOL    HW230225   1.181   1.037  14.214 -1.0888  0.2808  2.0913
 6197SOL     OW30226   0.969   3.245   5.373  0.8915  0.0215 -0.1143
 6197SOL    HW130227   1.001   3.161   5.405  1.3181  0.0384 -0.4949
 6197SOL    HW230228   1.049   3.279   5.332  0.5722 -0.4970 -1.1486
 6198SOL     OW30229   2.516   4.462   6.718  0.0501  0.0917 -0.3353
 6198SOL    HW130230   2.608   4.488   6.708  1.0463 -3.7295 -1.2211
 6198SOL    HW230231   2.538   4.370   6.704  0.8441  0.4854 -1.7277
 6199SOL     OW30232   0.707   3.164   4.520  0.7218  0.1064  0.3748
 6199SOL    HW130233   0.641   3.234   4.521  0.7415  0.1316  0.0959
 6199SOL    HW230234   0.774   3.203   4.464  0.8155  0.0531  0.4523
 6200SOL     OW30235   2.454   0.256   5.863 -0.2487  0.1435  0.1953
 6200SOL    HW130236   2.504   0.174   5.860 -1.1036 -0.3175 -1.3837
 6200SOL    HW230237   2.478   0.293   5.778 -1.5950  1.1005  0.2372
 6201SOL     OW30238   1.818   1.800   5.166 -0.0820  0.0596 -0.1962
 6201SOL    HW130239   1.802   1.720   5.217 -1.2230  0.4582  0.0542
 6201SOL    HW230240   1.902   1.822   5.206  0.5954 -0.1111 -1.5227
 6202SOL     OW30241   0.415   2.991  16.723 -0.2504 -0.8195  0.7574
 6202SOL    HW130242   0.496   3.011  16.677 -0.6186 -0.3544  0.3078
 6202SOL    HW230243   0.349   3.036  16.670  1.0161  0.8135  0.5832
 6203SOL     OW30244   2.332   3.738   5.845  0.1258  0.3136  0.0788
 6203SOL    HW130245   2.293   3.733   5.932 -1.8989  0.0349 -0.8532
 6203SOL    HW230246   2.336   3.646   5.819 -2.5245  0.3406 -0.4265
 6204SOL     OW30247   0.011   2.933   6.101 -0.3675 -0.0339 -0.1256
 6204SOL    HW130248   0.071   2.958   6.030 -0.6927  0.3144 -0.2769
 6204SOL    HW230249   4.661   2.970   6.083 -0.4278 -0.4214 -0.6388
 6205SOL     OW30250   0.700   3.648   2.598  0.7437  0.1781  0.1384
 6205SOL    HW130251   0.767   3.660   2.666 -0.7468  0.6422  1.5197
 6205SOL    HW230252   0.739   3.573   2.553 -0.7763 -0.1546 -0.5993
 6206SOL     OW30253   4.370   1.961  10.175 -0.2191 -0.2727  0.0380
 6206SOL    HW130254   4.326   1.892  10.225 -1.9053  0.4412 -0.4295
 6206SOL    HW230255   4.301   1.980  10.111  0.7008  3.9542  0.2869
 6207SOL     OW30256   2.789   3.679  16.768 -0.1035  0.1908  0.3060
 6207SOL    HW130257   2.735   3.683  16.847 -0.3169  2.5433  0.0402
 6207SOL    HW230258   2.784   3.587  16.741 -0.7465 -0.4478  2.5856
 6208SOL     OW30259   3.169   4.731  12.961  0.5577 -0.5643  0.2782
 6208SOL    HW130260   3.217   4.693  12.887  0.0544 -1.2719  0.3084
 6208SOL    HW230261   3.238   4.713  13.025 -0.3114 -1.4639  0.9496
 6209SOL     OW30262   2.026   0.578  12.067 -0.4628  0.4649 -0.1878
 6209SOL    HW130263   2.064   0.657  12.030 -1.1726  1.1876  0.6410
 6209SOL    HW230264   2.102   0.524  12.092  0.5359  1.4142 -1.1900
 6210SOL     OW30265   1.523   2.562  14.951 -0.5215  0.2905  0.3280
 6210SOL    HW130266   1.504   2.656  14.961  2.9438  1.0906 -0.6849
 6210SOL    HW230267   1.470   2.525  14.881  0.1276  0.7695 -0.4120
 6211SOL     OW30268   3.920   4.634   2.716  0.5383 -0.5236  0.3706
 6211SOL    HW130269   3.957   4.548   2.695  0.3976 -0.4302 -0.2476
 6211SOL    HW230270   3.861   4.645   2.642 -0.0790 -0.7318  0.8398
 6212SOL     OW30271   3.955   3.177   5.346 -0.0692  0.2153  0.3017
 6212SOL    HW130272   3.873   3.196   5.392 -1.2158 -0.7701 -1.3383
 6212SOL    HW230273   3.975   3.255   5.294  1.7983 -0.8782 -0.6240
 6213SOL     OW30274   0.254   0.337   3.660 -0.1556 -0.3236  0.1751
 6213SOL    HW130275   0.232   0.302   3.573  1.0897  1.5236 -0.8935
 6213SOL    HW230276   0.341   0.299   3.668 -0.5993 -1.3437  0.1409
 6214SOL     OW30277   4.140   1.234  13.550  0.0261 -0.6737  0.3784
 6214SOL    HW130278   4.187   1.250  13.632  0.2496 -3.3958  0.8052
 6214SOL    HW230279   4.204   1.189  13.495  0.0124 -0.0634 -0.1352
 6215SOL     OW30280   1.481   4.655  16.206 -0.2183 -0.7161  0.3014
 6215SOL    HW130281   1.402   4.673  16.155  0.6895 -1.2957 -1.3025
 6215SOL    HW230282   1.501   4.565  16.179  1.1365 -0.5784  0.8573
 6216SOL     OW30283   4.352   3.848   5.184  0.6146  0.0100 -0.2492
 6216SOL    HW130284   4.393   3.893   5.110  1.7986  1.2499  1.1582
 6216SOL    HW230285   4.265   3.880   5.159  0.7516  0.8086  0.2999
 6217SOL     OW30286   3.082   4.580   0.577  0.1121  0.3153 -0.8092
 6217SOL    HW130287   3.002   4.621   0.546  0.7781  1.6728 -0.7447
 6217SOL    HW230288   3.067   4.557   0.668 -2.3863 -1.1202 -1.5752
 6218SOL     OW30289   3.059   2.167   8.807 -0.5154 -0.8096 -0.0506
 6218SOL    HW130290   3.100   2.253   8.800 -1.1060 -0.5226  0.0558
 6218SOL    HW230291   3.082   2.122   8.725 -0.8324 -0.3225 -0.4046
 6219SOL     OW30292   4.384   0.010   2.225  0.0404  0.0930  0.0626
 6219SOL    HW130293   4.359   4.694   2.301 -0.9640  0.4573 -0.0153
 6219SOL    HW230294   4.404   0.088   2.276  2.3829 -0.0424 -0.6758
 6220SOL     OW30295   2.506   3.847   8.685 -0.4791  0.1629  0.0532
 6220SOL    HW130296   2.524   3.795   8.763  0.0030  2.4234  1.4399
 6220SOL    HW230297   2.480   3.791   8.612  0.5878 -1.0959  0.6433
 6221SOL     OW30298   2.323   1.125   7.130 -0.2905 -0.1657 -0.4061
 6221SOL    HW130299   2.357   1.044   7.092 -2.0877 -1.0828 -0.0399
 6221SOL    HW230300   2.234   1.135   7.096 -0.8654  0.3529  1.2506
 6222SOL     OW30301   4.266   3.839   2.007 -0.1850  0.0215 -0.0406
 6222SOL    HW130302   4.337   3.858   1.945 -0.7586 -0.8392 -0.9396
 6222SOL    HW230303   4.244   3.926   2.040 -2.6542 -1.6183  2.5850
 6223SOL     OW30304   2.634   4.099   4.339  0.3087  0.6201  0.6934
 6223SOL    HW130305   2.701   4.166   4.324  0.5019  0.3917  0.5463
 6223SOL    HW230306   2.572   4.136   4.276  0.0113 -3.0571 -1.1256
 6224SOL     OW30307   0.490   3.970   7.901 -0.1581 -0.0101  0.0414
 6224SOL    HW130308   0.553   4.042   7.890 -1.0615  1.2243  2.9619
 6224SOL    HW230309   0.556   3.903   7.887  1.4705  1.7573 -0.7416
 6225SOL     OW30310   1.867   1.543   7.857  0.1832  0.1562 -0.1230
 6225SOL    HW130311   1.905   1.552   7.769 -1.0083  1.1044 -0.5396
 6225SOL    HW230312   1.812   1.621   7.857 -0.6494 -0.4273 -1.2137
 6226SOL     OW30313   1.572   4.582   3.056  0.0484 -0.2346 -0.5344
 6226SOL    HW130314   1.597   4.596   3.147  0.3538  0.4905 -0.7317
 6226SOL    HW230315   1.653   4.541   3.025 -0.1345 -2.4888  2.0194
 6227SOL     OW30316   4.565   3.936   9.533 -0.1749 -0.3082  0.4612
 6227SOL    HW130317   4.484   3.916   9.487 -1.5119  1.5572  1.9806
 6227SOL    HW230318   4.531   3.967   9.617  1.4351 -1.9856  1.7256
 6228SOL     OW30319   1.822   1.249   4.701 -0.2052 -0.3248  0.5111
 6228SOL    HW130320   1.845   1.156   4.702 -1.2585 -0.6083 -1.6378
 6228SOL    HW230321   1.860   1.277   4.617  1.0097  0.7396  1.4035
 6229SOL     OW30322   4.011   0.433  13.687  0.1091 -0.1350  0.0601
 6229SOL    HW130323   4.070   0.406  13.616 -0.2238 -0.3738 -0.1260
 6229SOL    HW230324   4.077   0.429  13.757  0.5307 -1.1826 -0.3945
 6230SOL     OW30325   3.337   3.558   8.478  0.0022  0.0793 -0.1769
 6230SOL    HW130326   3.337   3.554   8.573 -1.2245 -0.2103 -0.1859
 6230SOL    HW230327   3.340   3.466   8.454  1.7549 -0.0808  0.7024
 6231SOL     OW30328   2.967   0.975   6.169 -0.3522 -0.1013  0.1523
 6231SOL    HW130329   3.036   1.029   6.208 -1.5797 -0.2699  2.5973
 6231SOL    HW230330   3.009   0.893   6.196 -0.6443 -0.8262 -1.6182
 6232SOL     OW30331   0.023   3.358   7.826 -0.1286 -0.6487 -0.3328
 6232SOL    HW130332   0.091   3.425   7.820 -2.4981  1.5254 -3.1657
 6232SOL    HW230333   0.039   3.310   7.745  0.6293 -1.5243  0.3416
 6233SOL     OW30334   1.558   1.444   4.902  0.3497  0.3023  0.0528
 6233SOL    HW130335   1.625   1.511   4.891 -1.7247  2.4001  0.1362
 6233SOL    HW230336   1.558   1.437   4.997 -1.2507 -1.3267 -0.0571
 6234SOL     OW30337   3.279   0.978  16.459 -0.1689 -0.3507 -0.0466
 6234SOL    HW130338   3.311   1.068  16.455  1.7736 -0.9951  0.8192
 6234SOL    HW230339   3.185   0.996  16.463  0.1720  0.8305  2.9204
 6235SOL     OW30340   3.213   3.125   2.160  0.0854 -0.5832 -0.8583
 6235SOL    HW130341   3.123   3.093   2.171  0.1125  0.1646  1.3384
 6235SOL    HW230342   3.177   3.181   2.091  0.2263 -2.5544 -2.5601
 6236SOL     OW30343   4.084   3.607  11.882 -0.1535 -0.4469  0.0727
 6236SOL    HW130344   4.047   3.657  11.809  0.0286 -0.3805  0.0263
 6236SOL    HW230345   4.027   3.638  11.952 -0.1316 -0.6695  0.1890
 6237SOL     OW30346   1.959   4.247   1.714  0.2559 -0.2898  0.0458
 6237SOL    HW130347   1.996   4.190   1.647  0.6642  0.6111 -0.5051
 6237SOL    HW230348   1.892   4.295   1.666 -1.0438 -1.1956  0.9641
 6238SOL     OW30349   0.080   3.423  14.382 -0.7640 -0.2898 -0.4406
 6238SOL    HW130350   0.067   3.513  14.353  0.0397  0.3654  1.2505
 6238SOL    HW230351   4.730   3.411  14.422 -0.3809  3.2733  1.4765
 6239SOL     OW30352   0.784   0.901  15.575  0.7495 -0.4155 -0.2949
 6239SOL    HW130353   0.830   0.921  15.656  1.6685  2.0190 -1.4006
 6239SOL    HW230354   0.731   0.979  15.564  0.5856 -0.4861 -0.0073
 6240SOL     OW30355   1.953   4.213   9.303 -0.3941  0.1581  0.0804
 6240SOL    HW130356   1.976   4.135   9.354 -1.5273  0.1383  0.5589
 6240SOL    HW230357   1.973   4.276   9.372 -0.6926  1.4525 -1.0068
 6241SOL     OW30358   3.357   3.726   3.235  0.2384 -0.0477  0.1421
 6241SOL    HW130359   3.367   3.796   3.171  2.6610  0.5429  1.1588
 6241SOL    HW230360   3.394   3.769   3.313  0.4220  2.2912 -1.2104
 6242SOL     OW30361   2.946   4.696   6.978 -0.3148  0.5233  0.1232
 6242SOL    HW130362   3.037   4.714   7.000 -0.3515  1.9689 -0.9053
 6242SOL    HW230363   2.907   0.041   7.007  0.4829  1.3391 -1.0764
 6243SOL     OW30364   1.249   1.180  15.224  0.0162  0.0292 -0.0907
 6243SOL    HW130365   1.173   1.140  15.266  0.9527 -0.0182  1.5487
 6243SOL    HW230366   1.263   1.121  15.150  0.3760  0.2272 -0.1824
 6244SOL     OW30367   0.101   3.079   7.055 -0.0598 -0.7930  0.3430
 6244SOL    HW130368   0.049   2.999   7.066 -1.8060  0.5694  1.9392
 6244SOL    HW230369   0.029   3.139   7.071  1.1493  0.8659 -0.4282
 6245SOL     OW30370   0.458   3.665   5.804 -0.2925  0.1134  0.1166
 6245SOL    HW130371   0.388   3.607   5.773  0.3088  0.5845 -2.1607
 6245SOL    HW230372   0.515   3.681   5.728 -0.5061  0.0029 -0.0676
 6246SOL     OW30373   3.033   2.756  17.419  0.2431 -0.2069  0.1302
 6246SOL    HW130374   3.097   2.717  17.359  0.5059 -0.4363  0.5624
 6246SOL    HW230375   3.080   2.822  17.469  2.6188 -1.0310 -1.0114
 6247SOL     OW30376   2.111   2.871   5.341 -0.4119 -0.2005 -0.4534
 6247SOL    HW130377   2.125   2.837   5.429  1.7261  0.0321 -0.7139
 6247SOL    HW230378   2.100   2.793   5.287  2.1021 -0.6538 -0.3179
 6248SOL     OW30379   1.699   3.823   5.269 -0.1862  0.2564  0.1925
 6248SOL    HW130380   1.722   3.914   5.285 -1.6524  0.8497 -1.1381
 6248SOL    HW230381   1.635   3.843   5.202 -2.3312  2.3816  2.9097
 6249SOL     OW30382   0.547   0.369   3.081  0.0247 -0.7086 -0.0942
 6249SOL    HW130383   0.592   0.319   3.013  0.6491 -0.4025  0.0993
 6249SOL    HW230384   0.503   0.435   3.027  1.3854 -1.3286 -1.9610
 6250SOL     OW30385   4.632   0.051   9.228  0.4318  0.2926  0.5045
 6250SOL    HW130386   4.542   0.037   9.200  1.4484 -0.1103 -2.5110
 6250SOL    HW230387   4.617   0.135   9.273 -0.8348 -0.3697  1.3252
 6251SOL     OW30388   2.817   3.887   3.239  0.2526  0.3919  0.1600
 6251SOL    HW130389   2.911   3.874   3.245  0.3366  0.3604 -1.1205
 6251SOL    HW230390   2.789   3.797   3.225  0.3976  0.6270 -1.6160
 6252SOL     OW30391   3.808   2.229   9.908  0.2323 -0.8871 -0.1214
 6252SOL    HW130392   3.795   2.307   9.962  1.1683 -0.3810 -0.6414
 6252SOL    HW230393   3.851   2.270   9.834 -0.1552  2.6193  1.6099
 6253SOL     OW30394   4.461   0.189  12.589  0.3531  0.4148 -0.6957
 6253SOL    HW130395   4.518   0.113  12.597  0.6342  0.6120 -0.8311
 6253SOL    HW230396   4.522   0.262  12.577  2.3016 -1.1106 -0.0340
 6254SOL     OW30397   0.835   2.861  10.994  0.1551 -0.0624 -0.1139
 6254SOL    HW130398   0.917   2.885  11.038 -0.4062 -1.0206  1.4318
 6254SOL    HW230399   0.775   2.931  11.019 -2.4172 -2.5974  0.6809
 6255SOL     OW30400   0.346   1.438  10.354 -0.0879 -0.3437 -0.0896
 6255SOL    HW130401   0.375   1.347  10.361  0.1651 -0.2936 -0.4665
 6255SOL    HW230402   0.399   1.472  10.281  1.2455 -2.7771 -0.2589
 6256SOL     OW30403   0.706   3.260   1.839 -0.3301  0.1365  0.0817
 6256SOL    HW130404   0.678   3.184   1.788 -0.9125  0.6639 -0.3791
 6256SOL    HW230405   0.637   3.257   1.906 -0.2679 -0.9259  0.1057
 6257SOL     OW30406   3.038   0.136   7.666  0.1713 -0.1503  0.0805
 6257SOL    HW130407   3.109   0.104   7.611  2.0637 -0.8158  2.9204
 6257SOL    HW230408   3.091   0.166   7.740 -1.1906  0.4819  0.8014
 6258SOL     OW30409   0.608   0.002   7.864 -0.2410 -0.1801 -0.2026
 6258SOL    HW130410   0.687   0.041   7.828  0.0489  0.3662  1.0296
 6258SOL    HW230411   0.542   0.037   7.804  1.3543  0.8062 -1.3706
 6259SOL     OW30412   3.543   2.969   0.948  0.0182 -0.1938 -0.0973
 6259SOL    HW130413   3.576   2.894   0.996  1.4411  0.6225  0.2156
 6259SOL    HW230414   3.524   3.020   1.027 -0.9957  0.1580 -0.5665
 6260SOL     OW30415   1.838   4.277   6.415 -0.4669 -0.6908 -0.0985
 6260SOL    HW130416   1.899   4.205   6.431  2.5598  1.5846 -1.3723
 6260SOL    HW230417   1.754   4.236   6.434 -0.0068 -1.2240  0.7582
 6261SOL     OW30418   4.004   2.316   2.664  0.2429  0.2544  0.4321
 6261SOL    HW130419   3.935   2.268   2.709  0.6320 -2.2164 -1.5608
 6261SOL    HW230420   4.001   2.278   2.576  0.5639  2.0612 -0.3595
 6262SOL     OW30421   2.705   4.284   7.811  0.8406  0.2174 -0.3414
 6262SOL    HW130422   2.752   4.214   7.765  0.6986 -0.1897  0.1243
 6262SOL    HW230423   2.773   4.302   7.877  0.0832  3.5070 -0.4726
 6263SOL     OW30424   0.341   4.381   2.650  0.2008  0.5972  0.2544
 6263SOL    HW130425   0.316   4.465   2.610  1.6477  0.1170 -1.6493
 6263SOL    HW230426   0.255   4.359   2.687 -0.0946  3.1761  1.0804
 6264SOL     OW30427   4.514   4.361   8.484 -0.1941 -0.3563 -0.1023
 6264SOL    HW130428   4.429   4.325   8.512  0.6581 -2.2814  0.0076
 6264SOL    HW230429   4.535   4.292   8.421  0.1700 -1.8845  1.6861
 6265SOL     OW30430   0.158   0.001   6.302  0.0648  0.2141  0.5568
 6265SOL    HW130431   0.122   4.651   6.319  0.1066  0.3925  1.5590
 6265SOL    HW230432   0.243   4.709   6.270 -0.7918 -2.1187  0.3761
 6266SOL     OW30433   3.310   3.246   2.390 -0.2826 -0.0345 -0.0110
 6266SOL    HW130434   3.271   3.214   2.309  0.5314 -0.2694 -0.3082
 6266SOL    HW230435   3.252   3.224   2.463 -0.2667 -0.8163 -0.2328
 6267SOL     OW30436   2.238   1.076   2.804  0.2147 -0.2390 -0.0620
 6267SOL    HW130437   2.182   1.144   2.766  1.7089  0.6330 -0.7345
 6267SOL    HW230438   2.283   1.044   2.726  0.4726  2.2910 -0.9724
 6268SOL     OW30439   3.307   3.333  11.475 -0.3034  0.3814  0.2213
 6268SOL    HW130440   3.341   3.244  11.465 -0.6925 -0.0649  2.7292
 6268SOL    HW230441   3.376   3.353  11.539  0.1109  0.9809 -0.4211
 6269SOL     OW30442   2.724   1.665   2.507 -0.3081  0.0094 -1.0890
 6269SOL    HW130443   2.742   1.609   2.582 -1.6226  1.0963  0.0436
 6269SOL    HW230444   2.759   1.744   2.549  0.5092 -0.9477  0.0209
 6270SOL     OW30445   2.587   2.808   2.214  0.1860 -0.4858  0.0543
 6270SOL    HW130446   2.565   2.833   2.125 -1.4459  0.8796  0.8279
 6270SOL    HW230447   2.533   2.872   2.261  1.0585 -0.7833  1.4749
 6271SOL     OW30448   2.991   0.539   3.603 -0.0880  0.0256 -0.5142
 6271SOL    HW130449   2.972   0.455   3.645 -0.5598  1.7243  2.6770
 6271SOL    HW230450   2.912   0.565   3.557 -0.2882 -0.4442 -0.4413
 6272SOL     OW30451   4.247   0.464  10.563  0.2189  0.5024 -0.1069
 6272SOL    HW130452   4.241   0.559  10.555 -0.3832  0.4254 -0.4875
 6272SOL    HW230453   4.337   0.452  10.531 -0.1506 -1.7100 -0.3107
 6273SOL     OW30454   3.323   2.486   3.419 -0.1547  0.1450 -0.4691
 6273SOL    HW130455   3.338   2.540   3.341  0.4199  1.9475  0.8987
 6273SOL    HW230456   3.413   2.460   3.439  0.3221  1.4053 -0.9729
 6274SOL     OW30457   4.030   1.718   0.730 -0.5125  1.2347  0.1062
 6274SOL    HW130458   4.032   1.749   0.640 -0.7636 -1.7452 -0.8962
 6274SOL    HW230459   4.108   1.662   0.728 -1.5816 -0.2475  0.1880
 6275SOL     OW30460   3.460   2.120   7.077  0.0360  0.7460 -0.5923
 6275SOL    HW130461   3.535   2.085   7.031  0.9115 -0.0274  1.4338
 6275SOL    HW230462   3.452   2.216   7.075  0.7248  0.8190  0.6660
 6276SOL     OW30463   1.504   0.639   7.981  0.1080 -0.0070 -0.4690
 6276SOL    HW130464   1.520   0.546   8.001  0.4230 -0.2994 -2.0560
 6276SOL    HW230465   1.559   0.690   8.040 -1.4818  0.6402  0.4292
 6277SOL     OW30466   4.174   2.844   2.415  0.1140 -0.1865 -0.2501
 6277SOL    HW130467   4.205   2.848   2.506 -2.2665 -0.1908  0.5829
 6277SOL    HW230468   4.115   2.920   2.418 -1.8407 -1.7249  0.3993
 6278SOL     OW30469   2.149   3.278   8.603  0.3591  0.0430  0.5366
 6278SOL    HW130470   2.210   3.346   8.630  0.8937  0.7615 -2.4725
 6278SOL    HW230471   2.195   3.199   8.633  3.5379  1.2429 -1.1665
 6279SOL     OW30472   3.731   1.236   3.401  0.1625 -0.0793  0.1929
 6279SOL    HW130473   3.658   1.283   3.440  0.7589 -0.8808  2.2715
 6279SOL    HW230474   3.687   1.193   3.328 -0.0988  1.7815 -0.7405
 6280SOL     OW30475   4.605   2.069   9.826  0.0363  0.6951  0.2316
 6280SOL    HW130476   4.690   2.052   9.867  0.2650 -1.3647 -1.0865
 6280SOL    HW230477   4.602   2.164   9.836 -0.6258  0.7328 -0.3253
 6281SOL     OW30478   0.051   1.351  17.210 -0.2846  0.6316  0.0225
 6281SOL    HW130479   0.094   1.271  17.238 -0.1248  0.5725 -0.3970
 6281SOL    HW230480   0.126   1.409  17.196  0.0729  0.4992  1.4262
 6282SOL     OW30481   2.344   4.319   6.201  0.1587  0.2294  0.0139
 6282SOL    HW130482   2.342   4.283   6.113 -1.8660  0.6716 -0.1112
 6282SOL    HW230483   2.295   4.400   6.184 -0.7893 -0.4501 -0.4529
 6283SOL     OW30484   0.035   0.451   2.842 -0.1010  0.6538  0.8783
 6283SOL    HW130485   0.033   0.370   2.894  1.8115 -0.7054 -1.1377
 6283SOL    HW230486   0.060   0.425   2.753 -0.8376  2.9023  0.0166
 6284SOL     OW30487   4.090   0.042  16.117 -0.0780  0.2744 -0.2447
 6284SOL    HW130488   4.029   0.010  16.051 -1.0812 -1.1475  1.3876
 6284SOL    HW230489   4.068   4.728  16.195  0.7341 -0.9775 -0.8433
 6285SOL     OW30490   4.298   1.182   3.684  0.0719 -0.4955  0.1081
 6285SOL    HW130491   4.385   1.213   3.662  0.0893 -0.6507 -0.0422
 6285SOL    HW230492   4.243   1.237   3.629 -0.1844  0.3361  1.1886
 6286SOL     OW30493   2.343   2.057   7.014 -0.3605 -0.0525  0.4164
 6286SOL    HW130494   2.382   1.972   6.994 -2.1104 -0.3913 -1.5007
 6286SOL    HW230495   2.364   2.095   6.929 -0.1347 -2.2408 -0.5076
 6287SOL     OW30496   1.380   2.070  17.581 -0.0352 -0.6176 -0.3593
 6287SOL    HW130497   1.465   2.092  17.619 -1.1915  2.5054  0.4659
 6287SOL    HW230498   1.346   2.159  17.593 -1.8123 -1.2881 -0.2912
 6288SOL     OW30499   4.415   2.233   0.980 -0.0565  0.3762  0.1817
 6288SOL    HW130500   4.459   2.176   0.917  0.1653 -0.3645  1.0181
 6288SOL    HW230501   4.353   2.271   0.918  1.1970  1.4082 -0.4568
 6289SOL     OW30502   0.288   2.128  17.664  0.4089  0.4639 -0.2032
 6289SOL    HW130503   0.220   2.153  17.602 -0.7005 -2.3367 -0.1099
 6289SOL    HW230504   0.246   2.050  17.700 -0.6620  1.9191  1.7294
 6290SOL     OW30505   1.182   0.389   4.029 -0.3375  0.4695  0.5057
 6290SOL    HW130506   1.090   0.403   4.051 -0.4373  1.2873 -0.4447
 6290SOL    HW230507   1.169   0.352   3.942 -2.4230  0.7992  0.6749
 6291SOL     OW30508   0.502   4.712   5.397 -0.2169 -0.3890  0.0679
 6291SOL    HW130509   0.537   4.668   5.475  1.2524  0.1883 -0.2688
 6291SOL    HW230510   0.505   0.068   5.419 -1.2372 -0.7410  1.6972
 6292SOL     OW30511   1.488   2.740   5.517 -0.0563  0.2434  0.2389
 6292SOL    HW130512   1.460   2.826   5.486 -3.3911 -0.7340  0.5193
 6292SOL    HW230513   1.559   2.776   5.570  1.4849  0.0192 -1.6863
 6293SOL     OW30514   1.317   2.681  13.096 -0.5128 -0.4915 -0.1827
 6293SOL    HW130515   1.399   2.638  13.120 -0.3991 -1.2387 -1.9336
 6293SOL    HW230516   1.301   2.640  13.011 -3.0292  0.9253 -0.3770
 6294SOL     OW30517   3.489   3.667  10.596  0.6406 -0.4800 -0.2725
 6294SOL    HW130518   3.450   3.725  10.531 -1.4393 -0.7390  0.7651
 6294SOL    HW230519   3.442   3.585  10.579 -1.5577  0.6787  0.2804
 6295SOL     OW30520   3.910   3.037   9.343  0.6478 -0.1776  0.1955
 6295SOL    HW130521   3.970   3.089   9.290 -0.7489 -0.6055 -1.8044
 6295SOL    HW230522   3.885   2.962   9.288  3.1762 -0.1668 -0.9373
 6296SOL     OW30523   2.605   2.213   6.236 -0.3801 -0.9985  0.3965
 6296SOL    HW130524   2.555   2.197   6.315 -1.7433  3.4337  0.3899
 6296SOL    HW230525   2.602   2.127   6.194 -1.4356 -0.7140 -0.0911
 6297SOL     OW30526   2.585   2.588   3.223 -0.6874 -0.1188 -0.0940
 6297SOL    HW130527   2.663   2.539   3.199  0.0876  0.5932  0.9508
 6297SOL    HW230528   2.581   2.668   3.170  0.3498 -1.1606 -1.7495
 6298SOL     OW30529   1.240   2.524   6.816 -0.1666 -1.0672 -0.0465
 6298SOL    HW130530   1.151   2.489   6.804 -1.2009  1.3351  0.7162
 6298SOL    HW230531   1.287   2.469   6.753 -1.4623 -1.7076 -0.4599
 6299SOL     OW30532   0.507   1.474   8.812 -0.6330 -0.1003  0.2298
 6299SOL    HW130533   0.529   1.382   8.828  2.6150  0.5006 -0.7789
 6299SOL    HW230534   0.558   1.521   8.878 -0.5590  0.0313  0.0819
 6300SOL     OW30535   2.327   3.379   3.304 -0.5346  0.0266  0.0153
 6300SOL    HW130536   2.245   3.422   3.281 -0.3703 -0.2089 -1.0319
 6300SOL    HW230537   2.287   3.309   3.355  1.0724 -0.4399  0.6248
 6301SOL     OW30538   1.500   1.021   5.702  0.5901  0.8768 -0.2546
 6301SOL    HW130539   1.586   1.058   5.681  0.3570  3.3282  3.2031
 6301SOL    HW230540   1.440   1.079   5.654  0.6784  1.1951  0.0203
 6302SOL     OW30541   1.747   3.790   2.505  0.0953 -0.0400 -0.2921
 6302SOL    HW130542   1.841   3.787   2.525 -0.4405 -1.7453  1.8993
 6302SOL    HW230543   1.714   3.716   2.555 -1.9442  1.1196  0.1021
 6303SOL     OW30544   3.921   4.199   8.318  0.5443 -0.1023 -0.2728
 6303SOL    HW130545   3.831   4.219   8.293  0.6080  0.7739  0.1912
 6303SOL    HW230546   3.971   4.217   8.239  0.1926  3.8325  0.4334
 6304SOL     OW30547   0.621   2.913   7.085  0.3060  0.0705  0.5494
 6304SOL    HW130548   0.683   2.841   7.086  2.1218  1.6356  2.1210
 6304SOL    HW230549   0.542   2.871   7.118 -0.3363 -2.3532 -4.1308
 6305SOL     OW30550   3.195   1.089   5.594 -0.0346 -0.4206  0.0649
 6305SOL    HW130551   3.157   1.021   5.650 -1.7018  0.0246 -0.5333
 6305SOL    HW230552   3.135   1.162   5.608  1.4209  0.7603  0.1543
 6306SOL     OW30553   4.113   4.461   8.289  0.6054 -0.5865  0.6441
 6306SOL    HW130554   4.077   4.462   8.200 -0.6824  0.3069  1.1791
 6306SOL    HW230555   4.200   4.434   8.261 -0.0201  0.1767 -2.0686
 6307SOL     OW30556   0.965   2.238   6.259 -0.3202  0.2908 -0.2891
 6307SOL    HW130557   1.020   2.315   6.246 -0.6418  0.8326  1.5951
 6307SOL    HW230558   0.974   2.202   6.171  1.1426  1.5875 -0.6794
 6308SOL     OW30559   4.672   3.020   4.906 -0.1628 -0.5770  0.1061
 6308SOL    HW130560   0.004   3.022   4.839 -0.1166 -0.9616  0.1397
 6308SOL    HW230561   4.677   3.092   4.970  2.2708 -0.4364 -0.2317
 6309SOL     OW30562   1.602   0.584  17.085  0.0704 -0.6241  0.2504
 6309SOL    HW130563   1.672   0.599  17.022 -0.0514 -0.4958  0.1453
 6309SOL    HW230564   1.529   0.635  17.050  0.3923 -1.3428 -1.4760
 6310SOL     OW30565   2.078   2.453   4.132  0.2129  0.0869  0.6012
 6310SOL    HW130566   2.130   2.406   4.067  2.4957  2.3062  0.8506
 6310SOL    HW230567   2.032   2.382   4.177  1.0565  0.0065  1.3355
 6311SOL     OW30568   2.825   0.446   1.238  0.6624 -0.0212  0.1960
 6311SOL    HW130569   2.844   0.392   1.316 -0.1625 -2.3687 -1.2150
 6311SOL    HW230570   2.730   0.435   1.238  1.0014 -3.1786  2.4391
 6312SOL     OW30571   1.371   4.660   2.157 -0.4613  0.4881  0.7603
 6312SOL    HW130572   1.281   4.692   2.155 -0.7920 -0.5031 -0.6114
 6312SOL    HW230573   1.419   4.726   2.108 -0.1587 -2.0262 -2.3643
 6313SOL     OW30574   0.085   3.035   9.162  0.2819  0.1766  0.3419
 6313SOL    HW130575   0.021   2.966   9.180  0.4936  0.2544  1.3508
 6313SOL    HW230576   0.027   3.102   9.198 -0.0546  0.8772 -1.4700
 6314SOL     OW30577   0.241   4.366   8.458  0.3255 -0.0009 -0.4412
 6314SOL    HW130578   0.245   4.289   8.514  2.7276  0.9175  0.6683
 6314SOL    HW230579   0.164   4.351   8.403  0.4242  0.8071 -0.8034
 6315SOL     OW30580   1.039   4.664   9.690  0.2002  0.1273 -0.4241
 6315SOL    HW130581   0.987   4.584   9.683 -0.9999  0.9318 -0.6571
 6315SOL    HW230582   0.968   4.728   9.699  0.7330  0.7176 -0.3694
 6316SOL     OW30583   2.271   0.942   8.713 -0.1919 -0.4764 -0.3124
 6316SOL    HW130584   2.255   0.911   8.623 -0.7337  2.2810 -1.1516
 6316SOL    HW230585   2.190   0.919   8.759  0.1120  0.2809  0.5809
 6317SOL     OW30586   0.822   1.038  12.866  0.0426  0.2959 -0.4678
 6317SOL    HW130587   0.825   1.130  12.890  3.2143  0.1580 -0.4329
 6317SOL    HW230588   0.774   0.998  12.940 -0.6505 -0.3600 -1.2658
 6318SOL     OW30589   3.964   2.770   4.877 -0.0407  0.4276 -0.0696
 6318SOL    HW130590   4.058   2.760   4.861  0.0721  1.6426 -0.1477
 6318SOL    HW230591   3.950   2.799   4.967 -0.6953 -1.2141  0.3624
 6319SOL     OW30592   3.862   4.052   7.614  1.0398  0.8070 -0.5099
 6319SOL    HW130593   3.912   4.087   7.688  0.9335 -1.2921  0.5777
 6319SOL    HW230594   3.833   4.131   7.569  0.4829  0.3867 -0.8972
 6320SOL     OW30595   1.993   3.961   5.444 -0.5470 -0.0282  0.0959
 6320SOL    HW130596   2.036   3.942   5.361  0.0083 -1.8182  0.8037
 6320SOL    HW230597   1.972   3.871   5.467 -0.2050 -0.2618 -0.5123
 6321SOL     OW30598   3.501   3.110   9.208 -0.0790  0.8015  0.0037
 6321SOL    HW130599   3.507   3.031   9.262  0.2318  1.2010  0.5554
 6321SOL    HW230600   3.461   3.070   9.131  1.3957 -1.2275  0.2687
 6322SOL     OW30601   0.978   3.297   3.949  0.0573  0.0075  0.3446
 6322SOL    HW130602   1.022   3.327   4.028  1.4142 -1.4604  0.1363
 6322SOL    HW230603   0.948   3.383   3.919  2.6305  1.1131  0.9424
 6323SOL     OW30604   2.852   3.053   4.006  0.3354 -0.4185  0.3863
 6323SOL    HW130605   2.931   3.017   4.046  1.3798 -2.6657 -3.7596
 6323SOL    HW230606   2.790   3.050   4.080  1.7168 -1.3960  1.5115
 6324SOL     OW30607   0.257   2.698   5.991  0.0472  0.5228 -0.1862
 6324SOL    HW130608   0.174   2.720   5.949  0.7159  2.6091 -0.4484
 6324SOL    HW230609   0.249   2.610   6.027  0.3010 -0.0770 -1.5699
 6325SOL     OW30610   1.999   3.547   8.562  0.3284 -0.4174  0.0152
 6325SOL    HW130611   2.003   3.526   8.655  0.0790 -0.1904  0.0773
 6325SOL    HW230612   1.919   3.495   8.552 -0.6417  1.3531 -1.4775
 6326SOL     OW30613   1.123   0.971   7.650 -0.3173 -0.0953 -0.7174
 6326SOL    HW130614   1.061   0.994   7.719 -0.0113 -3.0338  0.5394
 6326SOL    HW230615   1.194   0.935   7.703  0.2686  1.5726 -0.3801
 6327SOL     OW30616   0.687   1.922   6.641  0.0665  0.3905  0.5245
 6327SOL    HW130617   0.740   1.853   6.600  1.2140  0.8912  1.1468
 6327SOL    HW230618   0.759   1.983   6.661  0.8445 -0.7438  1.1976
 6328SOL     OW30619   0.437   3.787  16.922 -0.3938 -0.8422 -0.7053
 6328SOL    HW130620   0.452   3.704  16.875 -0.3840 -0.8463 -0.6949
 6328SOL    HW230621   0.523   3.829  16.924 -1.3698  1.0601  0.5521
 6329SOL     OW30622   3.490   2.049   2.249  0.1016  0.5593  0.0795
 6329SOL    HW130623   3.429   2.103   2.299  0.9446  1.9916 -0.4181
 6329SOL    HW230624   3.567   2.102   2.270 -0.7753  2.0637 -0.4235
 6330SOL     OW30625   0.414   2.244   6.751 -0.2977  0.6522  0.1688
 6330SOL    HW130626   0.426   2.215   6.661 -1.5598 -1.3278  0.6248
 6330SOL    HW230627   0.325   2.212   6.770  0.1922 -1.7536 -1.5644
 6331SOL     OW30628   0.324   3.415   2.418 -0.0769 -0.5520 -0.0680
 6331SOL    HW130629   0.411   3.376   2.406 -0.0693 -0.6576  0.3632
 6331SOL    HW230630   0.340   3.477   2.489 -1.3715  0.6215 -0.8138
 6332SOL     OW30631   0.761   0.189   8.233  0.3652  0.0007 -0.3268
 6332SOL    HW130632   0.676   0.167   8.194  0.1974 -1.4688  0.8824
 6332SOL    HW230633   0.806   0.236   8.163  0.8165 -0.9683 -0.6760
 6333SOL     OW30634   1.442   4.729   7.884  0.1374  0.1622 -0.3140
 6333SOL    HW130635   1.497   0.070   7.893 -3.0269  2.3154  0.4180
 6333SOL    HW230636   1.485   4.691   7.807 -0.5043 -2.1640  0.5007
 6334SOL     OW30637   3.830   0.480  13.130 -0.3116 -0.4003  0.0655
 6334SOL    HW130638   3.766   0.492  13.200 -0.4756 -0.9348  0.0040
 6334SOL    HW230639   3.779   0.529  13.065 -1.8056  1.4743  2.6242
 6335SOL     OW30640   4.136   2.690   6.271  0.2077 -0.7151  0.5809
 6335SOL    HW130641   4.076   2.735   6.212  1.2898  0.6667  0.5405
 6335SOL    HW230642   4.096   2.604   6.267  0.3660 -0.7432 -0.2670
 6336SOL     OW30643   2.006   4.387   3.740 -0.2111  0.1874  0.1962
 6336SOL    HW130644   1.921   4.398   3.783  0.8757 -2.3739  2.9884
 6336SOL    HW230645   1.988   4.305   3.693 -0.4369  0.4105 -0.1084
 6337SOL     OW30646   3.662   1.509   1.163  0.5365 -0.1777 -0.0155
 6337SOL    HW130647   3.632   1.600   1.167 -1.1792 -0.7767  0.4784
 6337SOL    HW230648   3.754   1.519   1.190  1.3972 -0.5281 -2.7826
 6338SOL     OW30649   1.117   2.756   3.460  0.0224  0.2431  0.1216
 6338SOL    HW130650   1.143   2.667   3.436  0.8070  0.6919 -0.7062
 6338SOL    HW230651   1.023   2.747   3.477 -0.3654  0.7277 -1.7473
 6339SOL     OW30652   0.242   4.710   6.980 -0.4305  0.2522 -0.1977
 6339SOL    HW130653   0.244   4.722   7.075 -0.0462  0.0574 -0.1793
 6339SOL    HW230654   0.253   4.616   6.966  0.0077  0.5169 -1.6727
 6340SOL     OW30655   3.349   0.231   3.099  0.0029  0.0891  0.5035
 6340SOL    HW130656   3.430   0.191   3.128  0.9840  1.8720  0.1938
 6340SOL    HW230657   3.379   0.318   3.072 -0.6067 -0.2340 -1.2793
 6341SOL     OW30658   0.750   0.544  10.379  0.4839  0.8011  0.0099
 6341SOL    HW130659   0.656   0.556  10.367  0.6307  1.1202 -0.8110
 6341SOL    HW230660   0.750   0.490  10.458 -0.3496 -0.2582 -0.7070
 6342SOL     OW30661   3.970   1.749   6.163 -0.3077  0.0645  0.5666
 6342SOL    HW130662   3.965   1.654   6.152  0.1073  0.1122 -0.0611
 6342SOL    HW230663   3.897   1.769   6.104 -0.7550 -0.9774  0.7576
 6343SOL     OW30664   2.535   0.560   8.005 -0.2840  0.8639 -0.0272
 6343SOL    HW130665   2.629   0.554   8.023 -0.5298 -2.1681  0.3603
 6343SOL    HW230666   2.534   0.472   7.967 -2.3956 -0.0701  2.1924
 6344SOL     OW30667   1.261   1.211  16.476  0.2990  0.8123 -0.2545
 6344SOL    HW130668   1.304   1.133  16.442 -1.5839 -0.5894  0.5814
 6344SOL    HW230669   1.313   1.282  16.439  1.9901  1.0904  2.6784
 6345SOL     OW30670   3.536   4.698   4.256  0.5635  0.9933  0.6629
 6345SOL    HW130671   3.587   4.692   4.337  0.6307  2.5186  0.7275
 6345SOL    HW230672   3.567   0.041   4.215  1.0297 -0.1577 -1.2172
 6346SOL     OW30673   3.556   1.565   8.895 -0.2510 -0.2119 -0.1421
 6346SOL    HW130674   3.618   1.633   8.919 -0.2628 -0.0534 -0.5482
 6346SOL    HW230675   3.472   1.602   8.921  0.7591  1.6036  0.5277
 6347SOL     OW30676   4.246   3.362   3.960  0.5088  0.1131 -0.1331
 6347SOL    HW130677   4.254   3.268   3.974 -2.6262  0.0448  1.3339
 6347SOL    HW230678   4.245   3.396   4.049 -2.5725 -2.4338  0.7967
 6348SOL     OW30679   1.793   2.380  13.226  0.1995 -0.2483 -0.3690
 6348SOL    HW130680   1.830   2.329  13.299 -0.5314  2.5948  1.9414
 6348SOL    HW230681   1.861   2.368  13.159 -0.7621 -1.1360 -1.2033
 6349SOL     OW30682   2.910   0.232  11.639  0.6540 -0.4553  0.2355
 6349SOL    HW130683   2.874   0.247  11.551  0.6889  1.4018  0.5357
 6349SOL    HW230684   2.984   0.293  11.634 -1.3474  2.0528  1.2497
 6350SOL     OW30685   0.670   2.338   3.140  0.6781 -0.5074  0.3485
 6350SOL    HW130686   0.683   2.402   3.070 -0.8980 -1.3974 -0.7547
 6350SOL    HW230687   0.579   2.351   3.166  0.6646 -0.4912  0.2926
 6351SOL     OW30688   4.159   2.439   5.671  0.3205  0.3951 -0.4151
 6351SOL    HW130689   4.247   2.403   5.665  0.2496  0.2814 -0.7797
 6351SOL    HW230690   4.110   2.376   5.617  0.7433 -0.6625  0.4470
 6352SOL     OW30691   3.756   1.797   6.678 -0.0126  0.3995  0.0879
 6352SOL    HW130692   3.829   1.818   6.736 -0.3476 -1.0321  1.0159
 6352SOL    HW230693   3.806   1.808   6.597  0.1706 -1.4286 -0.0444
 6353SOL     OW30694   3.679   4.509  12.653  0.8394 -0.0623 -0.2983
 6353SOL    HW130695   3.733   4.501  12.732  0.7402 -0.7551 -0.2981
 6353SOL    HW230696   3.637   4.594  12.664  1.7839  0.1353  1.7409
 6354SOL     OW30697   2.523   2.187  16.066 -0.4491  0.9678  0.4934
 6354SOL    HW130698   2.463   2.219  16.133 -1.6093 -1.0883  0.4157
 6354SOL    HW230699   2.464   2.137  16.011  0.6389  1.1989 -0.8846
 6355SOL     OW30700   3.333   3.063   7.938  0.9211  0.2026  0.4835
 6355SOL    HW130701   3.278   3.026   8.007  0.4941  0.3858  0.2433
 6355SOL    HW230702   3.404   3.106   7.984  1.4196  1.2467 -1.2736
 6356SOL     OW30703   2.682   1.899   3.463  0.1426 -0.7152  0.2272
 6356SOL    HW130704   2.668   1.967   3.528  1.0844 -0.1224 -0.1816
 6356SOL    HW230705   2.590   1.878   3.448  0.1447  0.9391 -2.2701
 6357SOL     OW30706   3.812   2.204  12.943  0.4391 -0.1787  0.0273
 6357SOL    HW130707   3.857   2.206  13.028 -0.7023 -0.4081  0.6403
 6357SOL    HW230708   3.853   2.123  12.912 -2.0831 -0.3615 -2.8923
 6358SOL     OW30709   3.268   3.497   5.401  0.0734  0.0678 -0.1931
 6358SOL    HW130710   3.347   3.532   5.359  0.4903  0.2403  0.7451
 6358SOL    HW230711   3.315   3.448   5.469  0.9772 -0.4193 -1.1549
 6359SOL     OW30712   3.728   2.007   7.598  0.5334  0.2107 -0.2205
 6359SOL    HW130713   3.671   2.029   7.672 -0.4313 -0.2627 -0.8303
 6359SOL    HW230714   3.808   1.974   7.640  1.2057  1.1218 -0.7808
 6360SOL     OW30715   2.949   1.705   8.170 -0.2752  0.3221  0.4803
 6360SOL    HW130716   2.903   1.727   8.251  1.2701  0.0092  1.4508
 6360SOL    HW230717   2.964   1.613   8.189  1.9114  0.7161  0.6718
 6361SOL     OW30718   3.953   0.012   3.393  0.1831 -0.7349 -0.4090
 6361SOL    HW130719   3.927   0.103   3.379  0.8413 -0.3848  0.6485
 6361SOL    HW230720   3.897   4.707   3.328  0.7063 -0.6763 -0.9008
 6362SOL     OW30721   2.322   1.289   7.901 -0.2426  0.4597  0.1128
 6362SOL    HW130722   2.327   1.224   7.970 -3.8502 -0.3654 -0.4206
 6362SOL    HW230723   2.242   1.274   7.852 -1.3913  1.5070  1.6721
 6363SOL     OW30724   0.157   3.700  12.622  0.2108 -0.1457  0.4232
 6363SOL    HW130725   0.229   3.660  12.671 -0.4809 -1.2525  0.5333
 6363SOL    HW230726   0.090   3.633  12.639  0.1800 -0.4434 -0.8630
 6364SOL     OW30727   3.821   0.095   3.107  0.0215  0.3010  0.0139
 6364SOL    HW130728   3.813   0.007   3.072 -1.0263  0.0491  0.9070
 6364SOL    HW230729   3.784   0.137   3.029 -2.0727 -0.9032  0.3725
 6365SOL     OW30730   1.407   0.944   2.367 -0.3899 -0.2267 -0.1932
 6365SOL    HW130731   1.483   0.979   2.414 -1.0569  0.6297  0.2355
 6365SOL    HW230732   1.345   1.014   2.386 -0.4382 -0.5721  0.9394
 6366SOL     OW30733   2.027   4.271   4.189 -0.2532  0.3495  0.3565
 6366SOL    HW130734   2.044   4.262   4.283  1.5096 -0.4013 -0.0338
 6366SOL    HW230735   1.972   4.197   4.162 -1.3174  2.0395 -2.0121
 6367SOL     OW30736   4.614   4.497  12.370  0.3220  0.3712  0.6510
 6367SOL    HW130737   4.663   4.570  12.409  2.0852 -1.9169  2.7344
 6367SOL    HW230738   4.601   4.446  12.450 -1.4865 -0.5163 -0.2267
 6368SOL     OW30739   4.382   2.662   5.052 -0.2609 -0.5844 -0.8040
 6368SOL    HW130740   4.297   2.686   5.088 -0.1843 -1.3476 -0.1056
 6368SOL    HW230741   4.416   2.748   5.029 -1.9959  0.6365  1.2898
 6369SOL     OW30742   2.471   3.456  10.866  1.0070 -0.4268  0.8139
 6369SOL    HW130743   2.497   3.543  10.835 -0.1241 -0.4907 -0.3319
 6369SOL    HW230744   2.518   3.399  10.804  0.4175 -1.0929  0.9772
 6370SOL     OW30745   3.482   1.510   1.393  0.3958 -0.3241  0.2028
 6370SOL    HW130746   3.491   1.605   1.406  0.6308 -0.2667 -0.3870
 6370SOL    HW230747   3.526   1.505   1.309  0.4192 -2.3338  0.3477
 6371SOL     OW30748   1.134   2.481   3.446  0.2469 -0.0289  0.3707
 6371SOL    HW130749   1.100   2.447   3.528 -2.3518  0.3970 -0.5347
 6371SOL    HW230750   1.222   2.496   3.482  0.7992  2.1580 -1.8428
 6372SOL     OW30751   4.067   0.893   1.554 -0.0919 -0.4003 -0.5334
 6372SOL    HW130752   4.072   0.948   1.477 -0.3412  1.0068  0.4605
 6372SOL    HW230753   4.160   0.892   1.579  0.0951 -0.6090 -1.2522
 6373SOL     OW30754   4.336   2.433  16.524  0.3669 -0.7554  0.2652
 6373SOL    HW130755   4.369   2.499  16.463 -0.7510  0.8251  1.3759
 6373SOL    HW230756   4.253   2.476  16.540 -0.0541 -1.2014 -0.6599
 6374SOL     OW30757   3.169   3.699   8.898  0.1796  0.3246 -0.2192
 6374SOL    HW130758   3.112   3.631   8.933  1.2001  0.4170  1.6420
 6374SOL    HW230759   3.117   3.779   8.888 -0.3915  0.3087  2.7902
 6375SOL     OW30760   1.413   2.430   2.877  0.3877 -0.6209  0.2140
 6375SOL    HW130761   1.441   2.381   2.955  1.3196  1.2876  1.0771
 6375SOL    HW230762   1.327   2.390   2.862  0.6785 -0.8370 -0.8314
 6376SOL     OW30763   2.924   1.940  17.651  0.0676  0.4406 -0.0584
 6376SOL    HW130764   2.897   1.935  17.560 -1.7364  0.5758  0.4830
 6376SOL    HW230765   3.009   1.984  17.655 -0.3747  1.5532 -2.7036
 6377SOL     OW30766   4.363   0.073  15.596 -0.9633 -0.3620 -0.3938
 6377SOL    HW130767   4.276   0.111  15.606 -0.6489  0.5025 -0.9691
 6377SOL    HW230768   4.367   0.011  15.669 -1.4629  0.1746  0.0837
 6378SOL     OW30769   0.152   1.298   9.391 -0.1784  0.0990  0.2252
 6378SOL    HW130770   0.178   1.333   9.476  0.4574 -0.5585  0.2990
 6378SOL    HW230771   0.156   1.207   9.419 -1.4328  0.1412  0.5481
 6379SOL     OW30772   4.570   0.267  13.839 -0.2825 -0.0870  0.1806
 6379SOL    HW130773   4.633   0.308  13.898 -1.5068  0.1263  1.3314
 6379SOL    HW230774   4.593   0.176  13.855 -1.9214 -0.3434  0.9734
 6380SOL     OW30775   3.748   4.530   5.875  0.0931 -0.0676  0.7983
 6380SOL    HW130776   3.688   4.572   5.813  0.5238 -2.2851 -1.1025
 6380SOL    HW230777   3.694   4.464   5.919  2.1453 -3.7872 -2.2908
 6381SOL     OW30778   2.387   0.987   3.839 -0.0737 -0.0219 -0.1021
 6381SOL    HW130779   2.467   0.943   3.867 -1.0484 -1.6442  0.1557
 6381SOL    HW230780   2.413   1.033   3.759 -0.5336  0.5072  0.0479
 6382SOL     OW30781   3.795   2.460  12.022 -0.2088  0.1998  0.8002
 6382SOL    HW130782   3.758   2.404  12.091  0.6881 -2.1428 -0.6273
 6382SOL    HW230783   3.731   2.531  12.030  1.1510  1.0603  3.9292
 6383SOL     OW30784   3.881   2.409   5.226  0.1430  0.2919 -0.3254
 6383SOL    HW130785   3.795   2.389   5.263  0.1097  0.5689 -0.2549
 6383SOL    HW230786   3.898   2.326   5.180  1.6946  0.0341  0.7080
 6384SOL     OW30787   0.418   1.020   8.728 -0.3623  0.3714 -0.1283
 6384SOL    HW130788   0.449   1.084   8.793  0.0901 -1.3806  1.3835
 6384SOL    HW230789   0.494   1.006   8.671 -0.4703 -1.5802  0.2270
 6385SOL     OW30790   3.862   3.792   8.061 -0.0639 -0.5674  0.0087
 6385SOL    HW130791   3.830   3.702   8.063 -1.7304  0.0276 -0.4639
 6385SOL    HW230792   3.781   3.842   8.060 -0.5887 -1.3787  2.7103
 6386SOL     OW30793   4.585   0.309   6.921  1.0306 -0.3701 -0.0510
 6386SOL    HW130794   4.608   0.217   6.932  1.6551 -0.1834  0.1551
 6386SOL    HW230795   4.653   0.339   6.860  0.3473  1.1741 -0.0446
 6387SOL     OW30796   0.365   4.260  16.099  0.1733  0.1321  0.4242
 6387SOL    HW130797   0.375   4.220  16.013  0.6520 -0.0517  0.5658
 6387SOL    HW230798   0.354   4.352  16.074 -0.7710 -0.0472  0.1789
 6388SOL     OW30799   4.090   4.588   7.557 -0.5423  0.1899  0.4160
 6388SOL    HW130800   4.180   4.583   7.591  0.4341  1.2600 -1.9674
 6388SOL    HW230801   4.110   4.616   7.467  0.1006 -1.1411  0.1493
 6389SOL     OW30802   0.407   2.041   8.686 -0.8066 -0.3427 -0.2058
 6389SOL    HW130803   0.338   2.095   8.649 -0.3334 -0.8280 -1.8135
 6389SOL    HW230804   0.352   1.970   8.720  0.6692 -0.8592  1.1123
 6390SOL     OW30805   2.948   3.905  15.931  0.3135 -0.6298  0.4873
 6390SOL    HW130806   2.865   3.953  15.933 -0.1916 -1.4448 -2.3362
 6390SOL    HW230807   2.923   3.840  15.866 -0.4503  0.1196  0.0349
 6391SOL     OW30808   1.933   4.380   2.237 -0.0015  0.0177  0.2955
 6391SOL    HW130809   1.964   4.349   2.152  0.2907 -0.0883  0.4397
 6391SOL    HW230810   1.964   4.318   2.303  0.9598  0.1930  0.0065
 6392SOL     OW30811   0.981   3.761   0.627 -0.0135 -0.2291 -0.6039
 6392SOL    HW130812   0.986   3.672   0.592 -2.0674  1.4395 -5.2786
 6392SOL    HW230813   0.900   3.792   0.584 -0.0268 -1.7970 -1.6984
 6393SOL     OW30814   2.413   0.029   8.897 -0.1621 -0.0222 -0.3961
 6393SOL    HW130815   2.487   0.085   8.922 -0.4685  1.4667 -2.9172
 6393SOL    HW230816   2.333   0.071   8.929 -1.2800 -2.3488 -0.1137
 6394SOL     OW30817   1.620   1.638  17.085  0.1555 -0.2750  0.3581
 6394SOL    HW130818   1.700   1.601  17.048 -1.0119  1.6071 -4.0321
 6394SOL    HW230819   1.657   1.706  17.141  2.3902 -0.9579 -0.3028
 6395SOL     OW30820   0.298   1.314  15.905 -0.5408  0.0799  0.5223
 6395SOL    HW130821   0.238   1.240  15.909 -3.4156  2.3154 -1.4592
 6395SOL    HW230822   0.348   1.307  15.987  0.1564 -0.9327  0.0123
 6396SOL     OW30823   3.678   1.951   2.490 -0.4837  0.0560 -0.1848
 6396SOL    HW130824   3.640   1.914   2.569 -1.3797 -3.1421 -2.0925
 6396SOL    HW230825   3.757   1.992   2.524 -0.1397 -0.0008 -0.9174
 6397SOL     OW30826   3.837   1.239  10.357  0.0086  0.3141  0.0266
 6397SOL    HW130827   3.926   1.228  10.323 -0.9939 -2.8927 -1.6730
 6397SOL    HW230828   3.806   1.314  10.306  0.6912  1.4664  1.3185
 6398SOL     OW30829   2.241   0.521  17.090  0.3989 -0.1376  0.0495
 6398SOL    HW130830   2.320   0.494  17.138  0.6324 -0.3511 -0.4577
 6398SOL    HW230831   2.271   0.524  16.999  3.3640  0.1981  1.0148
 6399SOL     OW30832   2.066   2.144   5.370 -0.0313  0.1987 -0.1045
 6399SOL    HW130833   2.155   2.121   5.345  0.0143 -1.4586  1.5664
 6399SOL    HW230834   2.062   2.236   5.394  0.7771 -0.5002  2.6711
 6400SOL     OW30835   3.266   0.237   3.594 -0.0898  0.3945  0.1785
 6400SOL    HW130836   3.231   0.161   3.641  0.7007 -0.7074 -0.9987
 6400SOL    HW230837   3.243   0.216   3.503  0.7564 -2.2371  0.5685
 6401SOL     OW30838   4.208   2.829   4.774  0.5264 -0.0081  0.2226
 6401SOL    HW130839   4.294   2.810   4.812  0.1028  0.9372  1.6433
 6401SOL    HW230840   4.235   2.868   4.690 -0.4920 -0.6090 -0.3866
 6402SOL     OW30841   2.243   1.516   8.067 -0.4627  0.7556 -0.6282
 6402SOL    HW130842   2.289   1.461   8.004 -1.2096  0.9435 -1.3284
 6402SOL    HW230843   2.183   1.450   8.103  1.1619 -0.8277 -0.8256
 6403SOL     OW30844   0.563   1.004   2.180 -0.5806 -0.9417 -0.1796
 6403SOL    HW130845   0.585   1.054   2.259 -1.0323 -0.7092 -0.1986
 6403SOL    HW230846   0.635   1.040   2.127 -2.1555  2.2472 -0.1515
 6404SOL     OW30847   1.902   2.979  14.589 -0.0954  0.2501 -0.4541
 6404SOL    HW130848   1.986   3.021  14.607 -0.7746  0.1912  2.9368
 6404SOL    HW230849   1.855   3.055  14.553 -0.9066 -0.7075 -1.4104
 6405SOL     OW30850   1.585   1.387  13.865  0.4354  0.0119  0.7401
 6405SOL    HW130851   1.589   1.442  13.943  0.9611  0.8035  0.1552
 6405SOL    HW230852   1.492   1.394  13.845  0.6536  0.4645 -0.0983
 6406SOL     OW30853   2.859   1.296   5.166 -0.5232 -0.2857  0.4899
 6406SOL    HW130854   2.780   1.244   5.153  0.0177 -1.4285  1.7304
 6406SOL    HW230855   2.866   1.284   5.261  1.5381  2.2312  0.6572
 6407SOL     OW30856   0.251   2.804   3.885 -0.0254  0.0935 -1.0578
 6407SOL    HW130857   0.257   2.720   3.840 -0.3224  0.6244 -2.1084
 6407SOL    HW230858   0.289   2.856   3.814 -2.0088  1.2652 -1.2722
 6408SOL     OW30859   0.998   1.305   4.816  0.1369  0.3077 -0.4324
 6408SOL    HW130860   0.948   1.358   4.754  3.3213  1.9853 -1.5701
 6408SOL    HW230861   1.053   1.256   4.756  1.7036  1.2561  0.2451
 6409SOL     OW30862   1.577   3.135   4.029 -0.0349 -0.4869  0.1757
 6409SOL    HW130863   1.517   3.127   4.103  2.5539 -1.6867  2.1830
 6409SOL    HW230864   1.655   3.092   4.067 -1.3383 -0.8059  2.4836
 6410SOL     OW30865   2.750   0.117   1.421  0.0809  0.2657  0.4217
 6410SOL    HW130866   2.717   0.148   1.336  0.2004  1.3495  0.7638
 6410SOL    HW230867   2.780   0.032   1.390 -0.3220  0.7077 -1.1852
 6411SOL     OW30868   4.647   3.820   6.571  0.8264  0.1800  0.0921
 6411SOL    HW130869   4.637   3.770   6.652 -2.9245 -0.2056 -0.5892
 6411SOL    HW230870   4.554   3.833   6.552  1.2550 -0.3832 -2.3160
 6412SOL     OW30871   0.399   4.322   3.852  0.4898 -0.6581 -0.3378
 6412SOL    HW130872   0.315   4.364   3.834  0.4291  0.1071  1.6769
 6412SOL    HW230873   0.438   4.302   3.767 -0.2107 -1.2852 -0.5090
 6413SOL     OW30874   1.595   3.316   2.121  0.5612  0.0418 -0.0786
 6413SOL    HW130875   1.617   3.318   2.028  3.0505 -0.3818  0.4815
 6413SOL    HW230876   1.547   3.399   2.127  2.6535  1.1975  0.8615
 6414SOL     OW30877   2.074   3.208   3.831 -0.3174  0.2544 -0.5995
 6414SOL    HW130878   2.051   3.128   3.879 -0.1620  1.1706  0.9772
 6414SOL    HW230879   2.167   3.199   3.808 -0.0062  1.1315  0.3412
 6415SOL     OW30880   4.622   1.001  13.453  0.1032 -0.0591 -0.0504
 6415SOL    HW130881   4.716   0.982  13.455 -0.1607 -1.3399  0.2410
 6415SOL    HW230882   4.586   0.926  13.406 -0.0232  0.4556 -0.7820
 6416SOL     OW30883   1.692   2.035   3.529  0.4993 -0.0783 -0.1141
 6416SOL    HW130884   1.639   2.016   3.452  1.4041  0.8445 -0.9643
 6416SOL    HW230885   1.732   2.114   3.492  0.3003  0.3121  0.5140
 6417SOL     OW30886   3.614   3.169   8.245 -0.3725 -0.1756  0.3132
 6417SOL    HW130887   3.534   3.139   8.289  1.0350 -1.7126  1.7847
 6417SOL    HW230888   3.660   3.192   8.325  0.4221 -1.8855  0.3393
 6418SOL     OW30889   0.537   0.059   7.377  0.0093 -0.2350  0.0236
 6418SOL    HW130890   0.581   0.144   7.381 -0.6960  0.2275 -1.8946
 6418SOL    HW230891   0.490   0.077   7.296 -0.2433  2.0457  0.6730
 6419SOL     OW30892   1.022   0.557  10.399 -0.1225  0.1786 -0.1932
 6419SOL    HW130893   0.927   0.562  10.383 -0.1192 -1.4082 -0.6947
 6419SOL    HW230894   1.023   0.618  10.472 -0.4544 -0.0776  0.0300
 6420SOL     OW30895   4.033   1.144   5.906 -0.0614 -0.2208 -0.4872
 6420SOL    HW130896   4.108   1.098   5.870  0.7950  0.2874  0.6446
 6420SOL    HW230897   3.975   1.069   5.920  1.3841 -1.0463  1.0652
 6421SOL     OW30898   1.104   1.615   1.478  0.1998 -0.9050 -0.3530
 6421SOL    HW130899   1.132   1.581   1.393 -0.6460 -1.2873 -0.4687
 6421SOL    HW230900   1.160   1.693   1.475 -0.5669 -0.2458  2.7799
 6422SOL     OW30901   2.218   3.478  10.314 -0.2508  0.0485  0.4084
 6422SOL    HW130902   2.140   3.445  10.271 -0.2122 -1.5027  1.5593
 6422SOL    HW230903   2.203   3.463  10.408  1.7401  2.2070  1.0897
 6423SOL     OW30904   3.422   3.801   3.893  0.0808  0.0158 -0.0788
 6423SOL    HW130905   3.363   3.726   3.902 -1.5292  1.3456  0.4370
 6423SOL    HW230906   3.497   3.776   3.947  0.7352 -1.2719 -1.5920
 6424SOL     OW30907   4.064   0.656   7.667 -0.1650 -0.1588  0.5361
 6424SOL    HW130908   3.993   0.591   7.667  0.6858 -1.0820 -1.2269
 6424SOL    HW230909   4.014   0.707   7.731 -2.8328 -1.8317 -0.1878
 6425SOL     OW30910   3.806   3.268   4.164  0.7467 -1.2364 -0.3206
 6425SOL    HW130911   3.871   3.201   4.139 -0.4411 -2.5588  0.1175
 6425SOL    HW230912   3.829   3.336   4.101 -1.5502  0.6571  0.9202
 6426SOL     OW30913   2.808   1.572   9.986 -0.1476 -0.1257  0.3076
 6426SOL    HW130914   2.795   1.491  10.034  2.1029 -2.3103 -2.8109
 6426SOL    HW230915   2.749   1.625  10.041  1.0633  0.6434  0.8679
 6427SOL     OW30916   2.872   0.740   8.796  0.0273 -0.2252  0.4655
 6427SOL    HW130917   2.869   0.705   8.706 -1.5269  1.1752 -0.0236
 6427SOL    HW230918   2.823   0.675   8.846 -1.8051 -0.4595 -1.6103
 6428SOL     OW30919   1.340   0.646   5.109 -0.0004  0.3640  0.2242
 6428SOL    HW130920   1.413   0.587   5.126  0.3565  1.3966  2.2289
 6428SOL    HW230921   1.272   0.619   5.171  0.0043 -0.1018  0.0333
 6429SOL     OW30922   3.208   4.305   1.480  0.5376 -0.4742  0.0138
 6429SOL    HW130923   3.243   4.217   1.466  0.2171 -0.5224 -0.4992
 6429SOL    HW230924   3.220   4.347   1.395  3.1989 -0.7007  0.2674
 6430SOL     OW30925   4.736   1.006   5.670 -0.0813 -0.0613  0.0547
 6430SOL    HW130926   4.645   0.990   5.695  0.0227 -1.5540 -0.5437
 6430SOL    HW230927   4.719   1.076   5.607  0.8634 -1.4156 -1.7056
 6431SOL     OW30928   4.272   0.246   6.362 -0.0285  0.1183  0.0348
 6431SOL    HW130929   4.226   0.325   6.333 -1.2928 -0.9226 -0.7873
 6431SOL    HW230930   4.316   0.288   6.435  0.1953 -0.1156  0.0315
 6432SOL     OW30931   2.402   3.796  17.314  0.3587 -0.0995 -0.5863
 6432SOL    HW130932   2.363   3.877  17.282 -1.7972 -0.9685 -0.1145
 6432SOL    HW230933   2.494   3.821  17.319 -0.0955  1.1238  1.7442
 6433SOL     OW30934   1.115   1.627   0.868  0.2216  0.1930  0.3709
 6433SOL    HW130935   1.119   1.547   0.921 -0.6815 -1.2426 -1.7020
 6433SOL    HW230936   1.182   1.682   0.909 -1.4068  2.4762 -0.0995
 6434SOL     OW30937   2.819   3.679   9.978  0.6334  0.0059 -0.4671
 6434SOL    HW130938   2.881   3.689  10.050 -1.1574  2.5034  0.7358
 6434SOL    HW230939   2.849   3.604   9.926 -0.8717 -1.7497  1.1808
 6435SOL     OW30940   4.292   0.491   0.560  0.2253  0.5424  0.2188
 6435SOL    HW130941   4.258   0.579   0.545  1.3070  1.0152  0.5344
 6435SOL    HW230942   4.271   0.448   0.477  0.7276  0.7627 -0.0187
 6436SOL     OW30943   0.545   3.929   2.150 -0.1502 -0.3724 -0.6228
 6436SOL    HW130944   0.584   3.884   2.224 -0.0777 -0.1945 -0.5521
 6436SOL    HW230945   0.624   3.942   2.098 -0.2144 -0.0917 -0.6553
 6437SOL     OW30946   0.372   3.716  14.951 -0.2188  0.7872  0.4749
 6437SOL    HW130947   0.412   3.629  14.950  2.1847  1.8831  1.3902
 6437SOL    HW230948   0.421   3.759  14.880 -1.0003 -1.6937 -1.5854
 6438SOL     OW30949   3.330   0.973   8.968  0.3300 -0.2510  0.3800
 6438SOL    HW130950   3.297   0.921   8.894 -0.7600 -1.2894  1.5850
 6438SOL    HW230951   3.247   1.000   9.007  0.1573 -1.5484  0.9436
 6439SOL     OW30952   4.499   0.588   2.658 -0.2589  0.1934 -0.7338
 6439SOL    HW130953   4.408   0.613   2.667 -1.0627 -3.0325 -0.0734
 6439SOL    HW230954   4.543   0.608   2.740 -2.7024  3.2259 -0.1726
 6440SOL     OW30955   2.053   3.474  14.691  0.4721  0.3037  0.4555
 6440SOL    HW130956   2.053   3.566  14.716  1.4283  0.4247 -0.0044
 6440SOL    HW230957   2.041   3.479  14.596 -0.3832 -0.6409  0.5110
 6441SOL     OW30958   4.290   2.136   6.672 -0.0402  0.2954  0.3737
 6441SOL    HW130959   4.361   2.109   6.731  1.9511  1.2531 -1.5719
 6441SOL    HW230960   4.280   2.229   6.691  1.0672  0.7166 -1.1514
 6442SOL     OW30961   2.609   3.720  14.849  0.4706 -0.0826 -0.6928
 6442SOL    HW130962   2.593   3.682  14.762 -0.0796  0.0244 -0.6380
 6442SOL    HW230963   2.527   3.763  14.873  0.5019  0.8896 -2.2666
 6443SOL     OW30964   0.838   3.317   5.825 -0.3074  0.0605 -0.0306
 6443SOL    HW130965   0.817   3.251   5.758  2.9585 -0.6208 -0.3862
 6443SOL    HW230966   0.919   3.352   5.787 -0.1555  0.1141  0.3450
 6444SOL     OW30967   2.491   2.525   7.566  0.4789  0.2299  0.2938
 6444SOL    HW130968   2.453   2.457   7.510 -1.3627  1.1209  0.4753
 6444SOL    HW230969   2.496   2.484   7.652  3.1762 -0.3413 -0.1211
 6445SOL     OW30970   2.043   4.604   7.230  0.3752 -0.2842  0.8578
 6445SOL    HW130971   1.974   4.668   7.212  0.7624 -0.2121 -0.3455
 6445SOL    HW230972   1.998   4.544   7.290  0.9924 -0.8309  0.7655
 6446SOL     OW30973   0.374   0.664  14.195  0.0744  0.3650  0.1702
 6446SOL    HW130974   0.436   0.590  14.192 -0.5195 -0.1105 -0.3629
 6446SOL    HW230975   0.372   0.684  14.101  0.3840  3.2584  0.8089
 6447SOL     OW30976   3.914   3.334   2.494  0.5782  0.8636 -0.1844
 6447SOL    HW130977   4.009   3.328   2.496  0.5118 -0.4078 -1.3029
 6447SOL    HW230978   3.894   3.420   2.457  0.7221  1.0107  0.0800
 6448SOL     OW30979   2.831   3.021   9.435 -0.0129 -0.0646  0.1044
 6448SOL    HW130980   2.791   3.108   9.447 -0.7282 -0.2986 -0.5715
 6448SOL    HW230981   2.758   2.972   9.397 -0.5176 -0.7862  1.9797
 6449SOL     OW30982   4.674   4.423   3.310  0.1827 -0.1282  0.1802
 6449SOL    HW130983   4.606   4.483   3.279 -0.7531 -1.1506  0.2482
 6449SOL    HW230984   4.659   4.347   3.253  1.5042 -0.1489 -0.1536
 6450SOL     OW30985   0.934   1.033   7.983 -0.1214 -0.1124  0.6709
 6450SOL    HW130986   0.997   1.103   7.967 -2.1303  1.8622  1.3925
 6450SOL    HW230987   0.858   1.063   7.933  0.7988 -3.1033 -2.5097
 6451SOL     OW30988   3.471   1.411  14.243 -0.0173 -0.4437  0.7333
 6451SOL    HW130989   3.498   1.325  14.277 -2.3735 -1.5908 -0.2982
 6451SOL    HW230990   3.404   1.386  14.180 -0.5365  0.0593  1.0917
 6452SOL     OW30991   2.918   0.943   5.328  0.1398  0.5725 -0.2268
 6452SOL    HW130992   2.844   0.927   5.269 -1.4623  2.6548  1.1705
 6452SOL    HW230993   2.988   0.923   5.267  2.0804  0.2482  2.1171
 6453SOL     OW30994   1.111   2.665   4.713 -0.0980 -0.2153 -0.0975
 6453SOL    HW130995   1.063   2.675   4.795  0.0037 -2.5745  0.2599
 6453SOL    HW230996   1.048   2.696   4.647 -0.2603 -0.2599  0.0372
 6454SOL     OW30997   1.082   3.886   0.839  0.2223 -0.2050  0.2482
 6454SOL    HW130998   1.011   3.910   0.898 -0.8772 -2.4233 -0.1686
 6454SOL    HW230999   1.034   3.840   0.770 -2.2959  0.1339  1.7572
 6455SOL     OW31000   4.420   0.619  11.742 -0.8748 -0.2412 -0.2745
 6455SOL    HW131001   4.384   0.540  11.783 -1.8284 -0.2528 -1.1439
 6455SOL    HW231002   4.347   0.681  11.749 -2.9328 -2.6200 -0.5600
 6456SOL     OW31003   3.218   1.126   0.063  0.4040  0.0428  0.1823
 6456SOL    HW131004   3.236   1.184   0.136 -1.7083  1.5290 -0.4627
 6456SOL    HW231005   3.127   1.140   0.036  0.7824  1.4066 -0.4150
 6457SOL     OW31006   2.516   4.139   8.867  0.1520 -0.8551 -0.3082
 6457SOL    HW131007   2.466   4.216   8.842  0.4921 -0.4636  0.1973
 6457SOL    HW231008   2.534   4.094   8.785  2.9140 -0.8584  0.2756
 6458SOL     OW31009   4.362   4.570   9.023  0.0705 -0.1719 -0.1441
 6458SOL    HW131010   4.340   4.661   9.043 -1.7759 -0.6668  0.1187
 6458SOL    HW231011   4.338   4.567   8.931  0.3680  0.3807 -0.2421
 6459SOL     OW31012   0.433   2.685   7.120  0.1664 -0.0337 -0.3225
 6459SOL    HW131013   0.437   2.630   7.199 -0.3647 -0.4894 -0.6114
 6459SOL    HW231014   0.355   2.644   7.082  0.3671 -1.3638  0.6871
 6460SOL     OW31015   0.476   1.081   5.700  0.4202  0.0188 -0.3869
 6460SOL    HW131016   0.402   1.091   5.759  0.2785 -0.8197 -0.4209
 6460SOL    HW231017   0.520   1.163   5.721 -1.7436  0.9927  0.3034
 6461SOL     OW31018   2.264   1.165   2.346 -0.3741  0.1715  0.2714
 6461SOL    HW131019   2.241   1.098   2.411  0.4559  1.7675  2.1890
 6461SOL    HW231020   2.226   1.247   2.378  1.8875  1.8322 -1.3685
 6462SOL     OW31021   1.470   3.576   2.200  0.3045 -0.0466  0.0044
 6462SOL    HW131022   1.391   3.606   2.153 -0.0343  3.0209  2.5314
 6462SOL    HW231023   1.449   3.611   2.286  1.5955  0.6458  0.0378
 6463SOL     OW31024   2.673   4.539   3.150  0.2438  0.0435  0.2136
 6463SOL    HW131025   2.684   4.449   3.181  1.8752 -0.5028 -1.9860
 6463SOL    HW231026   2.761   4.578   3.157  0.2360 -0.2333  2.0056
 6464SOL     OW31027   2.810   3.726   5.506 -0.2729  0.0897  0.3387
 6464SOL    HW131028   2.895   3.699   5.469 -0.5664 -0.9234  0.3945
 6464SOL    HW231029   2.835   3.817   5.524 -1.2952  0.0001  2.2131
 6465SOL     OW31030   0.329   0.051   8.780 -0.0173 -0.5415 -0.1091
 6465SOL    HW131031   0.279   4.725   8.728  0.5293 -0.0425 -1.2321
 6465SOL    HW231032   0.284   0.132   8.803  0.4573 -1.1060  2.8101
 6466SOL     OW31033   4.266   4.426  16.171 -0.3642 -0.3256  0.3676
 6466SOL    HW131034   4.212   4.353  16.139 -0.6330  0.1026 -0.1549
 6466SOL    HW231035   4.344   4.376  16.196  1.4510  1.6835 -1.3651
 6467SOL     OW31036   1.513   3.859   6.395 -0.2505 -0.2535  0.0131
 6467SOL    HW131037   1.526   3.771   6.430 -0.1836 -0.7129 -1.1715
 6467SOL    HW231038   1.493   3.839   6.303 -2.6917  0.3634  0.4065
 6468SOL     OW31039   2.278   4.623  15.652  0.6486 -0.4813  0.2223
 6468SOL    HW131040   2.331   4.654  15.578  1.4511 -2.6455 -0.1006
 6468SOL    HW231041   2.218   4.694  15.673  0.9820  0.5229 -2.1637
 6469SOL     OW31042   0.435   1.205   0.368 -0.1623  0.1002  0.8465
 6469SOL    HW131043   0.459   1.270   0.434  4.1684  0.4715 -1.1438
 6469SOL    HW231044   0.522   1.180   0.337  0.4381  0.8029  1.9733
 6470SOL     OW31045   2.930   0.605  15.900 -0.4676  0.1882  0.0484
 6470SOL    HW131046   2.909   0.514  15.879 -0.0023  0.2964 -0.8939
 6470SOL    HW231047   2.922   0.649  15.815  0.3545 -0.8748 -0.5884
 6471SOL     OW31048   2.389   1.172  13.172  0.3525 -0.5534 -0.4923
 6471SOL    HW131049   2.463   1.231  13.192  0.7142 -1.5418  1.1400
 6471SOL    HW231050   2.337   1.193  13.250  3.2916 -0.6707  1.5439
 6472SOL     OW31051   3.719   2.144   6.875  0.0067  0.1949 -0.1649
 6472SOL    HW131052   3.765   2.208   6.822 -0.1013 -2.0669 -2.9554
 6472SOL    HW231053   3.752   2.170   6.961 -2.1521  1.7952  0.1876
 6473SOL     OW31054   1.164   3.503   2.511 -0.4269  0.3759  0.0562
 6473SOL    HW131055   1.204   3.419   2.534 -1.1047  0.5319  1.7949
 6473SOL    HW231056   1.135   3.525   2.599 -1.0023 -1.2924  0.2967
 6474SOL     OW31057   0.588   0.592   3.450  0.1935  0.1712  0.0737
 6474SOL    HW131058   0.570   0.570   3.542 -1.1150 -1.0211 -0.4728
 6474SOL    HW231059   0.681   0.609   3.469  0.5141 -2.0360  0.4711
 6475SOL     OW31060   0.573   1.696   4.681  0.2020  0.0750  0.2752
 6475SOL    HW131061   0.508   1.738   4.625  1.6234 -0.1857 -1.5823
 6475SOL    HW231062   0.621   1.637   4.622 -2.1710  0.1077 -1.6854
 6476SOL     OW31063   4.264   1.443   9.236 -0.1999 -0.0206  0.0243
 6476SOL    HW131064   4.297   1.475   9.320  1.0380  1.2053 -0.9299
 6476SOL    HW231065   4.207   1.372   9.267 -2.4744  1.6879 -0.2316
 6477SOL     OW31066   4.381   0.378   3.835  0.1379 -0.6154  0.0323
 6477SOL    HW131067   4.352   0.323   3.907  1.9482  0.6528  1.7232
 6477SOL    HW231068   4.348   0.462   3.868  1.6498 -0.8570  2.1442
 6478SOL     OW31069   0.136   2.276   8.899  0.1844  0.0103  0.4719
 6478SOL    HW131070   0.145   2.305   8.990  0.4588  2.7453 -0.4519
 6478SOL    HW231071   0.225   2.272   8.863 -0.6483  2.1038 -1.7854
 6479SOL     OW31072   2.174   3.531   1.809 -0.0863  0.7702 -0.3411
 6479SOL    HW131073   2.241   3.597   1.827  0.2502 -0.3125  2.5213
 6479SOL    HW231074   2.231   3.455   1.802  0.5232  1.0738  1.2183
 6480SOL     OW31075   4.653   3.269   3.392  0.2438  0.0406  0.0725
 6480SOL    HW131076   4.693   3.190   3.354  1.9795  0.8942  0.1314
 6480SOL    HW231077   4.692   3.326   3.327  0.9408  0.9265  1.2733
 6481SOL     OW31078   0.992   1.077  15.270 -0.2832  0.2612 -0.0439
 6481SOL    HW131079   0.987   0.983  15.289 -0.0392  0.4594  1.0197
 6481SOL    HW231080   0.904   1.114  15.271 -1.5233 -2.6644  0.3541
 6482SOL     OW31081   0.749   4.482  11.417 -0.2617 -0.4582  1.0256
 6482SOL    HW131082   0.748   4.574  11.441  1.2710  0.0879 -1.0417
 6482SOL    HW231083   0.725   4.440  11.500  2.0885  0.2045  2.0601
 6483SOL     OW31084   2.788   2.165   7.825  0.3231  0.1725  0.2037
 6483SOL    HW131085   2.780   2.215   7.906 -2.3385 -0.0516  0.0904
 6483SOL    HW231086   2.771   2.230   7.757  0.9390  0.0938 -0.0273
 6484SOL     OW31087   2.503   4.454   9.566 -0.0935  0.2466  0.3377
 6484SOL    HW131088   2.424   4.409   9.596  0.5934 -0.1290  1.6061
 6484SOL    HW231089   2.556   4.377   9.548  1.8389  1.6796 -0.1448
 6485SOL     OW31090   2.688   0.999  17.246  0.5127  0.1645 -0.3092
 6485SOL    HW131091   2.676   1.044  17.162  0.8748 -1.1087 -1.0473
 6485SOL    HW231092   2.781   0.977  17.246  0.8825  1.7092  0.4872
 6486SOL     OW31093   2.180   4.327   1.246 -0.4652  0.3306 -0.0982
 6486SOL    HW131094   2.272   4.316   1.272 -0.2459 -0.3571 -1.2126
 6486SOL    HW231095   2.133   4.262   1.297  0.5523  0.6026  1.2116
 6487SOL     OW31096   4.439   1.449   4.621 -0.1120 -0.6168 -0.5754
 6487SOL    HW131097   4.517   1.406   4.655 -0.7414 -2.3841 -1.3622
 6487SOL    HW231098   4.401   1.469   4.707 -0.9167 -2.2268 -0.5514
 6488SOL     OW31099   2.385   1.420   8.350 -0.0846 -0.1112  0.2665
 6488SOL    HW131100   2.367   1.355   8.419  1.0587 -0.2197  0.4537
 6488SOL    HW231101   2.298   1.415   8.310  0.6812  0.0140 -1.4014
 6489SOL     OW31102   1.284   1.256   5.902 -0.0590  0.3676  0.1343
 6489SOL    HW131103   1.308   1.173   5.944  1.0543  0.5189 -0.1940
 6489SOL    HW231104   1.290   1.225   5.812  2.7506  0.6420  0.2198
 6490SOL     OW31105   2.700   0.291   7.856 -0.0030 -0.5858  0.1109
 6490SOL    HW131106   2.722   0.328   7.941  0.8076  0.3038 -0.4865
 6490SOL    HW231107   2.619   0.242   7.870  0.1903 -1.3170 -1.2997
 6491SOL     OW31108   4.516   4.016  12.811 -0.2787  0.1838 -0.1819
 6491SOL    HW131109   4.455   3.942  12.822  0.3375 -0.4503 -1.0142
 6491SOL    HW231110   4.575   3.986  12.742 -0.5147  1.8212 -1.0823
 6492SOL     OW31111   4.624   0.005  13.924  0.3931 -0.6855  0.4411
 6492SOL    HW131112   4.579   4.660  13.905 -1.1629  0.3161 -0.1928
 6492SOL    HW231113   4.652   4.732  14.015  0.7555 -0.5516  0.3433
 6493SOL     OW31114   0.671   0.742  11.759 -0.1256  0.0270  0.1396
 6493SOL    HW131115   0.735   0.813  11.757 -0.6307  0.4509 -0.9514
 6493SOL    HW231116   0.622   0.768  11.837 -0.1911  2.6054 -0.7841
 6494SOL     OW31117   3.497   0.391   2.177 -0.1536 -0.5181  0.0315
 6494SOL    HW131118   3.435   0.320   2.158 -0.9309  0.3214 -0.6032
 6494SOL    HW231119   3.440   0.457   2.218  1.3626 -0.0207  1.3219
 6495SOL     OW31120   0.098   2.901  16.677  0.1738 -0.4360 -0.7407
 6495SOL    HW131121   0.121   2.916  16.768  0.0752 -2.0522 -0.4574
 6495SOL    HW231122   0.005   2.925  16.673  0.2140 -0.1418  0.1871
 6496SOL     OW31123   1.940   2.371   6.375  0.4279 -0.5364 -0.1820
 6496SOL    HW131124   1.933   2.453   6.423 -1.9314 -1.0912  0.4346
 6496SOL    HW231125   2.035   2.364   6.365  0.7583 -0.2127  2.5883
 6497SOL     OW31126   3.465   2.139   2.503 -0.0930 -0.3647 -0.4892
 6497SOL    HW131127   3.536   2.075   2.502 -0.5918 -0.9177 -0.0764
 6497SOL    HW231128   3.518   2.217   2.523 -0.7840 -0.8277  3.1559
 6498SOL     OW31129   2.767   4.733   5.175  0.0847 -0.4571 -0.7583
 6498SOL    HW131130   2.725   4.711   5.258  0.8439  3.0121  0.5553
 6498SOL    HW231131   2.846   0.026   5.220 -0.7335  0.9824 -0.2903
 6499SOL     OW31132   2.206   4.189   2.085  0.0484 -0.5586  0.1349
 6499SOL    HW131133   2.158   4.119   2.129  0.7030  0.0401  1.7697
 6499SOL    HW231134   2.137   4.240   2.042 -0.2959 -1.1608 -0.0245
 6500SOL     OW31135   0.670   0.652   1.814  0.1321  0.3850 -0.5275
 6500SOL    HW131136   0.640   0.593   1.883  1.0209  1.7819  1.0559
 6500SOL    HW231137   0.713   0.595   1.750  0.8427 -0.6200  0.8495
 6501SOL     OW31138   2.569   3.482   7.900  0.3358 -0.0090 -0.0618
 6501SOL    HW131139   2.652   3.527   7.882  0.4406 -0.4341 -0.6472
 6501SOL    HW231140   2.526   3.538   7.965  2.0524 -0.4581  1.4803
 6502SOL     OW31141   1.487   0.461   6.310 -0.8016  0.6041  0.2080
 6502SOL    HW131142   1.473   0.387   6.369  1.0522  0.6478  0.6913
 6502SOL    HW231143   1.397   0.494   6.300 -0.2373  2.2817  0.5866
 6503SOL     OW31144   1.124   3.613  12.668  0.6679 -0.4600 -0.4184
 6503SOL    HW131145   1.115   3.556  12.744  0.7021 -1.6641 -1.3198
 6503SOL    HW231146   1.209   3.654  12.678  0.1672  0.8693 -1.6823
 6504SOL     OW31147   2.649   2.982  13.113  0.9148 -0.1270 -0.9151
 6504SOL    HW131148   2.677   2.977  13.204  2.1467  1.6942 -1.1758
 6504SOL    HW231149   2.559   2.955  13.129  0.8036  1.3763  1.0378
 6505SOL     OW31150   2.140   2.434   8.491 -0.7622 -0.1149 -0.7398
 6505SOL    HW131151   2.182   2.425   8.576 -1.2213  1.5281 -0.3348
 6505SOL    HW231152   2.107   2.524   8.493  0.4803  0.2286  2.6050
 6506SOL     OW31153   0.407   1.471   6.363 -0.0127  0.4746  0.2777
 6506SOL    HW131154   0.417   1.564   6.384  0.5638  0.9345 -2.0220
 6506SOL    HW231155   0.465   1.437   6.431  0.9490 -0.7352 -1.1579
 6507SOL     OW31156   3.011   1.750   9.951 -0.5185 -0.0126  0.6747
 6507SOL    HW131157   2.940   1.687   9.963  0.4734 -1.4060 -0.7929
 6507SOL    HW231158   2.974   1.799   9.878  1.2032 -0.4473 -0.4792
 6508SOL     OW31159   4.010   3.135   8.407 -0.0031  0.0661  0.3916
 6508SOL    HW131160   4.042   3.201   8.345 -1.8560 -1.1934 -1.8793
 6508SOL    HW231161   3.938   3.090   8.364  0.8227  0.5352 -1.4715
 6509SOL     OW31162   2.931   4.340   7.934  0.4368  0.1120  0.3334
 6509SOL    HW131163   2.941   4.433   7.915 -0.2643  0.2426  0.6102
 6509SOL    HW231164   3.005   4.312   7.880  0.3006  0.5768 -0.0847
 6510SOL     OW31165   4.180   1.836   4.492  0.3839  0.5005 -0.6422
 6510SOL    HW131166   4.128   1.915   4.509 -1.9348 -0.9206 -1.1898
 6510SOL    HW231167   4.168   1.787   4.573 -0.4164  0.2866 -0.8895
 6511SOL     OW31168   0.554   2.017   2.633  0.1437 -0.1846 -0.2177
 6511SOL    HW131169   0.626   1.972   2.588  0.6136 -1.1464  1.4907
 6511SOL    HW231170   0.483   2.020   2.570 -1.2656  0.9735  1.4299
 6512SOL     OW31171   2.210   2.722  16.370  0.3105  0.2467  0.6445
 6512SOL    HW131172   2.204   2.762  16.283 -0.0728 -1.3685 -0.0783
 6512SOL    HW231173   2.284   2.769  16.408  0.3516  1.0729 -0.4855
 6513SOL     OW31174   0.083   0.868   5.147  0.3607  0.4758  0.6508
 6513SOL    HW131175   0.085   0.818   5.065 -0.6967 -2.2020  2.2781
 6513SOL    HW231176   0.103   0.799   5.210 -1.5345  0.3423  1.0820
 6514SOL     OW31177   0.659   0.978  13.387 -0.8232  0.5557  0.3843
 6514SOL    HW131178   0.711   1.059  13.387  0.8648 -0.5149  1.0191
 6514SOL    HW231179   0.683   0.946  13.300 -0.2586 -0.1396  0.7894
 6515SOL     OW31180   0.287   0.913   4.561 -0.1475 -0.2343  0.2253
 6515SOL    HW131181   0.219   0.951   4.616 -0.5270 -0.3956 -0.1359
 6515SOL    HW231182   0.270   0.959   4.479  0.9908 -0.9530 -0.4144
 6516SOL     OW31183   0.615   4.086  12.254  0.2753  0.0941 -0.4482
 6516SOL    HW131184   0.704   4.092  12.220  0.7140 -0.3482  0.6555
 6516SOL    HW231185   0.593   3.993  12.245 -2.2586  0.6581 -0.1412
 6517SOL     OW31186   0.900   0.219   4.444 -0.2349  0.8527 -0.3653
 6517SOL    HW131187   0.895   0.245   4.537  2.7825 -0.9928  0.3188
 6517SOL    HW231188   0.809   0.193   4.429 -0.1510 -0.2777  1.0666
 6518SOL     OW31189   1.463   2.867   2.338  0.6412 -0.1990 -0.3449
 6518SOL    HW131190   1.487   2.913   2.257  1.1852  2.0164  1.0724
 6518SOL    HW231191   1.552   2.852   2.370  0.2920 -0.6504  0.4110
 6519SOL     OW31192   0.571   0.588   9.354  0.2817  0.2785 -0.0204
 6519SOL    HW131193   0.591   0.562   9.264 -0.5161  2.5882 -0.8593
 6519SOL    HW231194   0.476   0.579   9.359  0.4855 -2.2779 -0.5472
 6520SOL     OW31195   4.473   1.014   5.568  0.0671  0.1057  0.1295
 6520SOL    HW131196   4.450   0.921   5.572 -1.4735  0.5590  1.8166
 6520SOL    HW231197   4.499   1.013   5.476 -2.4648  4.0873 -0.6200
 6521SOL     OW31198   0.093   1.452   7.022 -0.4743 -0.2956  0.3085
 6521SOL    HW131199   0.123   1.518   7.084 -1.0855  0.5444 -0.2836
 6521SOL    HW231200   0.000   1.466   7.004 -0.1388 -1.8538 -2.7201
 6522SOL     OW31201   1.125   2.544   4.341 -0.1425  0.1838  0.5740
 6522SOL    HW131202   1.129   2.578   4.252 -1.9435  0.3064  0.5515
 6522SOL    HW231203   1.031   2.529   4.342 -0.6890  3.7626  0.0227
 6523SOL     OW31204   0.392   3.467   8.079 -0.2223  0.7421  0.1525
 6523SOL    HW131205   0.340   3.387   8.081  0.9999 -0.0015  2.0082
 6523SOL    HW231206   0.354   3.516   8.152  1.8134  1.5633  0.6495
 6524SOL     OW31207   1.242   3.409   5.317  0.2366  0.3527 -0.0826
 6524SOL    HW131208   1.235   3.461   5.237 -0.4970  1.8676  0.9547
 6524SOL    HW231209   1.257   3.486   5.373  0.8112 -0.1398  0.4383
 6525SOL     OW31210   1.044   3.989  11.150  0.5848  0.0547  0.5999
 6525SOL    HW131211   1.094   3.958  11.226  0.3103 -0.1111  0.7141
 6525SOL    HW231212   0.952   3.991  11.178  1.2500  0.8892  2.6954
 6526SOL     OW31213   2.491   4.633   3.000 -0.3558  0.1339 -1.0930
 6526SOL    HW131214   2.558   4.585   3.049 -0.9821  0.5616  0.1661
 6526SOL    HW231215   2.516   4.724   3.017 -0.7466  0.6374 -3.2151
 6527SOL     OW31216   4.650   4.012   3.381  0.1135  0.7740 -0.1693
 6527SOL    HW131217   4.610   4.085   3.334 -0.9507 -0.0539 -0.5623
 6527SOL    HW231218   4.644   4.049   3.469  1.0949  0.0128  0.2178
 6528SOL     OW31219   0.096   4.235   6.873 -0.1015  0.5460 -0.5376
 6528SOL    HW131220   0.138   4.190   6.800 -0.6469 -0.4289 -0.2571
 6528SOL    HW231221   0.006   4.202   6.868 -0.4062  1.3652 -0.4467
 6529SOL     OW31222   4.684   3.654   6.811  0.1978  0.4501 -0.0381
 6529SOL    HW131223   4.629   3.691   6.880  0.0342 -2.5526  1.4444
 6529SOL    HW231224   0.016   3.617   6.867 -0.5922  2.1068  2.0596
 6530SOL     OW31225   1.208   2.793   9.344 -0.1339  0.4080  0.5034
 6530SOL    HW131226   1.299   2.816   9.361  0.2791 -1.5333  0.9567
 6530SOL    HW231227   1.168   2.841   9.417  0.6484 -3.0761  3.2273
 6531SOL     OW31228   0.016   1.580   5.154 -0.7123  0.0714 -1.2141
 6531SOL    HW131229   0.054   1.667   5.160 -1.6257  0.0599  4.3536
 6531SOL    HW231230   4.697   1.576   5.231 -1.9789  0.6170 -2.0965
 6532SOL     OW31231   4.236   3.077   5.764 -0.6589  0.2433 -0.0242
 6532SOL    HW131232   4.260   3.104   5.675  0.8257  0.7632  0.5301
 6532SOL    HW231233   4.272   2.988   5.770 -0.8941  0.1750  0.3795
 6533SOL     OW31234   4.233   3.001   1.589 -0.2680 -0.1650 -0.0446
 6533SOL    HW131235   4.215   2.929   1.649 -0.4329 -1.3315 -1.4947
 6533SOL    HW231236   4.216   3.071   1.652  1.8188  1.0356 -0.8173
 6534SOL     OW31237   3.503   2.426   3.030  0.3011  0.5325  0.0330
 6534SOL    HW131238   3.523   2.515   3.058  2.1485  0.5021 -1.1525
 6534SOL    HW231239   3.423   2.438   2.979  0.7186 -1.1294 -1.0544
 6535SOL     OW31240   4.684   3.279   5.060 -0.0138  0.0805  0.2608
 6535SOL    HW131241   4.648   3.354   5.109  0.0471 -1.3270  2.4795
 6535SOL    HW231242   0.008   3.238   5.122  2.0697  1.4469 -0.8856
 6536SOL     OW31243   3.433   3.665   8.927  0.6567 -0.3856 -0.3528
 6536SOL    HW131244   3.343   3.633   8.941  0.9101 -1.1397 -0.4555
 6536SOL    HW231245   3.431   3.706   8.841  1.7897 -1.5081 -0.9123
 6537SOL     OW31246   4.047   3.546   4.266 -0.0733  0.3749  0.2168
 6537SOL    HW131247   4.056   3.578   4.355  1.1414  0.6157  0.0094
 6537SOL    HW231248   4.139   3.553   4.242  0.1446 -0.5203  0.7682
 6538SOL     OW31249   4.434   4.029  16.333  0.3733 -0.1715 -0.7472
 6538SOL    HW131250   4.340   4.046  16.334  0.5938  0.9119  1.6988
 6538SOL    HW231251   4.452   4.027  16.427 -2.3996 -3.3045 -0.3334
 6539SOL     OW31252   0.083   3.071   3.275  0.1828  0.0637 -0.3425
 6539SOL    HW131253   0.179   3.064   3.277  0.3426  2.2055 -0.4354
 6539SOL    HW231254   0.061   3.010   3.204 -2.5522  0.3285  0.2704
 6540SOL     OW31255   4.652   2.722   6.230  0.2701  0.2992  0.3090
 6540SOL    HW131256   4.692   2.790   6.177  0.0090 -0.2487 -0.5962
 6540SOL    HW231257   4.688   2.639   6.196 -1.3270  0.4594 -1.7828
 6541SOL     OW31258   0.956   0.775   6.819  0.6100  0.1630 -0.2670
 6541SOL    HW131259   0.992   0.745   6.902 -2.0727  2.5367  1.7834
 6541SOL    HW231260   0.922   0.862   6.842  1.1266  0.2552  0.1297
 6542SOL     OW31261   2.030   3.964   3.029  0.1169  0.1088  0.6925
 6542SOL    HW131262   1.956   3.994   3.082  0.9268  1.2063  1.1851
 6542SOL    HW231263   1.982   3.901   2.974  0.3538 -0.7390  1.4578
 6543SOL     OW31264   4.572   2.057   9.434  0.4155 -0.0546 -1.2433
 6543SOL    HW131265   4.485   2.096   9.445  0.3931 -0.2102 -0.8649
 6543SOL    HW231266   4.627   2.121   9.388  1.6769 -0.8345 -0.8166
 6544SOL     OW31267   3.599   0.944  12.915  0.9623  0.3816 -0.1188
 6544SOL    HW131268   3.574   0.930  12.824  1.8114  0.2717 -0.3365
 6544SOL    HW231269   3.559   0.875  12.968  1.5066 -0.3745 -0.6971
 6545SOL     OW31270   1.491   1.958  16.444 -0.5281  0.4547 -0.4415
 6545SOL    HW131271   1.513   2.050  16.459  1.2789 -0.1572  0.6980
 6545SOL    HW231272   1.468   1.948  16.352 -0.0822 -0.7310 -0.4240
 6546SOL     OW31273   1.021   2.810   2.839  0.0827 -0.4310  0.3899
 6546SOL    HW131274   0.977   2.840   2.918  1.2048 -0.3127  0.9653
 6546SOL    HW231275   1.113   2.832   2.848 -0.3140 -0.5991  4.5017
 6547SOL     OW31276   4.069   0.222  16.720 -0.6310  0.3638  0.4988
 6547SOL    HW131277   4.031   0.257  16.800  1.0642  2.4925  0.3869
 6547SOL    HW231278   4.027   0.136  16.717 -1.3957  0.7905 -1.5777
 6548SOL     OW31279   1.106   1.886  17.686 -0.1685  0.2273  0.0777
 6548SOL    HW131280   1.136   1.861  17.598 -0.7454 -0.3445  0.0381
 6548SOL    HW231281   1.126   1.979  17.691  0.7695  0.0649 -0.5732
 6549SOL     OW31282   1.705   0.872   2.659 -0.5458  0.1309 -0.1118
 6549SOL    HW131283   1.788   0.913   2.684 -0.3753 -1.2101  1.5133
 6549SOL    HW231284   1.692   0.808   2.729  1.5419 -0.7522 -0.5539
 6550SOL     OW31285   2.239   2.973   4.696  0.1533 -0.3211  0.2094
 6550SOL    HW131286   2.332   2.992   4.690 -0.1292  0.9656 -0.2016
 6550SOL    HW231287   2.208   3.035   4.630  0.2092 -2.4480 -1.8276
 6551SOL     OW31288   0.485   3.443   5.374  0.3814  0.5365 -0.3369
 6551SOL    HW131289   0.489   3.521   5.318 -0.2244  0.7073 -0.1371
 6551SOL    HW231290   0.564   3.396   5.348 -0.6011 -0.6009 -1.2433
 6552SOL     OW31291   2.177   3.389   9.120 -0.5586  0.2152 -0.2100
 6552SOL    HW131292   2.215   3.325   9.061 -0.0268 -1.5631  2.0675
 6552SOL    HW231293   2.240   3.462   9.119 -0.4942  0.1939  1.4897
 6553SOL     OW31294   1.115   4.180   2.695 -0.3674 -0.3204  0.2698
 6553SOL    HW131295   1.164   4.178   2.778 -1.2004 -0.3053  0.7671
 6553SOL    HW231296   1.175   4.241   2.652 -0.1607  1.1330  2.5894
 6554SOL     OW31297   3.857   2.844   7.173 -0.0100 -0.3462 -0.2180
 6554SOL    HW131298   3.852   2.799   7.089  1.0137  0.8109 -0.8845
 6554SOL    HW231299   3.893   2.777   7.232  0.2371  0.5665  0.6587
 6555SOL     OW31300   1.693   2.713   6.509  0.1059 -0.6399 -0.1764
 6555SOL    HW131301   1.630   2.646   6.535  1.2307 -1.8356 -0.5866
 6555SOL    HW231302   1.629   2.767   6.461  1.8315  0.4719 -1.2210
 6556SOL     OW31303   2.893   4.581   8.977  0.5738 -0.4012  0.6323
 6556SOL    HW131304   2.906   4.486   8.977  1.0528 -0.3337  2.7881
 6556SOL    HW231305   2.856   4.599   9.064  3.0322 -2.2088  2.0619
 6557SOL     OW31306   4.045   3.193   3.654  0.1604  0.1957  0.4113
 6557SOL    HW131307   4.139   3.207   3.646  0.7277 -2.8476  1.5253
 6557SOL    HW231308   4.000   3.262   3.606  1.0194  0.3715 -0.1367
 6558SOL     OW31309   0.283   2.488   3.373 -0.3005 -0.0491 -0.4000
 6558SOL    HW131310   0.192   2.457   3.376 -0.8536  1.6248  0.4390
 6558SOL    HW231311   0.264   2.581   3.360 -3.5678 -0.5416  0.9300
 6559SOL     OW31312   3.443   1.281   6.711  0.4047  0.5453  0.2699
 6559SOL    HW131313   3.425   1.349   6.645  1.0403 -0.4073 -0.8898
 6559SOL    HW231314   3.538   1.278   6.710  0.4377  1.3628  0.9390
 6560SOL     OW31315   4.061   4.537   4.952  0.3513  0.4403  0.7688
 6560SOL    HW131316   4.133   4.562   4.895  0.2989 -0.6676  0.2167
 6560SOL    HW231317   4.012   4.481   4.892  1.0236 -1.1090  1.6385
 6561SOL     OW31318   2.514   3.185  11.173  0.1488 -0.1708 -0.0082
 6561SOL    HW131319   2.607   3.202  11.167 -0.1341  0.7617 -1.6191
 6561SOL    HW231320   2.511   3.099  11.132  0.1169 -0.5414  0.7674
 6562SOL     OW31321   3.830   0.507   7.720  0.6832 -0.6431  0.2787
 6562SOL    HW131322   3.802   0.530   7.809  1.9588 -5.2937  1.8346
 6562SOL    HW231323   3.747   0.519   7.673  0.4872 -1.6481  0.3751
 6563SOL     OW31324   2.339   1.613   5.823 -0.1244 -0.5655 -0.0576
 6563SOL    HW131325   2.395   1.536   5.837  0.8730  0.3476  0.9578
 6563SOL    HW231326   2.271   1.564   5.775  0.3388  0.5962 -1.9074
 6564SOL     OW31327   2.008   1.427   5.926  0.3870  0.3036  0.0411
 6564SOL    HW131328   1.937   1.365   5.909  1.7928 -1.1076 -0.7792
 6564SOL    HW231329   2.091   1.381   5.912  0.5610  0.7692 -0.4640
 6565SOL     OW31330   3.007   0.721   2.528 -0.2579 -0.3757  0.1409
 6565SOL    HW131331   3.085   0.761   2.490 -1.2877  1.0960 -0.4137
 6565SOL    HW231332   2.981   0.795   2.582  0.1788  0.3265 -0.6200
 6566SOL     OW31333   3.035   0.363   7.167 -0.2992 -0.1558  0.2511
 6566SOL    HW131334   3.010   0.335   7.255  1.0486  0.6986  0.9142
 6566SOL    HW231335   3.026   0.457   7.179  0.7625 -0.2061  1.5069
 6567SOL     OW31336   1.782   2.899  11.765 -0.4452  0.2515 -0.4528
 6567SOL    HW131337   1.709   2.954  11.795  0.7281  1.8922 -0.5771
 6567SOL    HW231338   1.734   2.829  11.720 -1.0593  0.4158 -0.0644
 6568SOL     OW31339   0.763   3.230  17.296  0.1189  0.4286 -0.8069
 6568SOL    HW131340   0.684   3.225  17.242  0.1600  3.1374 -1.1366
 6568SOL    HW231341   0.744   3.319  17.326  0.0952 -0.6202  2.2799
 6569SOL     OW31342   0.331   1.484   3.592 -0.1885 -0.5783  0.2961
 6569SOL    HW131343   0.376   1.461   3.673 -0.1384  0.6109  0.6048
 6569SOL    HW231344   0.247   1.443   3.612  0.4830 -1.7584  0.6838
 6570SOL     OW31345   0.380   4.336   7.224  0.1092  0.1728  0.1123
 6570SOL    HW131346   0.356   4.413   7.275 -0.6341  0.8662 -1.2796
 6570SOL    HW231347   0.339   4.374   7.146  0.6530 -0.7448 -0.6156
 6571SOL     OW31348   2.173   3.485   6.030  0.2219 -0.2621 -0.3321
 6571SOL    HW131349   2.162   3.397   5.996  0.0678 -0.0724 -0.7769
 6571SOL    HW231350   2.207   3.459   6.116 -1.9178  0.5913  0.7568
 6572SOL     OW31351   3.698   2.212   4.608 -0.2621  0.1195  0.7664
 6572SOL    HW131352   3.742   2.200   4.692 -1.8821 -1.1340  1.4373
 6572SOL    HW231353   3.609   2.191   4.635  0.2827 -1.2104  1.5342
 6573SOL     OW31354   1.872   2.536  13.532 -0.4100 -1.0934  0.2248
 6573SOL    HW131355   1.808   2.608  13.538 -3.2872 -3.7318  1.0504
 6573SOL    HW231356   1.921   2.566  13.456  1.1289  0.4035  1.8102
 6574SOL     OW31357   3.209   3.013   8.982  0.2090 -0.3322  0.2484
 6574SOL    HW131358   3.194   2.951   9.054 -1.0846  1.0194  1.1404
 6574SOL    HW231359   3.295   2.985   8.951  1.7271  2.1638  2.1777
 6575SOL     OW31360   3.114   2.148   1.270 -0.4400  0.1978  0.4421
 6575SOL    HW131361   3.200   2.177   1.241  0.0790 -0.0479  1.7068
 6575SOL    HW231362   3.069   2.231   1.255  0.6159  0.7853  0.5302
 6576SOL     OW31363   1.410   0.456   6.632 -0.2585  0.0353  0.5756
 6576SOL    HW131364   1.435   0.543   6.602  0.4082  0.3062  1.8838
 6576SOL    HW231365   1.342   0.480   6.696  0.7519  0.5571  1.4675
 6577SOL     OW31366   3.112   4.149   9.430 -0.1275 -0.4071 -0.2729
 6577SOL    HW131367   3.095   4.076   9.490 -0.3652 -0.8299 -0.8583
 6577SOL    HW231368   3.200   4.121   9.406 -0.7493 -0.3855 -2.5409
 6578SOL     OW31369   2.054   3.415   8.825 -0.5092  0.3703 -0.3597
 6578SOL    HW131370   2.066   3.375   8.911 -1.1847 -1.4877 -1.1310
 6578SOL    HW231371   2.065   3.341   8.765 -1.7482 -0.1816  0.0910
 6579SOL     OW31372   1.248   0.561   6.387 -0.0021 -0.6146  0.2148
 6579SOL    HW131373   1.268   0.646   6.426  3.1717 -2.0054  1.5277
 6579SOL    HW231374   1.186   0.515   6.443  0.1113  0.3420  1.1347
 6580SOL     OW31375   4.204   3.636   5.876 -0.1327 -0.2545 -0.2795
 6580SOL    HW131376   4.186   3.565   5.936 -0.5491  2.8575  3.2775
 6580SOL    HW231377   4.296   3.632   5.851 -0.1658  1.2200 -0.6421
 6581SOL     OW31378   2.453   4.320   3.604  0.0128 -0.3594  0.0126
 6581SOL    HW131379   2.373   4.363   3.635  1.2428  1.3919  0.7852
 6581SOL    HW231380   2.519   4.376   3.643 -0.8710  0.2657  0.6171
 6582SOL     OW31381   0.346   0.549   7.012 -0.2246  0.9602  0.4631
 6582SOL    HW131382   0.363   0.454   7.010  0.3187  1.0779 -1.0435
 6582SOL    HW231383   0.254   0.554   6.985  0.4703  3.1844 -1.5080
 6583SOL     OW31384   0.892   1.158   7.194 -0.2811  0.6574  0.3136
 6583SOL    HW131385   0.811   1.176   7.240 -0.2399 -1.6609  1.2991
 6583SOL    HW231386   0.856   1.102   7.124  1.0769  2.2464 -1.6594
 6584SOL     OW31387   4.632   4.237  16.736  0.2776 -0.6234  0.3945
 6584SOL    HW131388   4.617   4.231  16.830  1.0651 -2.1688  0.4275
 6584SOL    HW231389   4.563   4.301  16.720  0.9600  0.2573  1.0127
 6585SOL     OW31390   2.407   3.971   7.069  0.2865  0.7170  0.3949
 6585SOL    HW131391   2.321   4.005   7.095 -0.2237 -0.5314  0.3569
 6585SOL    HW231392   2.442   4.047   7.024  0.0079  1.9625  2.2925
 6586SOL     OW31393   2.884   1.277   4.847 -0.0875  0.1247 -0.0239
 6586SOL    HW131394   2.830   1.348   4.812  0.9918  2.2570  2.6551
 6586SOL    HW231395   2.876   1.300   4.940  1.2847  0.4576  0.0142
 6587SOL     OW31396   4.439   4.700  10.971  0.5302 -0.5337 -0.8851
 6587SOL    HW131397   4.476   0.013  11.044  1.6007  1.0843 -2.5488
 6587SOL    HW231398   4.508   4.634  10.975 -0.0243 -1.0432  0.2140
 6588SOL     OW31399   2.475   3.026   9.576 -0.2226  0.5921 -0.0640
 6588SOL    HW131400   2.396   2.986   9.538  0.8083 -0.1810 -1.4304
 6588SOL    HW231401   2.537   2.972   9.527 -0.6683  1.4033 -1.5481
 6589SOL     OW31402   3.511   3.058   3.039  0.1167  0.5066  0.2736
 6589SOL    HW131403   3.517   3.150   3.014 -0.3841  0.3965 -0.2393
 6589SOL    HW231404   3.599   3.019   3.043 -0.1287  0.0496  1.4602
 6590SOL     OW31405   1.083   1.605  12.198 -0.3114 -0.2819  0.0562
 6590SOL    HW131406   1.138   1.671  12.155  1.0623 -1.8037 -0.5231
 6590SOL    HW231407   1.060   1.546  12.127  0.0029 -0.9607  0.5148
 6591SOL     OW31408   2.652   0.528   9.270 -0.2232  0.5890 -0.1230
 6591SOL    HW131409   2.710   0.453   9.258 -1.1824 -0.0020 -0.9969
 6591SOL    HW231410   2.591   0.500   9.339  0.4645  1.3537  0.8054
 6592SOL     OW31411   0.091   4.441   7.776  0.5720  0.4533  0.0039
 6592SOL    HW131412   0.143   4.419   7.854  1.8914  1.9903 -0.4268
 6592SOL    HW231413   0.015   4.390   7.802  0.9102 -0.8804 -1.6882
 6593SOL     OW31414   3.666   0.759   4.346 -0.7134  0.1463  0.0179
 6593SOL    HW131415   3.730   0.711   4.294  0.3705 -0.7824  2.1839
 6593SOL    HW231416   3.719   0.799   4.416  0.2019 -1.5353  0.3106
 6594SOL     OW31417   1.486   2.624   0.833 -0.0945  0.0495 -0.1269
 6594SOL    HW131418   1.470   2.715   0.806 -0.4841 -0.4575 -1.5736
 6594SOL    HW231419   1.573   2.614   0.794  0.5726  0.7033  1.2038
 6595SOL     OW31420   1.311   4.226   5.022 -0.0054  0.0202 -0.3721
 6595SOL    HW131421   1.345   4.310   4.993  0.4890 -0.2943 -0.7202
 6595SOL    HW231422   1.395   4.181   5.022 -0.2069 -0.3731 -1.4878
 6596SOL     OW31423   4.174   3.167   6.742 -0.5511  0.4880 -0.2552
 6596SOL    HW131424   4.252   3.222   6.740 -0.1404 -0.0808  0.0819
 6596SOL    HW231425   4.132   3.209   6.668  0.5897 -3.5205 -3.1598
 6597SOL     OW31426   3.416   1.866  14.210 -0.3324  0.9441 -0.7054
 6597SOL    HW131427   3.351   1.916  14.259 -1.3567 -0.2231 -0.8834
 6597SOL    HW231428   3.391   1.870  14.118 -2.1028 -0.7620 -0.2969
 6598SOL     OW31429   4.449   2.563   8.177  0.2114 -0.3775 -0.1717
 6598SOL    HW131430   4.390   2.594   8.108 -0.9001  3.9280  2.7254
 6598SOL    HW231431   4.482   2.644   8.215 -0.0078 -1.2776  1.9624
 6599SOL     OW31432   2.292   3.235   4.555  0.0116 -0.5387  0.2998
 6599SOL    HW131433   2.256   3.258   4.469 -0.2251 -1.3105  0.1958
 6599SOL    HW231434   2.380   3.272   4.556  0.1563 -0.8839 -0.0348
 6600SOL     OW31435   3.752   4.172   8.893  0.3809 -0.5751  0.1558
 6600SOL    HW131436   3.741   4.234   8.965  0.3509  3.2287 -3.0914
 6600SOL    HW231437   3.710   4.095   8.930 -0.6330 -0.3606 -0.5089
 6601SOL     OW31438   2.603   2.911   1.689  0.2483 -0.4520  0.2741
 6601SOL    HW131439   2.519   2.896   1.646  0.7422  0.0402 -0.8679
 6601SOL    HW231440   2.653   2.847   1.638  0.6335 -0.2839  0.4428
 6602SOL     OW31441   1.155   4.322   5.621 -0.1128  0.1172  0.0245
 6602SOL    HW131442   1.143   4.335   5.527 -1.2764 -1.9811 -0.1261
 6602SOL    HW231443   1.180   4.411   5.645  1.9072  0.4175 -3.2327
 6603SOL     OW31444   0.981   1.640   6.836  0.1267 -0.3320 -0.1621
 6603SOL    HW131445   0.964   1.673   6.925 -0.6557 -0.4971 -0.2509
 6603SOL    HW231446   0.897   1.603   6.807  1.1174 -3.3753  0.9010
 6604SOL     OW31447   1.825   4.624   4.241  0.2895  0.0575  0.6635
 6604SOL    HW131448   1.738   4.603   4.274 -0.4295  0.9873 -0.6340
 6604SOL    HW231449   1.814   4.710   4.201  0.4582 -0.6430 -0.8887
 6605SOL     OW31450   4.134   3.799   8.975  0.3537 -0.8190 -0.7397
 6605SOL    HW131451   4.172   3.724   9.020 -2.7028 -1.3918  0.8956
 6605SOL    HW231452   4.108   3.847   9.053 -1.3685  1.7122 -2.8845
 6606SOL     OW31453   4.689   0.120   7.942 -0.0079  0.0584 -0.2193
 6606SOL    HW131454   4.642   0.087   8.019 -0.0712 -1.7184 -1.0118
 6606SOL    HW231455   4.672   0.213   7.952  0.2084 -0.0177  0.9351
 6607SOL     OW31456   4.295   3.186  10.583 -0.6324 -0.0161 -0.3199
 6607SOL    HW131457   4.207   3.186  10.545 -1.1031 -2.4932  0.7576
 6607SOL    HW231458   4.347   3.179  10.503  0.7532 -1.0445  0.6608
 6608SOL     OW31459   2.140   4.342  14.896  0.0309  0.9696  0.4787
 6608SOL    HW131460   2.096   4.338  14.981 -2.9460 -1.6905 -1.2121
 6608SOL    HW231461   2.193   4.262  14.898 -1.8005 -0.2416  0.4113
 6609SOL     OW31462   1.536   0.579   1.507 -0.3925 -0.5785  0.2415
 6609SOL    HW131463   1.605   0.542   1.562 -0.6536  0.4484  1.2736
 6609SOL    HW231464   1.589   0.638   1.453  1.3604  0.3381  2.9707
 6610SOL     OW31465   2.575   4.480   7.553 -0.0367 -0.3284 -0.3119
 6610SOL    HW131466   2.555   4.391   7.523  0.7158 -0.7342  0.3997
 6610SOL    HW231467   2.668   4.482   7.531  0.1455 -1.7318  0.3142
 6611SOL     OW31468   2.405   1.038  11.758  0.1244  0.3581 -0.1896
 6611SOL    HW131469   2.385   0.945  11.752  1.1686  0.0615  1.0161
 6611SOL    HW231470   2.415   1.057  11.851  1.6149  0.3306 -0.3415
 6612SOL     OW31471   2.915   2.186  16.247 -0.2266 -0.4494  0.0095
 6612SOL    HW131472   2.843   2.174  16.185 -0.1903  3.9102 -0.8897
 6612SOL    HW231473   2.963   2.251  16.195 -1.0379  1.3677  1.5246
 6613SOL     OW31474   3.749   2.558   7.587 -0.5897 -0.1367  0.7723
 6613SOL    HW131475   3.656   2.543   7.573 -1.0617  4.0009 -0.5176
 6613SOL    HW231476   3.785   2.480   7.544  0.5818 -0.3742  2.1804
 6614SOL     OW31477   4.712   0.878   9.119  0.2492 -0.3107  0.9680
 6614SOL    HW131478   0.052   0.921   9.156  0.0934  0.2986  0.5915
 6614SOL    HW231479   4.646   0.948   9.113  0.7782  0.2259  1.4052
 6615SOL     OW31480   4.138   2.807   5.137  0.2365 -0.5610  0.5325
 6615SOL    HW131481   4.185   2.890   5.148  0.8498 -0.9495  0.8793
 6615SOL    HW231482   4.112   2.796   5.229 -1.1854 -0.8448  0.0820
 6616SOL     OW31483   1.475   2.030   9.664  0.5246 -0.4743  0.3058
 6616SOL    HW131484   1.435   2.068   9.743  0.8580  1.3881 -0.4234
 6616SOL    HW231485   1.427   1.949   9.649  0.3214 -0.1160 -0.9301
 6617SOL     OW31486   2.322   1.752   9.972 -0.2140  0.3093  0.1908
 6617SOL    HW131487   2.326   1.715   9.883  0.4654  0.6606  0.0733
 6617SOL    HW231488   2.380   1.827   9.955 -0.9828  0.3223 -2.4396
 6618SOL     OW31489   1.322   3.448   4.561 -0.1566  0.1216 -0.2643
 6618SOL    HW131490   1.359   3.450   4.649 -1.4871 -0.6268  0.3018
 6618SOL    HW231491   1.380   3.512   4.518  2.0921 -0.1064  2.4641
 6619SOL     OW31492   3.419   3.897   8.397 -0.3345 -0.4475 -0.2341
 6619SOL    HW131493   3.395   3.978   8.352  0.1835  0.9148  1.9054
 6619SOL    HW231494   3.327   3.873   8.404 -0.0339 -0.9356  2.4287
 6620SOL     OW31495   3.089   1.533   7.614  0.6749  0.1222  0.1033
 6620SOL    HW131496   3.112   1.452   7.569 -1.7708 -1.0688  1.0276
 6620SOL    HW231497   2.994   1.525   7.627  0.6131  1.6322  0.5717
 6621SOL     OW31498   3.877   2.114   3.265  0.6495  0.7349 -0.4831
 6621SOL    HW131499   3.923   2.167   3.200 -1.3247  2.4289 -0.4896
 6621SOL    HW231500   3.935   2.097   3.339  1.6402  0.2873 -1.3570
 6622SOL     OW31501   4.595   0.856   3.610  0.3507  0.3617  0.4313
 6622SOL    HW131502   4.504   0.852   3.639 -0.1648  1.3648 -1.0074
 6622SOL    HW231503   4.588   0.906   3.528  2.6488  0.1355  0.1059
 6623SOL     OW31504   3.551   2.870   5.149  0.5066  0.3925  0.2817
 6623SOL    HW131505   3.563   2.923   5.070  0.7721 -0.8783 -0.5406
 6623SOL    HW231506   3.643   2.867   5.174  1.1036 -0.1087 -1.9303
 6624SOL     OW31507   0.451   1.936   9.327  0.1477  0.0796 -0.4969
 6624SOL    HW131508   0.475   1.904   9.240 -0.1462  0.5279 -0.7498
 6624SOL    HW231509   0.360   1.967   9.317 -0.2911 -1.2302 -0.5000
 6625SOL     OW31510   3.653   0.454  15.534 -0.2419 -0.3321 -0.5913
 6625SOL    HW131511   3.710   0.449  15.610 -3.8992  0.3565  2.1853
 6625SOL    HW231512   3.657   0.361  15.510  2.1838 -0.3031 -0.2413
 6626SOL     OW31513   0.916   0.722  10.630  0.1871 -0.9911 -0.3670
 6626SOL    HW131514   0.827   0.717  10.664  0.8975 -1.2923  1.4920
 6626SOL    HW231515   0.961   0.764  10.704  0.9941  0.2926 -1.5897
 6627SOL     OW31516   4.127   2.727   6.928 -0.0475 -0.5576 -0.3462
 6627SOL    HW131517   4.034   2.748   6.934  0.3429  1.4837 -1.5745
 6627SOL    HW231518   4.165   2.801   6.882 -1.2338 -0.1582 -0.6837
 6628SOL     OW31519   2.598   0.171   1.171 -0.3518  0.0848  0.4274
 6628SOL    HW131520   2.591   0.260   1.205 -0.6534  1.2060 -2.5335
 6628SOL    HW231521   2.512   0.130   1.186 -0.4535  1.3015  3.1358
 6629SOL     OW31522   2.628   2.467   5.838  0.1103 -0.0467  0.3761
 6629SOL    HW131523   2.706   2.418   5.812 -1.0986 -3.2773  2.7852
 6629SOL    HW231524   2.597   2.413   5.911  1.1462  0.2645  1.0539
 6630SOL     OW31525   2.604   4.422   6.053 -0.1818  0.3674 -0.1342
 6630SOL    HW131526   2.522   4.400   6.096  1.1468 -0.1953  2.1158
 6630SOL    HW231527   2.583   4.477   5.977 -1.1923  0.8371  0.4892
 6631SOL     OW31528   3.358   4.196  12.057 -1.2070  0.1473 -0.2746
 6631SOL    HW131529   3.411   4.129  12.014  1.1809  1.3428  0.8085
 6631SOL    HW231530   3.294   4.142  12.104 -2.1107 -1.8607 -3.8643
 6632SOL     OW31531   3.188   4.545   9.946 -0.3787  0.1144 -0.0335
 6632SOL    HW131532   3.176   4.478   9.879 -1.4513 -0.7601  1.0446
 6632SOL    HW231533   3.270   4.583   9.914 -1.6796  2.2080 -0.8877
 6633SOL     OW31534   3.434   0.823  10.670  0.1263 -0.4244 -0.0726
 6633SOL    HW131535   3.494   0.886  10.631  1.0409  0.7113  3.1350
 6633SOL    HW231536   3.436   0.756  10.602 -0.5406 -1.7151  1.1708
 6634SOL     OW31537   0.426   4.320   3.579 -0.8270 -0.0729  0.3356
 6634SOL    HW131538   0.438   4.225   3.573 -1.2665 -0.0513 -1.0356
 6634SOL    HW231539   0.346   4.334   3.528 -0.7561  1.5262  0.6729
 6635SOL     OW31540   1.226   0.825   4.163  0.5340 -0.2196  0.2249
 6635SOL    HW131541   1.165   0.759   4.130 -1.3485  1.0818  1.1023
 6635SOL    HW231542   1.234   0.801   4.255  0.8475 -2.7665 -0.4726
 6636SOL     OW31543   3.713   3.629   2.648 -0.1731 -0.1490  0.2394
 6636SOL    HW131544   3.686   3.572   2.720 -1.7258 -2.1751 -1.9553
 6636SOL    HW231545   3.688   3.708   2.696 -2.1510  0.4037 -1.6985
 6637SOL     OW31546   2.948   1.920   2.912 -0.5101  0.3709  0.1837
 6637SOL    HW131547   2.862   1.919   2.871 -1.1256 -1.7559  1.5459
 6637SOL    HW231548   3.004   1.941   2.837 -0.1202 -0.7845  0.1528
 6638SOL     OW31549   2.029   2.132  12.868 -0.2204 -0.0813 -0.1333
 6638SOL    HW131550   1.975   2.054  12.878 -1.4635  0.8921  0.6762
 6638SOL    HW231551   2.117   2.095  12.866 -0.6153 -0.9070 -1.9579
 6639SOL     OW31552   0.069   4.005   2.803  0.7647 -0.3499  0.2813
 6639SOL    HW131553   0.120   3.938   2.850  1.6801 -0.6048 -1.0774
 6639SOL    HW231554   0.135   4.030   2.739  0.9884 -2.9139 -0.5201
 6640SOL     OW31555   4.721   1.438   8.263 -0.1000 -0.0334  0.0203
 6640SOL    HW131556   4.683   1.418   8.178  1.5171 -2.0456 -0.2482
 6640SOL    HW231557   0.079   1.440   8.246  0.3418 -0.1455  2.4553
 6641SOL     OW31558   3.817   0.393   6.533  0.1859  0.2171  0.1335
 6641SOL    HW131559   3.769   0.476   6.541 -0.5402 -0.3654  1.9144
 6641SOL    HW231560   3.905   0.426   6.550  0.4177  0.8736 -2.4093
 6642SOL     OW31561   2.852   0.088   2.222 -0.1220  0.0846 -0.1334
 6642SOL    HW131562   2.816   0.033   2.292  1.0681  1.2007  1.3830
 6642SOL    HW231563   2.772   0.122   2.182 -0.1731 -0.8058 -0.7789
 6643SOL     OW31564   2.859   2.025   0.178  0.1356  0.5542  0.0999
 6643SOL    HW131565   2.765   2.009   0.188  0.1736  0.7452  0.7197
 6643SOL    HW231566   2.870   1.991   0.089  1.4849  1.2313  0.0180
 6644SOL     OW31567   4.421   4.680   6.147  0.4645 -0.3496 -0.3444
 6644SOL    HW131568   4.327   4.688   6.163  0.8694  1.1841  1.1611
 6644SOL    HW231569   4.429   4.588   6.119  0.0512 -0.7210  0.7445
 6645SOL     OW31570   0.927   3.937   6.579 -0.4172 -0.3492 -0.1475
 6645SOL    HW131571   0.874   3.858   6.586 -2.2827  0.7954 -1.4890
 6645SOL    HW231572   1.008   3.907   6.540  1.7735  1.2007  3.1997
 6646SOL     OW31573   2.986   0.610   4.008  0.1013  0.5448  0.1546
 6646SOL    HW131574   2.984   0.519   3.978 -1.5976  1.4944 -2.6526
 6646SOL    HW231575   2.926   0.655   3.949  0.2940  2.0409  1.0854
 6647SOL     OW31576   0.910   1.220   9.201 -0.2398 -0.7725 -0.2980
 6647SOL    HW131577   0.866   1.151   9.249 -0.2116  0.4612  1.4969
 6647SOL    HW231578   0.993   1.224   9.249 -1.2483  2.1562  1.1726
 6648SOL     OW31579   2.792   2.204   5.274  0.0616  0.5451 -0.2259
 6648SOL    HW131580   2.818   2.226   5.364 -0.4038  2.7833 -0.6412
 6648SOL    HW231581   2.825   2.279   5.225 -0.8784  1.5218  0.6316
 6649SOL     OW31582   2.626   0.739   7.789  0.0339 -0.2830 -0.1046
 6649SOL    HW131583   2.555   0.804   7.793 -0.0340 -0.3703  0.1286
 6649SOL    HW231584   2.598   0.677   7.856  0.9023 -0.3048  0.2275
 6650SOL     OW31585   3.418   4.566  16.884 -0.2434 -0.0769 -0.1050
 6650SOL    HW131586   3.449   4.616  16.960 -1.7470  0.0636  0.4164
 6650SOL    HW231587   3.346   4.626  16.866 -1.4205 -1.0639  1.2825
 6651SOL     OW31588   4.159   2.005   5.010  0.2245 -0.1742  0.3746
 6651SOL    HW131589   4.119   1.920   4.995  0.2940  0.3086 -2.6326
 6651SOL    HW231590   4.250   1.997   5.038  0.7517 -0.0132 -1.2716
 6652SOL     OW31591   3.634   0.856   2.072 -0.2424  0.6153 -0.3861
 6652SOL    HW131592   3.627   0.791   2.142  1.8027  0.4585 -0.3106
 6652SOL    HW231593   3.676   0.806   2.002  1.1495  1.9958 -0.5464
 6653SOL     OW31594   4.438   4.229   5.635  0.0191  0.4884  0.5537
 6653SOL    HW131595   4.351   4.205   5.667  0.1335  1.1541  1.3384
 6653SOL    HW231596   4.483   4.211   5.717  0.4354 -0.1740  0.1829
 6654SOL     OW31597   3.080   4.280   6.037  0.2130 -0.0762 -0.8315
 6654SOL    HW131598   3.051   4.304   5.949 -1.8176 -0.0366 -0.1426
 6654SOL    HW231599   3.020   4.327   6.094 -0.4029 -0.3826 -1.2248
 6655SOL     OW31600   1.433   1.127   7.523  0.0976 -0.4064 -0.5432
 6655SOL    HW131601   1.466   1.184   7.453  3.0604  1.9338  2.7535
 6655SOL    HW231602   1.506   1.068   7.540  1.3065  1.0427 -0.6590
 6656SOL     OW31603   1.376   2.987   5.475 -0.3367 -0.4531  0.8511
 6656SOL    HW131604   1.334   2.954   5.395  0.2861 -0.3369  0.4772
 6656SOL    HW231605   1.458   3.013   5.434  0.1068 -0.1470  1.9446
 6657SOL     OW31606   3.018   3.651   6.757 -0.2730  0.2340  0.3552
 6657SOL    HW131607   2.996   3.704   6.680  0.2556  0.3625  0.2923
 6657SOL    HW231608   2.966   3.697   6.822 -0.1097  1.9950 -0.7652
 6658SOL     OW31609   3.568   3.590   7.719 -0.4019 -0.1885  0.7944
 6658SOL    HW131610   3.647   3.565   7.671 -0.5119 -0.1066  0.5649
 6658SOL    HW231611   3.522   3.642   7.652  1.8818  0.4641 -0.3035
 6659SOL     OW31612   0.551   2.085   5.904  0.6042 -0.0693 -0.4944
 6659SOL    HW131613   0.621   2.023   5.925 -0.3688 -0.6213  1.1161
 6659SOL    HW231614   0.577   2.156   5.961  2.4934 -0.8698 -0.3607
 6660SOL     OW31615   2.150   3.389  10.581 -0.4447 -0.1597 -0.0993
 6660SOL    HW131616   2.164   3.299  10.611 -2.8165 -0.4116  0.1948
 6660SOL    HW231617   2.185   3.433  10.659  2.3833 -0.1548 -1.3456
 6661SOL     OW31618   4.157   4.147   3.599 -0.1166  0.0379 -0.1126
 6661SOL    HW131619   4.078   4.118   3.554  1.1194 -0.0992 -2.1948
 6661SOL    HW231620   4.225   4.127   3.536  0.9648 -0.1629  1.1115
 6662SOL     OW31621   2.500   1.533   2.863 -0.1021 -0.0426  0.9039
 6662SOL    HW131622   2.550   1.490   2.933  0.8286  1.4215  1.1352
 6662SOL    HW231623   2.508   1.480   2.784 -1.5067  0.7796  0.2131
 6663SOL     OW31624   1.235   1.545   6.761  0.3912  0.1498 -0.4195
 6663SOL    HW131625   1.153   1.589   6.783 -0.2526 -1.7529  1.0241
 6663SOL    HW231626   1.288   1.554   6.841 -0.1073  0.8709 -0.1785
 6664SOL     OW31627   0.004   4.454  16.268 -0.5041 -0.0950 -0.1065
 6664SOL    HW131628   0.004   4.381  16.330  0.8561  1.4845  1.8053
 6664SOL    HW231629   0.065   4.502  16.325 -0.7251  0.5912 -0.4510
 6665SOL     OW31630   0.755   4.527   5.645 -0.2057 -0.3604  0.2926
 6665SOL    HW131631   0.685   4.589   5.623 -1.7229 -2.1738 -0.0375
 6665SOL    HW231632   0.697   4.451   5.651  0.4844 -0.8938  0.0319
 6666SOL     OW31633   3.170   1.429   1.772 -0.3807 -0.3889  0.1051
 6666SOL    HW131634   3.201   1.456   1.685 -0.6596 -0.2082  0.0596
 6666SOL    HW231635   3.093   1.379   1.744  0.1988 -1.3174  0.1941
 6667SOL     OW31636   4.717   1.731   5.543 -0.6358  0.0940  0.4866
 6667SOL    HW131637   0.069   1.766   5.550 -0.2925 -0.2890 -2.0721
 6667SOL    HW231638   4.687   1.783   5.469  2.3056  2.4821  0.9609
 6668SOL     OW31639   2.808   1.899  16.021 -0.0072  0.4608 -0.3048
 6668SOL    HW131640   2.830   1.973  15.965 -2.8188 -0.1844 -2.2493
 6668SOL    HW231641   2.757   1.848  15.957  0.9167 -0.3597 -0.3796
 6669SOL     OW31642   2.301   0.356   3.497  0.3759  0.4745 -0.2230
 6669SOL    HW131643   2.274   0.412   3.425  1.0786 -1.7160 -2.1924
 6669SOL    HW231644   2.224   0.361   3.554 -0.1491 -1.3021 -0.7814
 6670SOL     OW31645   3.228   1.433   6.256 -0.1387  0.2620  0.0828
 6670SOL    HW131646   3.245   1.495   6.185  0.1067 -0.0076 -0.0927
 6670SOL    HW231647   3.255   1.477   6.337 -2.2010 -0.0891  0.9494
 6671SOL     OW31648   2.377   1.310   4.804 -0.3180  0.6712  0.1030
 6671SOL    HW131649   2.347   1.392   4.765 -2.5672 -0.1842  0.0413
 6671SOL    HW231650   2.330   1.321   4.887  0.6360 -0.5418  0.7924
 6672SOL     OW31651   4.550   1.187   8.265  0.3175  0.2123  0.1626
 6672SOL    HW131652   4.617   1.152   8.324 -1.4888  0.2164  2.2416
 6672SOL    HW231653   4.593   1.152   8.187 -0.2228  0.0973 -0.0829
 6673SOL     OW31654   2.203   0.763  16.435 -0.4076  0.3178 -0.4247
 6673SOL    HW131655   2.263   0.714  16.379 -0.5114 -0.5651  0.2446
 6673SOL    HW231656   2.119   0.717  16.425  0.3364 -1.7111  2.6748
 6674SOL     OW31657   2.385   3.661   7.078 -0.3080  0.0838  0.5810
 6674SOL    HW131658   2.475   3.630   7.065 -0.9962 -1.7903  0.2949
 6674SOL    HW231659   2.394   3.756   7.085 -1.9272  0.1628  1.6245
 6675SOL     OW31660   2.434   3.357   9.409 -0.5287  0.2629 -0.3053
 6675SOL    HW131661   2.346   3.326   9.428 -0.4574  0.9759  1.1713
 6675SOL    HW231662   2.431   3.449   9.385  0.0615  0.3161 -0.1800
 6676SOL     OW31663   4.293   1.044   3.308 -0.1589 -0.1746 -0.1322
 6676SOL    HW131664   4.288   0.958   3.267  0.4808  0.0816 -0.7469
 6676SOL    HW231665   4.377   1.069   3.270 -0.8122  2.4185  0.0984
 6677SOL     OW31666   3.168   4.543   8.067 -0.1101  0.1103 -0.1516
 6677SOL    HW131667   3.177   4.635   8.042  3.9732 -0.0230  0.7595
 6677SOL    HW231668   3.080   4.553   8.102  0.4549  0.9767  1.0448
 6678SOL     OW31669   3.374   0.659   9.699  0.1393 -0.0324 -0.3213
 6678SOL    HW131670   3.315   0.707   9.641  1.6399  1.3572 -0.7161
 6678SOL    HW231671   3.463   0.679   9.669  0.2187 -1.1002 -0.7779
 6679SOL     OW31672   1.916   2.016  17.172 -0.4084 -0.1823  0.0562
 6679SOL    HW131673   1.883   2.055  17.252  1.1218  0.2705  0.4825
 6679SOL    HW231674   1.901   2.088  17.110 -0.0524 -0.7086 -0.6510
 6680SOL     OW31675   1.189   0.911   2.754  0.3360  0.1134  0.0312
 6680SOL    HW131676   1.245   0.858   2.811  0.7661  1.3835  0.7974
 6680SOL    HW231677   1.165   0.837   2.699  0.0622  0.4777 -0.3386
 6681SOL     OW31678   4.491   3.439   9.099  0.2001  0.1526 -0.2465
 6681SOL    HW131679   4.424   3.495   9.061 -1.4116 -0.9699  0.9303
 6681SOL    HW231680   4.462   3.374   9.035  2.2646  0.7285 -1.7790
 6682SOL     OW31681   2.506   0.414  16.578 -0.2498 -0.5911 -0.0091
 6682SOL    HW131682   2.519   0.501  16.617  0.9158 -0.5283 -0.5427
 6682SOL    HW231683   2.550   0.439  16.497  0.4045 -0.2954  0.4425
 6683SOL     OW31684   1.290   3.803  15.245 -0.2348  0.3239  0.2634
 6683SOL    HW131685   1.210   3.759  15.216  0.3106 -0.4549 -0.0646
 6683SOL    HW231686   1.334   3.737  15.299 -1.1342  0.3615  1.0270
 6684SOL     OW31687   3.737   4.169   4.921  0.0956 -0.3758 -0.6367
 6684SOL    HW131688   3.704   4.206   4.840 -1.4308 -0.4469 -0.0450
 6684SOL    HW231689   3.653   4.176   4.966  0.8059 -1.0174  0.7948
 6685SOL     OW31690   3.049   3.269   5.704 -0.2103  0.4239  0.3690
 6685SOL    HW131691   3.053   3.363   5.687  2.8492  0.5638  1.7322
 6685SOL    HW231692   3.110   3.264   5.778 -1.1569  0.4121  1.1443
 6686SOL     OW31693   3.689   3.269   0.861  0.0317  0.1502  0.0508
 6686SOL    HW131694   3.603   3.305   0.840  2.0988  3.0363 -3.4447
 6686SOL    HW231695   3.748   3.279   0.786  0.0821  0.2144  0.1002
 6687SOL     OW31696   3.243   4.409   1.192  0.5279  0.1245 -0.3818
 6687SOL    HW131697   3.261   4.494   1.151  0.8347  0.0533 -0.3976
 6687SOL    HW231698   3.325   4.358   1.193  2.1196  2.7403  1.9478
 6688SOL     OW31699   0.798   1.097   7.730 -0.0204 -0.3964  0.4510
 6688SOL    HW131700   0.820   1.005   7.719 -2.2286 -1.0201  1.3096
 6688SOL    HW231701   0.737   1.106   7.657 -0.4700 -2.6354  0.5473
 6689SOL     OW31702   3.366   2.709   9.325  0.5706  0.3255  0.2686
 6689SOL    HW131703   3.411   2.780   9.370  1.4646  0.5786 -1.0356
 6689SOL    HW231704   3.379   2.626   9.372 -0.8213  1.4967  2.6909
 6690SOL     OW31705   3.958   3.870   4.600 -0.4656 -0.0906  0.0571
 6690SOL    HW131706   3.986   3.949   4.646 -1.7906 -0.1415  0.9309
 6690SOL    HW231707   3.902   3.825   4.663  0.3491 -1.2004  0.0052
 6691SOL     OW31708   2.180   3.862   5.263  0.2599 -0.3914 -0.3459
 6691SOL    HW131709   2.156   3.781   5.219  2.1311 -0.6465 -0.9040
 6691SOL    HW231710   2.259   3.884   5.214 -0.9170  2.3334 -1.0052
 6692SOL     OW31711   1.467   4.335   2.802  0.1852 -0.1691  0.2345
 6692SOL    HW131712   1.530   4.319   2.731 -0.1728 -1.5205  0.2239
 6692SOL    HW231713   1.433   4.416   2.762  1.7195 -0.9556 -2.7263
 6693SOL     OW31714   2.067   3.203   7.103 -0.1270 -0.4905  0.3402
 6693SOL    HW131715   2.038   3.112   7.099 -1.7510  0.0938 -0.8479
 6693SOL    HW231716   2.089   3.211   7.196 -0.9366 -0.6762  0.5468
 6694SOL     OW31717   1.607   1.599   6.558 -0.5008 -0.0427 -1.7616
 6694SOL    HW131718   1.639   1.572   6.472  0.8380 -0.4067 -1.1618
 6694SOL    HW231719   1.674   1.664   6.579 -0.1669 -0.6605 -0.8938
 6695SOL     OW31720   4.377   4.645  15.805 -0.4279  0.6056  0.1955
 6695SOL    HW131721   4.358   4.681  15.891  0.3776 -0.3106  0.7524
 6695SOL    HW231722   4.366   4.553  15.829 -0.1891  1.1525  2.3888
 6696SOL     OW31723   2.460   2.621   8.205  0.0814  0.1810  0.0447
 6696SOL    HW131724   2.385   2.670   8.238 -1.4181 -0.9622 -1.6173
 6696SOL    HW231725   2.446   2.538   8.250 -0.8646  0.0302 -0.5241
 6697SOL     OW31726   3.787   1.765  11.716 -0.5611 -0.0777  0.0060
 6697SOL    HW131727   3.865   1.719  11.686  0.4632  3.1536 -2.3096
 6697SOL    HW231728   3.738   1.686  11.739  1.4930 -0.4880  2.9400
 6698SOL     OW31729   4.554   4.269  12.895  0.5654 -0.4248 -0.5132
 6698SOL    HW131730   4.490   4.268  12.967 -0.0177  2.5838 -0.9641
 6698SOL    HW231731   4.544   4.182  12.856  1.1776  0.0682 -1.7760
 6699SOL     OW31732   2.945   2.882   9.639  0.2686  0.1026  0.9835
 6699SOL    HW131733   2.907   2.795   9.625  0.5728 -0.0666  1.2246
 6699SOL    HW231734   2.901   2.933   9.570  0.0495  0.6102  1.4981
 6700SOL     OW31735   1.978   1.375   8.043  0.0422 -0.1395 -0.3866
 6700SOL    HW131736   1.895   1.328   8.034 -0.7198  1.1743 -0.1902
 6700SOL    HW231737   1.968   1.430   7.966 -1.2004  1.3393  0.8048
 6701SOL     OW31738   1.796   0.937   0.209 -0.1484 -0.6101 -0.3015
 6701SOL    HW131739   1.889   0.959   0.217 -0.4785 -0.1170  2.2882
 6701SOL    HW231740   1.773   0.902   0.295  1.0959  0.0304  0.2946
 6702SOL     OW31741   3.438   1.121  17.130  0.3358 -0.6979  0.1050
 6702SOL    HW131742   3.490   1.139  17.051  0.6895  0.3009  0.5605
 6702SOL    HW231743   3.452   1.028  17.145 -1.3622 -1.2997 -1.9696
 6703SOL     OW31744   1.344   1.501   8.597 -0.0922 -0.1864  0.3631
 6703SOL    HW131745   1.429   1.469   8.569  1.1112  0.0332  3.7466
 6703SOL    HW231746   1.328   1.548   8.515  0.2037  0.6137  0.7615
 6704SOL     OW31747   1.307   0.252   5.898 -0.0206 -0.0768 -0.6563
 6704SOL    HW131748   1.268   0.176   5.854  0.7349 -0.5118 -0.5784
 6704SOL    HW231749   1.276   0.317   5.835 -0.1237  1.7517  1.3218
 6705SOL     OW31750   3.286   3.781   4.282 -0.0715  0.3112  0.2504
 6705SOL    HW131751   3.221   3.801   4.215 -1.2077 -1.7041  0.7523
 6705SOL    HW231752   3.362   3.840   4.278  0.7329 -0.8031 -0.8772
 6706SOL     OW31753   4.093   2.891   5.412  0.3514  0.4508  0.1866
 6706SOL    HW131754   4.045   2.913   5.492 -1.4880  0.0394 -0.8023
 6706SOL    HW231755   4.159   2.960   5.413 -0.0369  0.8223 -1.9573
 6707SOL     OW31756   0.564   1.782   5.778 -0.0666 -0.2306  0.0045
 6707SOL    HW131757   0.642   1.816   5.821  0.1498  1.8888 -2.0654
 6707SOL    HW231758   0.562   1.835   5.699 -0.1920  0.1634  0.2703
 6708SOL     OW31759   1.935   2.142  16.311 -0.2995 -0.1609 -0.1324
 6708SOL    HW131760   1.859   2.086  16.297 -0.4820  0.4955 -1.7597
 6708SOL    HW231761   1.992   2.093  16.370 -2.1789 -2.3912 -0.1828
 6709SOL     OW31762   0.300   1.965   1.972  0.3370  0.3247 -0.0285
 6709SOL    HW131763   0.245   1.888   1.954  0.6671 -0.3827  2.0469
 6709SOL    HW231764   0.257   2.027   1.912 -0.5794 -0.7873 -0.5357
 6710SOL     OW31765   2.335   1.201  15.983  0.1279 -0.4140 -0.2585
 6710SOL    HW131766   2.258   1.251  15.957  0.5261 -1.0036 -2.5796
 6710SOL    HW231767   2.315   1.165  16.069  2.9368 -1.6571 -0.0978
 6711SOL     OW31768   3.411   2.907  10.278  0.0320  0.2451 -0.1903
 6711SOL    HW131769   3.361   2.825  10.280 -2.7317  1.8784 -1.9362
 6711SOL    HW231770   3.351   2.970  10.237 -0.0473 -0.3778 -1.0318
 6712SOL     OW31771   4.406   1.722   1.829  0.1487 -0.1620 -0.1875
 6712SOL    HW131772   4.475   1.699   1.767  2.0328  0.1417  1.7904
 6712SOL    HW231773   4.342   1.653   1.814 -0.9240  1.4066 -2.8214
 6713SOL     OW31774   3.888   0.901  11.227 -0.0610 -0.0538  0.3094
 6713SOL    HW131775   3.844   0.849  11.159  0.3573  0.1689 -0.1366
 6713SOL    HW231776   3.965   0.846  11.240  1.5546  2.4565  1.4002
 6714SOL     OW31777   0.513   1.135   1.132 -0.1088  0.6648 -0.0704
 6714SOL    HW131778   0.572   1.193   1.179 -0.0107  0.1812  0.3956
 6714SOL    HW231779   0.507   1.062   1.194  0.2620  1.1550  0.5370
 6715SOL     OW31780   3.658   2.507  17.276 -0.4569  0.1124 -0.3836
 6715SOL    HW131781   3.593   2.536  17.212 -1.6148 -0.5707  0.4796
 6715SOL    HW231782   3.669   2.590  17.322  0.3596 -0.1333 -0.1289
 6716SOL     OW31783   1.210   2.908   7.150 -0.2094 -0.0662  0.6422
 6716SOL    HW131784   1.244   2.941   7.233  1.2885 -1.5825  0.6423
 6716SOL    HW231785   1.262   2.953   7.084 -3.6539 -0.5945 -2.4864
 6717SOL     OW31786   2.533   1.653   8.240  0.7581 -0.6226 -0.3259
 6717SOL    HW131787   2.514   1.714   8.311  0.3353  0.2042 -1.1474
 6717SOL    HW231788   2.481   1.581   8.277 -1.0644  1.1805  0.5910
 6718SOL     OW31789   4.694   0.183   6.178  0.4909 -0.9549  0.0059
 6718SOL    HW131790   0.005   0.119   6.230  2.6179  1.4643  1.0758
 6718SOL    HW231791   4.615   0.136   6.153 -1.5086  2.4339 -0.0603
 6719SOL     OW31792   1.277   1.640  13.364 -0.1952 -0.0340 -0.4995
 6719SOL    HW131793   1.365   1.604  13.347 -0.4180 -0.3256 -1.0444
 6719SOL    HW231794   1.294   1.726  13.404 -1.5135  0.7274 -1.5816
 6720SOL     OW31795   0.912   3.684   1.974 -0.2250 -0.6094  0.1031
 6720SOL    HW131796   0.918   3.597   1.936  0.3371  1.3838 -4.3988
 6720SOL    HW231797   0.994   3.722   1.944 -0.5689  0.7605  0.8676
 6721SOL     OW31798   3.162   1.153   7.862  0.6812  0.3902  0.4869
 6721SOL    HW131799   3.123   1.070   7.889  1.2822 -0.4465 -1.2055
 6721SOL    HW231800   3.093   1.211   7.894 -0.2821 -0.5670  0.1492
 6722SOL     OW31801   4.506   3.972   4.983  0.3166  0.1633 -0.2395
 6722SOL    HW131802   4.591   3.986   5.025  0.7265  1.3486 -1.4710
 6722SOL    HW231803   4.534   3.907   4.919 -1.7049  0.0597 -1.0185
 6723SOL     OW31804   2.756   2.502   7.630  0.1987  0.2325 -0.2092
 6723SOL    HW131805   2.679   2.521   7.577  0.6222  3.9760  0.5113
 6723SOL    HW231806   2.776   2.416   7.594 -2.3008 -0.6953  0.6005
 6724SOL     OW31807   1.115   3.710   3.448 -0.5101  0.1149 -0.4784
 6724SOL    HW131808   1.110   3.680   3.539 -1.5366 -1.3373 -1.0052
 6724SOL    HW231809   1.176   3.782   3.461 -1.4651  0.3274  2.9793
 6725SOL     OW31810   0.446   3.666  12.717 -0.2118 -0.2729  0.5616
 6725SOL    HW131811   0.449   3.603  12.789  1.4759 -0.5466  0.2677
 6725SOL    HW231812   0.487   3.609  12.652  0.2989  0.2563  0.4178
 6726SOL     OW31813   2.180   0.640   4.173  0.3896  0.0462 -0.0482
 6726SOL    HW131814   2.252   0.642   4.236 -0.2990 -0.9211  0.7780
 6726SOL    HW231815   2.218   0.583   4.106  1.6307  3.7386 -2.4309
 6727SOL     OW31816   4.321   2.399   2.001 -0.2427 -0.0851  0.1468
 6727SOL    HW131817   4.332   2.363   2.089 -0.0614 -0.2735  0.0473
 6727SOL    HW231818   4.329   2.493   2.018  1.3732 -0.4141  1.1785
 6728SOL     OW31819   0.896   1.801  16.452  0.2994 -0.0545 -0.0085
 6728SOL    HW131820   0.838   1.875  16.473 -0.4654 -1.3009  2.2490
 6728SOL    HW231821   0.935   1.789  16.539 -0.7398 -1.8542  0.1893
 6729SOL     OW31822   2.904   2.499   4.872  0.0686  0.4150  0.3220
 6729SOL    HW131823   2.952   2.458   4.800 -1.6264 -2.5763  0.8898
 6729SOL    HW231824   2.821   2.452   4.861 -0.0959  0.3246  1.9558
 6730SOL     OW31825   3.165   0.987   7.572 -0.4443 -0.3062 -0.0316
 6730SOL    HW131826   3.229   0.962   7.638  0.3814 -0.4022 -0.8652
 6730SOL    HW231827   3.205   0.947   7.495 -0.9305 -0.7541 -0.0489
 6731SOL     OW31828   4.316   1.709   5.889  0.4699  0.0454 -0.3554
 6731SOL    HW131829   4.362   1.777   5.839  1.5408  0.3149  0.9978
 6731SOL    HW231830   4.321   1.636   5.828 -1.3620 -0.4288  0.0672
 6732SOL     OW31831   1.812   2.660   5.408  1.1163 -0.2042  0.2316
 6732SOL    HW131832   1.804   2.670   5.503  1.8983 -1.6098  0.4474
 6732SOL    HW231833   1.740   2.599   5.394 -0.9273  1.9597  1.4293
 6733SOL     OW31834   4.530   4.429   0.252  0.1251  0.0558 -0.4002
 6733SOL    HW131835   4.502   4.378   0.176 -0.0127 -0.8621  0.2623
 6733SOL    HW231836   4.482   4.509   0.229 -2.0094 -0.8419  0.9144
 6734SOL     OW31837   2.314   1.967  15.125 -0.1612 -0.7920 -0.4648
 6734SOL    HW131838   2.226   2.003  15.136  0.6024 -0.0694  3.3115
 6734SOL    HW231839   2.354   2.053  15.113 -1.8764 -0.5261 -4.4710
 6735SOL     OW31840   4.189   0.502  14.004 -0.0829  0.5376 -0.7550
 6735SOL    HW131841   4.284   0.497  14.004 -0.1960 -1.7706 -0.3639
 6735SOL    HW231842   4.169   0.453  14.084  0.7516  0.0902 -0.8297
 6736SOL     OW31843   1.810   2.624   3.633 -0.3112 -0.1593  0.1011
 6736SOL    HW131844   1.789   2.543   3.586 -1.9541  0.2272  0.1812
 6736SOL    HW231845   1.743   2.684   3.601  0.3433 -0.0669 -1.1319
 6737SOL     OW31846   1.846   4.018   6.828  0.0267 -0.1516 -0.3722
 6737SOL    HW131847   1.844   3.989   6.919 -2.5000 -1.0875 -0.7313
 6737SOL    HW231848   1.897   4.099   6.821  0.4620 -0.4178 -0.2599
 6738SOL     OW31849   4.190   0.613   2.037 -0.1613  0.5485 -0.0510
 6738SOL    HW131850   4.154   0.544   2.092 -0.0679  1.4438  1.1359
 6738SOL    HW231851   4.157   0.589   1.950  1.0239 -0.6851 -0.1523
 6739SOL     OW31852   3.501   2.224   1.418 -0.0959 -0.6140  0.3670
 6739SOL    HW131853   3.530   2.181   1.499 -0.1596  0.6062  1.0341
 6739SOL    HW231854   3.543   2.310   1.420 -2.0598  0.3322  0.2069
 6740SOL     OW31855   1.796   3.227   5.271  0.5458  0.2350  0.2297
 6740SOL    HW131856   1.842   3.241   5.354  0.9108 -0.0537  0.0726
 6740SOL    HW231857   1.862   3.189   5.214 -0.8897 -0.8211 -0.7222
 6741SOL     OW31858   1.763   1.508   2.927 -0.5317 -0.1903 -0.4293
 6741SOL    HW131859   1.804   1.451   2.863 -1.4392 -0.2379 -0.9718
 6741SOL    HW231860   1.830   1.507   2.995 -0.6776 -1.3194 -0.2981
 6742SOL     OW31861   0.368   4.516  10.699 -0.3061  0.2086 -0.8738
 6742SOL    HW131862   0.453   4.559  10.687  0.9845 -2.0032  0.4854
 6742SOL    HW231863   0.334   4.557  10.778  1.0664 -0.8371  0.2477
 6743SOL     OW31864   2.878   4.516   0.895 -0.1704  0.1128  0.4775
 6743SOL    HW131865   2.867   4.600   0.940  0.0706  0.1204  0.5230
 6743SOL    HW231866   2.813   4.470   0.948 -1.2758  1.8900  0.6607
 6744SOL     OW31867   4.672   0.965   8.381  0.8143  0.8441  0.0564
 6744SOL    HW131868   4.700   0.952   8.291 -0.4120  1.8197 -0.4734
 6744SOL    HW231869   4.728   0.919   8.444 -2.0952 -2.5285  0.1691
 6745SOL     OW31870   3.601   3.507   2.422  0.7713  0.1245 -0.3405
 6745SOL    HW131871   3.624   3.554   2.342  1.5647 -3.2349 -2.0998
 6745SOL    HW231872   3.643   3.562   2.489 -0.0782  0.5001 -0.1134
 6746SOL     OW31873   3.821   2.600   8.113  0.8636  0.1210 -0.9103
 6746SOL    HW131874   3.866   2.553   8.183 -0.8324 -0.8081 -0.4507
 6746SOL    HW231875   3.733   2.566   8.125  0.2371  2.0806  0.0005
 6747SOL     OW31876   1.441   4.733   7.293  0.1891  0.4866  0.1061
 6747SOL    HW131877   1.407   4.673   7.227 -2.3413  1.7232  0.2742
 6747SOL    HW231878   1.364   0.051   7.308  1.4583  1.7409  2.0094
 6748SOL     OW31879   4.568   2.050   2.518  0.3643  0.0587  0.2828
 6748SOL    HW131880   4.650   2.067   2.471  0.5409 -1.2103  0.1245
 6748SOL    HW231881   4.585   1.962   2.551  0.9444  0.3406  0.7309
 6749SOL     OW31882   2.882   2.878  16.571 -0.1799 -0.0648 -0.0916
 6749SOL    HW131883   2.899   2.823  16.495  1.3752  1.7922 -1.0904
 6749SOL    HW231884   2.972   2.900  16.592 -0.1354  1.2253 -1.5626
 6750SOL     OW31885   0.419   0.256   4.823  0.1711  0.3110  0.3904
 6750SOL    HW131886   0.346   0.194   4.816  0.0505  0.4033  0.7937
 6750SOL    HW231887   0.498   0.217   4.787 -0.6005 -1.1065  0.1988
 6751SOL     OW31888   2.761   0.959   6.417  0.1686  0.3323  0.1828
 6751SOL    HW131889   2.832   0.895   6.406 -0.6370 -0.6166  0.5076
 6751SOL    HW231890   2.694   0.897   6.446  0.8992 -1.2866 -1.5066
 6752SOL     OW31891   0.436   0.967   1.946 -0.1085 -0.1859 -0.1684
 6752SOL    HW131892   0.470   0.982   2.035  2.2523 -0.7107 -0.9863
 6752SOL    HW231893   0.345   0.960   1.974  0.2518 -1.0042  0.7992
 6753SOL     OW31894   0.400   2.722   4.154 -0.6325  0.7948 -0.0571
 6753SOL    HW131895   0.333   2.730   4.087 -0.6229 -0.1885 -0.1762
 6753SOL    HW231896   0.457   2.796   4.135 -0.3193  0.8236  0.9608
 6754SOL     OW31897   1.779   0.368   3.739 -0.1979  0.1031  0.0850
 6754SOL    HW131898   1.715   0.387   3.808 -1.6791  0.9247 -1.5211
 6754SOL    HW231899   1.729   0.342   3.662  1.1142  0.3915 -0.8465
 6755SOL     OW31900   2.657   3.798  17.244 -0.0564 -1.1439 -0.5612
 6755SOL    HW131901   2.729   3.847  17.204 -0.2080 -0.5773 -0.1388
 6755SOL    HW231902   2.699   3.777  17.328 -1.7355  0.3581  0.6660
 6756SOL     OW31903   3.058   1.486   5.051 -0.0140  0.1446 -0.4070
 6756SOL    HW131904   3.148   1.461   5.070 -0.2315  0.7381  1.4148
 6756SOL    HW231905   3.007   1.426   5.106  1.0895 -3.1702 -3.0272
 6757SOL     OW31906   4.154   1.641  15.056  0.7446 -0.1342 -0.0816
 6757SOL    HW131907   4.151   1.734  15.079 -1.1176 -0.1852 -0.1445
 6757SOL    HW231908   4.221   1.650  14.988 -0.3570 -0.4546 -1.2006
 6758SOL     OW31909   2.630   0.448   1.856  0.2807 -0.1163 -0.6745
 6758SOL    HW131910   2.711   0.415   1.895  0.2135  0.5280  0.0120
 6758SOL    HW231911   2.646   0.418   1.766  0.9509 -2.7432  0.3352
 6759SOL     OW31912   4.032   1.798   5.306  0.0796  0.7882 -0.2190
 6759SOL    HW131913   4.002   1.803   5.215  0.4109 -0.5550 -0.4107
 6759SOL    HW231914   4.127   1.802   5.303  0.1555 -1.4257 -1.0013
 6760SOL     OW31915   4.115   2.577  16.501  0.0748 -0.2638  0.3894
 6760SOL    HW131916   4.024   2.559  16.521 -0.2693  2.8161  1.5743
 6760SOL    HW231917   4.112   2.660  16.454  1.2892  0.1232  0.9675
 6761SOL     OW31918   0.267   1.548  14.234 -0.1281  0.2135 -0.0117
 6761SOL    HW131919   0.177   1.578  14.243  0.5322  2.3033 -0.4619
 6761SOL    HW231920   0.293   1.557  14.326 -0.1379  2.7943 -0.2621
 6762SOL     OW31921   0.227   1.888   8.823  0.5137  0.5317 -0.7092
 6762SOL    HW131922   0.205   1.799   8.796  3.1925 -0.2352 -0.4002
 6762SOL    HW231923   0.156   1.901   8.885  0.8025 -0.3861 -0.1894
 6763SOL     OW31924   3.351   2.241   1.181  0.0347  0.4745 -0.1924
 6763SOL    HW131925   3.411   2.215   1.111  0.5777  0.8217  0.1444
 6763SOL    HW231926   3.416   2.239   1.251  2.1802  0.4031 -2.1754
 6764SOL     OW31927   4.701   3.464   6.617  0.4762  0.4250  1.2970
 6764SOL    HW131928   0.056   3.464   6.590 -0.1258  0.7369 -0.7192
 6764SOL    HW231929   4.698   3.530   6.686 -1.6188 -0.8079  2.3958
 6765SOL     OW31930   2.743   1.085  10.322  0.1876 -0.4596 -0.9449
 6765SOL    HW131931   2.706   0.997  10.316 -0.6084 -0.1194 -0.9713
 6765SOL    HW231932   2.785   1.087  10.408 -0.4900  0.4931 -0.6286
 6766SOL     OW31933   2.340   1.906   1.966  0.7464 -0.0337 -0.3141
 6766SOL    HW131934   2.405   1.860   1.912  0.2640 -0.9954 -0.0708
 6766SOL    HW231935   2.268   1.930   1.908  0.4759  0.4521  0.2278
 6767SOL     OW31936   3.897   3.681   3.499  0.0664  0.6038  0.1208
 6767SOL    HW131937   3.851   3.679   3.416 -0.1744  0.5201  0.2576
 6767SOL    HW231938   3.969   3.620   3.487 -0.1245  0.0137  1.9782
 6768SOL     OW31939   4.554   3.476  14.436 -0.0497 -0.2899 -0.6027
 6768SOL    HW131940   4.538   3.532  14.360  1.2361 -3.1605 -3.0017
 6768SOL    HW231941   4.578   3.537  14.505 -2.4074  2.6358 -2.3792
 6769SOL     OW31942   4.514   1.934   3.226 -0.1125  0.3767  0.2038
 6769SOL    HW131943   4.593   1.916   3.277  1.7512  1.1319 -2.3989
 6769SOL    HW231944   4.483   1.845   3.209  1.2502 -0.1901  0.6970
 6770SOL     OW31945   1.644   1.168   6.321  0.5226 -0.0686  0.3438
 6770SOL    HW131946   1.680   1.168   6.410  0.1944 -1.1804  0.4780
 6770SOL    HW231947   1.655   1.261   6.301  1.1622  0.1185  1.5226
 6771SOL     OW31948   3.337   2.464   9.472 -0.0833  0.2137 -0.7792
 6771SOL    HW131949   3.331   2.404   9.547 -1.1640  1.3703  0.0647
 6771SOL    HW231950   3.244   2.477   9.451 -0.4612  1.1359  1.4414
 6772SOL     OW31951   4.081   1.579   1.490  0.0619  0.3053 -0.5093
 6772SOL    HW131952   4.152   1.639   1.515 -1.3628  1.7227  0.1520
 6772SOL    HW231953   4.076   1.602   1.398 -0.3021  1.6363 -0.1643
 6773SOL     OW31954   0.010   1.711   5.839  0.0290 -0.4484 -0.2169
 6773SOL    HW131955   0.052   1.729   5.924  1.5042 -1.7659 -0.6667
 6773SOL    HW231956   0.042   1.624   5.815  0.3314 -0.1394 -0.9354
 6774SOL     OW31957   3.574   3.385  10.467  0.0227  0.1131  0.0505
 6774SOL    HW131958   3.578   3.372  10.562  0.2521 -0.8507 -0.0869
 6774SOL    HW231959   3.663   3.419  10.463  0.6447 -1.4013  0.9900
 6775SOL     OW31960   1.943   3.861   3.872 -0.5001 -0.2988 -0.5888
 6775SOL    HW131961   1.901   3.864   3.786 -0.5528  2.8918 -0.4707
 6775SOL    HW231962   1.917   3.774   3.901 -0.7174 -0.5877 -1.6316
 6776SOL     OW31963   2.836   4.077   0.560 -0.9273  0.6701 -0.4852
 6776SOL    HW131964   2.831   4.161   0.607 -0.1988  0.7158 -0.4812
 6776SOL    HW231965   2.894   4.115   0.494  3.0487 -1.6591  1.6853
 6777SOL     OW31966   1.895   3.537  15.938 -0.3128 -0.2980  0.1530
 6777SOL    HW131967   1.860   3.559  16.024 -0.0625 -1.2889  0.5039
 6777SOL    HW231968   1.989   3.536  15.955 -0.0168 -0.5394 -1.4716
 6778SOL     OW31969   3.602   4.724  10.568 -0.1757 -0.2108  0.4596
 6778SOL    HW131970   3.677   4.696  10.621 -1.3956 -0.8048  1.8732
 6778SOL    HW231971   3.586   4.649  10.510 -2.7566  1.3087 -0.7737
 6779SOL     OW31972   3.682   2.826   6.527  0.1767  0.1191 -0.0213
 6779SOL    HW131973   3.753   2.889   6.514 -0.1186  0.2223 -1.0825
 6779SOL    HW231974   3.626   2.886   6.578 -0.5082  1.4538 -2.3503
 6780SOL     OW31975   1.708   0.318  12.549  0.1265  0.1050 -0.5057
 6780SOL    HW131976   1.728   0.308  12.642  1.0222  1.1737 -0.5875
 6780SOL    HW231977   1.724   0.410  12.526 -1.5230 -0.1215 -2.6617
 6781SOL     OW31978   2.948   1.032   7.401 -0.1816 -0.3924 -0.8708
 6781SOL    HW131979   2.872   1.002   7.451 -0.2298  2.4790  0.7505
 6781SOL    HW231980   3.011   0.995   7.463  0.9011  1.0644 -1.1145
 6782SOL     OW31981   3.232   3.155   7.256  0.0027 -0.1429 -0.0391
 6782SOL    HW131982   3.197   3.102   7.328 -0.1929 -2.7176 -2.0567
 6782SOL    HW231983   3.214   3.243   7.290 -2.1608  0.0616 -1.6992
 6783SOL     OW31984   2.239   1.820   7.207 -0.2744 -0.2193  0.2566
 6783SOL    HW131985   2.181   1.832   7.132  0.3628  2.5308  0.2113
 6783SOL    HW231986   2.322   1.845   7.168  0.7746 -2.1212  1.2846
 6784SOL     OW31987   3.495   2.150   8.710  0.0219  0.3742  0.4926
 6784SOL    HW131988   3.483   2.115   8.621  0.6719 -2.3928  1.4999
 6784SOL    HW231989   3.431   2.099   8.758 -0.3643  0.1649 -0.2408
 6785SOL     OW31990   4.265   1.557   0.694 -0.0337 -0.4940 -0.3496
 6785SOL    HW131991   4.349   1.514   0.713  0.2061 -0.2755 -0.9185
 6785SOL    HW231992   4.228   1.508   0.620 -0.2998 -2.4378  1.0609
 6786SOL     OW31993   1.526   0.034   5.734  0.6528  0.1876 -0.0687
 6786SOL    HW131994   1.598   0.088   5.766  0.6217 -0.4756  1.1147
 6786SOL    HW231995   1.485   0.011   5.817 -0.2812 -2.9898 -1.4059
 6787SOL     OW31996   4.400   1.396   7.756 -0.3307  0.5952 -0.2487
 6787SOL    HW131997   4.476   1.368   7.705 -1.9508 -2.4365 -0.9412
 6787SOL    HW231998   4.386   1.323   7.816 -1.6410  1.7411  0.8208
 6788SOL     OW31999   0.254   4.103   2.619 -0.7111 -0.2086 -0.1517
 6788SOL    HW132000   0.266   4.196   2.602 -1.4309 -0.5598 -2.5785
 6788SOL    HW232001   0.327   4.067   2.569 -0.5777 -1.8902  1.2422
 6789SOL     OW32002   2.240   3.659  17.164 -0.1964 -0.3603  0.1645
 6789SOL    HW132003   2.238   3.740  17.112  0.4616  1.0627  2.3842
 6789SOL    HW232004   2.310   3.690  17.221 -0.6277  0.8267  0.0444
 6790SOL     OW32005   3.985   0.211   5.808 -0.1522  0.6431  0.4015
 6790SOL    HW132006   3.952   0.140   5.863  0.4650  1.2925  1.6185
 6790SOL    HW232007   4.079   0.209   5.824 -0.4736 -1.3884  2.1411
 6791SOL     OW32008   2.906   4.717  12.533 -0.6416 -0.9315  0.2841
 6791SOL    HW132009   2.900   0.049  12.599 -1.1432 -0.5611 -0.1510
 6791SOL    HW232010   2.973   4.659  12.571 -0.5595 -2.6534 -2.5558
 6792SOL     OW32011   0.430   3.212   4.543  0.1997  0.0736  0.4590
 6792SOL    HW132012   0.412   3.201   4.450  0.6872 -4.3106  0.8910
 6792SOL    HW232013   0.343   3.225   4.579 -0.2559 -0.4878 -0.4526
 6793SOL     OW32014   2.452   2.167   0.580  0.2510 -0.2288  0.4019
 6793SOL    HW132015   2.449   2.097   0.644 -2.9320 -0.0593  0.4525
 6793SOL    HW232016   2.547   2.176   0.576  0.4120 -1.7089  0.9390
 6794SOL     OW32017   4.691   1.444   9.251 -0.1933  0.4036  0.4189
 6794SOL    HW132018   4.669   1.467   9.341  2.5719 -2.7006  1.9051
 6794SOL    HW232019   0.046   1.428   9.273  0.2445  0.3317 -1.4690
 6795SOL     OW32020   1.028   4.005   6.037  0.5637 -0.2025 -0.2366
 6795SOL    HW132021   1.122   4.011   6.051  0.7517 -2.6074 -0.5155
 6795SOL    HW232022   1.027   4.024   5.943 -0.3402  2.8324  0.3729
 6796SOL     OW32023   4.267   2.231   2.701  0.2188 -0.4544  0.4792
 6796SOL    HW132024   4.322   2.309   2.691 -1.3210  0.8896  2.4348
 6796SOL    HW232025   4.180   2.267   2.715  1.6778  3.1686  0.3645
 6797SOL     OW32026   1.790   0.221   1.523  0.5529 -0.3877 -0.5906
 6797SOL    HW132027   1.843   0.169   1.584  0.8068 -0.8278 -1.1850
 6797SOL    HW232028   1.857   0.269   1.475  0.9057  0.4981  0.7786
 6798SOL     OW32029   3.518   2.018   1.965 -0.5634 -0.1123  0.1827
 6798SOL    HW132030   3.496   2.001   2.057 -3.3116  0.9139 -0.2825
 6798SOL    HW232031   3.575   1.946   1.939  2.0237  1.8232  0.4676
 6799SOL     OW32032   1.662   2.390   6.449  0.1005  0.1519  0.1434
 6799SOL    HW132033   1.580   2.431   6.476 -0.1079  1.5189 -2.5157
 6799SOL    HW232034   1.633   2.299   6.447  1.6053 -0.3401  0.3651
 6800SOL     OW32035   1.674   0.568   3.981 -0.5298 -0.4431 -0.1914
 6800SOL    HW132036   1.644   0.654   3.950  2.4143  1.2276  1.5801
 6800SOL    HW232037   1.768   0.582   3.991 -1.3136  4.0381  0.9095
 6801SOL     OW32038   3.774   4.271   8.643 -0.4431 -0.4254 -0.3023
 6801SOL    HW132039   3.786   4.236   8.731 -3.2616 -1.5865 -0.3914
 6801SOL    HW232040   3.856   4.316   8.620  0.0008 -1.4085 -0.6401
 6802SOL     OW32041   2.844   0.650   9.567  0.1245 -0.0446 -0.3534
 6802SOL    HW132042   2.831   0.743   9.548  1.4790  0.4181  0.9673
 6802SOL    HW232043   2.866   0.654   9.660 -4.1466 -0.6005  0.6415
 6803SOL     OW32044   3.544   3.037   6.646 -0.1759 -0.6360  1.0232
 6803SOL    HW132045   3.554   3.123   6.607  0.2818 -0.7362  0.9214
 6803SOL    HW232046   3.463   3.051   6.694  0.1604  1.1569  1.0466
 6804SOL     OW32047   1.587   4.042   7.498  0.1733  0.3146 -0.5898
 6804SOL    HW132048   1.668   4.024   7.450 -0.1404 -0.9604 -0.6489
 6804SOL    HW232049   1.525   3.975   7.469 -0.2790 -0.1902  1.5404
 6805SOL     OW32050   1.212   3.266  16.442  0.2011  0.1975  0.1364
 6805SOL    HW132051   1.238   3.332  16.506 -0.3034 -0.8147  1.3907
 6805SOL    HW232052   1.170   3.321  16.375 -1.1235  1.2449  1.8298
 6806SOL     OW32053   3.474   3.299  13.530 -0.4026 -0.1510  0.3256
 6806SOL    HW132054   3.517   3.261  13.606  2.3345  0.8764 -0.7144
 6806SOL    HW232055   3.557   3.323  13.488 -0.8265 -0.7440 -0.8331
 6807SOL     OW32056   1.283   2.635   3.017 -0.1160  0.7605  0.3152
 6807SOL    HW132057   1.249   2.718   3.051  1.7178  1.3683  0.6536
 6807SOL    HW232058   1.327   2.671   2.941 -0.6334 -1.1143 -0.8822
 6808SOL     OW32059   0.508   2.698  15.486  0.8346  0.5248  0.2257
 6808SOL    HW132060   0.449   2.627  15.508  0.1783  1.3650  1.1848
 6808SOL    HW232061   0.477   2.765  15.547 -0.5817 -1.2221  1.4205
 6809SOL     OW32062   0.329   2.352   7.757  0.0215  0.0998  0.1414
 6809SOL    HW132063   0.261   2.317   7.700 -1.4189  2.0635  0.6509
 6809SOL    HW232064   0.404   2.298   7.731  0.2739 -0.1091  1.3117
 6810SOL     OW32065   2.567   1.082  13.483  0.2125  0.0572  0.3301
 6810SOL    HW132066   2.534   1.168  13.509 -1.9953 -0.1401 -1.8634
 6810SOL    HW232067   2.660   1.100  13.467 -0.2187  3.1081  1.1918
 6811SOL     OW32068   1.320   0.583   7.064  0.1696  0.8712  0.5425
 6811SOL    HW132069   1.346   0.495   7.093 -3.4407 -0.3189  0.1712
 6811SOL    HW232070   1.398   0.635   7.085 -0.5986  1.3772  2.1367
 6812SOL     OW32071   2.857   2.161   1.992  0.4364  0.2169 -1.2189
 6812SOL    HW132072   2.892   2.217   1.923  0.6184  1.0411 -0.4669
 6812SOL    HW232073   2.790   2.117   1.940  1.7113 -2.9245 -0.1674
 6813SOL     OW32074   0.703   1.430   0.201 -0.0500  0.2234 -0.1342
 6813SOL    HW132075   0.745   1.460   0.282  0.0481 -2.2342  0.7096
 6813SOL    HW232076   0.691   1.513   0.155  0.1498  0.1166 -0.3818
 6814SOL     OW32077   1.343   0.117   4.799 -0.0433  0.0071  0.1779
 6814SOL    HW132078   1.312   0.026   4.799 -0.1494  0.0427 -0.4058
 6814SOL    HW232079   1.365   0.138   4.709  2.3088 -0.9249  0.5154
 6815SOL     OW32080   0.115   1.303   9.878 -0.6189 -0.3136  0.2908
 6815SOL    HW132081   0.119   1.299   9.973 -0.5400 -0.7336  0.2710
 6815SOL    HW232082   0.110   1.396   9.855  0.7306 -0.1118  0.8169
 6816SOL     OW32083   0.576   1.984   5.578  0.6798 -0.1457  0.4043
 6816SOL    HW132084   0.596   2.075   5.601 -0.8356  0.1077  0.7335
 6816SOL    HW232085   0.587   1.992   5.483  1.7100 -0.8522  0.4623
 6817SOL     OW32086   1.849   0.413   5.337  0.6060  0.3900  0.0857
 6817SOL    HW132087   1.891   0.331   5.362 -2.8225 -1.1517  0.6619
 6817SOL    HW232088   1.759   0.383   5.344  0.0277  2.3230  1.1286
 6818SOL     OW32089   2.070   1.739   0.234 -0.2517 -0.3875  0.2924
 6818SOL    HW132090   2.118   1.757   0.154 -0.3522 -0.2564  0.2613
 6818SOL    HW232091   2.052   1.645   0.226 -1.8285 -0.0769  0.1041
 6819SOL     OW32092   1.779   1.332   3.696  0.7928 -0.1984 -0.5352
 6819SOL    HW132093   1.826   1.407   3.660 -1.3678  0.5884 -1.7367
 6819SOL    HW232094   1.738   1.382   3.766  0.8753  1.0400 -1.3800
 6820SOL     OW32095   2.693   3.688   6.486  0.0828 -0.5958  0.2364
 6820SOL    HW132096   2.700   3.685   6.582 -0.9230  1.2907  0.3750
 6820SOL    HW232097   2.776   3.728   6.460 -1.1027  2.3247  0.9232
 6821SOL     OW32098   0.964   3.162   9.843  0.3473  0.5419  0.5190
 6821SOL    HW132099   0.914   3.095   9.889  1.4088  0.5361  1.6621
 6821SOL    HW232100   1.037   3.185   9.900  1.4489 -0.4997 -0.4680
 6822SOL     OW32101   0.528   0.857  11.955 -0.3450 -0.6247 -0.1384
 6822SOL    HW132102   0.554   0.924  12.019  1.2515 -1.2595 -0.1254
 6822SOL    HW232103   0.435   0.850  11.978 -0.2552  0.0087  0.4123
 6823SOL     OW32104   0.747   4.291   6.118 -0.2563  0.0297 -0.2292
 6823SOL    HW132105   0.804   4.236   6.171  2.3154  2.0787 -0.8540
 6823SOL    HW232106   0.768   4.257   6.031 -1.1287  1.6142 -1.0643
 6824SOL     OW32107   3.478   2.302   7.723  0.1534  0.0907 -0.4688
 6824SOL    HW132108   3.570   2.327   7.724 -0.0738  0.9522 -2.4738
 6824SOL    HW232109   3.474   2.219   7.771  1.2052  0.1518 -0.2868
 6825SOL     OW32110   2.760   2.618  12.010  0.0424  0.4352 -0.0736
 6825SOL    HW132111   2.788   2.560  12.080  0.3022 -0.2088 -0.7100
 6825SOL    HW232112   2.814   2.696  12.020 -0.7354  1.1009 -0.9788
 6826SOL     OW32113   3.985   2.545   2.430  0.2783 -0.2413 -0.7220
 6826SOL    HW132114   4.026   2.618   2.384  1.5384 -0.0100  0.7546
 6826SOL    HW232115   4.041   2.470   2.414 -0.0143 -0.6734  0.2626
 6827SOL     OW32116   0.790   0.307   8.003  0.0801  0.2184 -0.0909
 6827SOL    HW132117   0.743   0.337   7.926 -2.0767 -1.5594  0.5219
 6827SOL    HW232118   0.869   0.357   7.983  0.2787 -0.5213 -1.1628
 6828SOL     OW32119   0.752   0.880  13.062  0.2632  0.0423 -0.2223
 6828SOL    HW132120   0.833   0.855  13.107 -0.5430 -1.1393  0.5891
 6828SOL    HW232121   0.737   0.800  13.013 -0.1997  0.3912 -0.6492
 6829SOL     OW32122   3.670   3.438   0.043 -0.0270 -0.4168 -0.1698
 6829SOL    HW132123   3.681   3.482   0.127 -0.4405  0.7313 -0.7141
 6829SOL    HW232124   3.595   3.484   0.005 -0.6780 -0.6955  0.7637
 6830SOL     OW32125   1.472   3.497   6.633 -0.1581  0.6168 -0.0509
 6830SOL    HW132126   1.497   3.517   6.543  0.1257  0.4522 -0.0101
 6830SOL    HW232127   1.557   3.462   6.662  0.0486  0.6817 -0.5819
 6831SOL     OW32128   4.300   1.048  13.365  0.1314 -0.1431  0.6139
 6831SOL    HW132129   4.352   0.978  13.403 -2.4310 -1.3918  1.8305
 6831SOL    HW232130   4.243   1.007  13.300  0.0265 -1.8453  1.7892
 6832SOL     OW32131   0.266   0.190   5.160  0.1327 -0.0190 -0.9250
 6832SOL    HW132132   0.285   0.230   5.076  2.1210  0.9656  0.0097
 6832SOL    HW232133   0.345   0.207   5.211 -1.2789  0.3084  1.1736
 6833SOL     OW32134   3.196   1.697   8.003  0.6791  0.3506 -0.0746
 6833SOL    HW132135   3.107   1.694   8.037  0.7951  0.7433  0.2589
 6833SOL    HW232136   3.215   1.605   7.981  4.2106  0.9300  0.5902
 6834SOL     OW32137   3.336   0.323   8.629  0.2145 -0.1362 -0.1382
 6834SOL    HW132138   3.300   0.287   8.710 -0.8710 -0.6264 -0.8265
 6834SOL    HW232139   3.284   0.404   8.625 -3.4859 -2.3608  2.4113
 6835SOL     OW32140   4.472   1.990   4.550 -0.3282 -0.4591 -0.6669
 6835SOL    HW132141   4.409   2.028   4.489 -2.6332 -0.4189  1.7437
 6835SOL    HW232142   4.410   1.956   4.615  2.2848 -2.0967  0.9918
 6836SOL     OW32143   2.066   0.260   9.006  0.1751  0.6193  0.4488
 6836SOL    HW132144   2.026   0.279   8.922  3.0685  0.7671 -0.8884
 6836SOL    HW232145   1.990   0.222   9.049 -0.4629  0.1610 -1.1052
 6837SOL     OW32146   0.086   4.162  12.678 -0.0954  0.3018  0.6081
 6837SOL    HW132147   0.159   4.201  12.727  0.7481  1.0932 -1.2627
 6837SOL    HW232148   0.073   4.078  12.722  1.7184 -0.6314 -0.5886
 6838SOL     OW32149   0.997   1.680  12.448  0.2523 -0.5559  0.2818
 6838SOL    HW132150   1.011   1.614  12.516 -0.4997  0.4710  1.4305
 6838SOL    HW232151   1.022   1.631  12.370  0.7840 -0.3052  0.2925
 6839SOL     OW32152   0.011   0.378   9.189 -0.1908 -0.3989 -0.3580
 6839SOL    HW132153   4.707   0.315   9.248  0.2879 -2.8503 -2.7128
 6839SOL    HW232154   0.026   0.458   9.241  0.6617 -0.1637 -0.9620
 6840SOL     OW32155   1.714   2.384   9.288  0.2750 -0.0355  0.1917
 6840SOL    HW132156   1.789   2.339   9.326  1.4485  0.7411 -1.2076
 6840SOL    HW232157   1.672   2.309   9.245  0.0040  0.2216  0.0064
 6841SOL     OW32158   3.161   2.992   4.486  0.3531 -1.0597  0.4970
 6841SOL    HW132159   3.109   3.064   4.448  2.2027 -0.1024 -0.2192
 6841SOL    HW232160   3.250   3.015   4.462  0.4717 -1.7339  0.2998
 6842SOL     OW32161   4.390   2.326   6.132  0.7269  0.5901 -0.1486
 6842SOL    HW132162   4.367   2.239   6.100 -0.8057  1.1389 -0.4880
 6842SOL    HW232163   4.375   2.323   6.227 -0.3657 -1.4835 -0.3896
 6843SOL     OW32164   1.812   3.681  10.765 -0.5434  0.1870 -0.0781
 6843SOL    HW132165   1.804   3.613  10.697 -0.5711 -0.5372  0.6440
 6843SOL    HW232166   1.771   3.638  10.840  1.2015 -2.0308 -0.3979
 6844SOL     OW32167   1.130   1.589  16.573  0.3186  0.8588 -0.4836
 6844SOL    HW132168   1.159   1.676  16.600  1.6533 -0.2837  1.7403
 6844SOL    HW232169   1.214   1.544  16.581  0.5280  1.2444 -0.4910
 6845SOL     OW32170   1.012   2.071   2.428  0.3147  0.3602 -0.3840
 6845SOL    HW132171   1.077   2.097   2.363 -0.5019  3.9285  0.1974
 6845SOL    HW232172   0.956   2.149   2.424  0.7600  0.7025 -0.0331
 6846SOL     OW32173   0.359   0.282   6.386 -0.1513  0.0421  0.0097
 6846SOL    HW132174   0.335   0.231   6.309 -2.0206 -0.3330  0.8226
 6846SOL    HW232175   0.279   0.334   6.395 -0.2887 -0.2923  0.7387
 6847SOL     OW32176   3.761   0.443   3.190 -0.3023 -0.5108  0.0308
 6847SOL    HW132177   3.699   0.515   3.199  0.1142 -0.2418  0.7631
 6847SOL    HW232178   3.708   0.369   3.220  0.5240  0.0595  2.9605
 6848SOL     OW32179   1.895   3.324  10.092  0.2278  0.0563  0.1710
 6848SOL    HW132180   1.837   3.322  10.168 -1.8565  1.0725 -1.4092
 6848SOL    HW232181   1.840   3.280  10.027  1.2543  0.5040 -1.0055
 6849SOL     OW32182   0.492   2.272   8.857  0.1033 -0.0114 -0.2325
 6849SOL    HW132183   0.462   2.192   8.812 -0.5114  0.1673 -0.1353
 6849SOL    HW232184   0.461   2.351   8.812 -0.9556  0.1333  0.7409
 6850SOL     OW32185   2.200   1.201   4.549 -0.1246 -0.3065  0.4085
 6850SOL    HW132186   2.275   1.174   4.601 -0.7164 -0.9581  0.9345
 6850SOL    HW232187   2.210   1.296   4.549  0.7592 -0.3973  1.7242
 6851SOL     OW32188   1.264   3.263   8.082 -0.3903 -0.4153 -0.0005
 6851SOL    HW132189   1.246   3.307   7.998 -1.5039 -0.9978 -0.0650
 6851SOL    HW232190   1.353   3.229   8.077  0.0698  0.3902  2.8914
 6852SOL     OW32191   0.109   3.864   7.505  0.6629 -0.8905 -0.0511
 6852SOL    HW132192   0.191   3.888   7.547 -2.0796  1.9042  3.7747
 6852SOL    HW232193   0.088   3.776   7.536  1.1165 -0.7122  0.7536
 6853SOL     OW32194   0.137   1.039   8.587 -0.2263  0.6725  0.0685
 6853SOL    HW132195   0.127   1.102   8.517 -0.1833 -1.9341 -2.2932
 6853SOL    HW232196   0.163   1.087   8.666  1.1138 -2.1913  1.3965
 6854SOL     OW32197   4.098   1.947   1.412 -0.0296 -0.5972  0.5800
 6854SOL    HW132198   4.111   1.857   1.381 -1.0949 -0.3332 -0.6469
 6854SOL    HW232199   4.184   1.980   1.388 -1.4716  1.7853 -1.2624
 6855SOL     OW32200   2.893   4.644   1.248  0.3526 -0.8632 -0.1137
 6855SOL    HW132201   2.905   4.553   1.222 -2.4472 -0.5068 -2.7483
 6855SOL    HW232202   2.978   4.657   1.289  0.1553 -0.5203  0.1879
 6856SOL     OW32203   2.451   2.203   1.827 -0.0443  0.2887 -0.1424
 6856SOL    HW132204   2.515   2.272   1.844  0.2535  0.2362 -1.0201
 6856SOL    HW232205   2.367   2.248   1.816  0.0135  0.4323  0.0070
 6857SOL     OW32206   1.329   1.658   8.958  0.1027  0.6133 -0.3216
 6857SOL    HW132207   1.243   1.684   8.927 -0.6615 -1.9860 -0.3852
 6857SOL    HW232208   1.314   1.589   9.023  0.1695  0.7275 -0.1828
 6858SOL     OW32209   2.472   0.692  16.641  0.4554  0.2387 -0.0988
 6858SOL    HW132210   2.394   0.747  16.646  0.8021  0.5781  1.7927
 6858SOL    HW232211   2.543   0.757  16.641 -0.1093  0.8738  2.3943
 6859SOL     OW32212   2.449   0.162   7.348  0.1859 -0.4674  0.0578
 6859SOL    HW132213   2.479   0.252   7.338 -0.2661 -0.1134  1.9411
 6859SOL    HW232214   2.467   0.147   7.441 -0.5920  1.4900  0.5319
 6860SOL     OW32215   3.309   0.189   4.080  0.3601 -0.4398  0.0848
 6860SOL    HW132216   3.337   0.229   3.998 -0.3662  0.3720  0.2274
 6860SOL    HW232217   3.216   0.181   4.058  0.0283 -0.5211  1.4889
 6861SOL     OW32218   3.242   1.785   9.072  0.2378 -0.6868  0.3670
 6861SOL    HW132219   3.176   1.850   9.098  0.3678  0.8942 -3.3073
 6861SOL    HW232220   3.208   1.760   8.986 -0.4595 -0.5789  0.6148
 6862SOL     OW32221   1.973   3.938   7.817 -0.0505  0.1423 -0.3626
 6862SOL    HW132222   2.053   3.918   7.866 -1.0632 -1.2430  0.7520
 6862SOL    HW232223   1.929   4.007   7.867  0.1869  1.3611 -1.8657
 6863SOL     OW32224   2.099   2.376  11.247  0.1214  0.0397 -0.4281
 6863SOL    HW132225   2.074   2.283  11.249  0.4620 -0.0246  0.6419
 6863SOL    HW232226   2.161   2.372  11.174  0.7995  1.2684  0.1031
 6864SOL     OW32227   1.844   4.637   3.644  0.6805 -0.2472 -0.2026
 6864SOL    HW132228   1.829   4.606   3.734 -0.4069 -1.6356 -0.8503
 6864SOL    HW232229   1.910   4.704   3.661  0.5750 -0.0419 -0.5978
 6865SOL     OW32230   2.619   1.652   7.745 -0.6302  0.3904  0.3885
 6865SOL    HW132231   2.661   1.618   7.666  0.3009 -0.7276  1.3592
 6865SOL    HW232232   2.662   1.596   7.810  0.0295  0.1205 -0.2868
 6866SOL     OW32233   4.369   2.132  13.792 -0.3425  0.0312 -0.2070
 6866SOL    HW132234   4.344   2.100  13.706 -1.5658 -0.2356  0.2446
 6866SOL    HW232235   4.399   2.219  13.767 -1.9781  0.6529 -0.0232
 6867SOL     OW32236   3.324   0.663   8.091 -0.4995 -0.1809  0.2617
 6867SOL    HW132237   3.261   0.719   8.136  1.3971  0.6385  1.9080
 6867SOL    HW232238   3.367   0.642   8.174  0.1957 -1.9317 -0.5371
 6868SOL     OW32239   3.846   4.514   7.136  0.2269  0.3383 -0.4303
 6868SOL    HW132240   3.801   4.509   7.051  1.2657  1.1113 -1.0254
 6868SOL    HW232241   3.846   4.421   7.161 -0.3767  0.6333  0.6238
 6869SOL     OW32242   0.727   2.281   7.880 -0.4765  0.7669  0.0932
 6869SOL    HW132243   0.778   2.361   7.884 -0.4754  0.7169  1.1457
 6869SOL    HW232244   0.679   2.274   7.798 -1.5759 -0.9935  0.8585
 6870SOL     OW32245   4.562   2.717   8.898 -0.0299  0.6477 -0.1236
 6870SOL    HW132246   4.487   2.710   8.838  1.7276 -0.7046 -2.1289
 6870SOL    HW232247   4.571   2.811   8.912  1.2973  0.6482 -0.9959
 6871SOL     OW32248   3.961   2.417   9.056  0.2358 -0.1421 -0.2315
 6871SOL    HW132249   3.988   2.382   9.141 -0.0494  1.7911  0.6411
 6871SOL    HW232250   4.021   2.365   9.002 -1.6850 -0.6167 -1.9099
 6872SOL     OW32251   4.198   3.356  12.864 -0.6218 -0.1610 -0.2401
 6872SOL    HW132252   4.186   3.405  12.783  0.9887 -0.1360 -0.4708
 6872SOL    HW232253   4.119   3.371  12.916 -0.5433  0.7415 -0.3911
 6873SOL     OW32254   3.564   1.757   5.764  0.1184 -0.2637  0.5095
 6873SOL    HW132255   3.507   1.686   5.737  2.3870 -0.8951 -2.6058
 6873SOL    HW232256   3.611   1.761   5.680  0.7364  1.2839  0.9229
 6874SOL     OW32257   2.785   2.761   3.651 -0.2243 -0.1377 -0.4432
 6874SOL    HW132258   2.722   2.812   3.600  0.1621  1.4185  0.6276
 6874SOL    HW232259   2.778   2.680   3.601  0.8268 -0.1616 -0.5502
 6875SOL     OW32260   0.857   3.719   2.274  0.7081 -1.0874  0.0056
 6875SOL    HW132261   0.952   3.705   2.282  0.8124 -0.0174  0.5857
 6875SOL    HW232262   0.844   3.686   2.185  0.3805 -0.9900  0.0172
 6876SOL     OW32263   1.760   2.299   8.595 -0.3619  0.0516 -0.5183
 6876SOL    HW132264   1.669   2.282   8.571 -0.5127  0.5737 -0.3337
 6876SOL    HW232265   1.775   2.393   8.586  3.4108 -0.6461 -1.6169
 6877SOL     OW32266   3.917   2.856  11.445 -0.1094 -0.1022  0.0636
 6877SOL    HW132267   3.950   2.944  11.459 -0.8756  0.3859 -1.1701
 6877SOL    HW232268   3.928   2.815  11.531 -0.8611  0.8766  0.6286
 6878SOL     OW32269   1.482   4.273   0.640  0.4653 -0.5344 -0.2887
 6878SOL    HW132270   1.438   4.254   0.722  0.8695 -0.0786  0.0393
 6878SOL    HW232271   1.402   4.295   0.592 -0.0197 -1.6295  0.0270
 6879SOL     OW32272   0.264   1.228   3.327 -0.1664  0.0543  0.4155
 6879SOL    HW132273   0.351   1.266   3.320  0.3394 -1.5524 -2.3193
 6879SOL    HW232274   0.220   1.256   3.247  0.4070  0.2796  0.1836
 6880SOL     OW32275   1.263   4.680   3.539  0.3307 -0.6197 -0.2052
 6880SOL    HW132276   1.175   4.702   3.507  0.2326 -2.5841 -1.2798
 6880SOL    HW232277   1.254   4.600   3.590  1.8831  0.1692  1.2893
 6881SOL     OW32278   3.597   2.712   1.952  0.1449  0.5951 -0.2634
 6881SOL    HW132279   3.528   2.671   1.899  1.9989 -0.3634 -1.9149
 6881SOL    HW232280   3.621   2.650   2.021 -0.7415 -0.8167 -1.2166
 6882SOL     OW32281   4.522   4.467   5.831 -0.6352  0.4721  0.1611
 6882SOL    HW132282   4.471   4.474   5.750 -1.2825  0.4938  0.5728
 6882SOL    HW232283   4.610   4.479   5.795 -1.4792  2.4203 -1.2332
 6883SOL     OW32284   3.228   1.543   3.871 -0.1488  0.5416 -0.1752
 6883SOL    HW132285   3.313   1.499   3.878  0.0787  1.0288  0.1261
 6883SOL    HW232286   3.170   1.483   3.824 -0.1195  1.4287 -1.3361
 6884SOL     OW32287   4.588   1.686   0.106  0.1315 -0.2565  0.2819
 6884SOL    HW132288   4.580   1.722   0.195  3.9502  0.8282  0.1971
 6884SOL    HW232289   4.680   1.706   0.089 -0.1679 -0.4501 -1.5274
 6885SOL     OW32290   1.095   0.867   3.711  0.0355  0.0224 -0.1517
 6885SOL    HW132291   1.187   0.863   3.735  0.1793  0.9999 -0.5344
 6885SOL    HW232292   1.107   0.895   3.620 -0.3406  0.2728 -0.1253
 6886SOL     OW32293   0.083   0.372   6.831 -0.1341  0.3542  0.3793
 6886SOL    HW132294   0.144   0.303   6.858 -0.3369 -0.0330 -0.1417
 6886SOL    HW232295   0.135   0.399   6.755  1.1912  1.0986  1.5688
 6887SOL     OW32296   3.836   4.048   5.206 -0.1164 -0.0235  0.0806
 6887SOL    HW132297   3.838   4.108   5.132  2.0932 -1.4944 -1.0269
 6887SOL    HW232298   3.746   4.066   5.235  0.0110  0.6084  0.0770
 6888SOL     OW32299   3.179   1.240   0.545  0.5029  0.0675 -0.4092
 6888SOL    HW132300   3.168   1.329   0.512 -2.6594  0.8532  2.7943
 6888SOL    HW232301   3.163   1.198   0.460 -2.6936  2.9624 -1.2138
 6889SOL     OW32302   4.529   3.423   9.410  0.4465  0.0971  0.0629
 6889SOL    HW132303   4.519   3.484   9.337  0.9512  0.5586  0.3757
 6889SOL    HW232304   4.579   3.467   9.479  0.3740 -2.1565  1.5586
 6890SOL     OW32305   1.548   1.683   5.927  0.1884 -0.3358 -0.2971
 6890SOL    HW132306   1.527   1.591   5.948 -3.7882  1.0909  2.0227
 6890SOL    HW232307   1.642   1.675   5.943  0.0071 -0.0534  0.9157
 6891SOL     OW32308   4.233   3.578   6.347  0.2389 -0.4215 -0.6054
 6891SOL    HW132309   4.152   3.623   6.322  0.1044 -1.6198 -2.2892
 6891SOL    HW232310   4.233   3.603   6.440 -1.8682  1.1170 -1.0190
 6892SOL     OW32311   2.389   4.174   4.146 -0.0719 -0.7300 -0.5032
 6892SOL    HW132312   2.327   4.151   4.077  0.0181  0.9891 -1.1717
 6892SOL    HW232313   2.365   4.114   4.216  1.2783 -0.6109  0.0669
 6893SOL     OW32314   0.095   4.472   6.404  0.5140  0.1231 -0.2517
 6893SOL    HW132315   0.145   4.481   6.486  0.9242  0.8153 -0.5749
 6893SOL    HW232316   0.160   4.412   6.367  1.8318  1.4499 -0.1233
 6894SOL     OW32317   2.280   4.515   8.380 -0.3599 -0.3454 -0.2107
 6894SOL    HW132318   2.292   4.539   8.472  1.5285  0.1390 -0.5802
 6894SOL    HW232319   2.365   4.482   8.352  1.6506  3.3391  1.5231
 6895SOL     OW32320   1.296   4.630   6.227  0.6528  0.3960 -0.3218
 6895SOL    HW132321   1.221   4.593   6.182  0.7442 -1.1461  0.7942
 6895SOL    HW232322   1.373   4.583   6.195 -0.8291 -0.6462 -2.3104
 6896SOL     OW32323   2.180   3.863   6.317  0.2598 -0.2444 -0.0187
 6896SOL    HW132324   2.198   3.864   6.410  0.7143 -0.0890 -0.1095
 6896SOL    HW232325   2.240   3.931   6.288 -0.4233 -0.5728 -2.2294
 6897SOL     OW32326   0.915   3.882  14.505  0.0474  0.4757 -0.0117
 6897SOL    HW132327   0.893   3.829  14.583 -3.4054  0.6851 -0.8426
 6897SOL    HW232328   0.827   3.910  14.481 -0.8096 -1.9418  0.3106
 6898SOL     OW32329   3.375   3.480   9.322  0.2853  0.0461 -0.4104
 6898SOL    HW132330   3.326   3.414   9.370  0.9436 -0.5875 -0.6124
 6898SOL    HW232331   3.302   3.538   9.300 -1.6684 -1.8397  1.1789
 6899SOL     OW32332   0.144   1.729   1.449 -0.5425  0.2703 -0.1093
 6899SOL    HW132333   0.121   1.638   1.432 -1.4451  0.5861 -0.5932
 6899SOL    HW232334   0.229   1.734   1.406 -1.3887 -0.7201 -1.9181
 6900SOL     OW32335   0.156   3.749  16.855 -0.1732 -0.5245 -0.5175
 6900SOL    HW132336   0.183   3.760  16.947  0.8569  1.3771 -1.0453
 6900SOL    HW232337   0.133   3.838  16.829  2.4709  0.5395  0.8133
 6901SOL     OW32338   3.585   4.436   7.333 -0.0463  0.0207 -0.4483
 6901SOL    HW132339   3.489   4.440   7.341  0.0657 -2.5023  2.0419
 6901SOL    HW232340   3.613   4.481   7.412 -3.2288  1.6534 -0.2538
 6902SOL     OW32341   2.477   4.051   5.504  0.2496 -0.5715  0.3645
 6902SOL    HW132342   2.456   4.058   5.410 -2.5178  1.2824  1.0845
 6902SOL    HW232343   2.429   3.973   5.531  1.5809 -0.9448  1.6240
 6903SOL     OW32344   2.433   4.174   0.361 -0.1820  0.5513 -0.1585
 6903SOL    HW132345   2.393   4.118   0.294  2.8942 -0.5549 -1.0453
 6903SOL    HW232346   2.396   4.140   0.443  0.5327  3.5953  1.4286
 6904SOL     OW32347   1.058   3.747  17.688  0.7759  0.1979  0.5054
 6904SOL    HW132348   1.132   3.706  17.644 -0.3214 -0.0408 -1.1103
 6904SOL    HW232349   1.053   3.694   0.022  0.2724 -1.0229 -0.3474
 6905SOL     OW32350   3.751   3.051   2.246 -0.2479 -0.4093  0.0459
 6905SOL    HW132351   3.675   3.020   2.197 -2.6583  0.5553  3.1152
 6905SOL    HW232352   3.709   3.121   2.297 -0.4304 -0.1508 -0.4568
 6906SOL     OW32353   1.928   0.764   8.731 -0.3970 -0.1189  0.5564
 6906SOL    HW132354   1.846   0.815   8.731 -0.4353 -0.1895 -0.8622
 6906SOL    HW232355   1.984   0.823   8.781  0.4421  0.0573 -0.6032
 6907SOL     OW32356   1.578   0.795   3.697 -0.1382 -0.1268 -0.0740
 6907SOL    HW132357   1.644   0.789   3.628 -2.6266 -1.7684 -2.3053
 6907SOL    HW232358   1.643   0.805   3.767  1.6625 -3.7084 -1.2289
 6908SOL     OW32359   1.473   3.976  12.157  0.5038 -0.0902  0.3402
 6908SOL    HW132360   1.544   4.004  12.215  0.8000  0.8398 -0.4689
 6908SOL    HW232361   1.430   4.060  12.142 -1.4105 -1.1111  0.1447
 6909SOL     OW32362   3.814   2.550   1.025  0.0663  0.1775  0.6414
 6909SOL    HW132363   3.761   2.492   1.078 -0.8350 -1.4275 -2.0477
 6909SOL    HW232364   3.873   2.563   1.100  0.9423  1.9120 -0.3407
 6910SOL     OW32365   2.369   1.629   7.359  0.6540  0.0208  0.0502
 6910SOL    HW132366   2.349   1.553   7.304 -0.0183  0.1142  0.1694
 6910SOL    HW232367   2.319   1.692   7.307 -0.5217 -2.6580 -2.0723
 6911SOL     OW32368   2.486   0.777   5.412 -0.0536  0.1235 -0.3440
 6911SOL    HW132369   2.400   0.809   5.440  1.0823  1.3328  1.7219
 6911SOL    HW232370   2.468   0.779   5.318  2.3175  1.4815 -0.7889
 6912SOL     OW32371   4.708   2.697  12.228 -0.2382 -0.1903  0.1353
 6912SOL    HW132372   4.620   2.718  12.196 -0.6670 -0.8691  0.8844
 6912SOL    HW232373   4.697   2.727  12.318  0.2657 -0.5899  0.3245
 6913SOL     OW32374   4.311   0.798   6.594  0.3498  0.0573 -0.6734
 6913SOL    HW132375   4.280   0.736   6.660 -2.0553  1.7106 -0.2620
 6913SOL    HW232376   4.378   0.850   6.638  2.3753 -3.0470 -0.0879
 6914SOL     OW32377   1.648   4.189   3.989 -0.2384  0.5418 -0.2117
 6914SOL    HW132378   1.557   4.206   3.964 -0.2308  0.5775 -0.2136
 6914SOL    HW232379   1.656   4.238   4.071  4.4548 -0.1290 -0.2634
 6915SOL     OW32380   0.567   1.004  14.149  0.2474 -0.9363 -0.2323
 6915SOL    HW132381   0.613   0.927  14.117  0.1455 -0.6053 -1.1545
 6915SOL    HW232382   0.560   0.988  14.244 -0.5105 -3.0878 -0.6509
 6916SOL     OW32383   2.416   3.999  15.345 -0.7255  0.2709 -0.5607
 6916SOL    HW132384   2.484   3.931  15.344 -1.0423 -0.0673  0.3373
 6916SOL    HW232385   2.403   4.001  15.440  3.1074  1.8216 -0.0604
 6917SOL     OW32386   2.567   4.685   1.569  0.3113  0.3222 -0.0668
 6917SOL    HW132387   2.582   4.668   1.476 -0.1014 -3.6239  0.5777
 6917SOL    HW232388   2.657   4.686   1.602  0.8297  4.6977 -1.6758
 6918SOL     OW32389   1.649   1.630   3.208 -0.0886 -0.1147  0.9015
 6918SOL    HW132390   1.704   1.603   3.135 -0.7775 -0.3460  0.4653
 6918SOL    HW232391   1.613   1.545   3.234 -1.4112  0.0433 -0.4018
 6919SOL     OW32392   2.349   0.915   1.761 -0.3106 -0.1231  0.2979
 6919SOL    HW132393   2.325   0.938   1.851 -1.0419 -0.6323  0.2237
 6919SOL    HW232394   2.355   0.820   1.765  2.6146  0.1478  3.2890
 6920SOL     OW32395   2.155   0.006   2.649  0.2984 -0.2927  0.7384
 6920SOL    HW132396   2.070   4.699   2.653 -0.7059  1.3206 -2.5519
 6920SOL    HW232397   2.214   4.667   2.655 -0.6775 -1.0045  1.2900
 6921SOL     OW32398   3.721   1.272   6.018 -0.0548 -0.4275 -0.0653
 6921SOL    HW132399   3.659   1.281   5.946 -1.3190 -1.6325  0.8823
 6921SOL    HW232400   3.730   1.178   6.007  1.5269 -0.3045  0.1134
 6922SOL     OW32401   0.760   2.024  16.507  1.0571 -0.0078 -0.1858
 6922SOL    HW132402   0.686   2.058  16.457  0.7992 -0.5752 -0.1827
 6922SOL    HW232403   0.785   2.098  16.563  2.2952 -0.0392 -0.7028
 6923SOL     OW32404   0.156   4.636  13.838 -0.5305  0.6627 -0.2916
 6923SOL    HW132405   0.128   4.658  13.927  1.4404 -1.5332  0.8856
 6923SOL    HW232406   0.090   4.676  13.782  3.2862  4.1763 -2.2854
 6924SOL     OW32407   2.481   3.214   3.140  0.2142  0.1217  0.5334
 6924SOL    HW132408   2.447   3.283   3.198 -2.0880 -0.7554  0.2461
 6924SOL    HW232409   2.427   3.230   3.062 -1.5784 -0.3100  1.6718
 6925SOL     OW32410   2.610   1.271   7.847 -0.0938 -0.0186 -0.4903
 6925SOL    HW132411   2.526   1.296   7.886 -0.4995  1.1363 -2.0922
 6925SOL    HW232412   2.583   1.245   7.759 -0.7671  1.1502 -0.6353
 6926SOL     OW32413   2.042   0.450  10.903 -0.2420 -0.1095 -0.3371
 6926SOL    HW132414   2.062   0.534  10.861  0.6509  0.4563  1.2253
 6926SOL    HW232415   1.971   0.473  10.963 -0.3407 -0.8542 -0.1659
 6927SOL     OW32416   1.622   2.824   3.606 -0.3999  0.2221 -0.4478
 6927SOL    HW132417   1.635   2.916   3.581  3.5095  0.5158  2.6764
 6927SOL    HW232418   1.530   2.825   3.634  0.2348 -1.0454  1.7117
 6928SOL     OW32419   1.156   3.720   4.306 -0.4656  0.0538 -0.2422
 6928SOL    HW132420   1.141   3.814   4.299 -1.8565 -0.1983 -0.8087
 6928SOL    HW232421   1.219   3.727   4.377  0.2948 -1.1012 -0.8103
 6929SOL     OW32422   0.541   1.138   3.116 -0.0772 -0.3763  0.0739
 6929SOL    HW132423   0.513   1.070   3.055 -0.0483 -0.3839  0.0689
 6929SOL    HW232424   0.493   1.213   3.080 -1.2657 -0.6877  1.0136
 6930SOL     OW32425   1.511   2.552   6.643 -0.1630  0.1622 -0.3965
 6930SOL    HW132426   1.478   2.468   6.676  0.9638  0.6575  2.0068
 6930SOL    HW232427   1.498   2.613   6.716 -1.6807 -0.3023 -0.2923
 6931SOL     OW32428   2.373   2.293  12.122  0.5360 -0.2326  0.1332
 6931SOL    HW132429   2.406   2.338  12.044 -0.2912  1.2405  0.6316
 6931SOL    HW232430   2.279   2.314  12.114  1.1005  2.8714  1.5600
 6932SOL     OW32431   3.696   0.863   5.572  0.6164 -0.6221  0.1828
 6932SOL    HW132432   3.744   0.819   5.502 -2.6690 -0.8704 -1.8988
 6932SOL    HW232433   3.661   0.782   5.608 -2.1796  0.0957 -0.9411
 6933SOL     OW32434   1.810   1.994   1.912 -0.0342  0.4906 -0.4978
 6933SOL    HW132435   1.808   1.964   2.002 -1.1178  1.1544 -0.2976
 6933SOL    HW232436   1.718   2.014   1.896 -0.3809 -0.5735  0.1808
 6934SOL     OW32437   3.564   3.096  13.737 -0.2093 -0.6002  0.4073
 6934SOL    HW132438   3.631   3.133  13.794 -0.3122 -0.7754  0.6393
 6934SOL    HW232439   3.504   3.066  13.806 -0.7423 -0.6039 -0.0506
 6935SOL     OW32440   2.832   3.532  11.183 -0.0137 -0.4087  0.4902
 6935SOL    HW132441   2.857   3.548  11.091 -2.0213 -0.1680 -0.0013
 6935SOL    HW232442   2.816   3.618  11.222 -0.5778 -0.7572  1.0183
 6936SOL     OW32443   4.658   2.193   2.264 -0.1603  0.0766  0.1245
 6936SOL    HW132444   4.711   2.242   2.325  0.5009 -1.4536  0.7895
 6936SOL    HW232445   4.626   2.261   2.204 -0.5932 -0.2575 -0.0307
 6937SOL     OW32446   3.481   0.683   1.789  0.1483  0.1915  0.6648
 6937SOL    HW132447   3.432   0.663   1.868 -0.2016 -1.1438  0.1098
 6937SOL    HW232448   3.568   0.695   1.826  0.2267  1.9997 -0.0930
 6938SOL     OW32449   1.714   3.289   3.470 -0.1161  0.0501 -0.5971
 6938SOL    HW132450   1.807   3.286   3.448  0.0948  0.4118  0.2510
 6938SOL    HW232451   1.711   3.374   3.514  1.5621 -0.1454 -0.1001
 6939SOL     OW32452   0.330   4.472   5.456  0.1831  0.0205  0.2814
 6939SOL    HW132453   0.357   4.541   5.396 -0.4862 -0.7396 -0.9109
 6939SOL    HW232454   0.410   4.421   5.466 -0.2876 -0.6696  0.6004
 6940SOL     OW32455   3.384   1.602  13.007 -0.4158 -0.1083 -0.5635
 6940SOL    HW132456   3.420   1.688  12.988  0.0944 -0.0448  0.7002
 6940SOL    HW232457   3.295   1.612  13.040 -0.7614 -0.5700 -1.3349
 6941SOL     OW32458   2.273   1.503   4.020 -0.3676  0.0946  0.0598
 6941SOL    HW132459   2.251   1.430   4.078  1.6716 -0.6402 -0.0849
 6941SOL    HW232460   2.195   1.512   3.966 -1.5266 -3.2244  1.1444
 6942SOL     OW32461   1.696   1.442   6.864  0.2469  0.4261  0.4468
 6942SOL    HW132462   1.648   1.418   6.784 -2.5588  0.9326  1.9917
 6942SOL    HW232463   1.629   1.426   6.930 -2.0691 -0.6880 -2.1847
 6943SOL     OW32464   3.877   1.276  16.895  0.1069  0.9208 -0.6548
 6943SOL    HW132465   3.861   1.264  16.802  2.2004  1.9005 -1.1541
 6943SOL    HW232466   3.877   1.186  16.927 -0.4900  1.1074 -0.1387
 6944SOL     OW32467   1.206   2.006   9.301  0.5126  0.2073 -0.5033
 6944SOL    HW132468   1.117   2.036   9.318 -0.2580 -1.9943 -0.6223
 6944SOL    HW232469   1.203   1.985   9.208 -0.6566 -0.3806 -0.3328
 6945SOL     OW32470   3.323   3.249  15.995 -0.4844  0.0424 -0.5141
 6945SOL    HW132471   3.272   3.282  16.069  1.4587 -0.1646  0.8952
 6945SOL    HW232472   3.404   3.299  16.001 -0.3705 -0.1843 -0.1722
 6946SOL     OW32473   0.278   0.768  12.313 -0.0859 -0.1996  0.3247
 6946SOL    HW132474   0.225   0.791  12.237 -1.0100  2.7207  1.8481
 6946SOL    HW232475   0.359   0.739  12.271  0.3668 -0.6119  1.4926
 6947SOL     OW32476   3.586   0.013  12.721 -0.1067  0.0657  0.4501
 6947SOL    HW132477   3.646   0.056  12.660  0.0056 -1.7958 -0.7554
 6947SOL    HW232478   3.561   0.084  12.780 -0.3205  0.1881  0.2132
 6948SOL     OW32479   3.298   0.453   9.868 -0.1937  0.2798  0.2557
 6948SOL    HW132480   3.379   0.466   9.917 -1.1116 -0.7901  2.0319
 6948SOL    HW232481   3.296   0.527   9.807 -0.1957 -0.5816 -0.8023
 6949SOL     OW32482   0.554   0.409   9.093  0.0790 -0.4017  0.4740
 6949SOL    HW132483   0.620   0.367   9.147 -1.6128 -2.7063  0.7686
 6949SOL    HW232484   0.477   0.353   9.100 -1.6011  1.6952 -1.1727
 6950SOL     OW32485   4.616   1.665   9.732 -0.3044 -0.3946 -0.4708
 6950SOL    HW132486   4.588   1.671   9.824 -0.5489 -1.2569 -0.4875
 6950SOL    HW232487   4.534   1.684   9.688 -0.5897  1.0576  0.6679
 6951SOL     OW32488   0.812   1.047   3.064  0.6459 -0.4536 -0.2324
 6951SOL    HW132489   0.785   1.077   2.978 -0.5517 -0.3638  0.1805
 6951SOL    HW232490   0.740   1.061   3.125  1.5577  0.0172  0.7564
 6952SOL     OW32491   1.234   2.733   9.668  0.2754  0.1419 -0.3078
 6952SOL    HW132492   1.179   2.666   9.628  0.4765 -2.2490  3.4394
 6952SOL    HW232493   1.322   2.696   9.660 -0.0516 -0.3992 -1.4903
 6953SOL     OW32494   3.665   4.053   6.259 -0.4058 -0.2634 -0.0151
 6953SOL    HW132495   3.669   4.058   6.164  1.7432  0.5026  0.0995
 6953SOL    HW232496   3.729   3.991   6.293  0.5363  0.9036  0.3541
 6954SOL     OW32497   0.521   4.663   5.672  0.2591 -0.1460 -0.3019
 6954SOL    HW132498   0.551   0.011   5.703  0.9036  0.1185 -1.6171
 6954SOL    HW232499   0.464   4.633   5.742  2.4664  0.4037  1.7355
 6955SOL     OW32500   3.059   3.060   1.479 -0.0493  0.2141 -0.0774
 6955SOL    HW132501   3.032   3.110   1.557 -0.1034  1.5571 -0.9480
 6955SOL    HW232502   3.017   2.978   1.505 -0.1073 -0.4859 -2.3746
 6956SOL     OW32503   0.688   1.865  16.806  0.0770 -0.4389 -0.6326
 6956SOL    HW132504   0.603   1.858  16.763 -0.8798  0.8074  1.0403
 6956SOL    HW232505   0.682   1.954  16.843  2.9104  0.4725 -2.4141
 6957SOL     OW32506   3.836   1.501   9.556 -0.4107 -0.0929  0.0723
 6957SOL    HW132507   3.792   1.475   9.637  1.0602 -1.9321  0.2712
 6957SOL    HW232508   3.819   1.419   9.509 -1.7815 -0.1872  0.7296
 6958SOL     OW32509   4.538   1.377  17.065 -0.5123 -0.0876  0.4057
 6958SOL    HW132510   4.559   1.456  17.015 -4.2014 -0.9894 -2.5961
 6958SOL    HW232511   4.599   1.374  17.139  1.1948 -0.2645 -1.0039
 6959SOL     OW32512   0.937   4.459   5.112  0.3580  0.6033  0.0779
 6959SOL    HW132513   0.958   4.391   5.048  2.1769  0.6247  0.6671
 6959SOL    HW232514   1.016   4.512   5.120  1.7710 -1.3150 -1.1534
 6960SOL     OW32515   3.745   0.953   6.491  0.3259  0.1121 -0.7232
 6960SOL    HW132516   3.841   0.949   6.495  0.2890 -1.0577 -1.0012
 6960SOL    HW232517   3.727   1.043   6.462 -0.0525  0.5494  0.8659
 6961SOL     OW32518   1.509   4.557   7.680 -0.4056 -0.2372 -0.8126
 6961SOL    HW132519   1.425   4.516   7.659  0.2411 -0.8090 -2.2883
 6961SOL    HW232520   1.571   4.511   7.624 -2.3877  0.4206 -3.5169
 6962SOL     OW32521   1.164   2.520   9.503  0.9729  0.1894 -0.8575
 6962SOL    HW132522   1.229   2.553   9.441  1.5761 -1.0990 -0.9215
 6962SOL    HW232523   1.184   2.427   9.517  0.1680  0.4061  1.7845
 6963SOL     OW32524   3.332   2.381   4.745  0.1075 -0.2699 -0.1115
 6963SOL    HW132525   3.365   2.302   4.703  1.3679 -0.3517  1.0345
 6963SOL    HW232526   3.259   2.401   4.687 -0.9964  0.4533  1.5321
 6964SOL     OW32527   1.774   2.633  13.147  0.2126  0.2758  0.4948
 6964SOL    HW132528   1.761   2.539  13.158  1.4259  0.2111  1.3229
 6964SOL    HW232529   1.857   2.651  13.191 -0.3028 -0.7929  1.9226
 6965SOL     OW32530   1.501   1.363   0.095 -0.1722  0.5285  0.4630
 6965SOL    HW132531   1.550   1.416   0.158 -0.2164  1.0469  0.0642
 6965SOL    HW232532   1.548   1.384   0.015  0.0172 -0.3758  0.3415
 6966SOL     OW32533   3.625   3.671   5.569 -0.0301 -0.0191 -0.2822
 6966SOL    HW132534   3.593   3.728   5.499 -1.7975 -1.2304 -0.4536
 6966SOL    HW232535   3.675   3.603   5.524  1.1899  1.4728 -1.1576
 6967SOL     OW32536   3.964   0.244   8.602 -0.0140 -0.5663  0.1504
 6967SOL    HW132537   3.922   0.297   8.534 -0.1634  0.2411  0.8864
 6967SOL    HW232538   4.038   0.216   8.548  2.3035  1.5978  2.2666
 6968SOL     OW32539   2.960   2.370  16.494  0.4006  0.3867 -0.6111
 6968SOL    HW132540   2.927   2.331  16.413  0.9964 -0.0109 -0.6604
 6968SOL    HW232541   2.968   2.287  16.540  2.2548  0.4394 -0.8258
 6969SOL     OW32542   3.813   3.811  11.809 -0.0317  0.1938  0.3470
 6969SOL    HW132543   3.778   3.883  11.757 -1.5631 -0.0108  1.0787
 6969SOL    HW232544   3.888   3.784  11.756 -0.6251  1.0191 -0.9320
 6970SOL     OW32545   1.920   0.678   4.424 -0.2052 -0.0108 -0.0382
 6970SOL    HW132546   1.865   0.642   4.493 -1.7707  1.6065 -0.4442
 6970SOL    HW232547   1.857   0.688   4.353  0.2806 -1.1545 -0.6242
 6971SOL     OW32548   2.944   0.150  12.874 -0.5285 -0.0898  0.0781
 6971SOL    HW132549   3.012   0.100  12.918 -1.5921  0.3243  2.2048
 6971SOL    HW232550   2.870   0.089  12.883 -1.1322  0.4570 -1.1932
 6972SOL     OW32551   4.481   2.456   8.535  0.3976  0.1863 -0.6792
 6972SOL    HW132552   4.459   2.408   8.454 -0.2736  0.2005 -0.5025
 6972SOL    HW232553   4.394   2.457   8.575  1.4616  1.3521  1.5775
 6973SOL     OW32554   1.896   4.235   7.616  0.5049 -0.1537 -0.5142
 6973SOL    HW132555   1.959   4.297   7.654 -0.2731  1.2015 -1.4455
 6973SOL    HW232556   1.849   4.206   7.694 -0.5365 -0.8651 -1.4137
 6974SOL     OW32557   2.136   1.956  10.984 -0.5984  0.0082 -0.1455
 6974SOL    HW132558   2.120   1.993  10.897 -0.8998  2.0394  0.7830
 6974SOL    HW232559   2.093   1.872  10.968 -1.1289 -0.0593  1.6903
 6975SOL     OW32560   0.851   4.397  12.301 -0.2964 -0.0316  0.2066
 6975SOL    HW132561   0.772   4.394  12.246  1.2202  3.5769 -2.1793
 6975SOL    HW232562   0.920   4.399  12.235  0.4890 -3.4349  0.9358
 6976SOL     OW32563   4.331   3.441  16.844 -0.1197  0.4033 -0.4841
 6976SOL    HW132564   4.313   3.432  16.938 -0.4117  2.3243 -0.3434
 6976SOL    HW232565   4.421   3.472  16.850  0.1297 -1.0068  3.1026
 6977SOL     OW32566   0.179   3.589   6.971 -0.6721  0.2717 -0.0936
 6977SOL    HW132567   0.177   3.628   7.058  1.2869 -1.6926  0.8067
 6977SOL    HW232568   0.220   3.656   6.915 -0.2304 -0.4604 -0.6390
 6978SOL     OW32569   1.842   4.417   1.541 -0.2839  0.3994 -0.2763
 6978SOL    HW132570   1.792   4.458   1.611 -1.3567 -1.2654 -0.0614
 6978SOL    HW232571   1.783   4.425   1.466  0.7348  0.3122 -1.0827
 6979SOL     OW32572   1.859   4.489   0.749  0.1426 -0.0665  0.3916
 6979SOL    HW132573   1.822   4.411   0.709 -0.9407 -0.1320  1.5532
 6979SOL    HW232574   1.782   4.540   0.773  0.2097  0.3927 -0.3433
 6980SOL     OW32575   2.495   3.779   2.898  0.7860  0.1581  0.3556
 6980SOL    HW132576   2.488   3.737   2.812 -1.9630  2.3923 -0.4954
 6980SOL    HW232577   2.467   3.869   2.881  0.6935  0.0186 -0.2210
 6981SOL     OW32578   0.953   0.615   6.381  0.0712 -0.1139 -0.2581
 6981SOL    HW132579   0.985   0.629   6.470 -0.1449  1.0075 -0.3532
 6981SOL    HW232580   0.902   0.535   6.390  2.7006 -1.8669 -1.0173
 6982SOL     OW32581   2.321   3.406  11.743 -0.2528 -0.2508 -0.1904
 6982SOL    HW132582   2.416   3.415  11.744 -0.2161 -0.5643 -0.6702
 6982SOL    HW232583   2.317   3.318  11.780  1.6348  0.3803  1.4648
 6983SOL     OW32584   3.129   2.515  13.798  0.5094 -0.1566  0.2424
 6983SOL    HW132585   3.141   2.550  13.886  1.8691  0.0012 -0.0119
 6983SOL    HW232586   3.210   2.464  13.793 -0.1984 -1.5611  3.1686
 6984SOL     OW32587   1.716   3.449   6.742 -0.1795  0.0259  0.3941
 6984SOL    HW132588   1.756   3.475   6.825 -0.2502  0.9905  0.1261
 6984SOL    HW232589   1.764   3.372   6.713  1.4720  0.2038  2.5863
 6985SOL     OW32590   3.618   4.600   7.554  0.4121  0.2900 -0.1206
 6985SOL    HW132591   3.662   4.568   7.632 -1.3272  0.3952  0.8861
 6985SOL    HW232592   3.579   4.683   7.581 -0.8291 -0.4650  0.4144
 6986SOL     OW32593   4.012   4.309  16.348 -0.0096 -0.9003 -0.2062
 6986SOL    HW132594   4.073   4.236  16.359  0.2181 -0.7169 -0.2842
 6986SOL    HW232595   4.000   4.291  16.255 -0.6690 -4.0096  0.4753
 6987SOL     OW32596   1.270   3.204   6.425 -0.0120  0.4278 -0.1409
 6987SOL    HW132597   1.176   3.206   6.410 -0.2366  1.1557  1.3240
 6987SOL    HW232598   1.290   3.226   6.334 -0.9812  1.3784 -0.1283
 6988SOL     OW32599   0.058   1.432   4.240 -0.3431 -0.0280 -0.1408
 6988SOL    HW132600   4.718   1.416   4.295  0.3645 -1.6219  0.4074
 6988SOL    HW232601   0.114   1.363   4.276  2.0576  2.1779  0.3699
 6989SOL     OW32602   0.843   0.838  14.666 -0.2065  0.0977 -0.7807
 6989SOL    HW132603   0.776   0.907  14.674 -0.5467 -0.1193 -1.8169
 6989SOL    HW232604   0.812   0.799  14.585  0.9157  0.5466 -1.4235
 6990SOL     OW32605   2.420   0.175   5.525  0.2558  0.3380 -0.6834
 6990SOL    HW132606   2.442   0.243   5.590  2.1250  0.5962 -1.5824
 6990SOL    HW232607   2.435   0.224   5.445 -0.3358 -2.1788 -2.3227
 6991SOL     OW32608   4.476   4.663   8.490 -0.1848 -0.0894  0.0572
 6991SOL    HW132609   4.492   4.576   8.454 -1.4644 -0.2910 -0.0511
 6991SOL    HW232610   4.432   4.707   8.418 -1.7112 -3.1437 -0.9049
 6992SOL     OW32611   2.438   1.690   2.183  0.5831  0.1827 -0.8511
 6992SOL    HW132612   2.346   1.672   2.164  0.8167 -2.4615  0.5456
 6992SOL    HW232613   2.446   1.778   2.147 -0.3865  0.6602  0.0821
 6993SOL     OW32614   3.022   2.961   6.058 -0.3532  0.2891 -0.1186
 6993SOL    HW132615   3.071   2.901   6.001 -0.9990 -2.3226  2.0533
 6993SOL    HW232616   3.049   2.930   6.145  0.1163  1.0939  0.0184
 6994SOL     OW32617   1.540   2.012   7.612  0.2206  0.4794  0.9615
 6994SOL    HW132618   1.476   2.067   7.657 -0.3847  0.4591  0.1265
 6994SOL    HW232619   1.594   2.074   7.563 -0.2840 -0.9405 -1.3998
 6995SOL     OW32620   1.248   3.738  15.919 -0.5503 -0.1049 -0.5320
 6995SOL    HW132621   1.321   3.711  15.863  1.1730 -0.8392  2.1145
 6995SOL    HW232622   1.215   3.811  15.865 -1.3772 -0.4458 -0.4812
 6996SOL     OW32623   1.985   0.759   4.763 -0.0287  0.0435 -0.4713
 6996SOL    HW132624   2.061   0.728   4.715 -0.1195 -2.6407  1.1501
 6996SOL    HW232625   1.993   0.854   4.774  0.7319  0.0189 -0.8143
 6997SOL     OW32626   0.302   2.119   8.105 -0.1607 -0.0873  0.3302
 6997SOL    HW132627   0.379   2.175   8.121 -0.6414 -0.0550  2.4588
 6997SOL    HW232628   0.302   2.054   8.174  0.8617  0.6666  1.0433
 6998SOL     OW32629   3.124   4.012  11.680 -0.0372 -0.2813  0.5133
 6998SOL    HW132630   3.211   3.971  11.676  0.1507  0.2742 -1.0115
 6998SOL    HW232631   3.142   4.103  11.706  0.3703  0.0758 -1.0459
 6999SOL     OW32632   0.855   4.424  15.510  0.3215 -0.6269  0.2889
 6999SOL    HW132633   0.915   4.373  15.455 -1.5442 -2.8773  0.3193
 6999SOL    HW232634   0.828   4.490  15.446  1.1274  1.7939  2.4345
 7000SOL     OW32635   1.273   1.627  10.587 -0.6167  0.3198  0.1127
 7000SOL    HW132636   1.233   1.540  10.581 -0.5290  0.1986  1.3597
 7000SOL    HW232637   1.198   1.687  10.595 -0.7421  0.0970  0.5636
 7001SOL     OW32638   1.057   1.811  15.671 -0.6460  0.3781  0.7332
 7001SOL    HW132639   1.134   1.861  15.699  0.5513  0.3913 -2.5687
 7001SOL    HW232640   1.056   1.746  15.741 -0.3420  2.0314  2.2944
 7002SOL     OW32641   2.799   0.971   3.790 -0.0972 -0.1757 -0.2359
 7002SOL    HW132642   2.800   0.964   3.885  1.6869 -0.6157 -0.2888
 7002SOL    HW232643   2.857   0.897   3.769 -0.6467 -0.7731  0.3711
 7003SOL     OW32644   4.576   1.686   2.896  0.3046 -0.1668 -0.1806
 7003SOL    HW132645   4.581   1.780   2.916 -1.5337 -0.1880  0.4008
 7003SOL    HW232646   4.482   1.674   2.892  0.4644 -1.1400 -0.7995
 7004SOL     OW32647   2.386   0.154  14.516 -0.0839 -0.7486 -0.0277
 7004SOL    HW132648   2.467   0.196  14.543 -0.1080  1.1113 -2.8684
 7004SOL    HW232649   2.380   0.085  14.582  2.7272 -2.4399 -1.5329
 7005SOL     OW32650   1.547   3.156   9.738 -0.4295 -0.5435 -0.5964
 7005SOL    HW132651   1.567   3.176   9.646 -2.6365  0.9318 -0.7461
 7005SOL    HW232652   1.572   3.064   9.746 -1.5407 -0.8199 -0.3561
 7006SOL     OW32653   3.372   2.650   3.193 -0.0536  0.8404  0.3201
 7006SOL    HW132654   3.464   2.665   3.169  0.1596  0.4061  0.8554
 7006SOL    HW232655   3.337   2.637   3.105 -0.3467 -0.9044  0.6873
 7007SOL     OW32656   1.901   0.846   1.119  0.2101 -0.1427 -0.3478
 7007SOL    HW132657   1.881   0.911   1.186  0.1405 -0.7186  0.1856
 7007SOL    HW232658   1.994   0.827   1.129  0.0219 -0.5441  0.5607
 7008SOL     OW32659   0.215   0.624  11.758  0.0067  0.4689  0.6088
 7008SOL    HW132660   0.290   0.635  11.699 -0.2126  1.9954  0.6066
 7008SOL    HW232661   0.242   0.539  11.791  2.7790  0.9975 -0.2162
 7009SOL     OW32662   3.710   4.046   2.705  0.3943 -0.2079  0.7898
 7009SOL    HW132663   3.768   4.098   2.649  1.5609 -0.8326  1.4165
 7009SOL    HW232664   3.780   4.012   2.760  1.1892  0.5032  0.2253
 7010SOL     OW32665   3.266   2.997   5.841  0.1747 -0.3763  0.0015
 7010SOL    HW132666   3.305   2.920   5.800  0.6682 -0.6884  1.0440
 7010SOL    HW232667   3.262   2.962   5.930 -0.7030 -0.2793  0.0035
 7011SOL     OW32668   1.789   4.723  12.115 -0.3554 -0.5692  0.2356
 7011SOL    HW132669   1.707   0.015  12.076 -0.0846  1.0554  0.8729
 7011SOL    HW232670   1.773   0.004  12.208  1.5268 -1.9969  0.8512
 7012SOL     OW32671   4.052   3.152   4.416  0.1212 -0.0549 -0.1120
 7012SOL    HW132672   3.983   3.211   4.386 -1.3969 -1.2289  1.0984
 7012SOL    HW232673   4.135   3.184   4.379  0.1924 -1.1300 -0.8762
 7013SOL     OW32674   3.567   4.016   5.703  0.4194 -0.0273  0.0562
 7013SOL    HW132675   3.543   3.981   5.617 -0.2710  0.1446  0.1790
 7013SOL    HW232676   3.655   4.034   5.671  1.5991 -4.8388  0.6214
 7014SOL     OW32677   2.606   3.304  14.512 -0.5170  0.2362  0.0649
 7014SOL    HW132678   2.642   3.333  14.428  0.4796  2.3838  1.2220
 7014SOL    HW232679   2.683   3.308  14.569  0.0268 -0.1806 -0.6543
 7015SOL     OW32680   4.275   3.838   3.970  0.2637 -0.0049 -0.3351
 7015SOL    HW132681   4.203   3.777   3.954  2.0598 -1.5187 -2.8372
 7015SOL    HW232682   4.347   3.784   3.936  0.1586 -1.3621  1.6153
 7016SOL     OW32683   1.104   2.519   6.196 -0.3086  0.2346 -0.1033
 7016SOL    HW132684   1.183   2.509   6.143  0.7346 -0.6729  1.6101
 7016SOL    HW232685   1.087   2.612   6.186  0.8638  0.4602  0.0118
 7017SOL     OW32686   0.693   4.436   1.083 -0.2029  0.1929 -0.4765
 7017SOL    HW132687   0.719   4.500   1.016 -0.0467  0.8631  0.2216
 7017SOL    HW232688   0.772   4.440   1.136 -0.1306 -0.8643 -0.5205
 7018SOL     OW32689   4.103   2.079   6.311  0.2830  0.1068 -0.1611
 7018SOL    HW132690   4.038   2.026   6.267 -1.0101  0.9224  0.7706
 7018SOL    HW232691   4.178   2.027   6.341  1.5852  1.4191 -1.0735
 7019SOL     OW32692   1.359   4.271   8.536  0.5336 -0.2138 -0.1666
 7019SOL    HW132693   1.381   4.178   8.540  0.2903 -0.2448  0.4470
 7019SOL    HW232694   1.410   4.304   8.462 -1.4622  0.8549 -1.0713
 7020SOL     OW32695   2.792   0.596  10.194 -0.2133 -1.2148  0.3435
 7020SOL    HW132696   2.755   0.550  10.118 -1.2941  0.8559 -0.3887
 7020SOL    HW232697   2.822   0.527  10.253  0.4184 -1.9244 -0.8274
 7021SOL     OW32698   3.276   2.307   6.811  0.4667  0.4233  0.2197
 7021SOL    HW132699   3.188   2.271   6.798  0.6844 -0.2822  0.7133
 7021SOL    HW232700   3.288   2.368   6.738  0.7471 -2.0410 -1.7891
 7022SOL     OW32701   1.431   3.507  11.702  0.5137  0.4093 -0.4505
 7022SOL    HW132702   1.382   3.588  11.711  0.2873  0.2694 -0.4231
 7022SOL    HW232703   1.375   3.448  11.651  1.3066 -0.8789  0.1552
 7023SOL     OW32704   1.317   0.389   4.875 -0.0529  0.6523  0.3458
 7023SOL    HW132705   1.342   0.297   4.884  0.6393  1.0100  2.1195
 7023SOL    HW232706   1.400   0.433   4.854  0.3978 -1.0311 -1.3981
 7024SOL     OW32707   4.044   2.078   8.189  0.2671 -0.0670 -0.2891
 7024SOL    HW132708   4.136   2.097   8.169  0.1666  2.9461  2.0632
 7024SOL    HW232709   4.026   2.015   8.119 -0.1420  0.2599 -0.4728
 7025SOL     OW32710   3.726   1.379   3.890  0.5578  0.2962  0.5712
 7025SOL    HW132711   3.698   1.437   3.818  1.1199  0.3021  0.3570
 7025SOL    HW232712   3.689   1.295   3.864  1.7718  0.4628 -1.7026
 7026SOL     OW32713   1.466   1.548   2.497  0.5473 -0.0367  0.1270
 7026SOL    HW132714   1.469   1.523   2.405 -1.0723 -1.0428  0.3402
 7026SOL    HW232715   1.531   1.618   2.497  2.0919 -1.4826 -0.7969
 7027SOL     OW32716   0.787   0.287   5.711  0.4548 -0.6869  0.3296
 7027SOL    HW132717   0.806   0.313   5.801  0.5619  1.9357 -0.4587
 7027SOL    HW232718   0.773   0.194   5.730 -1.5476 -0.3515  0.5580
 7028SOL     OW32719   2.470   1.752   9.494  0.3455 -0.2479  0.7291
 7028SOL    HW132720   2.537   1.735   9.428 -1.2426  0.4750 -1.1054
 7028SOL    HW232721   2.390   1.750   9.441 -1.0071  2.4058  2.6587
 7029SOL     OW32722   3.067   2.171   4.308  0.0771 -0.1928  0.3524
 7029SOL    HW132723   3.050   2.261   4.279 -0.5124  0.8032  3.8758
 7029SOL    HW232724   2.986   2.121   4.299 -1.4541  2.6990 -1.9613
 7030SOL     OW32725   2.120   1.048   5.411 -0.4155  0.5962  0.0383
 7030SOL    HW132726   2.055   1.071   5.476 -1.1351 -2.1655  0.2962
 7030SOL    HW232727   2.084   0.962   5.390 -0.1083  0.1215  1.4718
 7031SOL     OW32728   3.512   3.147  14.108 -0.3028  0.2858  0.1694
 7031SOL    HW132729   3.585   3.142  14.046 -0.7535 -0.2136 -0.3170
 7031SOL    HW232730   3.511   3.240  14.133 -0.0314  0.0090  1.1775
 7032SOL     OW32731   0.525   0.486   4.955 -0.2881  0.2270  0.5130
 7032SOL    HW132732   0.528   0.391   4.950  0.6819  0.3227 -0.6424
 7032SOL    HW232733   0.583   0.502   4.881  0.8943  1.0329  1.5969
 7033SOL     OW32734   2.645   3.633  14.189  0.1231  0.1099  0.8025
 7033SOL    HW132735   2.722   3.623  14.133  1.1029  2.3160  1.7686
 7033SOL    HW232736   2.607   3.546  14.189  0.0810  0.1245 -0.3892
 7034SOL     OW32737   2.032   2.494   3.756 -0.4172 -0.2532  0.2863
 7034SOL    HW132738   2.011   2.410   3.795 -0.9349  0.0855  0.7445
 7034SOL    HW232739   1.943   2.518   3.730 -0.4912 -1.8583 -0.9515
 7035SOL     OW32740   3.378   3.905  11.750  0.6934 -0.3661  0.7102
 7035SOL    HW132741   3.412   3.825  11.789  1.6775 -0.6598 -0.7612
 7035SOL    HW232742   3.406   3.962  11.822 -0.4852  0.6474  0.3688
 7036SOL     OW32743   3.922   3.751   2.009  0.1614 -0.9621  0.4666
 7036SOL    HW132744   3.994   3.719   1.954  0.4299 -0.2913  0.4275
 7036SOL    HW232745   3.897   3.671   2.055  4.2452 -1.5687  1.6444
 7037SOL     OW32746   1.513   0.313  13.567  0.3755 -0.1047 -0.0211
 7037SOL    HW132747   1.509   0.224  13.533  1.4001  0.8316 -2.6010
 7037SOL    HW232748   1.420   0.338  13.565  0.0926 -1.2638 -1.3439
 7038SOL     OW32749   0.946   1.564  16.149  0.5000  0.5256  0.1637
 7038SOL    HW132750   0.956   1.614  16.067  1.3012  0.2601  0.0930
 7038SOL    HW232751   1.008   1.613  16.204  0.4905 -1.5379  1.9942
 7039SOL     OW32752   1.374   2.674   6.275 -0.0304 -0.8493  0.5079
 7039SOL    HW132753   1.399   2.765   6.293 -1.1178 -0.2269 -1.0872
 7039SOL    HW232754   1.411   2.670   6.187  0.7707 -1.2854  0.8695
 7040SOL     OW32755   0.536   2.709  16.316  0.0632 -0.1138 -0.3308
 7040SOL    HW132756   0.526   2.721  16.410  1.5558  2.3100 -0.4825
 7040SOL    HW232757   0.601   2.638  16.316 -0.8682 -0.9553  0.2714
 7041SOL     OW32758   3.625   2.107  16.675  0.4084  0.9627 -0.4170
 7041SOL    HW132759   3.538   2.147  16.681  0.6731  1.4700  0.0563
 7041SOL    HW232760   3.652   2.133  16.763  0.1029 -1.5698  0.4405
 7042SOL     OW32761   1.054   4.127   5.761  0.0064  0.2466  0.4880
 7042SOL    HW132762   1.078   4.201   5.705  0.8813  1.8973  3.0676
 7042SOL    HW232763   1.111   4.063   5.719  0.9650  0.9236  0.7489
 7043SOL     OW32764   0.094   4.545  10.520  0.2316  0.1994 -0.1494
 7043SOL    HW132765   0.168   4.506  10.565 -0.9421  0.9096  2.4050
 7043SOL    HW232766   0.029   4.528  10.588  0.2555  0.8636  0.0428
 7044SOL     OW32767   2.646   3.529  15.366 -0.1126  0.3243 -0.6468
 7044SOL    HW132768   2.650   3.555  15.274 -1.2042 -0.9795 -1.0585
 7044SOL    HW232769   2.564   3.479  15.368 -0.0500  0.2364 -0.3239
 7045SOL     OW32770   0.904   1.229   0.909 -0.0096  0.1705 -0.5892
 7045SOL    HW132771   0.907   1.303   0.970  0.7946  2.3236 -3.2342
 7045SOL    HW232772   0.987   1.189   0.936 -0.9709 -0.8235  0.8742
 7046SOL     OW32773   3.929   0.280  16.440 -0.2389  0.4496  0.1403
 7046SOL    HW132774   4.003   0.234  16.478 -0.4239 -0.2863 -0.3976
 7046SOL    HW232775   3.885   0.300  16.523 -1.1816 -2.6283  0.3850
 7047SOL     OW32776   1.219   2.358   7.868  0.3678 -0.0145  0.0191
 7047SOL    HW132777   1.310   2.387   7.861 -0.2357  1.5688 -1.2079
 7047SOL    HW232778   1.177   2.404   7.796 -2.5836  0.7900  2.2641
 7048SOL     OW32779   0.216   2.362   9.179  0.3869  0.4255  0.4009
 7048SOL    HW132780   0.256   2.306   9.245  1.2863  3.0970  2.0960
 7048SOL    HW232781   0.291   2.418   9.159 -0.8920  2.0987  0.2702
 7049SOL     OW32782   4.257   2.132   7.115 -0.4159 -0.2480  0.5396
 7049SOL    HW132783   4.270   2.039   7.098  1.3185  0.1599 -0.3979
 7049SOL    HW232784   4.250   2.142   7.210 -1.2572 -0.6585  0.5158
 7050SOL     OW32785   2.023   1.235   2.725 -0.2381  0.2154 -0.0082
 7050SOL    HW132786   1.937   1.257   2.688  0.3479  2.6701  0.0383
 7050SOL    HW232787   2.052   1.326   2.736  2.1602 -0.5291 -0.1880
 7051SOL     OW32788   3.083   4.360   2.390 -0.4663  0.1380  0.0496
 7051SOL    HW132789   3.000   4.384   2.349 -0.9368  0.0833  0.9668
 7051SOL    HW232790   3.078   4.267   2.367 -2.7667  0.0994  0.7343
 7052SOL     OW32791   2.730   4.101   2.344  0.3317  0.0224 -0.0936
 7052SOL    HW132792   2.784   4.098   2.265 -0.9996 -0.1800 -0.9920
 7052SOL    HW232793   2.644   4.113   2.305  0.2331 -1.8677 -0.4557
 7053SOL     OW32794   4.555   2.677  13.890 -0.1334 -0.4042 -0.2445
 7053SOL    HW132795   4.471   2.671  13.937 -0.7037 -0.9013 -1.3245
 7053SOL    HW232796   4.563   2.588  13.857 -0.0880 -0.8797  1.0513
 7054SOL     OW32797   3.359   2.843   2.942  0.2428 -0.2099 -0.2947
 7054SOL    HW132798   3.416   2.893   3.001  1.3649 -0.4904 -1.1428
 7054SOL    HW232799   3.383   2.879   2.856 -1.5823  2.6435  0.3925
 7055SOL     OW32800   3.357   0.903   1.685 -0.4153  0.4778 -0.2874
 7055SOL    HW132801   3.384   0.834   1.746  0.1649  2.8367  2.1080
 7055SOL    HW232802   3.378   0.859   1.602 -1.3192  0.7860 -0.6790
 7056SOL     OW32803   1.682   4.506   8.732 -0.5791 -0.0379 -0.5150
 7056SOL    HW132804   1.630   4.559   8.670 -0.4393  1.6233  0.7801
 7056SOL    HW232805   1.650   4.419   8.709 -1.1875 -0.0673  0.4240
 7057SOL     OW32806   0.532   3.097   4.781  0.6432 -0.0218 -0.0256
 7057SOL    HW132807   0.534   3.115   4.687  1.5860 -1.9467 -0.3589
 7057SOL    HW232808   0.441   3.120   4.800  0.5200 -0.4907 -0.0591
 7058SOL     OW32809   3.417   3.791   7.005  0.5536  0.0648  0.1318
 7058SOL    HW132810   3.369   3.756   6.930 -0.4591 -0.9743  1.2749
 7058SOL    HW232811   3.450   3.718   7.057 -0.3832 -1.2743 -1.1652
 7059SOL     OW32812   0.579   0.349  12.566  1.1239  0.4438 -0.0729
 7059SOL    HW132813   0.653   0.358  12.505  2.9941 -1.4307  1.8994
 7059SOL    HW232814   0.626   0.360  12.648 -0.3848 -3.2073  1.2927
 7060SOL     OW32815   4.696   0.208   8.290 -0.0900  0.1664  0.3380
 7060SOL    HW132816   4.683   0.256   8.208  0.3704 -0.4716 -0.1038
 7060SOL    HW232817   4.667   0.119   8.267 -1.5894  1.0009 -1.0825
 7061SOL     OW32818   1.179   0.541  12.627 -0.0334 -0.6755  0.3991
 7061SOL    HW132819   1.257   0.556  12.680  0.4550  1.6637 -0.9872
 7061SOL    HW232820   1.202   0.549  12.534 -1.1436 -1.2595  0.0647
 7062SOL     OW32821   4.599   3.773   4.069 -0.4123 -0.0419  0.3816
 7062SOL    HW132822   4.548   3.761   3.989  1.8452 -1.0605 -0.9287
 7062SOL    HW232823   4.567   3.857   4.101 -0.9745 -0.2080  0.2507
 7063SOL     OW32824   1.344   1.994   4.686 -0.2212  0.3712  0.1531
 7063SOL    HW132825   1.340   1.965   4.595  0.2343  0.6507  0.0471
 7063SOL    HW232826   1.251   2.010   4.702 -0.1460 -0.2773  1.1885
 7064SOL     OW32827   3.309   1.028  10.116  0.2090  0.5653 -0.0576
 7064SOL    HW132828   3.304   1.123  10.101 -1.1914  0.5471  0.3297
 7064SOL    HW232829   3.329   1.001  10.026  0.4824  1.0086 -0.1346
 7065SOL     OW32830   1.580   2.207   6.943 -0.8692 -0.1629 -0.2301
 7065SOL    HW132831   1.641   2.166   6.882  1.4548  2.6875  0.1680
 7065SOL    HW232832   1.568   2.125   6.990 -1.7692  1.5759  2.5611
 7066SOL     OW32833   1.339   2.234   5.793  0.2719  0.2666  0.4104
 7066SOL    HW132834   1.387   2.152   5.786  1.7130  1.0227  1.3133
 7066SOL    HW232835   1.264   2.223   5.735  1.8886 -1.0998 -1.4215
 7067SOL     OW32836   4.465   1.653  14.598  0.3839  0.1371  0.3141
 7067SOL    HW132837   4.478   1.700  14.515  2.4595  0.8993  1.0785
 7067SOL    HW232838   4.511   1.573  14.574 -3.7147 -1.3804 -2.5163
 7068SOL     OW32839   0.407   2.936   3.578  0.1376 -0.2509  0.3628
 7068SOL    HW132840   0.436   2.892   3.498 -1.1619  0.5358 -0.5445
 7068SOL    HW232841   0.417   3.026   3.549  0.5598 -0.9013 -1.5358
 7069SOL     OW32842   4.514   1.442   0.713  0.5066  0.5574 -0.1692
 7069SOL    HW132843   4.584   1.508   0.711  0.7635  0.2718 -0.6634
 7069SOL    HW232844   4.566   1.376   0.667 -0.2486  0.2623 -0.6062
 7070SOL     OW32845   3.436   1.777   2.331  0.4914 -0.4280 -0.4940
 7070SOL    HW132846   3.476   1.728   2.259 -2.0185 -0.8965 -1.5557
 7070SOL    HW232847   3.490   1.856   2.321  1.0397 -0.7478 -0.0384
 7071SOL     OW32848   0.217   1.927   1.634 -0.3620  0.0980 -0.5280
 7071SOL    HW132849   0.311   1.941   1.624  0.0546 -2.7875 -0.8611
 7071SOL    HW232850   0.201   1.880   1.552 -2.4342  0.3454 -0.2597
 7072SOL     OW32851   3.324   4.457   0.490  0.2445 -0.0622 -0.0276
 7072SOL    HW132852   3.386   4.515   0.447  0.9025 -0.2227  0.7067
 7072SOL    HW232853   3.244   4.506   0.509 -0.3239 -1.5531  1.4104
 7073SOL     OW32854   1.021   2.997   4.484 -0.5414 -0.2264  0.1503
 7073SOL    HW132855   1.098   3.053   4.480 -0.4026 -0.3220  1.5334
 7073SOL    HW232856   0.986   3.030   4.567 -0.2661  1.6477 -0.4759
 7074SOL     OW32857   0.495   2.121   9.883  0.1457  0.3852  0.4248
 7074SOL    HW132858   0.516   2.195   9.939 -1.1133 -1.1447  2.9374
 7074SOL    HW232859   0.444   2.072   9.948 -0.8839  0.9766  0.0664
 7075SOL     OW32860   0.823   1.569  13.239  0.0827 -0.4582 -0.3244
 7075SOL    HW132861   0.900   1.538  13.286 -0.1280  0.9410  0.9493
 7075SOL    HW232862   0.771   1.594  13.315  0.2193  3.1606 -1.4085
 7076SOL     OW32863   2.812   4.180  15.276 -0.0851  0.3965 -0.1804
 7076SOL    HW132864   2.886   4.135  15.235  0.0045  0.1835  0.2094
 7076SOL    HW232865   2.807   4.258  15.220 -0.4308 -0.4412 -1.3146
 7077SOL     OW32866   1.013   2.718   5.652  0.1011  0.4206 -0.3594
 7077SOL    HW132867   1.006   2.693   5.560  0.4523  0.1972 -0.3263
 7077SOL    HW232868   1.071   2.646   5.677 -2.3712 -1.3487  0.3096
 7078SOL     OW32869   0.641   3.494   8.688  0.1880 -0.0499  0.6801
 7078SOL    HW132870   0.568   3.458   8.639 -0.5494  2.0463  0.2157
 7078SOL    HW232871   0.612   3.581   8.717 -0.6106 -0.0414 -0.1436
 7079SOL     OW32872   0.735   0.083   5.000 -0.8498  0.8434 -0.0530
 7079SOL    HW132873   0.666   0.030   5.038 -1.9175 -0.3608 -3.7139
 7079SOL    HW232874   0.791   0.095   5.077 -2.8189 -0.2337  1.5345
 7080SOL     OW32875   1.575   3.503  10.595  0.2282  0.5135  0.6141
 7080SOL    HW132876   1.521   3.479  10.520 -0.7172 -1.0925  1.8236
 7080SOL    HW232877   1.514   3.552  10.650  0.7670 -0.5623  2.1618
 7081SOL     OW32878   4.463   0.918   2.277 -0.6362  0.3805 -0.0197
 7081SOL    HW132879   4.426   0.974   2.209 -1.6756  1.9112  1.7912
 7081SOL    HW232880   4.385   0.881   2.318 -1.9023  1.3023 -1.6043
 7082SOL     OW32881   0.211   1.073   6.647  0.4959  0.0177  0.7854
 7082SOL    HW132882   0.233   1.166   6.650 -0.4383  0.2863 -1.0519
 7082SOL    HW232883   0.244   1.047   6.734 -0.7285  0.2697  1.3267
 7083SOL     OW32884   2.499   0.574   4.120  0.1422  0.3355  0.3380
 7083SOL    HW132885   2.526   0.496   4.168 -0.1516 -0.7141 -1.1721
 7083SOL    HW232886   2.474   0.635   4.190  0.3135  0.2408  0.4796
 7084SOL     OW32887   0.235   2.608   7.952 -0.4090  0.3438 -0.2125
 7084SOL    HW132888   0.330   2.612   7.942 -0.3333 -3.0904 -0.7350
 7084SOL    HW232889   0.214   2.518   7.928 -2.5415  1.0543 -0.9900
 7085SOL     OW32890   4.649   2.039   8.327 -0.8497 -0.1243 -0.5560
 7085SOL    HW132891   4.684   2.022   8.415 -0.2630  0.3729 -0.6916
 7085SOL    HW232892   4.727   2.083   8.293 -0.6447 -0.1958 -0.1709
 7086SOL     OW32893   0.838   4.593   8.863  0.8205  0.0440  0.1214
 7086SOL    HW132894   0.783   4.515   8.875 -0.9589  1.4642  1.2735
 7086SOL    HW232895   0.838   4.604   8.768 -0.1789  1.3905  0.2739
 7087SOL     OW32896   0.410   3.193   3.479 -0.2574 -0.1890 -0.6788
 7087SOL    HW132897   0.374   3.180   3.391 -1.8253 -1.1452  0.1085
 7087SOL    HW232898   0.400   3.287   3.492  3.5230  0.0792  0.4377
 7088SOL     OW32899   3.852   2.777  17.566 -0.4333  0.2557 -0.2131
 7088SOL    HW132900   3.784   2.815  17.622 -0.8321 -1.0720  0.2128
 7088SOL    HW232901   3.808   2.749  17.486 -0.3359 -1.4386  0.3312
 7089SOL     OW32902   0.966   4.616   0.383  0.0486  0.3255  0.4854
 7089SOL    HW132903   0.900   4.683   0.367 -1.7515 -1.7924 -1.0468
 7089SOL    HW232904   0.911   4.538   0.379  0.0784  0.4081 -1.9353
 7090SOL     OW32905   2.076   3.072  11.696  0.4672  0.1973  0.3611
 7090SOL    HW132906   2.013   3.005  11.723  1.0255  0.0032  1.1673
 7090SOL    HW232907   2.121   3.088  11.779 -1.2639 -3.2000  1.9576
 7091SOL     OW32908   0.923   4.697  13.946  0.0921  0.4408  0.2790
 7091SOL    HW132909   0.903   4.633  14.015  0.3182 -0.4297 -0.4615
 7091SOL    HW232910   0.993   0.009  13.988  0.2026  0.5910 -0.0850
 7092SOL     OW32911   0.811   4.315   7.953  0.4322 -0.2015 -0.0419
 7092SOL    HW132912   0.860   4.338   8.032 -0.7127 -0.8654  0.8556
 7092SOL    HW232913   0.866   4.369   7.896  0.9759 -1.8203 -1.0302
 7093SOL     OW32914   4.222   4.542  10.879  0.2692  0.6148  0.2147
 7093SOL    HW132915   4.278   4.606  10.924 -1.0694  3.2076 -1.7455
 7093SOL    HW232916   4.165   4.512  10.950  1.2500  0.5691  0.9719
 7094SOL     OW32917   1.946   2.026   9.118 -0.4543  0.0025  0.4574
 7094SOL    HW132918   1.874   2.076   9.079  0.6279  0.6537 -0.6841
 7094SOL    HW232919   1.930   1.943   9.072 -0.0286  0.1947 -0.0397
 7095SOL     OW32920   3.770   4.716   4.445  0.1288  0.1031  0.6960
 7095SOL    HW132921   3.812   0.059   4.473 -0.1954  0.8161 -0.8343
 7095SOL    HW232922   3.758   4.662   4.523  1.1608 -2.5721 -0.9825
 7096SOL     OW32923   0.798   3.425   7.227  0.2938  0.1598 -0.0196
 7096SOL    HW132924   0.733   3.484   7.189 -0.6161  0.0111  1.2709
 7096SOL    HW232925   0.751   3.343   7.242 -1.4362  0.6097 -2.9763
 7097SOL     OW32926   0.286   2.097   7.587 -0.2186  0.3814  0.4264
 7097SOL    HW132927   0.372   2.056   7.586 -0.6557 -0.5291  0.5946
 7097SOL    HW232928   0.268   2.101   7.493 -0.3506 -1.1368  0.3886
 7098SOL     OW32929   2.865   4.196  17.690 -0.3846  0.0405 -0.3903
 7098SOL    HW132930   2.957   4.222  17.682 -0.2477 -0.1829  0.4876
 7098SOL    HW232931   2.820   4.249  17.624  0.8296  2.1083  0.4464
 7099SOL     OW32932   4.172   1.173   2.552 -0.3357 -0.3241 -0.1345
 7099SOL    HW132933   4.251   1.221   2.579  0.1552 -2.5422  2.4656
 7099SOL    HW232934   4.118   1.177   2.631  2.8795  2.3341  1.9516
 7100SOL     OW32935   3.317   4.440   3.590 -0.3924 -0.4823  0.5574
 7100SOL    HW132936   3.308   4.346   3.576  0.1479 -0.1596 -1.9532
 7100SOL    HW232937   3.279   4.460   3.675  0.9263 -0.2326  1.0916
 7101SOL     OW32938   0.127   2.488   7.285 -0.0130 -0.4569  0.4987
 7101SOL    HW132939   0.209   2.442   7.304 -0.9173 -1.3474  2.2243
 7101SOL    HW232940   0.153   2.522   7.199  5.3661 -2.5479  1.2849
 7102SOL     OW32941   3.882   2.844   9.182  0.1592  0.0078 -0.0354
 7102SOL    HW132942   3.805   2.788   9.172  0.6670 -0.6687 -0.1611
 7102SOL    HW232943   3.935   2.778   9.227  0.5185 -0.9940 -1.9137
 7103SOL     OW32944   2.194   2.771   1.212  0.3239  0.5196 -0.3220
 7103SOL    HW132945   2.137   2.776   1.135  2.1535  0.8918 -1.6487
 7103SOL    HW232946   2.217   2.678   1.205  1.8385  1.0284 -2.1002
 7104SOL     OW32947   2.491   1.828   5.053  0.0458 -0.2333 -0.6919
 7104SOL    HW132948   2.549   1.856   5.123 -0.4518  1.9382 -1.1643
 7104SOL    HW232949   2.419   1.887   5.074  0.5170  0.1108 -0.0558
 7105SOL     OW32950   0.933   3.814   0.347 -0.1040  0.3674  0.2261
 7105SOL    HW132951   0.868   3.856   0.291 -0.3292 -0.8077 -0.3883
 7105SOL    HW232952   0.973   3.888   0.393 -0.9550 -0.3853  2.1680
 7106SOL     OW32953   1.518   3.732   4.019 -1.0316  0.0880  0.3038
 7106SOL    HW132954   1.560   3.646   4.015 -0.8060  0.2355 -0.4036
 7106SOL    HW232955   1.562   3.767   4.096 -0.1226  1.7602 -1.0016
 7107SOL     OW32956   2.447   3.213  13.304  0.4357 -0.0984 -0.4773
 7107SOL    HW132957   2.410   3.142  13.252  0.7720  0.0499 -0.9184
 7107SOL    HW232958   2.541   3.210  13.285  0.8634 -0.2859  1.7211
 7108SOL     OW32959   1.689   0.702   3.161 -0.3493 -0.0461 -0.3770
 7108SOL    HW132960   1.596   0.722   3.168 -0.6661 -0.7503 -2.6685
 7108SOL    HW232961   1.725   0.769   3.220 -1.6552 -1.0047  1.4874
 7109SOL     OW32962   3.606   4.564  13.050 -0.4796  0.0852 -0.1998
 7109SOL    HW132963   3.699   4.582  13.035 -0.6749  0.2584 -1.1894
 7109SOL    HW232964   3.602   4.469  13.043 -0.5037  0.0650  0.0547
 7110SOL     OW32965   2.185   0.864  17.742  0.4226  0.0981 -0.4075
 7110SOL    HW132966   2.191   0.930   0.065 -1.8265 -0.8043  0.6566
 7110SOL    HW232967   2.193   0.923  17.667  2.9168 -2.3673 -2.0986
 7111SOL     OW32968   3.504   0.835  12.668  0.0900  0.4142  0.5301
 7111SOL    HW132969   3.428   0.839  12.610 -2.0473 -1.8768  3.1592
 7111SOL    HW232970   3.514   0.741  12.684  1.4572  0.2107 -1.5872
 7112SOL     OW32971   3.709   3.909  10.797 -0.0820 -0.6351  0.2602
 7112SOL    HW132972   3.683   3.823  10.764 -2.1216  0.5970 -1.3698
 7112SOL    HW232973   3.804   3.897  10.793  0.1170  1.4406 -1.1462
 7113SOL     OW32974   1.929   0.532   2.879  0.1285  0.3652 -0.7033
 7113SOL    HW132975   1.939   0.524   2.974 -0.2019 -1.0344 -0.7835
 7113SOL    HW232976   1.846   0.578   2.883 -0.1794 -0.2658  0.2733
 7114SOL     OW32977   1.345   3.746   4.492  0.2888 -0.8083 -0.1746
 7114SOL    HW132978   1.436   3.760   4.516 -0.1249  0.2798  0.7785
 7114SOL    HW232979   1.305   3.759   4.578 -4.2171 -0.3379 -2.3418
 7115SOL     OW32980   3.358   0.683   2.039  0.2582  0.2184  0.0838
 7115SOL    HW132981   3.302   0.759   2.026 -0.9915 -0.6121  0.6597
 7115SOL    HW232982   3.324   0.638   2.116 -0.5754 -1.0473 -1.0418
 7116SOL     OW32983   1.127   1.699  16.306  0.0135  0.3141 -0.2601
 7116SOL    HW132984   1.161   1.637  16.371 -0.4742  2.2809  1.8977
 7116SOL    HW232985   1.055   1.738  16.356 -1.2539  0.3061 -2.1007
 7117SOL     OW32986   0.608   4.707   9.443  0.2701  0.5442 -0.1309
 7117SOL    HW132987   0.535   4.651   9.415  0.2066 -0.2205  1.5806
 7117SOL    HW232988   0.647   4.733   9.360  2.5106  0.8635  1.0177
 7118SOL     OW32989   1.109   3.218  10.046  0.1571 -0.0579 -0.3252
 7118SOL    HW132990   1.067   3.230  10.131 -0.5769 -2.0462 -0.4098
 7118SOL    HW232991   1.202   3.230  10.063  0.3927  0.3436 -1.8751
 7119SOL     OW32992   3.035   3.494   3.867 -0.7816  0.4980 -0.1041
 7119SOL    HW132993   2.975   3.433   3.910  1.1701 -0.3483  1.4027
 7119SOL    HW232994   2.971   3.562   3.845 -0.7450  0.6630  0.3004
 7120SOL     OW32995   0.875   1.264  16.886  0.4063  0.3720  0.1429
 7120SOL    HW132996   0.855   1.175  16.915 -0.1336 -0.2858 -2.2671
 7120SOL    HW232997   0.849   1.262  16.794  0.8635 -1.1928  0.0485
 7121SOL     OW32998   1.867   1.086  16.956 -0.4736  0.4731  0.3059
 7121SOL    HW132999   1.912   1.171  16.959 -1.1342  0.7674  1.7062
 7121SOL    HW233000   1.937   1.022  16.945 -0.0263  1.2334 -1.3528
 7122SOL     OW33001   1.913   2.986   3.194  0.0129 -0.0711  0.3967
 7122SOL    HW133002   1.818   2.983   3.194  0.0305 -0.0863 -3.3343
 7122SOL    HW233003   1.928   2.912   3.253 -0.9947 -0.9160 -0.3940
 7123SOL     OW33004   4.341   2.362   4.106  0.5163  0.3083 -0.1738
 7123SOL    HW133005   4.248   2.382   4.119  1.5786  4.0923  1.9015
 7123SOL    HW233006   4.339   2.321   4.020  1.5189 -1.2094  0.5210
 7124SOL     OW33007   1.857   4.322   3.244 -0.3067  0.2088 -0.3549
 7124SOL    HW133008   1.888   4.382   3.176  0.4748  0.4106  0.1842
 7124SOL    HW233009   1.873   4.376   3.322 -0.2802 -1.2773  0.6527
 7125SOL     OW33010   4.268   3.009   3.110 -0.9397  0.2294 -0.0038
 7125SOL    HW133011   4.333   3.043   3.171  0.4221  0.5587 -1.6555
 7125SOL    HW233012   4.258   3.084   3.052 -1.2306  0.3789  0.2414
 7126SOL     OW33013   1.184   3.990   5.341  0.4871 -0.4275 -0.3713
 7126SOL    HW133014   1.179   3.925   5.411  0.2884  2.6068  2.4597
 7126SOL    HW233015   1.263   3.956   5.298  2.0008  1.4442  0.9122
 7127SOL     OW33016   1.143   1.878   2.551  0.1688  0.2632 -0.4810
 7127SOL    HW133017   1.181   1.820   2.485  0.6539  1.4016 -1.2061
 7127SOL    HW233018   1.107   1.953   2.503 -1.9777 -1.4069 -1.4915
 7128SOL     OW33019   3.605   4.589   8.085  0.1920  0.4954  0.1796
 7128SOL    HW133020   3.647   4.668   8.121  1.1895 -0.1100  0.3408
 7128SOL    HW233021   3.517   4.595   8.123  0.2727 -1.1355  0.6322
 7129SOL     OW33022   3.893   0.550   2.950  0.2012  0.6536  0.4893
 7129SOL    HW133023   3.885   0.645   2.963 -1.2071  0.6497 -0.4048
 7129SOL    HW233024   3.816   0.527   3.002 -1.7331  3.1072 -1.2772
 7130SOL     OW33025   4.175   3.715   3.422  0.4967 -0.0398 -0.4630
 7130SOL    HW133026   4.223   3.674   3.351 -0.1841 -1.3337 -0.1877
 7130SOL    HW233027   4.118   3.783   3.387 -0.4481 -0.0983  0.9195
 7131SOL     OW33028   3.316   3.122   6.794  0.0135  0.0022 -0.2495
 7131SOL    HW133029   3.221   3.120   6.784  0.2196 -1.4651 -1.9561
 7131SOL    HW233030   3.354   3.209   6.782 -0.8143  0.4034  0.0112
 7132SOL     OW33031   1.113   4.377   2.288  0.4782  1.2503 -0.0534
 7132SOL    HW133032   1.048   4.311   2.314  1.1035  0.9485  0.7621
 7132SOL    HW233033   1.167   4.360   2.365 -0.7717 -2.3524  0.0379
 7133SOL     OW33034   4.686   0.534   9.750 -0.3666  0.0543 -0.2981
 7133SOL    HW133035   0.032   0.581   9.738  0.0735 -1.1150 -1.8409
 7133SOL    HW233036   4.718   0.444   9.743  1.7508  0.8193 -0.6226
 7134SOL     OW33037   1.965   4.255   1.971 -0.1468  0.4891 -0.4136
 7134SOL    HW133038   1.904   4.183   1.987  4.1887 -2.9740  0.6653
 7134SOL    HW233039   1.953   4.270   1.878 -0.0152 -4.1900 -1.1927
 7135SOL     OW33040   1.418   0.136   6.532 -0.3886 -0.3900  0.4989
 7135SOL    HW133041   1.471   0.123   6.454 -0.0149  0.2091  0.6540
 7135SOL    HW233042   1.427   0.230   6.544  0.4642 -0.0499 -2.9544
 7136SOL     OW33043   2.939   1.074  13.938 -0.3342  0.4784  0.0311
 7136SOL    HW133044   2.988   1.025  14.004 -0.5524 -0.8058 -0.7680
 7136SOL    HW233045   2.958   1.019  13.862  1.8562 -1.3040  1.8622
 7137SOL     OW33046   2.238   4.211  15.507  0.1262 -0.8001  0.5102
 7137SOL    HW133047   2.274   4.258  15.582  1.7064 -2.1950  0.6376
 7137SOL    HW233048   2.259   4.123  15.538 -0.1025 -1.4462 -1.1631
 7138SOL     OW33049   4.039   3.365   1.845 -0.4909  0.1699  0.2056
 7138SOL    HW133050   4.046   3.413   1.928 -0.8942 -1.4074  1.1549
 7138SOL    HW233051   3.947   3.388   1.830  0.0905  1.2430 -1.7344
 7139SOL     OW33052   3.073   2.325   8.124 -0.0773  0.4475  0.1108
 7139SOL    HW133053   2.989   2.287   8.149  0.1870 -0.3060 -0.1520
 7139SOL    HW233054   3.112   2.253   8.075 -1.1154 -0.3564  0.4672
 7140SOL     OW33055   0.825   3.757   1.632 -0.3897  0.0052  0.3052
 7140SOL    HW133056   0.817   3.778   1.539  1.6921 -0.1193  0.0993
 7140SOL    HW233057   0.858   3.837   1.674 -2.0717  1.6363 -1.4840
 7141SOL     OW33058   0.125   0.278   3.414 -0.0636 -0.5542 -0.4514
 7141SOL    HW133059   0.144   0.286   3.321  1.7194  3.2684  0.2141
 7141SOL    HW233060   0.035   0.311   3.416  0.5644  1.1159  1.0648
 7142SOL     OW33061   3.952   3.095   7.286  0.5290  0.0055 -0.5224
 7142SOL    HW133062   3.930   3.015   7.238  3.7971  0.3765 -2.6000
 7142SOL    HW233063   3.866   3.137   7.290  0.9008  0.7566 -0.4581
 7143SOL     OW33064   2.883   0.386  10.305  0.1743  0.2218 -0.4081
 7143SOL    HW133065   2.936   0.387  10.384 -0.4007  0.3842 -0.0194
 7143SOL    HW233066   2.946   0.349  10.244 -0.5239 -0.9930 -0.3901
 7144SOL     OW33067   0.638   4.527   6.889 -0.7655 -0.0637  0.4450
 7144SOL    HW133068   0.565   4.537   6.951 -0.1692  0.5982  1.0384
 7144SOL    HW233069   0.706   4.571   6.940 -1.4282 -0.0193  1.2859
 7145SOL     OW33070   4.370   4.594   5.398  0.2538  0.0916  0.1743
 7145SOL    HW133071   4.334   4.680   5.377 -1.6129 -0.8375 -0.4200
 7145SOL    HW233072   4.457   4.588   5.359  0.9424  0.5135  1.6260
 7146SOL     OW33073   4.370   1.253   8.836  0.1757 -0.4567  0.8672
 7146SOL    HW133074   4.413   1.278   8.917  1.5082 -0.4405  0.1463
 7146SOL    HW233075   4.413   1.297   8.762  0.9628 -0.5755  1.2618
 7147SOL     OW33076   4.699   1.282   0.604  0.0270 -0.5604  0.6497
 7147SOL    HW133077   4.672   1.302   0.514  2.3657  0.3037  0.1176
 7147SOL    HW233078   0.058   1.289   0.601  0.0936 -1.6153  0.1834
 7148SOL     OW33079   0.625   0.169   4.432  0.2946 -0.6465  0.3424
 7148SOL    HW133080   0.551   0.122   4.471 -1.2444  0.1682 -1.6170
 7148SOL    HW233081   0.584   0.231   4.371  0.1674  0.2917  1.3805
 7149SOL     OW33082   0.095   3.219   4.228 -0.1084 -0.0446  0.2874
 7149SOL    HW133083   0.123   3.216   4.319 -0.8747 -0.4943  0.5124
 7149SOL    HW233084   0.098   3.126   4.206 -1.6350  0.2533 -1.2129
 7150SOL     OW33085   3.642   1.025   7.561 -0.2506  0.3734 -0.2263
 7150SOL    HW133086   3.668   0.949   7.614 -1.0176 -1.5212 -2.5591
 7150SOL    HW233087   3.553   1.035   7.596  0.2207 -0.0704  1.0880
 7151SOL     OW33088   2.354   2.062   9.341  0.3471 -0.3609 -0.7253
 7151SOL    HW133089   2.262   2.043   9.357  0.0572 -0.2024 -2.1663
 7151SOL    HW233090   2.377   2.112   9.419  0.9731  0.0922 -1.2013
 7152SOL     OW33091   0.255   1.341   5.930 -0.1135  0.5388  0.4990
 7152SOL    HW133092   0.233   1.403   5.999 -2.3404  0.4649 -0.1435
 7152SOL    HW233093   0.256   1.398   5.853 -0.3753  0.1831  0.2339
 7153SOL     OW33094   2.179   1.045   4.036 -0.3476 -0.3743 -0.0643
 7153SOL    HW133095   2.221   1.037   4.122 -0.8541  0.8965  0.2975
 7153SOL    HW233096   2.240   1.035   3.964 -1.6130 -1.1330 -1.0357
 7154SOL     OW33097   1.979   4.674   0.595 -0.7121 -0.3666  0.2547
 7154SOL    HW133098   1.956   4.588   0.632 -0.3020 -1.4971 -2.1167
 7154SOL    HW233099   2.072   4.675   0.617 -0.2290 -1.9254 -1.6344
 7155SOL     OW33100   1.435   3.905   4.969  0.1581 -0.7265  0.2087
 7155SOL    HW133101   1.420   3.904   5.064 -0.6629  0.9661  0.1017
 7155SOL    HW233102   1.342   3.921   4.950  0.2575 -0.3496  0.0381
 7156SOL     OW33103   1.696   2.170  16.942  0.2843 -0.5448 -0.1500
 7156SOL    HW133104   1.669   2.223  16.867  0.9727 -0.6363 -0.4538
 7156SOL    HW233105   1.757   2.224  16.992  0.9693 -2.3251  0.9345
 7157SOL     OW33106   0.392   3.063   3.219  0.0956 -0.6079  0.2297
 7157SOL    HW133107   0.461   3.021   3.270  0.5988  1.4735  1.2924
 7157SOL    HW233108   0.411   3.036   3.130  0.7661 -0.5989  0.3719
 7158SOL     OW33109   0.249   4.579  17.670 -0.4231  0.5714  0.0254
 7158SOL    HW133110   0.336   4.566  17.633 -1.3354  0.8379 -2.2131
 7158SOL    HW233111   0.197   4.608  17.595  2.1393  2.5186 -0.9656
 7159SOL     OW33112   2.818   1.337   2.155 -0.4296 -0.2446 -0.0068
 7159SOL    HW133113   2.736   1.306   2.116  0.1519 -2.0364  0.1633
 7159SOL    HW233114   2.783   1.409   2.207 -1.6865 -1.0162  0.2214
 7160SOL     OW33115   2.248   3.502   7.308 -0.7033  0.0329  0.2118
 7160SOL    HW133116   2.159   3.531   7.289 -0.8186  0.9668  2.1584
 7160SOL    HW233117   2.289   3.521   7.224 -1.4015 -1.9051 -0.5613
 7161SOL     OW33118   4.508   2.075   6.452 -0.1823 -0.2168 -0.1820
 7161SOL    HW133119   4.451   2.138   6.497  1.7765 -0.7155  3.0393
 7161SOL    HW233120   4.468   2.079   6.365  1.8400  0.3700 -1.0586
 7162SOL     OW33121   2.854   2.685   2.339  0.2827  0.0404 -0.0880
 7162SOL    HW133122   2.897   2.761   2.379  0.5100  0.3036 -0.8311
 7162SOL    HW233123   2.776   2.728   2.304  1.3879  1.6049 -0.6405
 7163SOL     OW33124   1.286   0.985   8.275  0.2341 -0.0032  0.0656
 7163SOL    HW133125   1.302   1.074   8.243  0.6294 -0.7954 -1.9654
 7163SOL    HW233126   1.268   0.934   8.196  0.7068  0.8211 -0.5763
 7164SOL     OW33127   1.339   1.554   5.446  0.8633  0.0557 -0.2546
 7164SOL    HW133128   1.292   1.550   5.529  1.1472  1.7363 -0.0007
 7164SOL    HW233129   1.272   1.581   5.384 -0.2637 -1.1765  0.4263
 7165SOL     OW33130   4.179   2.195   8.524  0.9377  0.7641  0.2152
 7165SOL    HW133131   4.201   2.173   8.434  0.4106 -3.6119  1.1192
 7165SOL    HW233132   4.260   2.192   8.575  0.0917 -3.1612  1.3802
 7166SOL     OW33133   3.420   1.315   8.916 -0.2970  0.1585  0.1799
 7166SOL    HW133134   3.473   1.391   8.894 -0.3399 -0.0515 -0.6664
 7166SOL    HW233135   3.366   1.308   8.837 -0.1175  0.9701 -0.0138
 7167SOL     OW33136   3.342   3.056  11.363 -0.1311 -0.2619 -0.6931
 7167SOL    HW133137   3.247   3.060  11.376 -0.1959  0.4186 -1.4256
 7167SOL    HW233138   3.347   2.982  11.302 -1.5181 -0.9578  0.0307
 7168SOL     OW33139   0.838   2.002   8.204  0.0217 -0.2005 -0.1849
 7168SOL    HW133140   0.924   1.987   8.164  1.0619  0.7758  1.7179
 7168SOL    HW233141   0.838   2.097   8.197 -1.2760 -0.1546  0.4913
 7169SOL     OW33142   0.155   3.235   2.296  0.4392  0.4787  0.3582
 7169SOL    HW133143   0.089   3.195   2.353  0.2057 -0.2292 -0.4028
 7169SOL    HW233144   0.203   3.295   2.353  1.5879 -0.4674  0.3776
 7170SOL     OW33145   4.401   1.180   4.253 -0.6356 -0.1321  0.1293
 7170SOL    HW133146   4.487   1.150   4.283 -0.9628  0.9098  2.1176
 7170SOL    HW233147   4.350   1.181   4.335 -2.7375  0.8691 -1.1982
 7171SOL     OW33148   1.775   2.396   2.724  0.2399  0.9255  0.3744
 7171SOL    HW133149   1.799   2.312   2.765 -1.0483 -0.2158 -1.2193
 7171SOL    HW233150   1.684   2.385   2.696  0.6894  1.3371 -1.2355
 7172SOL     OW33151   4.095   4.130   3.885  0.6798 -0.3343 -0.1515
 7172SOL    HW133152   4.080   4.076   3.807  0.5237 -3.0264  1.7547
 7172SOL    HW233153   4.180   4.164   3.859  1.8850 -1.0066  2.9725
 7173SOL     OW33154   3.785   1.860  16.236  0.0688  0.0224 -0.4043
 7173SOL    HW133155   3.793   1.949  16.270 -2.8054  0.3321 -0.5867
 7173SOL    HW233156   3.733   1.868  16.156  2.1312 -0.7221 -1.8358
 7174SOL     OW33157   0.174   4.030   5.493  0.5107  0.2351 -0.2029
 7174SOL    HW133158   0.242   3.965   5.475  0.3404  0.1197 -0.4191
 7174SOL    HW233159   0.134   4.032   5.407  0.2206 -0.5365 -0.0836
 7175SOL     OW33160   1.568   3.862   1.628  0.1874 -0.0470  0.2582
 7175SOL    HW133161   1.554   3.955   1.643 -0.7971  0.3872 -3.4311
 7175SOL    HW233162   1.661   3.855   1.652  0.0390 -0.5874  0.6843
 7176SOL     OW33163   3.242   1.458   8.367 -0.4708  0.0891  0.2411
 7176SOL    HW133164   3.285   1.399   8.305 -0.3479  0.1152  0.3029
 7176SOL    HW233165   3.303   1.462   8.441  1.0160  0.5569 -1.0178
 7177SOL     OW33166   1.498   1.531   2.206  0.5485  0.0215  0.2417
 7177SOL    HW133167   1.508   1.473   2.130 -2.1777  1.2198 -1.0478
 7177SOL    HW233168   1.454   1.605   2.164 -0.7141 -0.3341  0.9538
 7178SOL     OW33169   3.293   2.865   3.382  0.3957  0.0049 -0.7744
 7178SOL    HW133170   3.360   2.807   3.419  0.8252  1.1094  0.1753
 7178SOL    HW233171   3.282   2.821   3.298 -0.6421  0.7559 -1.0272
 7179SOL     OW33172   0.950   0.804  12.766  0.2990 -0.3072 -0.3652
 7179SOL    HW133173   0.957   0.825  12.673 -1.1723  1.2461 -0.1405
 7179SOL    HW233174   0.888   0.869  12.799  0.9729 -0.5211  1.3469
 7180SOL     OW33175   3.921   1.388   6.994  0.1766  0.4213 -0.7143
 7180SOL    HW133176   3.949   1.417   6.907 -1.2809  0.7112 -1.1000
 7180SOL    HW233177   3.862   1.455   7.029  0.5402  0.4193 -0.0990
 7181SOL     OW33178   0.795   0.574  15.083 -0.4408 -0.2461 -0.6461
 7181SOL    HW133179   0.768   0.665  15.073  1.3472  0.3378 -0.1625
 7181SOL    HW233180   0.782   0.557  15.176 -1.3429  1.4708 -0.4779
 7182SOL     OW33181   4.630   2.877  12.861 -0.6709 -0.7555  0.2211
 7182SOL    HW133182   4.635   2.947  12.926 -1.3223  0.3144 -0.8864
 7182SOL    HW233183   4.720   2.871  12.829  0.1777  1.1231  2.2207
 7183SOL     OW33184   0.741   2.791   5.005  0.0509  0.5728  0.0543
 7183SOL    HW133185   0.655   2.765   4.972  0.7023  0.7331 -1.7576
 7183SOL    HW233186   0.764   2.842   4.928  1.3943  0.7388  0.5583
 7184SOL     OW33187   3.195   0.576   4.768  0.1866 -0.1207 -0.5141
 7184SOL    HW133188   3.156   0.663   4.770  0.9537  0.2450 -1.7787
 7184SOL    HW233189   3.113   0.528   4.777 -1.1744  2.1085 -1.0355
 7185SOL     OW33190   4.490   3.125   0.965 -0.4027  0.1968 -0.0468
 7185SOL    HW133191   4.569   3.126   1.018 -0.8350  2.1421  0.5683
 7185SOL    HW233192   4.432   3.188   1.008 -0.0544  0.3297  0.2226
 7186SOL     OW33193   1.806   3.536   6.300 -0.6745  0.1209 -0.0579
 7186SOL    HW133194   1.886   3.524   6.352  1.2568  2.0420 -2.5965
 7186SOL    HW233195   1.815   3.467   6.234  1.3939  0.9659 -0.6701
 7187SOL     OW33196   0.152   1.665   6.343  0.1098  0.3342  0.2828
 7187SOL    HW133197   0.105   1.710   6.413  0.8404  0.5008  0.6656
 7187SOL    HW233198   0.234   1.713   6.351 -0.2252  0.9844 -0.2413
 7188SOL     OW33199   4.610   0.126   8.602 -0.1299 -0.3310  0.3652
 7188SOL    HW133200   4.601   0.121   8.698  0.2653  1.9878  0.5194
 7188SOL    HW233201   4.568   0.046   8.571 -1.1715 -0.4704  2.1028
 7189SOL     OW33202   3.159   2.607   8.177  0.4338 -0.2136 -0.7121
 7189SOL    HW133203   3.098   2.669   8.215 -0.3994 -1.2591 -0.3566
 7189SOL    HW233204   3.112   2.526   8.196  1.5053 -0.3372  1.4589
 7190SOL     OW33205   1.484   0.619  16.542  0.4774 -1.0236 -0.1266
 7190SOL    HW133206   1.436   0.608  16.624  1.6273 -0.9575  0.5623
 7190SOL    HW233207   1.479   0.715  16.535  0.0530 -1.0355  0.0385
 7191SOL     OW33208   1.306   3.000   2.815 -0.8512 -0.2181  0.4931
 7191SOL    HW133209   1.323   2.963   2.728 -0.2428 -1.0366  0.9635
 7191SOL    HW233210   1.273   3.088   2.797  0.0026 -0.1075 -0.5650
 7192SOL     OW33211   0.529   1.990   7.566 -0.0972  0.4843 -0.1445
 7192SOL    HW133212   0.599   2.008   7.503  0.3150 -1.8097 -0.3214
 7192SOL    HW233213   0.494   1.908   7.532 -0.7347 -0.0836  1.9432
 7193SOL     OW33214   1.965   2.534  11.982  0.3556 -0.0685 -0.4665
 7193SOL    HW133215   1.959   2.530  11.887 -1.5450  3.4995 -0.4896
 7193SOL    HW233216   1.935   2.623  11.998  0.6334 -0.2498  1.0713
 7194SOL     OW33217   2.898   4.053   5.213  0.1999  0.4389  0.0435
 7194SOL    HW133218   2.922   4.015   5.128  2.1821  2.3855 -0.2753
 7194SOL    HW233219   2.848   4.129   5.185  0.5024 -0.0462 -1.8408
 7195SOL     OW33220   2.263   4.394  12.045 -0.3118  0.3182  0.3657
 7195SOL    HW133221   2.180   4.356  12.074 -1.0456  1.9437  0.3821
 7195SOL    HW233222   2.234   4.485  12.038  0.3969  0.6676  1.8736
 7196SOL     OW33223   3.496   0.996   6.620  0.3271 -0.1986 -1.0355
 7196SOL    HW133224   3.577   0.951   6.595  1.4297  1.3682 -0.2835
 7196SOL    HW233225   3.502   1.073   6.564 -0.1274  0.3843 -0.2774
 7197SOL     OW33226   1.018   3.996   7.747  0.0486 -0.6389 -0.1337
 7197SOL    HW133227   0.937   4.034   7.782 -1.2988 -1.6473 -2.1342
 7197SOL    HW233228   1.072   4.074   7.749  0.3760 -0.8713  0.1123
 7198SOL     OW33229   2.979   0.241   9.595 -0.0592 -0.7176 -0.5279
 7198SOL    HW133230   2.917   0.217   9.664  1.9900 -0.6972  1.3029
 7198SOL    HW233231   2.925   0.266   9.519 -0.6702 -0.7662 -0.1138
 7199SOL     OW33232   2.729   0.684   5.515  0.3115 -0.8209  0.7773
 7199SOL    HW133233   2.649   0.696   5.464  2.4522  0.1008 -2.3526
 7199SOL    HW233234   2.744   0.596   5.480 -0.4376 -0.5199 -0.3080
 7200SOL     OW33235   3.539   3.920   5.409 -0.4436 -0.8721 -0.0762
 7200SOL    HW133236   3.507   3.850   5.353 -1.1712  0.1157 -0.8963
 7200SOL    HW233237   3.515   3.998   5.358  0.5451  0.5149  1.5626
 7201SOL     OW33238   1.169   1.623   5.212 -0.0845  0.3978 -0.9795
 7201SOL    HW133239   1.156   1.557   5.145 -3.4508  0.9943 -0.9206
 7201SOL    HW233240   1.241   1.672   5.172  1.1585 -2.4699 -2.2247
 7202SOL     OW33241   1.210   0.533   6.821  0.6829 -0.5665 -0.5592
 7202SOL    HW133242   1.147   0.466   6.845 -0.9478  1.3595  0.5175
 7202SOL    HW233243   1.251   0.554   6.905 -0.8447 -0.2379  0.1047
 7203SOL     OW33244   1.956   4.568   8.463  0.2146 -0.4251  0.3504
 7203SOL    HW133245   1.881   4.535   8.414 -0.4223  0.1587  0.9361
 7203SOL    HW233246   2.030   4.532   8.414  0.6645  0.4463  0.3797
 7204SOL     OW33247   1.638   3.280   4.678  0.2626  0.3371  0.7503
 7204SOL    HW133248   1.694   3.263   4.754 -1.2604  0.4370  1.8948
 7204SOL    HW233249   1.566   3.330   4.716  0.9125 -0.5095  3.1078
 7205SOL     OW33250   2.763   4.435  17.197 -0.5521 -0.2751  0.3813
 7205SOL    HW133251   2.681   4.471  17.230 -0.9022 -1.0540  0.3467
 7205SOL    HW233252   2.734   4.371  17.132 -0.7488  2.3138 -2.0824
 7206SOL     OW33253   3.577   0.582   9.106  0.7051  0.1139 -0.3591
 7206SOL    HW133254   3.492   0.621   9.127  0.2462 -0.6206 -0.8261
 7206SOL    HW233255   3.547   0.520   9.039 -1.7834  1.5479 -0.5825
 7207SOL     OW33256   4.715   4.643   2.526  0.0702  0.7747  0.1169
 7207SOL    HW133257   4.649   4.594   2.574  3.3116 -2.0251  1.6989
 7207SOL    HW233258   4.671   4.727   2.536  1.3357  1.4984 -0.3530
 7208SOL     OW33259   3.066   1.330   3.165 -0.0828 -0.4042 -0.1538
 7208SOL    HW133260   3.093   1.350   3.076 -0.6887  1.2282  0.0224
 7208SOL    HW233261   3.020   1.408   3.198  2.1055  0.4939  0.7844
 7209SOL     OW33262   0.132   2.953   3.599  0.0535 -0.0818  0.2466
 7209SOL    HW133263   0.101   2.910   3.520  0.9203  0.0517 -0.1719
 7209SOL    HW233264   0.225   2.971   3.585  0.5569 -1.0280  2.3215
 7210SOL     OW33265   1.855   0.790   7.956 -0.0434  0.4112  0.1959
 7210SOL    HW133266   1.780   0.786   8.015  0.3748 -1.2890  0.6095
 7210SOL    HW233267   1.923   0.757   8.014  1.0742  2.4979  0.0956
 7211SOL     OW33268   3.914   0.141  15.720 -0.0611  0.0178  0.5105
 7211SOL    HW133269   3.971   0.125  15.645 -1.3658 -1.9319 -0.0589
 7211SOL    HW233270   3.838   0.189  15.687 -0.9355 -0.0204  2.4799
 7212SOL     OW33271   1.467   1.056   3.933  0.1244 -0.2374  0.4525
 7212SOL    HW133272   1.471   1.043   4.028 -2.4751 -2.0248  0.3526
 7212SOL    HW233273   1.554   1.087   3.912 -0.0786  1.1945  1.7709
 7213SOL     OW33274   1.343   0.080  15.509 -0.0939  0.2105 -0.1524
 7213SOL    HW133275   1.264   0.099  15.459 -0.0826 -0.3694 -0.3872
 7213SOL    HW233276   1.301   0.056  15.592 -1.4455 -2.0175 -1.5125
 7214SOL     OW33277   0.202   1.020   1.218 -0.0231 -0.0207 -0.4343
 7214SOL    HW133278   0.166   1.010   1.306  0.1103  3.3223  0.0093
 7214SOL    HW233279   0.266   0.949   1.218  1.0001  0.8931  0.3310
 7215SOL     OW33280   1.780   3.706   7.185  0.1641  0.3853  0.6108
 7215SOL    HW133281   1.699   3.752   7.207 -0.3525  0.2981 -1.1568
 7215SOL    HW233282   1.836   3.782   7.174 -0.6113  0.5751 -1.9447
 7216SOL     OW33283   0.353   3.815  13.562 -0.1643  0.1692  0.7352
 7216SOL    HW133284   0.416   3.886  13.574 -1.0880  0.9289  1.0568
 7216SOL    HW233285   0.407   3.745  13.525 -1.5926 -1.0896  1.0515
 7217SOL     OW33286   2.419   4.190  12.480 -0.3436 -0.1870  0.0502
 7217SOL    HW133287   2.390   4.279  12.458 -0.0147 -0.5745 -1.9894
 7217SOL    HW233288   2.335   4.154  12.508  0.5886 -2.4915 -0.1740
 7218SOL     OW33289   1.820   3.880   2.842 -1.0485  0.3397 -0.2657
 7218SOL    HW133290   1.821   3.788   2.814  0.0016  0.5234 -0.8452
 7218SOL    HW233291   1.735   3.882   2.885 -1.1912 -1.5661 -0.4520
 7219SOL     OW33292   3.250   3.049   8.652 -0.2614 -0.3958 -0.5392
 7219SOL    HW133293   3.295   3.065   8.735 -1.8851  2.0497 -0.1380
 7219SOL    HW233294   3.193   3.126   8.654  2.7064  1.7292  2.0969
 7220SOL     OW33295   0.283   0.314  14.589  0.0525  0.3285  0.2419
 7220SOL    HW133296   0.360   0.271  14.551 -0.6548 -0.5713 -0.1637
 7220SOL    HW233297   0.294   0.401  14.549  2.9897 -0.2428 -0.2198
 7221SOL     OW33298   0.285   2.155   5.884 -0.3133 -0.0990 -0.1654
 7221SOL    HW133299   0.379   2.146   5.899 -0.8209 -1.9423  2.0012
 7221SOL    HW233300   0.266   2.069   5.847  1.6068 -1.0466  1.0227
 7222SOL     OW33301   1.632   3.590  13.516 -0.5374 -0.2135 -0.2906
 7222SOL    HW133302   1.631   3.648  13.592  1.8372 -0.1576 -0.3045
 7222SOL    HW233303   1.592   3.508  13.547 -0.3628 -1.0564 -2.3211
 7223SOL     OW33304   4.094   0.801   8.708  0.1089  0.1470  0.0700
 7223SOL    HW133305   4.025   0.845   8.758 -0.7814 -0.4106 -0.6560
 7223SOL    HW233306   4.169   0.854   8.736 -0.1889  0.1062  0.9553
 7224SOL     OW33307   0.690   2.427   4.096  0.7624  0.4275 -0.2202
 7224SOL    HW133308   0.690   2.396   4.005 -0.1510 -0.6318  0.1316
 7224SOL    HW233309   0.598   2.425   4.124  0.3368 -0.8186 -1.6768
 7225SOL     OW33310   3.453   3.435  17.317 -0.1739 -0.0612 -0.3044
 7225SOL    HW133311   3.494   3.471  17.238  0.7525  0.5858  0.4722
 7225SOL    HW233312   3.415   3.361  17.269  0.8984 -2.1082  2.0208
 7226SOL     OW33313   2.529   3.372   6.239  0.2896  0.3031 -0.1714
 7226SOL    HW133314   2.581   3.435   6.190  1.8229 -1.9037 -1.3873
 7226SOL    HW233315   2.557   3.384   6.330  2.1511  0.0586 -0.7182
 7227SOL     OW33316   3.778   3.023   1.199  0.6610 -0.5739  0.1614
 7227SOL    HW133317   3.761   2.982   1.284 -1.0812 -1.1171 -0.4530
 7227SOL    HW233318   3.781   2.953   1.134  0.4371 -0.1055 -0.3539
 7228SOL     OW33319   2.155   1.467   5.376 -1.0135  0.2061 -0.0070
 7228SOL    HW133320   2.190   1.379   5.368 -0.2784  0.6375 -1.5340
 7228SOL    HW233321   2.170   1.502   5.288 -3.4956 -0.8127 -0.8391
 7229SOL     OW33322   0.834   4.537   9.147  0.1570  0.4953 -0.5657
 7229SOL    HW133323   0.855   4.532   9.054 -0.6398 -0.7650 -0.6631
 7229SOL    HW233324   0.773   4.610   9.157 -1.9002 -1.3269  0.0539
 7230SOL     OW33325   0.299   1.299   9.158 -0.4047  0.2983 -0.1077
 7230SOL    HW133326   0.381   1.322   9.201  0.6857  0.1534 -2.0931
 7230SOL    HW233327   0.247   1.329   9.232 -2.4428 -0.4204 -1.2266
 7231SOL     OW33328   2.232   2.984   9.480 -0.4069 -0.7532 -0.0612
 7231SOL    HW133329   2.172   2.941   9.420 -0.6249  1.0388 -1.1300
 7231SOL    HW233330   2.222   3.071   9.441 -2.4134 -1.1405 -0.3859
 7232SOL     OW33331   1.339   0.525   3.823  0.1222  0.5540 -0.4560
 7232SOL    HW133332   1.249   0.535   3.793  0.1498  0.3025 -0.6271
 7232SOL    HW233333   1.352   0.613   3.856  0.1729 -0.6493  2.7772
 7233SOL     OW33334   3.988   1.536   2.563  0.8641  0.1746  0.2939
 7233SOL    HW133335   3.961   1.459   2.614 -0.2347  0.7758  0.6226
 7233SOL    HW233336   3.913   1.593   2.579 -0.3533 -1.2625 -0.3407
 7234SOL     OW33337   0.627   4.264  10.382 -0.7892 -0.6432 -0.0447
 7234SOL    HW133338   0.572   4.293  10.454  0.4048 -1.1061  1.0665
 7234SOL    HW233339   0.562   4.274  10.313 -0.4388 -0.9838 -0.4258
 7235SOL     OW33340   4.577   0.054  15.202  0.2413 -0.7708  0.4231
 7235SOL    HW133341   4.571   0.087  15.291  2.4906  2.0583 -0.4943
 7235SOL    HW233342   4.582   4.698  15.226  1.2725 -1.1763 -1.3547
 7236SOL     OW33343   3.580   1.957   2.945  0.2698  0.2329  0.1052
 7236SOL    HW133344   3.538   2.038   2.972  1.5183  1.0298 -0.3316
 7236SOL    HW233345   3.622   1.924   3.025 -0.6356  0.9075  0.8499
 7237SOL     OW33346   3.050   2.417  16.942  0.1831  0.3191 -0.2106
 7237SOL    HW133347   3.010   2.339  16.904 -1.6788  0.7633  0.8208
 7237SOL    HW233348   2.991   2.425  17.017  0.8735 -1.2147  0.4932
 7238SOL     OW33349   2.617   3.367   5.452 -0.3833  0.3007 -0.1200
 7238SOL    HW133350   2.571   3.427   5.510 -1.6424 -0.7971  0.0382
 7238SOL    HW233351   2.668   3.321   5.519 -0.3725 -0.7742 -0.8701
 7239SOL     OW33352   0.847   3.629  15.205  0.0401 -0.3057 -0.1991
 7239SOL    HW133353   0.780   3.562  15.218 -0.6857  0.5201  0.3170
 7239SOL    HW233354   0.796   3.705  15.174  2.0916  0.2995 -2.1049
 7240SOL     OW33355   4.600   4.241   8.841  0.0072 -0.1023  0.6384
 7240SOL    HW133356   4.506   4.238   8.858 -0.0247 -2.4429  0.0645
 7240SOL    HW233357   4.611   4.159   8.793  0.2587  0.8287 -0.8851
 7241SOL     OW33358   4.022   3.733   6.358 -0.0228  0.7050 -0.4350
 7241SOL    HW133359   4.028   3.741   6.453  1.2142 -3.3829 -0.1389
 7241SOL    HW233360   4.062   3.819   6.346  0.7791  0.0883 -2.1468
 7242SOL     OW33361   0.934   4.083   4.829  0.1577  0.7183  0.0296
 7242SOL    HW133362   0.903   4.174   4.826  1.3905  1.1461  0.2012
 7242SOL    HW233363   0.924   4.056   4.737 -2.6874 -1.2542  0.9418
 7243SOL     OW33364   0.385   0.666  16.670 -0.6516 -0.2127 -0.2215
 7243SOL    HW133365   0.305   0.616  16.682 -1.2996  0.7455 -0.5224
 7243SOL    HW233366   0.355   0.754  16.644 -0.8146 -0.5201 -1.0747
 7244SOL     OW33367   2.996   4.163  12.402 -0.1144  0.3002  0.0827
 7244SOL    HW133368   3.046   4.233  12.444 -1.2255  1.8415 -1.1705
 7244SOL    HW233369   3.045   4.149  12.320 -1.4487 -0.1250 -0.6403
 7245SOL     OW33370   3.552   3.020  12.783 -0.1360 -0.0830 -1.1412
 7245SOL    HW133371   3.581   3.101  12.743 -1.7986  1.9204  1.7133
 7245SOL    HW233372   3.463   3.012  12.751  0.1152  1.2944 -2.1504
 7246SOL     OW33373   4.497   2.723   5.771  0.6650  0.4027  0.2330
 7246SOL    HW133374   4.450   2.683   5.843 -0.1952  1.0154  0.0209
 7246SOL    HW233375   4.510   2.654   5.706 -1.0920  0.3182 -0.0273
 7247SOL     OW33376   0.853   3.550   4.704  0.4390  0.3409  0.4756
 7247SOL    HW133377   0.901   3.570   4.784 -0.0709 -1.0829  1.1405
 7247SOL    HW233378   0.917   3.489   4.667 -0.2271 -1.2762  1.9641
 7248SOL     OW33379   1.830   2.274  14.000 -0.2911 -0.2022 -0.2420
 7248SOL    HW133380   1.913   2.265  13.954 -0.3119 -1.9505  0.0546
 7248SOL    HW233381   1.795   2.335  13.935 -0.3992 -0.4542 -0.4182
 7249SOL     OW33382   3.566   3.623  17.574 -0.1476  0.1701 -0.1725
 7249SOL    HW133383   3.476   3.656  17.579 -0.1894  0.2543 -1.5004
 7249SOL    HW233384   3.559   3.592  17.484  0.3741 -0.8509  0.1387
 7250SOL     OW33385   4.406   3.701   9.386 -0.1877 -0.3601 -0.0083
 7250SOL    HW133386   4.337   3.686   9.451  0.7834 -0.2061  1.0574
 7250SOL    HW233387   4.473   3.734   9.446  0.2250 -0.4133 -0.4331
 7251SOL     OW33388   3.803   0.259   7.701  0.1566  0.0886  0.3792
 7251SOL    HW133389   3.878   0.253   7.642 -0.6516 -1.8397 -0.4421
 7251SOL    HW233390   3.835   0.340   7.742 -1.1340 -0.7637  3.1089
 7252SOL     OW33391   2.030   1.045   3.012 -0.5050  0.5773  0.1491
 7252SOL    HW133392   2.048   0.962   2.968 -0.6022 -0.2393  1.6744
 7252SOL    HW233393   2.068   1.108   2.951 -1.6354  2.7394  1.6787
 7253SOL     OW33394   4.011   2.975  11.060  0.5202  0.4360  0.3257
 7253SOL    HW133395   4.012   2.929  10.977 -1.3702 -1.5125  1.4101
 7253SOL    HW233396   4.037   3.066  11.044 -1.9688  1.5459  2.5296
 7254SOL     OW33397   4.725   2.123   3.697  0.6167  0.6989  0.1008
 7254SOL    HW133398   0.067   2.139   3.749  1.1712  0.2468 -0.6061
 7254SOL    HW233399   4.685   2.044   3.733  1.6291  0.0598 -0.1793
 7255SOL     OW33400   0.531   2.886  11.506 -0.5281 -0.3467 -0.3600
 7255SOL    HW133401   0.466   2.910  11.440 -2.6545  0.6874  2.1238
 7255SOL    HW233402   0.615   2.893  11.461  0.3846  1.8931  1.7184
 7256SOL     OW33403   2.061   3.389  17.410  0.2036 -0.1856 -0.2311
 7256SOL    HW133404   2.030   3.310  17.364  0.4335 -0.3247 -0.1457
 7256SOL    HW233405   2.138   3.412  17.358  0.9411  0.3455  1.1045
 7257SOL     OW33406   4.489   1.953   6.841  0.2265 -0.0174  0.2234
 7257SOL    HW133407   4.446   1.905   6.912 -0.0945  1.3450  0.9470
 7257SOL    HW233408   4.545   1.891   6.794 -1.6746 -1.4066 -0.1949
 7258SOL     OW33409   4.212   4.064  15.098 -0.0680  0.0277  0.4813
 7258SOL    HW133410   4.302   4.046  15.126  1.5065  2.2644 -3.2173
 7258SOL    HW233411   4.162   4.007  15.157 -2.1381 -0.0271 -1.3219
 7259SOL     OW33412   2.822   2.321  15.595 -0.4114 -0.0677  0.3861
 7259SOL    HW133413   2.841   2.305  15.502 -1.1620 -2.3179  0.5966
 7259SOL    HW233414   2.883   2.393  15.610 -1.7421  1.2138 -0.3221
 7260SOL     OW33415   0.690   2.173   4.625  0.0173 -0.4373  0.2448
 7260SOL    HW133416   0.698   2.089   4.670  0.5109 -0.2902  0.4445
 7260SOL    HW233417   0.614   2.164   4.569  0.4696  1.1024 -0.6192
 7261SOL     OW33418   1.190   3.488   5.954  0.2150  0.4849 -0.1208
 7261SOL    HW133419   1.235   3.405   5.936  1.0318  0.9559 -0.2547
 7261SOL    HW233420   1.119   3.456   6.009 -2.0443  2.6016 -1.8665
 7262SOL     OW33421   0.176   2.166   2.855  0.8480 -0.7074 -0.4815
 7262SOL    HW133422   0.162   2.178   2.761 -4.4632  0.6889  0.4997
 7262SOL    HW233423   0.266   2.191   2.875  0.7664 -1.4262  0.7536
 7263SOL     OW33424   3.375   1.523   5.107  0.2221  0.5300  0.0530
 7263SOL    HW133425   3.427   1.572   5.043  2.2234 -0.8291  0.6672
 7263SOL    HW233426   3.388   1.588   5.176 -0.1405  2.3171 -1.5520
 7264SOL     OW33427   2.011   3.117  15.236 -0.0812  0.0325 -0.2501
 7264SOL    HW133428   2.092   3.081  15.199 -0.4183 -0.3185 -0.6351
 7264SOL    HW233429   2.044   3.165  15.312  1.5472 -0.2689 -0.7630
 7265SOL     OW33430   4.611   2.072   0.251  0.0819 -0.5553  0.1909
 7265SOL    HW133431   4.572   2.035   0.331 -0.7367  1.7339  0.8412
 7265SOL    HW233432   4.684   2.119   0.292 -0.6299  0.6302  0.0741
 7266SOL     OW33433   2.171   0.998  13.113  0.3474 -0.3907  0.4628
 7266SOL    HW133434   2.257   1.041  13.110  1.5320 -2.8487 -1.0889
 7266SOL    HW233435   2.189   0.944  13.191 -0.9245 -0.2739  0.8295
 7267SOL     OW33436   3.479   4.393  11.786 -0.4101  0.3217 -0.4417
 7267SOL    HW133437   3.535   4.372  11.860  0.7429  3.2046 -0.4819
 7267SOL    HW233438   3.531   4.460  11.743 -0.1787 -0.1104 -0.8336
 7268SOL     OW33439   1.862   3.443   7.686 -0.4833 -0.1661  0.5406
 7268SOL    HW133440   1.815   3.525   7.675 -3.1398 -1.6511  0.7103
 7268SOL    HW233441   1.951   3.475   7.673 -1.0526  0.4748 -1.7251
 7269SOL     OW33442   1.225   3.975   7.057  0.0001 -0.3585 -0.4940
 7269SOL    HW133443   1.177   4.036   7.001 -0.5790 -0.3698 -0.0095
 7269SOL    HW233444   1.157   3.926   7.102  0.7126 -0.6956  0.2087
 7270SOL     OW33445   3.621   4.679  17.082 -0.1035 -0.3583  0.0610
 7270SOL    HW133446   3.670   0.024  17.089 -1.9875  0.6297  1.4676
 7270SOL    HW233447   3.566   4.683  17.160 -0.4329  1.7611 -0.3024
 7271SOL     OW33448   2.009   4.067   6.510 -0.0293  0.1655  0.5326
 7271SOL    HW133449   1.932   4.024   6.473  0.5195 -0.1903 -0.1916
 7271SOL    HW233450   2.076   3.998   6.512  1.9519  2.0829  0.5586
 7272SOL     OW33451   2.481   3.743  17.588 -0.0263 -0.4713  0.7109
 7272SOL    HW133452   2.416   3.801  17.629  0.9079 -0.2054  1.8183
 7272SOL    HW233453   2.447   3.752  17.499  2.0514 -0.0311 -0.0383
 7273SOL     OW33454   3.019   2.569   3.115  0.5925  0.0892  0.4207
 7273SOL    HW133455   2.934   2.525   3.116  0.0455  1.0775 -1.9936
 7273SOL    HW233456   3.016   2.636   3.183 -1.0385  2.7001 -2.2124
 7274SOL     OW33457   3.177   1.582   9.744 -0.5036  0.0703  0.4527
 7274SOL    HW133458   3.181   1.641   9.819  0.5918  0.3290  0.1937
 7274SOL    HW233459   3.137   1.502   9.780  1.1949 -1.4576 -1.0631
 7275SOL     OW33460   2.937   4.707  11.742  0.3279 -0.9393  0.7570
 7275SOL    HW133461   3.023   4.698  11.700  0.0294  1.7572 -0.4002
 7275SOL    HW233462   2.899   0.048  11.701  0.7833 -0.7650  0.6681
 7276SOL     OW33463   4.567   4.451  13.844 -0.8428 -0.0719  0.0598
 7276SOL    HW133464   4.491   4.473  13.790  0.6209  0.7276 -1.6618
 7276SOL    HW233465   4.534   4.367  13.876 -1.9620 -0.0057 -0.9288
 7277SOL     OW33466   0.379   2.564   2.315  0.3499 -0.2041 -0.4372
 7277SOL    HW133467   0.443   2.630   2.342  0.6779 -0.0028 -1.7157
 7277SOL    HW233468   0.381   2.509   2.393  2.9750  0.0996 -0.2818
 7278SOL     OW33469   3.137   1.852   4.325  0.4753  0.5412 -0.3691
 7278SOL    HW133470   3.048   1.870   4.295  0.6383  1.7526 -0.1566
 7278SOL    HW233471   3.179   1.846   4.239  2.0843 -2.4314  0.6413
 7279SOL     OW33472   0.482   3.165  12.139  0.2714  0.1192 -0.4475
 7279SOL    HW133473   0.528   3.119  12.210  1.0405  2.3329  0.4891
 7279SOL    HW233474   0.435   3.088  12.106 -2.8711  1.1800  1.5456
 7280SOL     OW33475   1.452   1.965   2.372  0.0351  0.2103 -0.2152
 7280SOL    HW133476   1.460   2.010   2.456 -1.1272  0.8243 -0.4297
 7280SOL    HW233477   1.507   2.029   2.327  0.0977 -0.2100 -0.7436
 7281SOL     OW33478   4.691   1.413   3.946 -0.1895  0.1401  0.1210
 7281SOL    HW133479   4.689   1.418   4.042  1.5919  1.5209  0.0877
 7281SOL    HW233480   4.608   1.371   3.925 -0.4048  1.8599 -2.4864
 7282SOL     OW33481   2.316   1.160  12.040 -0.4976  0.8594  0.0584
 7282SOL    HW133482   2.396   1.183  12.088 -0.9729  1.6063  0.4796
 7282SOL    HW233483   2.285   1.246  12.012  1.3034  1.1254 -1.1068
 7283SOL     OW33484   2.796   0.632   3.432 -0.2793 -0.6191 -0.1896
 7283SOL    HW133485   2.828   0.661   3.347 -0.0430 -1.8857 -0.5276
 7283SOL    HW233486   2.788   0.714   3.480  1.4732 -0.4392 -0.2058
 7284SOL     OW33487   3.015   0.605  15.449 -0.0731  0.1052 -0.0127
 7284SOL    HW133488   3.102   0.641  15.437  0.3967 -0.8702  0.4664
 7284SOL    HW233489   2.992   0.650  15.531  1.5605 -0.6892  0.8813
 7285SOL     OW33490   0.856   1.487   1.463 -0.1278 -0.6581  0.2894
 7285SOL    HW133491   0.935   1.520   1.505  0.4117 -2.1425  0.4319
 7285SOL    HW233492   0.864   1.523   1.374  1.5647  1.2727  1.2215
 7286SOL     OW33493   0.190   0.956   2.800 -0.2129 -0.4141 -0.0141
 7286SOL    HW133494   0.133   0.965   2.724 -0.5837 -1.5380  0.1297
 7286SOL    HW233495   0.164   0.867   2.824 -1.9372  0.0251 -0.3142
 7287SOL     OW33496   4.143   4.128   6.746 -0.2263 -0.1107  0.2201
 7287SOL    HW133497   4.139   4.187   6.822  2.1938  3.0112 -2.0804
 7287SOL    HW233498   4.093   4.178   6.682  0.3583  1.0554  0.6785
 7288SOL     OW33499   0.090   1.631   2.982  0.2302 -0.1206 -0.7695
 7288SOL    HW133500   0.003   1.627   2.941  0.1736 -1.4712 -0.5271
 7288SOL    HW233501   0.153   1.644   2.911  2.5473  4.8260  2.2304
 7289SOL     OW33502   3.455   0.515   6.429 -0.1857 -1.1089  0.4957
 7289SOL    HW133503   3.453   0.429   6.471  0.1072 -0.3898  1.9590
 7289SOL    HW233504   3.497   0.488   6.346 -0.7040  0.2760 -0.2100
 7290SOL     OW33505   0.963   1.153   3.427 -0.0702  0.5964 -0.2005
 7290SOL    HW133506   0.974   1.198   3.511  0.5967 -0.0879  0.0661
 7290SOL    HW233507   1.034   1.090   3.430 -0.8249 -0.2049  0.9004
 7291SOL     OW33508   1.314   3.731  12.255  0.5315  0.0125 -0.8911
 7291SOL    HW133509   1.323   3.670  12.328 -1.4876  1.2285  0.3791
 7291SOL    HW233510   1.403   3.764  12.238 -0.1190  1.8715 -0.6318
 7292SOL     OW33511   4.293   3.446   7.888 -0.2218 -0.0013  0.0013
 7292SOL    HW133512   4.306   3.352   7.902  0.0053 -0.2685 -1.9555
 7292SOL    HW233513   4.326   3.489   7.967 -0.5722 -0.0844  0.1926
 7293SOL     OW33514   2.290   4.585   7.593  0.2558  0.1612 -0.2344
 7293SOL    HW133515   2.289   4.643   7.517 -0.0071  0.1283 -0.2558
 7293SOL    HW233516   2.377   4.545   7.586  0.2003 -0.2470  1.3799
 7294SOL     OW33517   0.740   1.699  10.476 -0.1000 -0.2041  0.3585
 7294SOL    HW133518   0.706   1.625  10.526 -1.6601 -1.1383 -2.0642
 7294SOL    HW233519   0.676   1.769  10.478  0.4547  0.3136 -0.2189
 7295SOL     OW33520   4.333   0.925   3.950  0.2006 -0.0295  0.5399
 7295SOL    HW133521   4.421   0.956   3.973 -0.4922  1.0745  1.7105
 7295SOL    HW233522   4.277   1.003   3.949 -0.4743 -0.5567 -1.3393
 7296SOL     OW33523   2.509   2.841   1.959 -0.3126 -0.1824  0.6060
 7296SOL    HW133524   2.558   2.865   1.880 -0.0254  0.4112  0.9552
 7296SOL    HW233525   2.466   2.762   1.927  0.0151 -0.1216  0.0224
 7297SOL     OW33526   4.296   4.523   5.655  0.4476  0.8165 -0.5671
 7297SOL    HW133527   4.308   4.542   5.562 -0.6956 -0.8302 -1.0469
 7297SOL    HW233528   4.216   4.567   5.682 -0.4157 -1.7379  1.0951
 7298SOL     OW33529   2.253   3.189  13.560  0.1094  0.0282 -0.5254
 7298SOL    HW133530   2.236   3.096  13.544  0.6374 -0.1827  0.1591
 7298SOL    HW233531   2.206   3.213  13.639  0.8467  0.8455 -0.3403
 7299SOL     OW33532   1.760   1.320   1.190 -0.3904  0.0212  0.2619
 7299SOL    HW133533   1.751   1.230   1.159 -0.4081  0.1200 -0.0208
 7299SOL    HW233534   1.746   1.300   1.283 -0.7768  0.5909  0.3235
 7300SOL     OW33535   0.916   0.889   8.832 -0.3113  0.0550  0.0700
 7300SOL    HW133536   0.884   0.977   8.818 -0.8029  0.2114  2.2045
 7300SOL    HW233537   0.975   0.857   8.763  0.5947 -2.9539  2.2433
 7301SOL     OW33538   2.323   0.339  10.021 -1.0326  0.6048 -0.1160
 7301SOL    HW133539   2.306   0.355   9.928 -1.7463  0.5962  0.0181
 7301SOL    HW233540   2.329   0.432  10.046 -0.5623  0.2657  1.0469
 7302SOL     OW33541   3.776   4.344  11.319 -0.1883  0.0055  0.0700
 7302SOL    HW133542   3.759   4.327  11.227  1.0806 -0.8031 -0.0158
 7302SOL    HW233543   3.761   4.438  11.332 -0.6423 -0.0107 -0.3477
 7303SOL     OW33544   3.699   3.370   3.305  0.5313 -0.0549 -0.0879
 7303SOL    HW133545   3.631   3.417   3.257  1.2952  0.8625 -0.2662
 7303SOL    HW233546   3.643   3.310   3.354  0.5948 -0.0004  0.0491
 7304SOL     OW33547   2.122   0.079   5.178 -0.1832  0.3459  0.5974
 7304SOL    HW133548   2.120   0.017   5.105 -1.4301 -1.1012  1.8683
 7304SOL    HW233549   2.167   0.145   5.125 -1.9283  0.8932 -0.2007
 7305SOL     OW33550   2.802   3.089   6.838 -0.2715  0.2464  0.0107
 7305SOL    HW133551   2.738   3.158   6.855 -1.4661 -0.8692  0.0486
 7305SOL    HW233552   2.845   3.075   6.922  0.3425  2.0482  0.0077
 7306SOL     OW33553   3.613   3.330   9.364  0.3320  0.2490  0.3997
 7306SOL    HW133554   3.595   3.257   9.305  2.3205 -0.1184  0.2529
 7306SOL    HW233555   3.542   3.386   9.333  0.7577  1.6725  2.0075
 7307SOL     OW33556   1.565   3.030   9.474  0.5187 -0.0904 -0.4710
 7307SOL    HW133557   1.582   2.967   9.544 -0.5981 -0.1739 -0.2736
 7307SOL    HW233558   1.648   3.041   9.427  0.7964 -0.0446  0.0251
 7308SOL     OW33559   2.341   4.089   1.503 -0.4216  0.1336  0.0540
 7308SOL    HW133560   2.414   4.031   1.527  0.4858  2.1161  2.0304
 7308SOL    HW233561   2.387   4.145   1.441  0.7654 -0.1518  0.6751
 7309SOL     OW33562   3.987   3.348   8.702 -0.5157  0.0034 -0.0708
 7309SOL    HW133563   3.909   3.307   8.741  0.1028  0.4002  1.5700
 7309SOL    HW233564   3.980   3.432   8.748  3.2985  1.2147 -1.7599
 7310SOL     OW33565   4.043   1.775   5.031  0.0208  0.2835  0.3386
 7310SOL    HW133566   3.977   1.805   4.968 -0.0907 -2.4200 -0.8496
 7310SOL    HW233567   4.061   1.685   5.001  1.2241  0.8380 -0.5822
 7311SOL     OW33568   0.223   1.193   7.399 -0.5112  0.1972 -0.0664
 7311SOL    HW133569   0.235   1.102   7.426 -1.7857  0.2265  0.6106
 7311SOL    HW233570   0.174   1.193   7.316  1.2465  0.4342 -1.0982
 7312SOL     OW33571   3.129   2.604  13.282 -0.0592  0.3446  0.7087
 7312SOL    HW133572   3.116   2.599  13.376  3.0406  0.1330  1.1209
 7312SOL    HW233573   3.220   2.632  13.277 -0.5915  1.7246 -1.5791
 7313SOL     OW33574   0.810   1.714  14.689  0.5151  0.0485 -0.2446
 7313SOL    HW133575   0.843   1.786  14.743  0.1510 -1.0620  1.4271
 7313SOL    HW233576   0.744   1.679  14.747  1.3083 -1.0544 -0.0115
 7314SOL     OW33577   0.993   2.477   4.969  0.1174 -0.1339  0.7397
 7314SOL    HW133578   0.967   2.436   5.052  1.4328 -1.1848  0.6419
 7314SOL    HW233579   0.915   2.458   4.916  1.9114  2.3384 -2.7375
 7315SOL     OW33580   4.016   0.143   7.271  0.1356  0.0600 -0.3096
 7315SOL    HW133581   3.934   0.093   7.267 -1.7147  3.1047 -0.3006
 7315SOL    HW233582   4.082   0.078   7.245  0.3130  1.0878 -2.4445
 7316SOL     OW33583   0.747   2.354   6.934 -0.0632 -0.1423 -0.0230
 7316SOL    HW133584   0.707   2.435   6.901  1.9277  0.7244 -0.2673
 7316SOL    HW233585   0.817   2.350   6.869 -0.3636 -0.2645 -0.3395
 7317SOL     OW33586   1.707   0.809  12.422  0.7204  0.4064 -0.0165
 7317SOL    HW133587   1.617   0.837  12.407  1.0959  1.9451  0.5553
 7317SOL    HW233588   1.757   0.890  12.438 -1.1121  1.4368  0.4509
 7318SOL     OW33589   4.652   4.158   7.926  0.0854  0.1248  0.1598
 7318SOL    HW133590   4.698   4.077   7.903 -3.2723 -2.0366  1.1596
 7318SOL    HW233591   4.676   4.156   8.019 -0.3023  4.7234  0.3369
 7319SOL     OW33592   1.844   0.120   5.215 -0.3120  1.1751 -0.3418
 7319SOL    HW133593   1.935   0.133   5.191  0.3096  0.7296  1.7401
 7319SOL    HW233594   1.838   0.026   5.204 -1.5086  1.1806  0.2130
 7320SOL     OW33595   0.343   4.461   3.090  0.2589 -0.8108  0.5162
 7320SOL    HW133596   0.349   4.367   3.108  0.0392 -1.0838 -0.8495
 7320SOL    HW233597   0.416   4.473   3.029 -1.1674  2.4504 -0.5071
 7321SOL     OW33598   1.078   2.016   4.793  0.0243 -0.1328 -0.1991
 7321SOL    HW133599   1.007   2.059   4.745  0.6809  0.1458 -0.9169
 7321SOL    HW233600   1.062   2.049   4.881  2.1699 -2.0351  0.8807
 7322SOL     OW33601   0.404   2.518  10.885  0.1969 -0.4699  0.1280
 7322SOL    HW133602   0.486   2.542  10.929 -0.4871  1.3930  0.3868
 7322SOL    HW233603   0.346   2.590  10.910  2.2909  0.5655  2.0765
 7323SOL     OW33604   3.837   1.277  13.322  0.4293 -0.6804  0.1144
 7323SOL    HW133605   3.878   1.192  13.334 -0.6014 -1.2976 -0.7611
 7323SOL    HW233606   3.908   1.337  13.345 -1.1914  1.1557  0.4435
 7324SOL     OW33607   1.030   0.940  14.470  0.0027 -0.5451  0.0396
 7324SOL    HW133608   0.965   1.003  14.502 -0.3889 -0.8448 -0.1681
 7324SOL    HW233609   1.020   0.876  14.540 -1.8155 -0.6475 -0.3046
 7325SOL     OW33610   2.832   2.748   8.642  0.1502 -0.2966 -0.7010
 7325SOL    HW133611   2.850   2.763   8.735  3.3821 -3.0419 -0.8940
 7325SOL    HW233612   2.888   2.815   8.603 -0.4954 -0.4856 -1.9527
 7326SOL     OW33613   4.302   3.934   7.644  0.4633  0.3794 -0.4331
 7326SOL    HW133614   4.212   3.903   7.643  1.0744 -1.3406 -1.7052
 7326SOL    HW233615   4.353   3.859   7.612 -4.4853 -2.5945 -1.2557
 7327SOL     OW33616   4.197   2.007   9.581 -0.2344 -0.3418  0.3549
 7327SOL    HW133617   4.165   2.083   9.628 -1.7007  0.1753 -1.4746
 7327SOL    HW233618   4.251   1.962   9.646 -2.5108 -1.1460  1.6733
 7328SOL     OW33619   0.835   2.785   9.563  0.0688 -0.3205  0.1840
 7328SOL    HW133620   0.744   2.757   9.574 -0.1697  0.7458  0.9628
 7328SOL    HW233621   0.873   2.710   9.518  0.6017 -0.4383  0.8194
 7329SOL     OW33622   0.370   3.302   7.091 -0.0752 -0.3578  0.0174
 7329SOL    HW133623   0.339   3.326   7.004 -0.8342 -1.9089 -0.1438
 7329SOL    HW233624   0.320   3.223   7.113  0.6779 -0.7663  0.2653
 7330SOL     OW33625   3.146   4.183   6.550  0.1178  0.3802 -0.1619
 7330SOL    HW133626   3.074   4.166   6.489 -2.9648  1.5798  3.1441
 7330SOL    HW233627   3.189   4.098   6.538  1.6682  1.4351 -2.0479
 7331SOL     OW33628   2.489   2.994  13.550 -0.3526 -0.3182 -0.4156
 7331SOL    HW133629   2.537   3.072  13.522  1.3811 -0.8366  1.0752
 7331SOL    HW233630   2.468   3.010  13.642 -0.4473 -0.6825 -0.3768
 7332SOL     OW33631   2.727   0.742   2.832  0.4876 -0.0116  0.2353
 7332SOL    HW133632   2.700   0.723   2.742  4.3584  0.8880 -1.1241
 7332SOL    HW233633   2.759   0.658   2.863 -0.9476 -0.9862 -0.9542
 7333SOL     OW33634   3.920   2.352  10.642 -0.2403 -0.0304 -0.2607
 7333SOL    HW133635   4.000   2.321  10.684 -0.9329 -0.8725  0.4193
 7333SOL    HW233636   3.898   2.294  10.570  0.7574 -0.7753  0.0385
 7334SOL     OW33637   0.970   2.483   6.838 -0.0324 -0.6679  0.4332
 7334SOL    HW133638   0.978   2.551   6.771  0.8009 -1.3588 -0.1667
 7334SOL    HW233639   0.986   2.533   6.918  0.5836  0.2864 -0.2802
 7335SOL     OW33640   4.259   4.511   2.027  0.0696  0.2369 -0.5947
 7335SOL    HW133641   4.305   4.568   2.088 -1.4144  0.9801 -0.1645
 7335SOL    HW233642   4.286   4.538   1.939  0.6290  0.7379 -0.2670
 7336SOL     OW33643   3.075   4.697  15.862 -0.1297  0.1099 -0.4527
 7336SOL    HW133644   3.020   4.619  15.867  0.3358 -0.1417  0.8794
 7336SOL    HW233645   3.151   4.659  15.907  1.5123  1.4711 -2.0666
 7337SOL     OW33646   1.674   1.144  13.618 -0.6163 -0.1552 -0.2268
 7337SOL    HW133647   1.699   1.126  13.528  2.4673  1.3505  0.3320
 7337SOL    HW233648   1.721   1.078  13.668  1.4081  0.3839 -1.4322
 7338SOL     OW33649   2.984   3.828   8.653  0.5955 -0.2743  0.2306
 7338SOL    HW133650   3.019   3.840   8.742 -0.4857 -1.1381  0.7838
 7338SOL    HW233651   2.918   3.763   8.677 -0.3426 -0.8764 -4.1126
 7339SOL     OW33652   2.896   3.089   5.373  0.2793 -0.2211  0.5345
 7339SOL    HW133653   2.841   3.135   5.437  1.7928  0.9712  0.9696
 7339SOL    HW233654   2.865   3.111   5.286 -1.6074  2.1586  1.8114
 7340SOL     OW33655   3.109   0.355   8.003 -0.2744 -0.2525  0.3858
 7340SOL    HW133656   3.057   0.431   8.028  1.8469  2.0605 -2.2218
 7340SOL    HW233657   3.175   0.410   7.960 -0.4557 -1.0341 -0.8591
 7341SOL     OW33658   3.347   0.876  13.736  0.2613  0.0875 -0.2076
 7341SOL    HW133659   3.375   0.915  13.653 -0.3054 -0.1040 -0.4888
 7341SOL    HW233660   3.370   0.785  13.720  2.5392  1.0048 -2.0922
 7342SOL     OW33661   1.579   4.467   2.116 -0.6500  0.5799 -0.4630
 7342SOL    HW133662   1.662   4.514   2.107 -1.1620  1.5946  0.1057
 7342SOL    HW233663   1.511   4.534   2.120 -0.5609  0.6283  0.3453
 7343SOL     OW33664   0.966   1.302   8.309  0.4645  0.3240  0.4056
 7343SOL    HW133665   0.883   1.333   8.347  1.8183  1.1207  2.7228
 7343SOL    HW233666   0.949   1.222   8.260 -1.0727  0.6442  0.4097
 7344SOL     OW33667   2.913   3.182  14.658  0.2473  0.7312  0.2364
 7344SOL    HW133668   3.001   3.218  14.667 -0.6890  2.2779  3.2671
 7344SOL    HW233669   2.855   3.255  14.680 -0.5925  0.7654 -2.0657
 7345SOL     OW33670   1.598   1.325   7.375 -0.0835  0.0141 -0.0774
 7345SOL    HW133671   1.651   1.287   7.305 -1.9694 -3.5273  0.4077
 7345SOL    HW233672   1.606   1.418   7.356  1.6309  0.0857  1.0823
 7346SOL     OW33673   1.266   0.601  17.671  0.0915  0.3358 -0.6479
 7346SOL    HW133674   1.321   0.548  17.729 -1.4760 -3.3843 -2.5429
 7346SOL    HW233675   1.296   0.690  17.691 -1.5887  0.8450 -0.3573
 7347SOL     OW33676   3.550   0.115   7.647 -0.3648 -0.5326  0.1791
 7347SOL    HW133677   3.628   0.170   7.637  0.2273 -1.6374 -1.2344
 7347SOL    HW233678   3.519   0.157   7.727  0.6204  0.5174  0.0098
 7348SOL     OW33679   3.972   3.769   5.964  0.3707  0.5184  0.2838
 7348SOL    HW133680   4.036   3.702   5.941 -2.2243 -2.4172  1.6536
 7348SOL    HW233681   3.896   3.729   5.922  2.6936 -2.1858 -1.3244
 7349SOL     OW33682   0.165   4.250  12.117 -0.0904 -0.7543 -0.9991
 7349SOL    HW133683   0.178   4.237  12.211 -0.7196  2.0497 -0.5456
 7349SOL    HW233684   0.086   4.303  12.112 -0.5451 -1.4173 -0.7543
 7350SOL     OW33685   0.260   3.910   7.069  0.5469 -0.1256 -0.3391
 7350SOL    HW133686   0.323   3.982   7.059 -0.7358  0.9314 -0.8608
 7350SOL    HW233687   0.283   3.858   6.992 -1.6483 -1.5674 -0.0203
 7351SOL     OW33688   1.487   3.292   5.350  0.3622 -0.1107 -0.3488
 7351SOL    HW133689   1.392   3.293   5.359  0.4129 -4.0957  0.5156
 7351SOL    HW233690   1.496   3.223   5.284 -3.2354  0.5253 -1.4839
 7352SOL     OW33691   2.868   1.483   3.523 -0.5497 -0.3797  0.5841
 7352SOL    HW133692   2.928   1.553   3.550 -0.9449  0.4276 -0.6365
 7352SOL    HW233693   2.865   1.441   3.609  3.7817 -1.4953  0.2008
 7353SOL     OW33694   3.719   4.167  16.470  0.5027  0.2694 -0.0816
 7353SOL    HW133695   3.769   4.087  16.454 -1.1735 -0.7591 -0.2947
 7353SOL    HW233696   3.683   4.184  16.383  0.6388 -1.3103 -0.4626
 7354SOL     OW33697   0.699   0.160   8.910 -0.7670  0.3352  0.3397
 7354SOL    HW133698   0.720   0.240   8.861 -0.8186 -1.9503 -3.3365
 7354SOL    HW233699   0.607   0.148   8.889 -0.4099 -0.4137 -0.8166
 7355SOL     OW33700   1.892   2.058  12.042  0.0002  0.1985  0.2032
 7355SOL    HW133701   1.851   2.144  12.055 -0.0436  0.1970  0.0693
 7355SOL    HW233702   1.819   1.997  12.054 -1.2041  1.9141  1.7922
 7356SOL     OW33703   2.353   4.349   3.275  0.4352  0.3786 -0.8092
 7356SOL    HW133704   2.449   4.341   3.274  0.5142  0.8478  1.4324
 7356SOL    HW233705   2.350   4.431   3.325 -1.3110 -0.4944  0.4897
 7357SOL     OW33706   0.077   2.536   5.058 -0.4422 -0.0135 -0.3736
 7357SOL    HW133707   0.022   2.477   5.006 -0.7729  0.4534 -0.5570
 7357SOL    HW233708   0.075   2.621   5.014 -2.0818  0.5380  0.7657
 7358SOL     OW33709   3.338   3.283   4.236 -0.5362 -0.3587 -0.5655
 7358SOL    HW133710   3.399   3.282   4.162 -0.1299 -0.5909 -0.2245
 7358SOL    HW233711   3.285   3.362   4.227 -2.2424 -1.4190  0.3106
 7359SOL     OW33712   3.378   1.286   9.229 -0.0590  0.4050 -0.3251
 7359SOL    HW133713   3.386   1.380   9.219  2.6191  0.1363 -0.7892
 7359SOL    HW233714   3.352   1.256   9.142 -1.9247  0.3968  0.2383
 7360SOL     OW33715   2.691   2.445   2.807  0.5888 -0.0349 -0.0030
 7360SOL    HW133716   2.718   2.486   2.724 -0.2792  1.8233  0.6368
 7360SOL    HW233717   2.733   2.360   2.794  0.5873 -0.4850  2.9596
 7361SOL     OW33718   3.305   2.033  11.427  0.3791 -0.5975  0.3999
 7361SOL    HW133719   3.333   2.064  11.513  2.1299 -1.6381  0.1982
 7361SOL    HW233720   3.383   2.009  11.378 -0.7068 -1.5977 -0.8409
 7362SOL     OW33721   1.580   2.419   3.725 -0.6203  0.3031 -0.4849
 7362SOL    HW133722   1.500   2.463   3.697 -0.1501 -0.6871 -3.2946
 7362SOL    HW233723   1.595   2.445   3.816  0.3220  3.7449 -1.6579
 7363SOL     OW33724   0.666   0.569  12.012  0.2018 -0.7919  0.3171
 7363SOL    HW133725   0.741   0.605  11.965 -0.9407  0.0966 -0.8127
 7363SOL    HW233726   0.710   0.502  12.065  0.7225 -1.4997 -1.0188
 7364SOL     OW33727   1.973   2.432   7.606  0.0946  0.2867  0.2740
 7364SOL    HW133728   2.040   2.501   7.601 -2.6682  2.7617 -2.3843
 7364SOL    HW233729   2.038   2.363   7.593 -1.7395 -1.8682  2.4448
 7365SOL     OW33730   0.780   0.073   1.825 -0.2329 -0.4777  0.2660
 7365SOL    HW133731   0.742   0.161   1.821  1.9060  0.3822 -1.0495
 7365SOL    HW233732   0.800   0.060   1.918 -2.1777 -1.9462  0.4878
 7366SOL     OW33733   3.919   4.368   3.339 -0.6041  0.4220 -0.2001
 7366SOL    HW133734   3.851   4.428   3.309 -1.2174  0.5512  1.4229
 7366SOL    HW233735   3.894   4.289   3.291  0.5534 -0.3070  0.3940
 7367SOL     OW33736   4.290   1.673   8.818 -0.8679 -0.3345  0.1422
 7367SOL    HW133737   4.327   1.663   8.905 -2.5297 -1.8935  0.6600
 7367SOL    HW233738   4.322   1.761   8.797 -1.6569  0.2028  1.2320
 7368SOL     OW33739   2.147   1.633  10.243 -0.0494 -0.0557  0.5691
 7368SOL    HW133740   2.204   1.626  10.166 -0.9739 -0.4793 -0.0710
 7368SOL    HW233741   2.188   1.710  10.281 -0.7533  1.4823 -1.8256
 7369SOL     OW33742   1.259   4.598   4.757  0.2902  0.2500 -0.9049
 7369SOL    HW133743   1.277   4.507   4.733 -3.2295 -0.4780 -0.7598
 7369SOL    HW233744   1.166   4.596   4.736 -0.6629 -1.4486  3.5762
 7370SOL     OW33745   1.091   1.074   1.894 -0.6318  0.6220  0.2627
 7370SOL    HW133746   1.129   1.006   1.838 -0.5022  1.5509 -0.7703
 7370SOL    HW233747   1.015   1.109   1.847  0.1130  1.5907 -0.2084
 7371SOL     OW33748   0.290   4.474   4.854  0.3826  0.3338 -0.3934
 7371SOL    HW133749   0.231   4.459   4.928 -0.8397  1.6073 -1.1074
 7371SOL    HW233750   0.235   4.474   4.775  0.5116  0.3335 -0.4822
 7372SOL     OW33751   1.832   3.984  10.395  0.0967  0.9839 -0.0317
 7372SOL    HW133752   1.873   4.046  10.455 -1.5731 -0.1035  2.2654
 7372SOL    HW233753   1.761   4.035  10.358  0.9409  2.7026  0.7391
 7373SOL     OW33754   2.772   2.921   6.617 -0.1111  0.6429  0.1321
 7373SOL    HW133755   2.761   2.969   6.699 -1.0197 -0.6119  0.7594
 7373SOL    HW233756   2.863   2.939   6.596  0.6012 -1.6649  1.2260
 7374SOL     OW33757   0.678   3.940  14.385 -0.0996  0.2086  0.0544
 7374SOL    HW133758   0.662   3.931  14.291  1.0506  1.7767 -0.2808
 7374SOL    HW233759   0.715   4.027  14.396 -2.2336  1.2411 -0.8516
 7375SOL     OW33760   4.599   1.479   3.477 -0.2693 -0.3438  0.6166
 7375SOL    HW133761   4.515   1.481   3.432 -0.2003 -2.0775  0.4170
 7375SOL    HW233762   4.659   1.499   3.405 -0.1470  0.4313  0.9328
 7376SOL     OW33763   2.118   2.612   9.100  0.2889  0.3356 -0.1981
 7376SOL    HW133764   2.088   2.614   9.009 -1.1713 -3.2391  0.2492
 7376SOL    HW233765   2.091   2.527   9.134  0.3905  0.3320 -0.1244
 7377SOL     OW33766   1.456   2.255   4.420 -0.0639  0.1353  0.2376
 7377SOL    HW133767   1.413   2.327   4.467  0.0369  0.2796  0.1078
 7377SOL    HW233768   1.478   2.203   4.497  0.3037 -1.1917 -0.7802
 7378SOL     OW33769   1.866   4.543   6.707 -0.1376  0.0669  0.1855
 7378SOL    HW133770   1.847   4.458   6.747  1.0985 -0.6633 -0.7686
 7378SOL    HW233771   1.934   4.565   6.771  0.7208  0.5521 -0.8907
 7379SOL     OW33772   3.835   4.734  12.934 -0.2261  0.3450 -0.3169
 7379SOL    HW133773   3.835   0.058  12.860  2.9599  1.3316  0.4866
 7379SOL    HW233774   3.928   4.720  12.953  0.2110  0.7673 -2.0504
 7380SOL     OW33775   2.586   0.083   7.560 -0.3818  0.3975  0.0439
 7380SOL    HW133776   2.600   4.726   7.559 -0.4155  0.4104 -2.2301
 7380SOL    HW233777   2.565   0.109   7.650  0.1946 -2.4267  0.9775
 7381SOL     OW33778   3.984   4.445  13.111 -0.0330  0.4327 -0.1800
 7381SOL    HW133779   3.921   4.469  13.179 -1.5678 -1.5566 -0.8927
 7381SOL    HW233780   4.036   4.380  13.159 -0.1027  0.2905 -0.2973
 7382SOL     OW33781   4.069   4.688   1.089 -0.5549  0.0401  0.1039
 7382SOL    HW133782   4.122   0.017   1.043 -1.6009  0.7319 -0.1307
 7382SOL    HW233783   4.062   4.728   1.175  0.1196  0.6621 -0.1321
 7383SOL     OW33784   3.787   4.217  15.273 -0.0491  0.1396  0.4970
 7383SOL    HW133785   3.855   4.215  15.206  1.0050  0.7032  1.5391
 7383SOL    HW233786   3.710   4.188  15.224 -1.5973  0.0484  2.9710
 7384SOL     OW33787   1.337   2.803  11.540 -0.3194 -0.4932 -0.2870
 7384SOL    HW133788   1.293   2.724  11.507  1.1079 -1.4396  0.0655
 7384SOL    HW233789   1.409   2.809  11.477 -1.0679 -1.9781 -1.2978
 7385SOL     OW33790   0.280   2.521   1.540 -0.2239  0.0746  0.6562
 7385SOL    HW133791   0.300   2.577   1.615 -2.2396  0.6789  0.7584
 7385SOL    HW233792   0.336   2.443   1.543 -0.9291 -0.4596  0.0622
 7386SOL     OW33793   3.028   0.717   9.147  0.4960 -0.4675  0.5426
 7386SOL    HW133794   2.944   0.764   9.140  0.5813 -0.3472  0.3336
 7386SOL    HW233795   3.015   0.649   9.213 -0.6941 -0.8919 -0.1174
 7387SOL     OW33796   2.235   4.568   1.117 -0.2172  0.2314 -0.1214
 7387SOL    HW133797   2.207   4.501   1.180  0.7410  0.5675  0.6633
 7387SOL    HW233798   2.167   4.561   1.050 -0.4290  0.7806  0.0406
 7388SOL     OW33799   4.606   3.548   6.200  0.5712 -0.0336 -0.1745
 7388SOL    HW133800   4.532   3.489   6.211 -0.1922  0.6744 -1.5359
 7388SOL    HW233801   4.568   3.635   6.185  1.2131  0.3430  0.3549
 7389SOL     OW33802   3.302   3.932   2.406  0.0138  0.5520 -0.6953
 7389SOL    HW133803   3.345   4.001   2.456  0.3507  1.7949 -2.6767
 7389SOL    HW233804   3.250   3.979   2.341 -0.8805  1.5830  0.7751
 7390SOL     OW33805   0.769   1.132   2.050  0.1750 -0.5246  0.1217
 7390SOL    HW133806   0.793   1.055   1.999  0.1793 -0.4480  0.0092
 7390SOL    HW233807   0.809   1.201   1.997  0.8229 -0.9701  0.0385
 7391SOL     OW33808   1.587   3.370   9.355  0.1272  0.5597  1.1077
 7391SOL    HW133809   1.548   3.287   9.385  3.4696 -1.4093 -0.0183
 7391SOL    HW233810   1.514   3.405   9.303  0.3571 -1.7978 -0.7929
 7392SOL     OW33811   1.032   3.327   7.647 -0.3079  0.4747  0.0819
 7392SOL    HW133812   1.032   3.380   7.568  1.0898 -0.0462 -0.2644
 7392SOL    HW233813   0.940   3.306   7.664 -0.2889  1.2552  1.1225
 7393SOL     OW33814   4.735   3.377   9.637 -0.1857 -0.0252  0.0687
 7393SOL    HW133815   0.052   3.333   9.703  0.1324  0.6885  0.2837
 7393SOL    HW233816   0.036   3.346   9.555  1.4441  0.8248  0.5063
 7394SOL     OW33817   3.236   1.936   7.851 -0.0045  0.4186  0.2892
 7394SOL    HW133818   3.165   1.911   7.791 -1.4062 -1.0458  2.5631
 7394SOL    HW233819   3.227   1.857   7.904  1.2266  1.0118  1.3833
 7395SOL     OW33820   2.111   4.430   3.079 -0.5458  0.0433  0.8415
 7395SOL    HW133821   2.166   4.390   3.146 -1.5201 -0.7371  1.1814
 7395SOL    HW233822   2.087   4.359   3.021 -0.6535  1.4355 -0.8220
 7396SOL     OW33823   3.823   3.567  12.780  0.3083 -0.4057 -0.5621
 7396SOL    HW133824   3.831   3.499  12.847  1.4809  1.1127  0.8455
 7396SOL    HW233825   3.857   3.513  12.708  0.5592 -1.8460  0.6375
 7397SOL     OW33826   2.076   4.531  12.328 -0.1832  0.0767 -0.1921
 7397SOL    HW133827   2.000   4.574  12.368  1.0863 -1.4932  3.9605
 7397SOL    HW233828   2.102   4.593  12.260  0.8786 -0.4676 -0.2876
 7398SOL     OW33829   3.507   0.885  11.629 -0.3077  0.0927  0.1562
 7398SOL    HW133830   3.593   0.924  11.647 -2.0782  2.7348  3.0874
 7398SOL    HW233831   3.472   0.937  11.557  2.3831 -0.5936 -1.6447
 7399SOL     OW33832   4.440   0.500  13.989 -0.1839 -0.3124  0.2700
 7399SOL    HW133833   4.478   0.583  13.960 -0.0259 -0.0756  1.1438
 7399SOL    HW233834   4.513   0.441  13.971 -0.4454 -0.5398 -0.0450
 7400SOL     OW33835   4.486   3.002   3.884 -0.0902 -0.0549 -0.3121
 7400SOL    HW133836   4.566   3.052   3.876 -0.5577  0.2946 -2.7458
 7400SOL    HW233837   4.525   2.917   3.903 -2.4311 -0.1785  4.0664
 7401SOL     OW33838   3.533   4.419   4.208 -0.1878  0.3472 -0.2998
 7401SOL    HW133839   3.526   4.391   4.116 -1.8537 -1.7922  0.4563
 7401SOL    HW233840   3.547   4.512   4.192 -1.0476  0.6427  0.6465
 7402SOL     OW33841   0.593   1.536   9.379 -0.5479 -0.4035  0.6271
 7402SOL    HW133842   0.598   1.511   9.471 -0.4643  1.1981  1.0574
 7402SOL    HW233843   0.502   1.566   9.373  0.8315  3.4278 -1.1501
 7403SOL     OW33844   4.516   3.795   6.138 -0.5809 -0.1945 -0.1533
 7403SOL    HW133845   4.567   3.871   6.113 -1.1211  0.4752  0.8012
 7403SOL    HW233846   4.429   3.832   6.121 -0.9297 -0.4265  1.0740
 7404SOL     OW33847   1.173   3.502   2.799 -0.3152 -0.3028  0.3959
 7404SOL    HW133848   1.264   3.476   2.813  0.3091  0.6747 -1.8819
 7404SOL    HW233849   1.132   3.454   2.871 -0.0724 -1.1355 -0.0172
 7405SOL     OW33850   0.488   4.597   3.291 -0.3238  0.2733  0.2387
 7405SOL    HW133851   0.558   4.599   3.225  0.3889 -3.2376  0.9107
 7405SOL    HW233852   0.437   4.523   3.259  2.1614 -2.9562  3.8685
 7406SOL     OW33853   2.638   1.044   9.594 -0.2894  0.1364  0.3123
 7406SOL    HW133854   2.700   1.006   9.531 -0.7397  2.3332 -1.4343
 7406SOL    HW233855   2.698   1.112   9.625  1.8140 -1.6056  0.1464
 7407SOL     OW33856   2.925   0.724   7.204 -0.8276 -0.0431 -0.4005
 7407SOL    HW133857   3.000   0.780   7.185 -0.4213 -0.4528 -0.0059
 7407SOL    HW233858   2.928   0.735   7.299  0.8467  1.9293 -0.6818
 7408SOL     OW33859   0.033   4.091   0.928 -0.0596  0.1619 -0.2812
 7408SOL    HW133860   0.117   4.133   0.908  1.5322 -2.3499  1.1092
 7408SOL    HW233861   4.712   4.167   0.932  0.7507  0.8029 -0.6935
 7409SOL     OW33862   3.977   3.591   8.814  0.1747 -0.4315 -0.3967
 7409SOL    HW133863   4.034   3.651   8.862  2.8966 -2.2982 -1.3360
 7409SOL    HW233864   3.892   3.619   8.849  0.3682 -0.6378  0.2363
 7410SOL     OW33865   1.307   4.109   6.442 -0.5679 -0.1695 -0.4617
 7410SOL    HW133866   1.375   4.094   6.376  0.5717  1.1738  0.4226
 7410SOL    HW233867   1.288   4.020   6.473  0.0529 -0.3034 -0.4728
 7411SOL     OW33868   3.208   1.507   2.586  0.3622 -0.3860 -0.0303
 7411SOL    HW133869   3.182   1.514   2.494 -1.8142 -2.3337  0.4270
 7411SOL    HW233870   3.283   1.566   2.594  1.9128 -2.0824 -2.2440
 7412SOL     OW33871   4.006   3.230   2.217  0.1246  0.2729  0.5266
 7412SOL    HW133872   4.062   3.188   2.283  1.4191  2.1245  0.6076
 7412SOL    HW233873   3.922   3.186   2.228  0.3785 -0.5128 -0.6826
 7413SOL     OW33874   2.913   2.019  10.317  0.1503 -0.3934 -0.0419
 7413SOL    HW133875   2.889   2.061  10.400  1.0806 -0.2053  0.1300
 7413SOL    HW233876   2.979   2.079  10.283 -1.7467  1.3246 -0.7001
 7414SOL     OW33877   3.100   3.330   9.301  0.1939 -0.0757 -0.0706
 7414SOL    HW133878   3.056   3.293   9.377  0.5542  0.2412  0.2965
 7414SOL    HW233879   3.066   3.274   9.232 -0.8760  1.8073 -1.0799
 7415SOL     OW33880   0.600   2.674  11.255  0.3221  0.3622 -0.1675
 7415SOL    HW133881   0.603   2.629  11.340  2.0671 -0.1422 -0.5098
 7415SOL    HW233882   0.658   2.747  11.273 -1.4268  1.1804  2.1763
 7416SOL     OW33883   2.645   1.969   5.234  0.7922  1.0239  0.4603
 7416SOL    HW133884   2.695   2.047   5.258 -0.9682  2.6507 -1.2389
 7416SOL    HW233885   2.657   1.924   5.318 -3.3300  0.8444  0.9228
 7417SOL     OW33886   4.404   3.326   6.690 -0.2388  0.3824 -0.5154
 7417SOL    HW133887   4.375   3.336   6.600 -1.6761  0.0824 -0.0789
 7417SOL    HW233888   4.453   3.405   6.711 -0.3326  0.1169  0.7296
 7418SOL     OW33889   0.563   2.251   7.660  1.0377  0.3588 -0.4875
 7418SOL    HW133890   0.569   2.302   7.579 -1.8770 -0.6707 -1.3597
 7418SOL    HW233891   0.558   2.160   7.631 -0.4692  0.1511  0.4334
 7419SOL     OW33892   2.036   4.396   9.827 -0.4362  0.3593 -0.0960
 7419SOL    HW133893   2.036   4.488   9.854 -0.0632  0.4656 -0.4573
 7419SOL    HW233894   2.004   4.364   9.911 -1.1053  1.5428  0.0881
 7420SOL     OW33895   1.074   2.980   8.877  0.6023  0.3601  0.5484
 7420SOL    HW133896   1.094   2.976   8.971 -2.8017  1.9796  1.3490
 7420SOL    HW233897   0.979   2.985   8.880  0.6043  1.4826 -1.3427
 7421SOL     OW33898   3.049   1.087  16.198  0.0398 -0.6833 -0.6971
 7421SOL    HW133899   3.125   1.051  16.152  0.2579  0.3478 -1.1465
 7421SOL    HW233900   3.074   1.177  16.180 -1.4167  0.3387  2.4988
 7422SOL     OW33901   2.047   4.401  10.641 -0.1821  0.7480 -0.0652
 7422SOL    HW133902   2.076   4.490  10.624 -0.2217  0.6667 -0.5616
 7422SOL    HW233903   2.077   4.369  10.726 -0.0440  1.2511  0.0762
 7423SOL     OW33904   2.999   2.718   5.008 -0.2268  0.0670 -0.1869
 7423SOL    HW133905   2.982   2.781   4.938  2.6466  0.2586 -0.7191
 7423SOL    HW233906   2.978   2.641   4.955  0.3700 -0.4578  0.3395
 7424SOL     OW33907   3.126   1.653  15.199  0.4656  0.3397  0.0876
 7424SOL    HW133908   3.062   1.604  15.147  0.5614  0.0542  0.2376
 7424SOL    HW233909   3.203   1.636  15.145  0.2651 -0.5334  0.0656
 7425SOL     OW33910   2.693   2.589  15.553 -0.4528  0.2164  0.0563
 7425SOL    HW133911   2.642   2.667  15.575  0.7916  2.2889 -4.3025
 7425SOL    HW233912   2.662   2.524  15.615  0.4568  0.5551  0.8604
 7426SOL     OW33913   1.834   0.087   3.886 -0.0043  0.0472 -0.1235
 7426SOL    HW133914   1.926   0.072   3.868  0.1400 -0.4211  1.0558
 7426SOL    HW233915   1.820   0.165   3.832 -1.4078  0.5141  0.8980
 7427SOL     OW33916   4.311   4.730   5.087 -0.1226 -0.5182 -0.5930
 7427SOL    HW133917   4.330   0.073   5.135  1.8548 -1.5251  0.3051
 7427SOL    HW233918   4.216   4.734   5.076 -0.1560  2.1666  0.7256
 7428SOL     OW33919   1.540   3.195   8.081  0.3035 -0.2738 -0.2889
 7428SOL    HW133920   1.586   3.275   8.055 -3.9851  2.6134  1.0103
 7428SOL    HW233921   1.555   3.194   8.175 -0.9447  1.8303 -0.0527
 7429SOL     OW33922   3.519   1.915  15.892  0.9985  0.0115  0.2127
 7429SOL    HW133923   3.518   1.861  15.971  3.3883 -1.2750 -0.6274
 7429SOL    HW233924   3.508   1.848  15.825  1.0935 -0.6752  0.8742
 7430SOL     OW33925   2.247   3.057   4.957  0.5438 -0.2072  0.6175
 7430SOL    HW133926   2.174   2.995   4.950 -0.6221  1.1203  1.0490
 7430SOL    HW233927   2.279   3.048   4.867 -2.3284 -1.1589 -0.3174
 7431SOL     OW33928   4.384   1.711   9.556  0.4194 -1.2381  0.0172
 7431SOL    HW133929   4.328   1.633   9.560 -1.3070 -0.1076 -2.3344
 7431SOL    HW233930   4.342   1.777   9.612 -0.0961 -1.6841  0.1532
 7432SOL     OW33931   0.255   1.575  15.930  0.1300  0.2252  0.1393
 7432SOL    HW133932   0.279   1.487  15.900  0.3615  1.4700 -3.3361
 7432SOL    HW233933   0.162   1.575  15.908  0.2569  2.4450 -0.3646
 7433SOL     OW33934   1.865   3.675  16.856  0.3102 -0.6988 -0.0290
 7433SOL    HW133935   1.923   3.641  16.925  0.9250 -1.5461 -0.9596
 7433SOL    HW233936   1.784   3.676  16.906  1.7048 -1.7209  2.2811
 7434SOL     OW33937   1.179   0.371   7.238 -0.0973  0.4345  0.5517
 7434SOL    HW133938   1.133   0.450   7.209 -1.3169  0.0036  1.2688
 7434SOL    HW233939   1.135   0.309   7.179 -0.2224  0.2194  0.8672
 7435SOL     OW33940   2.885   0.716  16.558  0.1408 -0.7585  0.2700
 7435SOL    HW133941   2.911   0.782  16.494 -1.7201  0.2959  0.6161
 7435SOL    HW233942   2.803   0.750  16.592  0.4816  0.5163 -0.2042
 7436SOL     OW33943   1.340   0.425   1.348  0.2896 -0.1450 -0.4714
 7436SOL    HW133944   1.373   0.336   1.363 -3.3446 -1.2564  0.8333
 7436SOL    HW233945   1.395   0.480   1.404 -0.0221 -0.6861  0.3764
 7437SOL     OW33946   0.589   0.740   3.171 -0.0594 -0.3196 -0.0299
 7437SOL    HW133947   0.638   0.728   3.253  0.3834  0.9744 -0.1034
 7437SOL    HW233948   0.653   0.742   3.100  0.0757  0.2858  0.1093
 7438SOL     OW33949   3.219   1.529   8.709 -0.0265  0.3857  0.1965
 7438SOL    HW133950   3.148   1.466   8.719 -1.6900  2.2908  0.3304
 7438SOL    HW233951   3.293   1.474   8.683 -0.3559 -0.0650  0.2105
 7439SOL     OW33952   1.913   0.740   6.513 -0.0931 -0.1356  0.1110
 7439SOL    HW133953   1.954   0.788   6.440 -0.3739  1.3320  0.9289
 7439SOL    HW233954   1.852   0.682   6.468 -2.4815  1.4971  1.2203
 7440SOL     OW33955   3.744   1.528   3.022 -0.0522 -0.3670  0.2145
 7440SOL    HW133956   3.773   1.438   3.034 -0.5854 -0.8042 -1.7937
 7440SOL    HW233957   3.683   1.513   2.950  0.8444  2.8746 -1.2260
 7441SOL     OW33958   1.175   3.040   0.843  0.8545 -0.2525  0.1385
 7441SOL    HW133959   1.152   3.036   0.936  1.6577  0.6678  0.3733
 7441SOL    HW233960   1.129   3.118   0.813 -0.9380 -0.5965  1.9377
 7442SOL     OW33961   4.153   1.669   4.708  0.3032  0.5098 -0.1533
 7442SOL    HW133962   4.087   1.607   4.678  3.2784 -3.5601  1.7714
 7442SOL    HW233963   4.208   1.626   4.774 -2.2201  0.0622  1.6914
 7443SOL     OW33964   1.306   4.209   3.468 -0.7194  0.2215  0.0040
 7443SOL    HW133965   1.379   4.151   3.487  0.0652  0.9842 -0.6416
 7443SOL    HW233966   1.231   4.150   3.471 -0.6494  0.2388  1.7918
 7444SOL     OW33967   2.342   2.235   9.072  0.0599 -0.0317  0.0846
 7444SOL    HW133968   2.316   2.271   9.157  0.1216  1.2565 -0.4493
 7444SOL    HW233969   2.260   2.237   9.023 -0.3088 -0.2925  0.6884
 7445SOL     OW33970   3.801   4.405  17.421 -0.1251  0.1061  0.1481
 7445SOL    HW133971   3.771   4.344  17.354 -2.8131 -1.8796  3.1120
 7445SOL    HW233972   3.769   4.347  17.491  0.6711 -0.8488 -0.2956
 7446SOL     OW33973   4.299   0.854   6.324  0.0718  0.4356  0.4299
 7446SOL    HW133974   4.294   0.832   6.417  0.6687 -1.9684 -0.1274
 7446SOL    HW233975   4.352   0.934   6.331 -1.8201  1.7345 -0.0002
 7447SOL     OW33976   0.771   4.670   8.307  0.2492  0.1960  0.1106
 7447SOL    HW133977   0.793   0.025   8.293 -1.8775  0.7705  0.6896
 7447SOL    HW233978   0.766   4.636   8.218  1.3318  0.7148 -0.1585
 7448SOL     OW33979   3.289   0.470   3.199  1.0941 -0.1192 -0.2782
 7448SOL    HW133980   3.231   0.513   3.262 -0.6582 -2.0837 -0.5570
 7448SOL    HW233981   3.275   0.515   3.115 -0.6668  0.0700  0.1199
 7449SOL     OW33982   3.228   0.584   6.907 -0.1793 -0.5085  0.3380
 7449SOL    HW133983   3.154   0.631   6.869  0.1763 -0.6317 -0.5031
 7449SOL    HW233984   3.312   0.626   6.887 -0.3071 -0.9470 -1.1008
 7450SOL     OW33985   3.697   3.670  15.953  0.5582  0.0223 -0.2847
 7450SOL    HW133986   3.670   3.686  15.863  1.4662  0.8287 -0.4217
 7450SOL    HW233987   3.667   3.755  15.985  1.2075  0.8028 -1.7123
 7451SOL     OW33988   1.485   0.148   2.043  0.5525 -0.2058 -0.0503
 7451SOL    HW133989   1.568   0.135   2.089  1.2430 -0.0745 -1.2442
 7451SOL    HW233990   1.496   0.243   2.041  1.0301 -0.2481  0.8941
 7452SOL     OW33991   0.379   2.413  14.462 -0.2151 -0.0074 -0.1675
 7452SOL    HW133992   0.428   2.489  14.492  0.0254 -0.2827  0.1330
 7452SOL    HW233993   0.421   2.372  14.386  0.3347 -1.4052  0.8871
 7453SOL     OW33994   1.258   4.408   9.616 -0.3425  0.1643  0.2937
 7453SOL    HW133995   1.171   4.386   9.649 -0.6662  1.0464  0.0262
 7453SOL    HW233996   1.230   4.423   9.526 -1.1989 -0.6204  0.4290
 7454SOL     OW33997   0.025   0.908   4.757  0.3630 -0.2626  0.1727
 7454SOL    HW133998   0.100   0.921   4.816  0.7346 -2.7513  0.2322
 7454SOL    HW233999   0.004   0.816   4.772 -0.9849 -0.1504 -1.0771
 7455SOL     OW34000   2.903   0.828   0.487  0.0904  0.2816  0.4298
 7455SOL    HW134001   2.953   0.868   0.416  0.0907 -1.0593 -0.3229
 7455SOL    HW234002   2.871   0.905   0.535 -0.5974  0.9159 -1.0388
 7456SOL     OW34003   0.120   0.240   8.923 -0.1878 -0.0741 -0.1846
 7456SOL    HW134004   0.043   0.204   8.880 -0.4307 -0.6210  0.7099
 7456SOL    HW234005   0.083   0.271   9.006 -1.2147 -0.7761 -0.3864
 7457SOL     OW34006   3.921   2.960   6.803 -0.8543 -0.1026 -0.3349
 7457SOL    HW134007   4.001   3.006   6.827  0.7717 -2.3613 -1.4810
 7457SOL    HW234008   3.924   2.962   6.707 -0.2383  1.5054 -0.2746
 7458SOL     OW34009   2.393   0.650   1.772  0.1924 -0.1206  0.4456
 7458SOL    HW134010   2.364   0.570   1.729  0.3626  1.0631 -1.9014
 7458SOL    HW234011   2.446   0.612   1.842  2.0931 -0.4465 -1.1615
 7459SOL     OW34012   1.531   2.935   2.915  0.4511  0.0799 -0.0607
 7459SOL    HW134013   1.514   2.846   2.885  0.8398 -0.3354  0.9774
 7459SOL    HW234014   1.453   2.964   2.867  1.8165 -1.0880 -2.9978
 7460SOL     OW34015   3.305   0.248   6.569  0.3359 -0.0510  0.4991
 7460SOL    HW134016   3.331   0.294   6.648  2.1368 -0.6906  0.3034
 7460SOL    HW234017   3.390   0.207   6.550 -0.0211 -0.1618 -0.8652
 7461SOL     OW34018   1.594   3.050   4.520 -0.1096  0.0003  0.1821
 7461SOL    HW134019   1.588   3.113   4.592  1.6560 -2.1392  2.1759
 7461SOL    HW234020   1.689   3.042   4.510 -0.1327 -1.0918  0.9249
 7462SOL     OW34021   0.010   4.691   0.317 -0.1086 -0.4586 -0.4792
 7462SOL    HW134022   0.019   4.651   0.231  2.0604 -1.3878  0.1613
 7462SOL    HW234023   4.676   0.015   0.299 -0.9905 -1.5306 -0.6673
 7463SOL     OW34024   0.930   3.664   2.738  0.0219  0.1744 -0.3156
 7463SOL    HW134025   0.954   3.756   2.741  3.3644 -0.6944  0.8172
 7463SOL    HW234026   0.992   3.611   2.790 -0.3394  0.8737  0.8225
 7464SOL     OW34027   1.284   2.624   8.883 -0.0629  0.0390 -0.0890
 7464SOL    HW134028   1.261   2.550   8.939  0.9672 -0.5066 -0.3888
 7464SOL    HW234029   1.200   2.669   8.882 -0.1217 -0.0613  0.2576
 7465SOL     OW34030   0.509   0.853  11.377 -0.3677 -0.5794  0.4075
 7465SOL    HW134031   0.436   0.906  11.410  0.6299  0.7690  0.4414
 7465SOL    HW234032   0.582   0.914  11.387 -1.6075  0.9557  0.0908
 7466SOL     OW34033   4.432   1.370   6.293  0.6101  0.2898  0.1551
 7466SOL    HW134034   4.523   1.398   6.288  0.3895  0.8042 -1.2601
 7466SOL    HW234035   4.404   1.378   6.201 -2.2747  0.2810  1.0363
 7467SOL     OW34036   3.831   3.422   5.901 -0.0071  0.3320 -0.5652
 7467SOL    HW134037   3.865   3.358   5.964 -1.3720 -0.2555 -0.4372
 7467SOL    HW234038   3.766   3.461   5.959  1.3167  3.1822 -0.9943
 7468SOL     OW34039   4.534   0.892   4.626 -0.2070  0.2617  0.4554
 7468SOL    HW134040   4.621   0.921   4.656 -0.4691  0.0366  1.4169
 7468SOL    HW234041   4.556   0.828   4.558  0.0828 -0.7686  1.5203
 7469SOL     OW34042   3.738   3.453   7.079 -0.0449 -0.3185  0.5325
 7469SOL    HW134043   3.773   3.442   7.168 -0.5453  0.3218  0.8117
 7469SOL    HW234044   3.787   3.381   7.040 -0.2563 -1.4660  2.4011
 7470SOL     OW34045   2.298   0.976   6.505 -0.2694  0.4847 -0.3555
 7470SOL    HW134046   2.230   1.003   6.444  0.5844 -0.7194 -1.8536
 7470SOL    HW234047   2.242   0.975   6.582 -1.3041  2.4271 -1.0710
 7471SOL     OW34048   1.386   2.999   8.451 -0.2633 -0.2313  1.1668
 7471SOL    HW134049   1.363   2.999   8.544  0.9090  1.8837  1.4618
 7471SOL    HW234050   1.320   2.938   8.418 -0.4373 -0.8017  2.5860
 7472SOL     OW34051   3.662   3.750   9.774  0.1473  0.3763  0.3390
 7472SOL    HW134052   3.644   3.657   9.760 -1.9355  0.9046 -0.5816
 7472SOL    HW234053   3.602   3.757   9.849  1.3072  1.5942  1.1528
 7473SOL     OW34054   0.707   1.709   8.501  0.0064  0.3317  0.5922
 7473SOL    HW134055   0.660   1.736   8.423 -1.1029 -1.7101  0.5647
 7473SOL    HW234056   0.660   1.632   8.533 -1.8962  0.2106 -2.6120
 7474SOL     OW34057   3.224   2.623   5.105 -0.4712  0.1845 -0.3826
 7474SOL    HW134058   3.288   2.680   5.063 -0.0473  0.5604  0.7655
 7474SOL    HW234059   3.146   2.672   5.077 -1.0746 -0.2480  0.5425
 7475SOL     OW34060   1.526   4.299   7.397  0.0534  0.2361 -0.3237
 7475SOL    HW134061   1.567   4.231   7.452  1.3817  0.8462 -0.5552
 7475SOL    HW234062   1.467   4.251   7.340 -3.1550  3.2978  0.4881
 7476SOL     OW34063   4.199   4.293   5.834  0.3394  0.9699  0.3480
 7476SOL    HW134064   4.182   4.337   5.917 -1.2404  0.7056  0.1548
 7476SOL    HW234065   4.197   4.362   5.767  0.9667  0.4343 -0.2247
 7477SOL     OW34066   3.542   1.800   4.040 -0.1976  0.0187  0.5614
 7477SOL    HW134067   3.572   1.820   4.129 -0.5530  0.7226  0.5216
 7477SOL    HW234068   3.446   1.802   4.048 -0.2564  2.6774 -0.8428
 7478SOL     OW34069   0.854   3.507  12.719  0.4823 -0.6793 -0.3986
 7478SOL    HW134070   0.824   3.584  12.767  0.4117 -1.0714  0.1825
 7478SOL    HW234071   0.931   3.546  12.677 -2.0092  1.7280 -2.7157
 7479SOL     OW34072   2.861   0.711   3.184 -0.5692  0.3559  0.1808
 7479SOL    HW134073   2.837   0.648   3.116 -1.0688 -1.6079  2.1592
 7479SOL    HW234074   2.813   0.786   3.150 -0.4955  0.8448  1.1830
 7480SOL     OW34075   2.546   4.466   8.318 -0.7646  0.4299 -0.1314
 7480SOL    HW134076   2.592   4.468   8.402 -2.0936  1.7966  0.5594
 7480SOL    HW234077   2.608   4.435   8.252  1.0422  0.3450  1.6123
 7481SOL     OW34078   0.703   3.127   3.613 -0.9836 -0.1768 -0.5471
 7481SOL    HW134079   0.618   3.139   3.571 -0.4380 -1.3951 -1.9866
 7481SOL    HW234080   0.667   3.120   3.701  0.8057  0.4074  0.2327
 7482SOL     OW34081   1.806   4.015   1.188  0.2785  0.2654 -0.0398
 7482SOL    HW134082   1.830   4.107   1.180  0.0111  0.4970  1.7411
 7482SOL    HW234083   1.831   4.002   1.280  2.4030 -0.2435 -0.6852
 7483SOL     OW34084   4.614   4.364   6.557 -0.4908 -0.1857  0.3177
 7483SOL    HW134085   4.642   4.274   6.539 -1.0265  0.0339 -1.6984
 7483SOL    HW234086   4.701   4.404   6.547 -0.7841  0.1564 -0.9800
 7484SOL     OW34087   3.472   3.786   7.949 -0.2491 -0.1683  0.0263
 7484SOL    HW134088   3.497   3.701   7.911  3.0595  1.1885 -0.8162
 7484SOL    HW234089   3.544   3.834   7.909 -0.9366  1.0259  0.2432
 7485SOL     OW34090   1.863   2.225   8.842  0.2916 -0.4529  0.4140
 7485SOL    HW134091   1.811   2.240   8.763 -1.1836  0.0248  1.4928
 7485SOL    HW234092   1.824   2.140   8.861 -2.4161  0.7950  0.4836
 7486SOL     OW34093   2.287   1.664   8.889  0.0417  0.0529  0.0880
 7486SOL    HW134094   2.313   1.619   8.970  1.7941  1.8245  0.5213
 7486SOL    HW234095   2.371   1.678   8.844 -2.1434 -0.0850 -4.0503
 7487SOL     OW34096   4.243   1.941   6.483 -0.3627  0.2794 -0.2940
 7487SOL    HW134097   4.258   2.012   6.546  0.7111  0.6626 -0.9787
 7487SOL    HW234098   4.333   1.926   6.453  0.2865  0.7768  1.4404
 7488SOL     OW34099   1.045   3.065   1.113  0.2912  0.4141  0.4505
 7488SOL    HW134100   0.975   3.093   1.172 -0.5660  2.0762 -1.3514
 7488SOL    HW234101   1.109   3.132   1.135 -0.5264  0.4181  2.7489
 7489SOL     OW34102   4.607   1.173   8.723  0.0057  0.2687  0.8746
 7489SOL    HW134103   4.689   1.130   8.700 -1.3084 -1.7437 -0.0154
 7489SOL    HW234104   4.612   1.235   8.650  1.8874  0.3032  1.0400
 7490SOL     OW34105   2.495   1.184   2.224  0.3800 -0.2480 -0.5071
 7490SOL    HW134106   2.408   1.203   2.259  0.3411 -0.2027 -0.6289
 7490SOL    HW234107   2.539   1.151   2.302 -1.4147 -3.2032 -0.7227
 7491SOL     OW34108   3.354   4.624  12.776 -0.0773 -0.3679  0.4455
 7491SOL    HW134109   3.439   4.662  12.751 -1.5718  3.8780  1.7793
 7491SOL    HW234110   3.383   4.543  12.820  0.4252  0.4539  1.6375
 7492SOL     OW34111   0.053   1.954   9.596  0.1167  0.5599  0.0651
 7492SOL    HW134112   0.074   2.002   9.676  1.9067  0.5186 -0.3730
 7492SOL    HW234113   4.708   1.991   9.562  0.3585 -0.9511 -2.1482
 7493SOL     OW34114   1.489   1.553   3.703  0.5899 -0.5358 -0.2255
 7493SOL    HW134115   1.522   1.612   3.771  0.1002 -0.3257 -0.1705
 7493SOL    HW234116   1.551   1.570   3.632  0.5077  0.5318 -0.0328
 7494SOL     OW34117   3.901   0.189  11.542 -0.0616  0.1932  1.0034
 7494SOL    HW134118   3.916   0.200  11.635  1.1644  0.0605  0.8283
 7494SOL    HW234119   3.807   0.175  11.533 -0.0590  1.2424 -0.7182
 7495SOL     OW34120   0.933   1.701   4.851  0.4869 -0.5082  0.2432
 7495SOL    HW134121   0.901   1.624   4.804 -2.5840  0.9230 -0.0490
 7495SOL    HW234122   0.911   1.768   4.786  0.3082  0.0082  0.8316
 7496SOL     OW34123   3.810   3.382   4.423 -0.1752  0.0729  0.3903
 7496SOL    HW134124   3.719   3.375   4.450 -0.9012  0.3828 -1.9951
 7496SOL    HW234125   3.806   3.358   4.330 -2.1869  1.3988  0.1450
 7497SOL     OW34126   2.866   2.532   8.331  0.5012 -0.9072  0.0788
 7497SOL    HW134127   2.778   2.506   8.358 -0.5793 -0.6708 -3.1366
 7497SOL    HW234128   2.852   2.556   8.239  0.1460  0.3146  0.4656
 7498SOL     OW34129   3.018   2.169   9.420  0.0206 -0.5235  0.1921
 7498SOL    HW134130   3.013   2.117   9.341 -0.9635  2.8121 -1.9246
 7498SOL    HW234131   3.113   2.174   9.432  0.0856  0.5100 -0.8193
 7499SOL     OW34132   0.025   4.428   5.716 -0.0101  0.3500 -0.2905
 7499SOL    HW134133   0.049   4.384   5.634 -0.1315  0.5511 -0.4321
 7499SOL    HW234134   0.086   4.502   5.721 -0.1105  0.3205  1.4150
 7500SOL     OW34135   2.561   2.379  15.672 -0.2112  0.3069  0.5389
 7500SOL    HW134136   2.528   2.297  15.709  0.9609 -0.5042 -0.2051
 7500SOL    HW234137   2.646   2.348  15.641 -0.4301  2.1577 -1.9689
 7501SOL     OW34138   1.444   4.606   8.133 -0.1076 -0.1996  0.1470
 7501SOL    HW134139   1.501   4.671   8.174  1.6575 -2.3876  1.1340
 7501SOL    HW234140   1.447   4.636   8.042  1.6749  0.2261  0.3512
 7502SOL     OW34141   2.795   1.904   8.388  0.0196  0.9474  0.0454
 7502SOL    HW134142   2.839   1.979   8.348  0.4418  1.1790  0.9625
 7502SOL    HW234143   2.703   1.909   8.359  0.6126  0.0075 -2.0152
 7503SOL     OW34144   2.426   3.174  16.375  0.5016  0.2473  0.3444
 7503SOL    HW134145   2.477   3.100  16.408 -1.9141 -1.2812  0.6841
 7503SOL    HW234146   2.426   3.228  16.454  0.9755 -0.1602  0.6214
 7504SOL     OW34147   3.437   0.217   5.275  0.3624 -0.3784 -0.5530
 7504SOL    HW134148   3.349   0.196   5.306 -0.4871  0.0587 -2.6483
 7504SOL    HW234149   3.430   0.310   5.253 -1.2000 -0.2864  0.3982
 7505SOL     OW34150   3.395   2.274   8.177 -0.0429 -0.3744 -0.3244
 7505SOL    HW134151   3.353   2.191   8.200 -0.9425 -0.1267 -1.1175
 7505SOL    HW234152   3.357   2.290   8.091 -1.6241  2.0658  0.8334
 7506SOL     OW34153   1.952   1.014   8.227 -0.4556 -0.1750 -0.0346
 7506SOL    HW134154   2.039   1.052   8.235 -0.5454 -0.1777  1.0308
 7506SOL    HW234155   1.952   0.955   8.303  0.7314  0.3559  0.3692
 7507SOL     OW34156   4.342   2.155   7.692 -0.6361 -0.1127 -0.6555
 7507SOL    HW134157   4.359   2.237   7.738 -0.7734 -1.4967  1.8351
 7507SOL    HW234158   4.246   2.158   7.690 -0.6528 -1.3388 -1.5990
 7508SOL     OW34159   2.690   0.210   2.532  0.2002 -0.3096 -0.4403
 7508SOL    HW134160   2.704   0.117   2.512 -2.6914 -0.5130 -1.4403
 7508SOL    HW234161   2.782   0.239   2.530 -0.1178  0.7440  0.2380
 7509SOL     OW34162   2.470   4.109   4.855  0.7561  0.0632 -0.0541
 7509SOL    HW134163   2.554   4.150   4.832  1.1971 -0.6370  0.2939
 7509SOL    HW234164   2.439   4.084   4.769  3.3814 -0.4675 -0.8558
 7510SOL     OW34165   2.812   1.044   0.635 -0.1779  0.0303  0.1788
 7510SOL    HW134166   2.755   1.091   0.574 -0.7604 -0.7864  0.1030
 7510SOL    HW234167   2.747   1.010   0.696  0.1399 -0.3789  0.2887
 7511SOL     OW34168   3.123   0.980   9.347  0.1939  0.4822 -0.1725
 7511SOL    HW134169   3.126   0.998   9.253 -1.9398 -0.4236 -0.4101
 7511SOL    HW234170   3.152   1.068   9.371  0.9725 -0.1576  1.2498
 7512SOL     OW34171   3.186   4.047   9.784 -0.3396  0.0074 -0.0886
 7512SOL    HW134172   3.189   4.028   9.878  1.6199 -0.3811 -0.2280
 7512SOL    HW234173   3.277   4.070   9.765 -0.5247 -1.0412 -2.2574
 7513SOL     OW34174   3.720   2.367   3.692  0.6908 -0.0026  0.2130
 7513SOL    HW134175   3.661   2.362   3.767 -0.1000 -0.8875 -0.4635
 7513SOL    HW234176   3.774   2.441   3.718  0.5846 -0.1107  0.7437
 7514SOL     OW34177   1.075   4.224   6.422  0.4208 -0.4199 -0.1793
 7514SOL    HW134178   1.152   4.209   6.477  1.1403  1.5530 -0.6435
 7514SOL    HW234179   1.003   4.234   6.485  1.3033 -0.7496  0.8869
 7515SOL     OW34180   2.779   3.035   3.725  0.1462 -0.3818  0.6705
 7515SOL    HW134181   2.813   3.042   3.815  2.4058 -0.5648 -0.1658
 7515SOL    HW234182   2.772   2.940   3.723  0.5036 -0.4398  2.2855
 7516SOL     OW34183   0.069   4.365   1.568  0.0909  0.5207  0.2454
 7516SOL    HW134184   4.729   4.379   1.622  0.1525  2.2628 -0.1110
 7516SOL    HW234185   0.103   4.453   1.587 -0.7893  0.8349  0.3430
 7517SOL     OW34186   1.374   1.550  14.219 -0.3342 -0.4820  0.0479
 7517SOL    HW134187   1.297   1.570  14.165 -1.2204 -3.2841  0.2832
 7517SOL    HW234188   1.337   1.566  14.306  2.6523  0.0577  1.2301
 7518SOL     OW34189   1.095   0.578   2.734  0.2184  0.0633  0.3735
 7518SOL    HW134190   1.099   0.524   2.655 -2.4450  1.0998 -0.5003
 7518SOL    HW234191   1.115   0.515   2.802  1.1905 -0.1093 -0.0766
 7519SOL     OW34192   1.570   1.352   3.225  0.3055 -0.0513  0.2843
 7519SOL    HW134193   1.641   1.301   3.185 -0.1680  1.2975 -2.2820
 7519SOL    HW234194   1.499   1.333   3.163  1.7207 -0.4110 -1.2231
 7520SOL     OW34195   0.538   1.179   8.157 -0.4123  0.1803 -0.3597
 7520SOL    HW134196   0.544   1.258   8.103  1.3035  0.6836  0.5862
 7520SOL    HW234197   0.562   1.208   8.245 -1.5057  1.5768 -0.5285
 7521SOL     OW34198   3.105   3.652  14.281 -0.0740 -0.1890 -0.3113
 7521SOL    HW134199   3.035   3.615  14.335 -1.2059  0.0530 -1.6099
 7521SOL    HW234200   3.061   3.708  14.217  0.2256  1.0144  0.5408
 7522SOL     OW34201   3.520   3.098   1.799 -0.5417 -0.0186  0.3676
 7522SOL    HW134202   3.553   3.052   1.722  0.6732 -0.3591  1.0939
 7522SOL    HW234203   3.579   3.173   1.804 -0.4671 -0.1628  1.5879
 7523SOL     OW34204   1.235   2.717  14.977 -0.2642  0.1444 -0.0732
 7523SOL    HW134205   1.329   2.732  14.983 -0.5411  2.4022 -1.2817
 7523SOL    HW234206   1.224   2.723  14.882  0.1389  2.4133  0.0169
 7524SOL     OW34207   0.651   1.807   1.892  0.4480 -0.9566  0.0514
 7524SOL    HW134208   0.639   1.900   1.870  0.2894 -0.9197  0.2895
 7524SOL    HW234209   0.564   1.769   1.887 -1.6343  3.6053  1.2503
 7525SOL     OW34210   3.325   1.068  10.400  0.1262  0.0581  0.5137
 7525SOL    HW134211   3.412   1.030  10.388  0.1402  0.7136 -1.3556
 7525SOL    HW234212   3.290   1.040  10.316 -0.3356  1.7970  0.1366
 7526SOL     OW34213   1.172   4.602  11.221  0.3442  0.3338 -0.1461
 7526SOL    HW134214   1.117   4.622  11.297  0.3183 -2.6375  0.6219
 7526SOL    HW234215   1.247   4.652  11.256  1.4379  0.3816 -2.5801
 7527SOL     OW34216   0.748   3.468   3.988 -0.2565  0.4131  0.8936
 7527SOL    HW134217   0.677   3.431   3.936 -0.1928  1.6779 -0.1033
 7527SOL    HW234218   0.740   3.431   4.076  0.4589  1.3608  1.3707
 7528SOL     OW34219   0.597   1.328   1.303 -0.4064 -0.1096  0.1497
 7528SOL    HW134220   0.513   1.359   1.337 -0.7582 -0.1769 -0.6576
 7528SOL    HW234221   0.640   1.310   1.386 -1.1810 -0.1735  0.5288
 7529SOL     OW34222   3.146   2.743   4.170  0.0053  0.1128  0.3641
 7529SOL    HW134223   3.182   2.795   4.099 -2.6927 -0.4730 -1.4177
 7529SOL    HW234224   3.078   2.800   4.207 -2.4154 -1.2161 -2.0026
 7530SOL     OW34225   0.948   4.671   6.326 -0.0072  0.1058  0.2286
 7530SOL    HW134226   0.998   4.717   6.258 -0.3677 -0.1708 -0.2332
 7530SOL    HW234227   0.968   4.718   6.407  0.2148 -0.0745  0.2759
 7531SOL     OW34228   3.169   2.940  10.081  0.1493  0.1698 -0.1750
 7531SOL    HW134229   3.237   3.001  10.053  1.4357 -1.0508  0.2624
 7531SOL    HW234230   3.118   2.947  10.001 -1.2542  0.9333  0.7881
 7532SOL     OW34231   0.412   2.134   0.899  0.0453  0.6966  0.5042
 7532SOL    HW134232   0.336   2.178   0.937 -1.3657  0.2020 -1.7901
 7532SOL    HW234233   0.455   2.212   0.863  1.3194  0.1794  0.9149
 7533SOL     OW34234   0.863   3.747   5.978  0.0141  0.0728  0.6969
 7533SOL    HW134235   0.909   3.801   6.042  0.5599  2.4208 -1.6825
 7533SOL    HW234236   0.780   3.717   6.017 -0.6481  1.2765  0.2226
 7534SOL     OW34237   0.594   2.655  15.225 -0.1928 -0.0525 -0.3218
 7534SOL    HW134238   0.562   2.668  15.315 -0.0803 -1.5692 -0.0630
 7534SOL    HW234239   0.639   2.573  15.244 -0.6133  0.3500  2.4422
 7535SOL     OW34240   4.485   4.006  14.348 -0.2625 -0.2070  0.2477
 7535SOL    HW134241   4.482   3.971  14.259  3.3411 -1.5997  0.6743
 7535SOL    HW234242   4.407   4.057  14.330 -0.7653 -1.0867 -0.0987
 7536SOL     OW34243   2.845   4.303   0.692 -0.2554 -0.4811 -0.4491
 7536SOL    HW134244   2.889   4.342   0.768  0.8087 -0.5016 -1.0514
 7536SOL    HW234245   2.785   4.371   0.663  0.7124 -0.5864 -2.6571
 7537SOL     OW34246   4.091   3.936   5.167 -0.0429  0.2092 -0.5757
 7537SOL    HW134247   4.063   3.868   5.228 -0.3762  0.5930 -0.2984
 7537SOL    HW234248   4.013   3.993   5.166 -0.8113 -0.8125  1.2944
 7538SOL     OW34249   2.341   3.808  14.912 -0.4046 -0.1983  0.2099
 7538SOL    HW134250   2.259   3.793  14.864  0.1665  1.3095 -1.2126
 7538SOL    HW234251   2.345   3.903  14.915  1.2916 -0.3851  4.0469
 7539SOL     OW34252   0.523   1.318   0.662 -0.3744 -0.1547 -0.2515
 7539SOL    HW134253   0.564   1.332   0.748  0.5068 -2.1209 -0.3438
 7539SOL    HW234254   0.483   1.234   0.683  0.0426 -0.0331  1.0892
 7540SOL     OW34255   2.864   1.863   5.138 -0.5888  0.3274 -0.3124
 7540SOL    HW134256   2.813   1.918   5.197 -1.4909 -2.3739  1.4482
 7540SOL    HW234257   2.816   1.780   5.137 -0.9541  0.5257  1.4554
 7541SOL     OW34258   4.153   1.524   5.368 -0.4541  0.2287  0.5276
 7541SOL    HW134259   4.171   1.609   5.408  2.7760  0.7350 -2.0167
 7541SOL    HW234260   4.073   1.536   5.317  0.8456 -1.0176 -1.7736
 7542SOL     OW34261   2.848   4.175   7.449  0.2567 -0.5359  0.5390
 7542SOL    HW134262   2.877   4.262   7.477 -2.4332  0.4597  0.2220
 7542SOL    HW234263   2.896   4.177   7.366 -2.4768 -0.6651 -1.0215
 7543SOL     OW34264   1.297   3.658  13.778 -0.0119 -0.0903  0.1847
 7543SOL    HW134265   1.367   3.660  13.843  1.1174 -1.1546 -0.9889
 7543SOL    HW234266   1.307   3.566  13.752 -0.4167 -0.0570 -0.0939
 7544SOL     OW34267   3.012   2.429  10.525 -0.2940 -0.6202 -0.2099
 7544SOL    HW134268   3.077   2.418  10.595  0.1371 -1.4486 -0.7398
 7544SOL    HW234269   2.968   2.346  10.542 -0.8835 -0.5204 -1.2632
 7545SOL     OW34270   2.524   3.610   8.494 -0.1232 -0.5846  0.5230
 7545SOL    HW134271   2.603   3.646   8.453 -1.1647  0.8128 -0.2684
 7545SOL    HW234272   2.558   3.530   8.533  2.2565  0.5303  0.7473
 7546SOL     OW34273   3.739   2.597   8.549 -0.3175 -0.6156  0.4735
 7546SOL    HW134274   3.820   2.599   8.599 -1.3864 -1.9618  2.2977
 7546SOL    HW234275   3.770   2.548   8.473 -1.4413  0.4820 -0.7021
 7547SOL     OW34276   0.169   1.580  15.602 -0.7030  0.5640 -0.5976
 7547SOL    HW134277   0.190   1.663  15.644 -0.0303 -0.4368  1.0520
 7547SOL    HW234278   0.250   1.528  15.599 -1.5319 -0.7302 -0.7551
 7548SOL     OW34279   1.052   1.470   7.593  0.0114 -0.2104  0.3625
 7548SOL    HW134280   1.120   1.533   7.618 -1.5344  0.4207  2.9666
 7548SOL    HW234281   1.107   1.398   7.564 -2.2696 -2.4714  1.6079
 7549SOL     OW34282   0.388   4.276  11.458 -0.0875  0.0032  0.0850
 7549SOL    HW134283   0.318   4.227  11.414  0.5488  1.2126 -2.2535
 7549SOL    HW234284   0.405   4.230  11.540 -0.0195  0.7691  0.5012
 7550SOL     OW34285   1.900   2.870   2.935 -0.0098 -0.6334 -0.4847
 7550SOL    HW134286   1.926   2.781   2.956  0.1901 -0.6696 -0.8986
 7550SOL    HW234287   1.880   2.900   3.024 -0.3870  0.3034 -0.8842
 7551SOL     OW34288   2.075   1.919  14.926 -0.7281  0.0129  0.1550
 7551SOL    HW134289   2.115   1.832  14.917  0.6430  0.6225  0.3100
 7551SOL    HW234290   2.071   1.926  15.022  2.0752  0.3117  0.2606
 7552SOL     OW34291   0.240   3.515   6.541  0.2521  0.2432 -0.0303
 7552SOL    HW134292   0.225   3.610   6.535 -1.3064 -0.0050  0.0810
 7552SOL    HW234293   0.293   3.507   6.620  0.6665 -0.8604 -0.4271
 7553SOL     OW34294   0.524   3.526  12.279  0.5427  0.3512 -0.3819
 7553SOL    HW134295   0.451   3.565  12.327 -0.3253  0.7927 -2.0259
 7553SOL    HW234296   0.567   3.465  12.337 -0.7617  0.1737  0.4078
 7554SOL     OW34297   3.891   3.640  13.117 -0.0505 -0.4614 -0.1830
 7554SOL    HW134298   3.884   3.570  13.051 -0.1909  0.9356 -1.6393
 7554SOL    HW234299   3.978   3.633  13.156  1.0724 -0.7018 -2.7535
 7555SOL     OW34300   0.246   4.329   6.027 -0.2685  0.3320  0.2121
 7555SOL    HW134301   0.255   4.397   6.093 -1.7842  2.0063 -1.3039
 7555SOL    HW234302   0.287   4.255   6.073  1.1783  1.2484  0.3969
 7556SOL     OW34303   2.172   4.179   3.957 -0.0435  0.1527  0.1181
 7556SOL    HW134304   2.112   4.189   3.883  0.9241  2.9437 -0.2735
 7556SOL    HW234305   2.120   4.201   4.035  1.1404 -0.6791  1.1493
 7557SOL     OW34306   2.302   1.219   5.311 -0.0181  0.5434 -0.7986
 7557SOL    HW134307   2.370   1.162   5.346 -1.0594  1.8219  3.3300
 7557SOL    HW234308   2.234   1.159   5.340  0.5664 -0.5946 -1.7786
 7558SOL     OW34309   3.073   2.442   3.519  0.7262  0.4631  0.2430
 7558SOL    HW134310   3.064   2.509   3.587 -2.0669  1.0426 -0.7297
 7558SOL    HW234311   3.164   2.462   3.493  0.0777  0.8617 -1.7561
 7559SOL     OW34312   3.136   2.147  14.057  0.8181 -0.5477 -0.4572
 7559SOL    HW134313   3.169   2.137  14.146 -1.9626  3.9105  1.0194
 7559SOL    HW234314   3.213   2.113  14.010  0.8546  3.1412 -3.0832
 7560SOL     OW34315   1.622   3.745   9.407 -0.0692  0.0089  0.2473
 7560SOL    HW134316   1.595   3.665   9.361  1.1335  0.1629 -0.7244
 7560SOL    HW234317   1.543   3.798   9.413  0.4394  0.6205  1.5126
 7561SOL     OW34318   4.484   3.328   6.944  0.4168  0.5773 -0.1899
 7561SOL    HW134319   4.437   3.410   6.927  1.2361  1.3966  1.5186
 7561SOL    HW234320   4.467   3.277   6.865 -0.4877 -1.2201  1.1546
 7562SOL     OW34321   2.382   1.815   2.525  0.1732 -0.1248  0.5711
 7562SOL    HW134322   2.402   1.889   2.466 -1.1866  0.7295  1.1669
 7562SOL    HW234323   2.415   1.735   2.484  2.7661  0.9103  0.6896
 7563SOL     OW34324   4.359   2.942   1.220  0.4373  0.1934  0.4206
 7563SOL    HW134325   4.413   2.869   1.188  1.6872  0.8370  1.0612
 7563SOL    HW234326   4.362   3.001   1.144 -1.9072 -0.9716 -0.5911
 7564SOL     OW34327   3.617   3.969   9.166 -0.0915 -0.0781  0.1824
 7564SOL    HW134328   3.554   3.991   9.097  0.1590  1.1001  0.3356
 7564SOL    HW234329   3.558   3.936   9.233  0.8778 -1.8421  0.1771
 7565SOL     OW34330   1.161   1.323   2.830  0.3884 -0.4563 -0.0174
 7565SOL    HW134331   1.214   1.354   2.903 -0.2729  2.1667 -0.6680
 7565SOL    HW234332   1.216   1.310   2.752 -0.8112  0.0788 -0.9493
 7566SOL     OW34333   3.162   4.636   4.501 -0.4221 -0.2066  0.0178
 7566SOL    HW134334   3.198   4.696   4.436 -1.2424  0.2937  0.0278
 7566SOL    HW234335   3.198   4.558   4.458 -0.8227  0.3523 -1.2994
 7567SOL     OW34336   1.650   1.775   2.494  0.6870  0.3830 -0.8258
 7567SOL    HW134337   1.650   1.855   2.441  0.8403  1.6817  1.1485
 7567SOL    HW234338   1.625   1.804   2.581  0.5419  3.3239 -1.8413
 7568SOL     OW34339   0.067   3.522   2.329  0.1848  0.2163 -0.4211
 7568SOL    HW134340   0.162   3.516   2.335  0.0704 -0.4487  0.6757
 7568SOL    HW234341   0.054   3.579   2.405  0.8282  0.2569 -0.3423
 7569SOL     OW34342   3.990   1.918  12.671 -0.5853  0.1284 -0.2119
 7569SOL    HW134343   4.062   1.856  12.659 -1.1595 -0.1954 -2.0005
 7569SOL    HW234344   3.948   1.907  12.585 -0.9892 -0.1318  0.0195
 7570SOL     OW34345   0.876   2.724   2.274 -0.0708  0.0954 -0.3082
 7570SOL    HW134346   0.940   2.795   2.279  0.4287 -0.4323  0.8790
 7570SOL    HW234347   0.932   2.648   2.287 -1.3784 -1.1012 -1.6688
 7571SOL     OW34348   2.167   1.894   8.967 -0.0713  0.2024  0.0952
 7571SOL    HW134349   2.081   1.856   8.988  0.2949  0.4003  1.9704
 7571SOL    HW234350   2.211   1.812   8.947  2.2189  1.2645  0.7776
 7572SOL     OW34351   1.679   0.483   0.364 -0.0087 -0.4144 -0.7890
 7572SOL    HW134352   1.623   0.415   0.400 -1.9312  0.1095 -2.7732
 7572SOL    HW234353   1.748   0.487   0.429 -0.7702  1.7388 -0.1083
 7573SOL     OW34354   4.393   3.280   3.033 -0.1954  0.4776 -0.3758
 7573SOL    HW134355   4.466   3.219   3.038 -0.8195 -0.4150 -2.1239
 7573SOL    HW234356   4.448   3.359   3.032  1.5509 -0.7430 -0.3519
 7574SOL     OW34357   4.143   4.188  17.073  0.1851 -0.5484 -0.5554
 7574SOL    HW134358   4.137   4.221  16.983 -0.3365  0.1825 -0.2482
 7574SOL    HW234359   4.219   4.130  17.081 -0.6725 -1.6085  0.0411
 7575SOL     OW34360   2.397   3.400  15.328  0.3442 -0.6629  0.9726
 7575SOL    HW134361   2.394   3.370  15.237 -2.1544 -0.4455  0.9750
 7575SOL    HW234362   2.304   3.425  15.333 -0.1181 -1.9690 -1.2202
 7576SOL     OW34363   2.441   2.448  12.586  0.3068  0.5566 -0.2192
 7576SOL    HW134364   2.522   2.442  12.534  0.2788 -3.3206  0.2248
 7576SOL    HW234365   2.448   2.527  12.639 -2.7569 -1.2032  2.8006
 7577SOL     OW34366   1.422   4.604  12.495 -0.8224  0.3092 -0.4238
 7577SOL    HW134367   1.355   4.575  12.433 -0.8628 -1.6891  0.5470
 7577SOL    HW234368   1.368   4.584  12.572  1.5421 -1.5779  0.7381
 7578SOL     OW34369   3.616   2.379   2.571  0.0378  0.0987 -0.3809
 7578SOL    HW134370   3.647   2.453   2.624  0.0336  2.1952 -3.2779
 7578SOL    HW234371   3.678   2.396   2.499  1.6015 -3.3032  0.2103
 7579SOL     OW34372   4.682   2.336   7.906  0.6461 -0.2831  0.0047
 7579SOL    HW134373   4.693   2.243   7.886  1.2030  0.0161 -1.0752
 7579SOL    HW234374   4.709   2.338   7.998  1.2450 -0.5059 -0.1684
 7580SOL     OW34375   3.493   4.179   9.021  0.7043  0.4165  0.0270
 7580SOL    HW134376   3.536   4.205   9.103 -0.3548  1.8062  0.1430
 7580SOL    HW234377   3.402   4.166   9.049  0.7554 -1.9876 -0.9858
 7581SOL     OW34378   2.254   0.077   6.504  0.5083 -0.2982 -0.2753
 7581SOL    HW134379   2.247   4.721   6.482  0.0462  0.0769 -1.6889
 7581SOL    HW234380   2.269   0.058   6.597 -0.2595  0.9631  0.1047
 7582SOL     OW34381   4.069   1.334   1.952  0.6755  0.4095  0.2598
 7582SOL    HW134382   4.056   1.261   2.012  0.9583  1.8297  2.0392
 7582SOL    HW234383   4.083   1.410   2.008  0.4199  0.6483 -0.0003
 7583SOL     OW34384   3.491   3.903   4.649  0.1983 -0.1699 -0.4855
 7583SOL    HW134385   3.520   3.950   4.571  1.8510 -0.5769 -0.1072
 7583SOL    HW234386   3.569   3.865   4.689  1.4180  2.6421 -0.1942
 7584SOL     OW34387   2.265   0.798   5.576  0.2952 -0.1989  0.5126
 7584SOL    HW134388   2.188   0.771   5.625 -0.7527 -1.3577 -1.7626
 7584SOL    HW234389   2.303   0.865   5.633  0.0023  1.5883 -1.3928
 7585SOL     OW34390   2.120   0.859   4.462  0.7546  0.3287  0.3497
 7585SOL    HW134391   2.057   0.795   4.429 -0.1543  1.1137  0.5711
 7585SOL    HW234392   2.163   0.806   4.529  0.8554  0.9788  0.8003
 7586SOL     OW34393   0.594   0.142   9.634  0.2565 -0.2718 -0.4784
 7586SOL    HW134394   0.515   0.196   9.622  0.8895  0.4421 -1.4378
 7586SOL    HW234395   0.594   0.096   9.550 -0.5978 -0.2132 -0.5112
 7587SOL     OW34396   2.063   3.234   2.296  0.1587 -0.1737 -0.0095
 7587SOL    HW134397   2.015   3.238   2.213  1.7392  0.4169 -0.9011
 7587SOL    HW234398   2.008   3.169   2.340  0.5179 -1.7850 -1.9342
 7588SOL     OW34399   0.709   1.535   3.462 -0.6109 -0.0092 -0.4381
 7588SOL    HW134400   0.767   1.535   3.539 -1.2116  1.9116  0.0254
 7588SOL    HW234401   0.740   1.614   3.416  1.6387 -2.2962 -2.8490
 7589SOL     OW34402   3.547   4.208   3.329 -0.3885 -0.1133  0.1279
 7589SOL    HW134403   3.640   4.228   3.337 -0.7566  1.9219 -0.6233
 7589SOL    HW234404   3.517   4.296   3.356 -2.0729 -0.9345  0.9655
 7590SOL     OW34405   4.148   1.052   7.014  0.1556 -0.1492 -0.2848
 7590SOL    HW134406   4.205   1.114   6.968  0.2863 -0.8099 -1.0161
 7590SOL    HW234407   4.203   1.039   7.091 -0.8655 -0.5217  0.3802
 7591SOL     OW34408   2.940   3.241   7.173  0.2898 -0.0250  0.0082
 7591SOL    HW134409   2.974   3.250   7.262  0.9010 -2.9521  0.0711
 7591SOL    HW234410   2.949   3.148   7.152  0.8866  0.0577 -0.1088
 7592SOL     OW34411   4.286   2.467  13.796 -0.2216 -0.3866 -0.1275
 7592SOL    HW134412   4.234   2.417  13.733  1.1083 -1.0883 -0.6582
 7592SOL    HW234413   4.222   2.535  13.818 -1.0888 -0.7301 -1.6123
 7593SOL     OW34414   0.330   3.488  14.212 -0.0318  0.1622 -0.0669
 7593SOL    HW134415   0.313   3.580  14.193  2.8677  0.7495  0.1954
 7593SOL    HW234416   0.253   3.468  14.265  0.4852  1.9740  1.3954
 7594SOL     OW34417   4.123   0.810   3.816  0.3413 -0.2623 -0.1885
 7594SOL    HW134418   4.055   0.873   3.841 -0.1887 -0.0212 -2.2453
 7594SOL    HW234419   4.205   0.844   3.851 -0.0831 -0.2405  0.7934
 7595SOL     OW34420   1.135   2.644   7.925 -0.3222 -0.4220 -0.2920
 7595SOL    HW134421   1.221   2.612   7.900  0.9278  1.8962  1.0352
 7595SOL    HW234422   1.129   2.724   7.873  0.2136 -0.3439 -0.2332
 7596SOL     OW34423   2.172   4.358  17.389  0.0776  0.5619 -0.0961
 7596SOL    HW134424   2.201   4.402  17.310  0.1337 -0.6731 -0.7764
 7596SOL    HW234425   2.077   4.357  17.374 -0.1151  0.9783  1.0628
 7597SOL     OW34426   1.932   3.989   6.193 -0.3718 -0.1494 -0.2306
 7597SOL    HW134427   2.022   3.957   6.183  0.8963  2.6915  1.8750
 7597SOL    HW234428   1.925   3.977   6.287 -0.7957 -0.4830 -0.3061
 7598SOL     OW34429   3.890   2.200  15.208  0.2106  0.1651  0.5705
 7598SOL    HW134430   3.947   2.167  15.278  0.0005 -2.2901 -0.4251
 7598SOL    HW234431   3.832   2.128  15.186  3.7201 -1.9177 -1.8484
 7599SOL     OW34432   1.561   3.356  16.908 -0.1938 -0.0628 -0.4204
 7599SOL    HW134433   1.500   3.317  16.845  0.4324  1.4957 -1.9693
 7599SOL    HW234434   1.568   3.438  16.860  0.3156  0.7762  1.0799
 7600SOL     OW34435   3.026   1.793  14.163  0.1746 -0.3297 -1.0045
 7600SOL    HW134436   2.936   1.797  14.195 -0.2037 -1.5235 -1.9284
 7600SOL    HW234437   3.025   1.838  14.079  1.5565  0.8056 -0.4142
 7601SOL     OW34438   4.225   1.692   9.092 -0.3867  0.2810  0.2843
 7601SOL    HW134439   4.312   1.729   9.104 -1.1071  0.9383  3.5507
 7601SOL    HW234440   4.227   1.608   9.137  0.7520  0.3862  0.4227
 7602SOL     OW34441   2.843   3.143   2.514 -0.1890 -0.3455 -0.2691
 7602SOL    HW134442   2.812   3.092   2.439  0.5431 -0.4015 -0.5352
 7602SOL    HW234443   2.909   3.190   2.464 -0.4087  0.0318 -0.2067
 7603SOL     OW34444   0.132   0.555   2.151  0.1311 -0.7406  0.5757
 7603SOL    HW134445   0.205   0.609   2.119  1.3297 -2.9450 -0.4364
 7603SOL    HW234446   0.072   0.619   2.188 -0.2333 -0.7504 -0.0137
 7604SOL     OW34447   0.475   4.025   4.850  0.4036 -0.7094 -0.3078
 7604SOL    HW134448   0.564   4.036   4.817  0.4072 -1.1111 -0.4301
 7604SOL    HW234449   0.464   3.935   4.819  0.2267 -0.8723  0.2337
 7605SOL     OW34450   4.118   2.855  11.273  0.3242 -0.2709  0.0653
 7605SOL    HW134451   4.044   2.834  11.329  2.4460  0.4116  3.1685
 7605SOL    HW234452   4.074   2.875  11.190 -0.1127 -2.2051 -0.1622
 7606SOL     OW34453   0.730   1.767   3.296 -0.2335 -0.1900 -0.0550
 7606SOL    HW134454   0.801   1.807   3.346 -2.1093  0.4395  2.0923
 7606SOL    HW234455   0.690   1.843   3.254 -0.3473 -1.1153 -1.6429
 7607SOL     OW34456   0.431   1.778   6.022  0.3776 -0.0517 -0.4450
 7607SOL    HW134457   0.518   1.745   6.046  0.6272  1.4858  0.7149
 7607SOL    HW234458   0.439   1.780   5.927 -1.9536  0.1000 -0.6421
 7608SOL     OW34459   2.895   4.030  13.462 -0.1572 -0.0712 -0.3199
 7608SOL    HW134460   2.859   4.118  13.451  1.3561  0.7164  1.1340
 7608SOL    HW234461   2.845   3.981  13.396  2.4568 -1.9774 -0.8703
 7609SOL     OW34462   0.919   3.182   6.054 -0.3612  0.2979 -0.1458
 7609SOL    HW134463   0.841   3.133   6.025  1.0206 -1.1271 -1.4524
 7609SOL    HW234464   0.924   3.239   5.978  0.2424  0.0751 -0.2732
 7610SOL     OW34465   1.631   0.800   5.187  0.1594  0.3375 -0.0677
 7610SOL    HW134466   1.691   0.811   5.113  0.0784  0.5377 -0.1046
 7610SOL    HW234467   1.549   0.773   5.147  0.7672 -0.6841 -0.6131
 7611SOL     OW34468   3.425   0.689   4.917  0.3391 -0.1973  0.2714
 7611SOL    HW134469   3.472   0.677   4.835 -0.0449  1.3003 -0.1580
 7611SOL    HW234470   3.343   0.652   4.884 -0.2720 -0.4086  2.0436
 7612SOL     OW34471   3.580   3.408   4.890 -0.1410  0.1326  0.6022
 7612SOL    HW134472   3.670   3.422   4.859 -0.5789  0.9193 -0.3317
 7612SOL    HW234473   3.587   3.351   4.966  1.3554  0.3202  0.5999
 7613SOL     OW34474   0.039   3.561  16.628 -0.1247 -0.0777 -0.5459
 7613SOL    HW134475   0.053   3.544  16.535 -0.9092  0.9859 -0.8612
 7613SOL    HW234476   0.123   3.579  16.669 -1.1631  0.0058  1.5785
 7614SOL     OW34477   0.764   1.207   3.891 -0.0980  0.0410 -0.7401
 7614SOL    HW134478   0.674   1.189   3.920 -0.1523  0.3837 -0.6986
 7614SOL    HW234479   0.805   1.128   3.925 -0.6412  0.1511  0.2071
 7615SOL     OW34480   4.340   4.418  11.636  0.3358 -0.7362 -0.2150
 7615SOL    HW134481   4.363   4.418  11.729  1.1000  0.2809 -0.4031
 7615SOL    HW234482   4.391   4.496  11.613  0.3465 -0.5314  0.5059
 7616SOL     OW34483   1.589   1.771   2.762 -0.3854  0.6486 -0.7092
 7616SOL    HW134484   1.682   1.746   2.764 -0.6781 -0.3590 -0.2959
 7616SOL    HW234485   1.579   1.821   2.843  1.4638  1.4469 -0.9551
 7617SOL     OW34486   4.321   1.109   0.060  0.4168  0.2150  0.0380
 7617SOL    HW134487   4.243   1.129   0.112 -0.4548  0.9647 -1.5471
 7617SOL    HW234488   4.378   1.181   0.088 -0.2008  0.5271  0.4969
 7618SOL     OW34489   1.959   4.065  10.745 -0.5539  0.3335 -1.0711
 7618SOL    HW134490   1.977   4.113  10.664 -0.9007  0.7128 -0.9213
 7618SOL    HW234491   2.049   4.065  10.776  0.1974  0.6629 -3.2249
 7619SOL     OW34492   3.531   1.398   7.004  0.6725  0.3309  0.6118
 7619SOL    HW134493   3.563   1.347   7.079  1.2923 -2.4446 -1.5832
 7619SOL    HW234494   3.499   1.328   6.948 -0.5301  0.5534  1.0230
 7620SOL     OW34495   4.031   4.384   4.231  0.4088 -0.1588 -0.1019
 7620SOL    HW134496   4.032   4.474   4.263  0.4217 -0.1073 -0.2464
 7620SOL    HW234497   3.990   4.394   4.145 -0.3518 -2.1299  0.0517
 7621SOL     OW34498   3.909   3.981   8.725 -0.6086 -0.3588 -0.4341
 7621SOL    HW134499   3.836   3.921   8.713 -0.0893 -0.9720 -0.5484
 7621SOL    HW234500   3.870   4.060   8.763 -0.5166  0.1072 -1.3019
 7622SOL     OW34501   1.086   4.490   1.351 -0.2297 -0.3292  0.1848
 7622SOL    HW134502   1.013   4.548   1.329 -0.3749 -1.0709 -1.3005
 7622SOL    HW234503   1.145   4.550   1.396 -0.0463 -1.1413  1.0266
 7623SOL     OW34504   4.274   3.626   9.141 -0.3929  0.1893  0.6385
 7623SOL    HW134505   4.225   3.557   9.185 -2.4896  0.2033 -1.6453
 7623SOL    HW234506   4.322   3.661   9.216  0.3897  0.9212 -0.1929
 7624SOL     OW34507   0.333   3.984  10.344  0.3802 -0.2789 -0.4869
 7624SOL    HW134508   0.281   4.063  10.359 -0.3462 -1.1673  1.6296
 7624SOL    HW234509   0.282   3.941  10.276  0.0575 -1.4101  0.4691
 7625SOL     OW34510   3.095   0.136  10.662 -0.3709 -0.2740 -0.0805
 7625SOL    HW134511   3.031   0.094  10.604 -2.7180  3.7876 -0.4013
 7625SOL    HW234512   3.169   0.089  10.623 -0.6164 -1.3816  0.7750
 7626SOL     OW34513   4.195   4.036  14.794  0.0137 -0.4721  0.7463
 7626SOL    HW134514   4.199   4.052  14.888 -0.1000 -0.0924  0.6865
 7626SOL    HW234515   4.246   4.115  14.777 -0.3246 -0.3221  0.4251
 7627SOL     OW34516   4.510   2.056  12.023  0.4290  0.1716  0.3481
 7627SOL    HW134517   4.442   1.990  12.041  0.7618 -0.1578  0.3914
 7627SOL    HW234518   4.556   2.014  11.950  0.7099 -1.0951  1.2504
 7628SOL     OW34519   1.380   0.907  12.996 -0.0781  0.1098  0.5385
 7628SOL    HW134520   1.295   0.952  12.993  0.8181  1.6117 -1.9481
 7628SOL    HW234521   1.349   0.821  12.967  1.0422 -0.2488  0.3993
 7629SOL     OW34522   3.374   4.681   1.660 -0.0618 -0.0359 -0.4557
 7629SOL    HW134523   3.419   4.701   1.742 -3.0026  0.4346  1.0254
 7629SOL    HW234524   3.426   4.604   1.636 -0.3860 -1.1337  2.3853
 7630SOL     OW34525   4.040   3.449   6.747  0.4640 -0.0819  0.0164
 7630SOL    HW134526   3.955   3.489   6.766  0.0416  0.6807 -3.5630
 7630SOL    HW234527   4.067   3.420   6.834  1.4031  0.1411 -0.2051
 7631SOL     OW34528   2.707   3.880   4.864 -0.0150 -0.0670 -0.4550
 7631SOL    HW134529   2.799   3.875   4.892 -0.8176  0.2655  2.2949
 7631SOL    HW234530   2.653   3.931   4.925  2.5284  0.0519  1.6738
 7632SOL     OW34531   3.552   3.646   9.184 -0.0638  0.0603 -0.1583
 7632SOL    HW134532   3.525   3.626   9.094  0.0659  0.2268 -0.2352
 7632SOL    HW234533   3.480   3.602   9.227 -1.5019  1.0932 -1.4901
 7633SOL     OW34534   1.666   1.338   4.250  0.2373 -0.2474 -0.2104
 7633SOL    HW134535   1.612   1.302   4.181 -0.5097 -1.6382  1.1010
 7633SOL    HW234536   1.615   1.416   4.273  0.8189  0.1753 -0.3706
 7634SOL     OW34537   1.907   1.742  17.479 -0.5502 -0.4330  0.5964
 7634SOL    HW134538   1.927   1.662  17.430  0.2003  0.6003 -0.7469
 7634SOL    HW234539   1.816   1.760  17.458  0.4572  1.8506 -1.7107
 7635SOL     OW34540   4.564   3.225   8.070 -0.4089 -0.2498 -0.1201
 7635SOL    HW134541   4.579   3.319   8.070  0.6568 -0.4066  0.4844
 7635SOL    HW234542   4.638   3.211   8.010 -0.1055  1.4236 -0.1410
 7636SOL     OW34543   0.973   1.993   9.618 -0.1543  0.1208 -0.3671
 7636SOL    HW134544   0.978   2.021   9.709 -1.7624 -0.9658  0.0648
 7636SOL    HW234545   1.063   1.968   9.597  1.0323  2.6333  1.7805
 7637SOL     OW34546   2.094   4.316   8.105 -0.0276 -0.1822  0.2123
 7637SOL    HW134547   2.150   4.286   8.177 -0.2576 -2.1905 -0.4379
 7637SOL    HW234548   2.125   4.263   8.031  0.3168  1.6501 -0.9499
 7638SOL     OW34549   3.638   3.186   6.003 -0.1451 -0.1889 -0.2965
 7638SOL    HW134550   3.546   3.174   6.026  0.1006 -0.0626  0.7493
 7638SOL    HW234551   3.682   3.185   6.088 -1.2022 -1.3162  0.2381
 7639SOL     OW34552   1.364   1.753   5.083  0.0428  0.1322  0.0470
 7639SOL    HW134553   1.321   1.785   5.003 -1.3965  1.8987  1.5467
 7639SOL    HW234554   1.376   1.837   5.128  2.9102  0.7152 -1.7621
 7640SOL     OW34555   4.683   1.488   2.697  0.0027  0.0578 -0.1079
 7640SOL    HW134556   0.005   1.414   2.690 -0.6864 -0.6214  1.2025
 7640SOL    HW234557   4.681   1.514   2.789 -0.1018  1.6044 -0.5381
 7641SOL     OW34558   3.913   1.504   5.229 -0.3417  0.3661 -0.6337
 7641SOL    HW134559   3.920   1.527   5.136 -0.2331 -4.0399 -1.7057
 7641SOL    HW234560   3.855   1.428   5.221 -1.4042  1.2059 -0.8470
 7642SOL     OW34561   3.532   0.472   3.645 -0.2240 -0.2907  0.4078
 7642SOL    HW134562   3.620   0.507   3.658  0.0657 -0.8027 -0.1686
 7642SOL    HW234563   3.525   0.458   3.550  0.9844 -1.3231  0.4774
 7643SOL     OW34564   2.760   3.074   2.767  0.2960 -0.0255  0.4046
 7643SOL    HW134565   2.775   2.979   2.768 -0.2912 -0.1270 -1.1104
 7643SOL    HW234566   2.791   3.094   2.679 -0.8390  0.0900  0.0314
 7644SOL     OW34567   4.121   3.785  10.091  0.2714 -0.1652  0.1148
 7644SOL    HW134568   4.049   3.817  10.037 -0.5159 -2.3128 -0.1354
 7644SOL    HW234569   4.171   3.739  10.023 -0.0522 -1.7656  0.9430
 7645SOL     OW34570   2.011   4.642   4.449  0.4366 -0.4340 -0.2302
 7645SOL    HW134571   1.958   4.630   4.370 -0.7932  0.5762  0.4322
 7645SOL    HW234572   1.939   4.648   4.513  1.7248  1.0496  1.1085
 7646SOL     OW34573   3.372   3.378   6.713 -0.0072 -0.1636 -0.1123
 7646SOL    HW134574   3.323   3.386   6.631  0.0243  1.5402  0.0346
 7646SOL    HW234575   3.347   3.460   6.756 -2.2954  0.0591 -1.8551
 7647SOL     OW34576   3.354   4.142   3.531  0.0260  0.2051  0.1823
 7647SOL    HW134577   3.396   4.135   3.446 -0.9389 -0.0864 -0.2727
 7647SOL    HW234578   3.290   4.070   3.528 -0.9956  1.0553  1.6241
 7648SOL     OW34579   2.061   2.375  13.653 -0.1065  0.1596  0.8770
 7648SOL    HW134580   1.989   2.420  13.609 -0.8353 -0.1402  1.7518
 7648SOL    HW234581   2.044   2.282  13.636  0.6077 -0.0764  1.4433
 7649SOL     OW34582   4.181   3.272  13.190  0.0296  0.3361 -0.1859
 7649SOL    HW134583   4.238   3.277  13.267 -1.2059 -0.4061  0.7756
 7649SOL    HW234584   4.099   3.233  13.218  0.6426 -2.1374 -1.8205
 7650SOL     OW34585   3.305   4.179   3.790  0.4044 -0.4928 -0.3052
 7650SOL    HW134586   3.326   4.161   3.698 -0.4182  1.4124 -0.8652
 7650SOL    HW234587   3.305   4.091   3.827 -1.0538 -0.9412 -1.3342
 7651SOL     OW34588   4.018   1.203   1.509 -0.2538 -0.3184 -0.2987
 7651SOL    HW134589   3.948   1.155   1.465  1.3663 -3.1799  0.1997
 7651SOL    HW234590   3.964   1.258   1.566  1.1916  0.9258 -0.1156
 7652SOL     OW34591   2.117   3.319  13.979  0.6203 -0.2464  0.5468
 7652SOL    HW134592   2.026   3.295  13.992  0.3583 -0.9845 -2.7903
 7652SOL    HW234593   2.114   3.308  13.884  0.7811  1.5026  0.3458
 7653SOL     OW34594   4.309   3.269  15.335 -0.5817  0.1158  0.1828
 7653SOL    HW134595   4.311   3.355  15.378  0.6065  1.3973 -2.4142
 7653SOL    HW234596   4.356   3.290  15.254 -1.0556  0.0470 -0.1166
 7654SOL     OW34597   3.430   0.856   3.210  0.7700 -0.4536  0.3752
 7654SOL    HW134598   3.449   0.910   3.133 -3.0312  1.0435  0.4759
 7654SOL    HW234599   3.341   0.884   3.233  1.1489  0.5516  0.6269
 7655SOL     OW34600   2.315   2.069   5.297 -0.0493 -0.2369 -0.4178
 7655SOL    HW134601   2.361   2.016   5.362  2.5793  0.7562 -1.4921
 7655SOL    HW234602   2.382   2.136   5.304 -0.2378 -0.1643  0.7334
 7656SOL     OW34603   3.953   1.429  16.258 -0.4544 -0.1047 -0.4526
 7656SOL    HW134604   3.862   1.401  16.248 -0.7658 -0.0983  2.2408
 7656SOL    HW234605   3.989   1.342  16.242  0.9165  0.3956 -0.1538
 7657SOL     OW34606   4.304   3.822  16.783  0.2701  0.5602  0.3166
 7657SOL    HW134607   4.292   3.754  16.716 -0.7983  1.9246 -0.8770
 7657SOL    HW234608   4.382   3.803  16.835 -0.4078  2.3327  1.9698
 7658SOL     OW34609   0.120   2.250   8.326 -0.6792  0.0092 -0.2198
 7658SOL    HW134610   0.049   2.286   8.272  0.4125  2.9041  0.2430
 7658SOL    HW234611   0.180   2.217   8.259 -2.4682 -1.5926 -1.0491
 7659SOL     OW34612   4.209   2.357   0.773 -0.5466 -0.8636  0.6213
 7659SOL    HW134613   4.158   2.437   0.788 -1.6871 -1.6030  0.6503
 7659SOL    HW234614   4.275   2.385   0.708 -1.4641  0.0393  0.0785
 7660SOL     OW34615   3.049   3.301  11.205  0.1543  0.6434 -0.5315
 7660SOL    HW134616   3.073   3.215  11.240 -0.9204  1.2027  1.6182
 7660SOL    HW234617   3.059   3.366  11.275  0.4428  0.2594 -0.2135
 7661SOL     OW34618   2.338   1.078  12.399 -0.6704  0.0267  0.2536
 7661SOL    HW134619   2.277   1.035  12.339  1.0077  1.1512 -2.2405
 7661SOL    HW234620   2.296   1.064  12.484 -0.3605  2.7791  0.8506
 7662SOL     OW34621   1.378   4.674  14.308  0.8378 -0.0012 -0.0446
 7662SOL    HW134622   1.448   4.693  14.371 -0.8736  0.1084  1.8190
 7662SOL    HW234623   1.427   4.627  14.240 -0.0910 -0.2507 -0.5417
 7663SOL     OW34624   2.102   4.124   5.104  0.1937 -0.0281  0.9864
 7663SOL    HW134625   2.167   4.069   5.147 -0.2914 -1.3939 -0.0151
 7663SOL    HW234626   2.111   4.208   5.149  0.1108  0.8134 -0.5380
 7664SOL     OW34627   3.578   1.171   7.139 -0.0462  0.5235 -0.0207
 7664SOL    HW134628   3.664   1.135   7.120  0.1944 -0.3610  2.7364
 7664SOL    HW234629   3.523   1.102   7.103  1.0235  0.0865 -0.7998
 7665SOL     OW34630   0.154   2.076   9.845  0.5053  0.0348 -1.0087
 7665SOL    HW134631   0.227   2.014   9.847 -0.2913 -0.9262 -2.9128
 7665SOL    HW234632   0.148   2.083   9.941 -0.3730 -0.5928 -1.0231
 7666SOL     OW34633   2.632   1.110   5.076 -0.0704 -0.2710  0.0762
 7666SOL    HW134634   2.621   1.035   5.133 -1.7160  1.6351  2.2667
 7666SOL    HW234635   2.670   1.063   5.002  1.1868  0.0154  0.5469
 7667SOL     OW34636   3.169   2.372   3.241  0.1915  0.1502  0.2881
 7667SOL    HW134637   3.206   2.412   3.319 -0.4921 -0.8167  1.1247
 7667SOL    HW234638   3.093   2.425   3.218  0.1978  0.6197  1.3281
 7668SOL     OW34639   3.057   0.096   8.099  0.2044 -0.0240  0.4678
 7668SOL    HW134640   3.015   0.122   8.180 -0.7621  0.8263 -0.3020
 7668SOL    HW234641   3.069   0.185   8.066  0.8615  0.4116  1.9099
 7669SOL     OW34642   2.149   3.084  14.668 -0.3769 -0.5766 -0.1000
 7669SOL    HW134643   2.227   3.114  14.620 -0.3475  0.3048  0.4925
 7669SOL    HW234644   2.160   2.991  14.649 -0.8152 -0.8469  0.9745
 7670SOL     OW34645   0.720   3.029   6.212 -0.6189 -0.0897  0.2260
 7670SOL    HW134646   0.729   2.939   6.180  2.5144  0.3982 -0.2011
 7670SOL    HW234647   0.634   3.023   6.254 -0.2374  0.5858  1.1024
 7671SOL     OW34648   3.675   1.825   5.127  0.5472  0.3859 -0.4141
 7671SOL    HW134649   3.592   1.810   5.173  0.2619  0.8003 -0.7881
 7671SOL    HW234650   3.666   1.768   5.051 -0.8192 -1.1774  0.9240
 7672SOL     OW34651   2.653   3.661   5.725 -0.0234 -0.3099  0.3973
 7672SOL    HW134652   2.719   3.664   5.656 -1.6375  0.6372 -1.1348
 7672SOL    HW234653   2.663   3.753   5.750 -2.9294 -0.3787  1.8941
 7673SOL     OW34654   3.541   1.649  14.002  0.0963  0.0778 -0.4104
 7673SOL    HW134655   3.626   1.625  14.037  0.1209  0.8979  0.0869
 7673SOL    HW234656   3.492   1.567  14.007 -1.1535  0.6974 -2.1634
 7674SOL     OW34657   4.358   1.141   4.791 -0.5802  0.1493 -0.5711
 7674SOL    HW134658   4.306   1.116   4.868 -1.5545  0.9186 -0.9838
 7674SOL    HW234659   4.427   1.075   4.781  0.9036  1.7225 -0.7035
 7675SOL     OW34660   2.294   4.445   4.810  0.7861 -0.4562  0.0838
 7675SOL    HW134661   2.302   4.350   4.798 -0.9223 -0.8451  2.0198
 7675SOL    HW234662   2.268   4.466   4.721 -0.2038  3.9175  1.4190
 7676SOL     OW34663   1.013   1.133  11.696 -0.2753  0.0751 -0.2512
 7676SOL    HW134664   1.049   1.072  11.632 -0.6100 -2.6796  2.1689
 7676SOL    HW234665   1.098   1.173  11.715 -1.1651  1.9496 -0.2439
 7677SOL     OW34666   0.734   3.478  15.826 -0.1198 -0.0351 -0.3152
 7677SOL    HW134667   0.748   3.572  15.833 -0.2837  0.1124 -1.9974
 7677SOL    HW234668   0.758   3.455  15.916  1.0709  0.7191 -0.4320
 7678SOL     OW34669   2.064   3.522   3.678  0.1234  0.7554 -0.8394
 7678SOL    HW134670   2.137   3.498   3.734 -1.7971  0.7292  1.6478
 7678SOL    HW234671   2.115   3.578   3.620 -1.1103  2.3449 -0.3827
 7679SOL     OW34672   0.083   0.411   4.601  0.3111 -0.2250  0.0491
 7679SOL    HW134673   0.159   0.455   4.641 -1.7294  1.8255  1.6896
 7679SOL    HW234674   0.123   0.364   4.528 -1.2329 -0.5166 -0.6095
 7680SOL     OW34675   2.118   4.627   4.967 -0.5370  0.0223  0.7726
 7680SOL    HW134676   2.165   4.567   4.909  1.4539 -0.4491  2.8624
 7680SOL    HW234677   2.094   4.692   4.901 -0.7007 -2.1059 -1.2894
 7681SOL     OW34678   4.563   4.526  16.049  0.3089 -0.2113 -0.4651
 7681SOL    HW134679   4.497   4.569  16.104  0.6438  1.4024 -1.3053
 7681SOL    HW234680   4.625   4.499  16.117 -1.3929  1.4867  1.7650
 7682SOL     OW34681   0.426   3.635   6.299  0.0921 -0.4304 -0.4013
 7682SOL    HW134682   0.443   3.564   6.362 -1.6003 -1.7492 -1.4266
 7682SOL    HW234683   0.387   3.699   6.358 -1.9415 -0.2722 -1.9372
 7683SOL     OW34684   0.772   1.463   2.048 -0.1557 -0.3331  0.3781
 7683SOL    HW134685   0.699   1.522   2.068  0.3344  0.5319 -0.4019
 7683SOL    HW234686   0.806   1.461   2.137 -0.0185  0.2373  0.3398
 7684SOL     OW34687   0.904   2.934   4.237  0.2345 -0.1236  0.0112
 7684SOL    HW134688   0.937   2.941   4.147 -0.1854  0.4423 -0.0968
 7684SOL    HW234689   0.981   2.968   4.283 -0.6348 -0.9279  2.0612
 7685SOL     OW34690   1.871   4.190   4.995 -0.0487 -0.5312  0.2990
 7685SOL    HW134691   1.950   4.162   5.042  0.8840  1.6406  0.0110
 7685SOL    HW234692   1.860   4.107   4.948 -0.6305 -0.8229  0.9552
 7686SOL     OW34693   4.417   1.269   8.055 -0.0529  0.1111  0.2527
 7686SOL    HW134694   4.451   1.350   8.016 -1.1613  1.0114  1.1734
 7686SOL    HW234695   4.481   1.259   8.125  0.3007 -2.1993 -0.3919
 7687SOL     OW34696   3.518   3.846   2.692  0.1717  0.9705 -0.0915
 7687SOL    HW134697   3.589   3.907   2.710  0.2031  0.2778  2.1095
 7687SOL    HW234698   3.457   3.906   2.648 -4.2967 -2.8820  0.8516
 7688SOL     OW34699   2.806   0.316  11.395  0.3002  0.4866  0.0893
 7688SOL    HW134700   2.715   0.346  11.404 -0.0353 -0.1356 -1.1934
 7688SOL    HW234701   2.843   0.401  11.373  1.8197  0.0022  0.8136
 7689SOL     OW34702   1.481   2.823  14.985 -1.0051 -0.0800 -0.2229
 7689SOL    HW134703   1.489   2.861  15.072 -1.4850  0.4100 -0.3943
 7689SOL    HW234704   1.511   2.891  14.924 -2.2901 -0.0229 -0.8063
 7690SOL     OW34705   0.253   0.690   4.396  0.9008 -0.5666 -0.0215
 7690SOL    HW134706   0.279   0.744   4.471  1.4134 -0.9194  0.0590
 7690SOL    HW234707   0.336   0.663   4.357 -0.3580 -1.5553 -1.9843
 7691SOL     OW34708   4.735   1.171   2.246 -0.7431  0.0639  0.0276
 7691SOL    HW134709   4.721   1.211   2.332  1.8884 -0.3852  0.6666
 7691SOL    HW234710   4.708   1.084   2.275 -0.4453 -0.4295 -1.1898
 7692SOL     OW34711   2.912   4.621   7.921  0.0982 -0.5613 -0.8283
 7692SOL    HW134712   2.872   4.655   7.841 -1.5067  0.2726  0.3406
 7692SOL    HW234713   2.954   4.698   7.959  0.1464 -0.8453 -0.2971
 7693SOL     OW34714   2.336   0.708  12.347 -0.9020  0.2234 -0.2558
 7693SOL    HW134715   2.405   0.745  12.402 -0.1373 -0.4604 -0.7542
 7693SOL    HW234716   2.303   0.791  12.313 -0.9495  0.4710  0.3942
 7694SOL     OW34717   1.566   3.714   6.810 -0.0887 -0.3432  0.1410
 7694SOL    HW134718   1.622   3.666   6.871 -1.8431 -1.4090  0.9236
 7694SOL    HW234719   1.525   3.643   6.761 -0.3381 -0.2089  0.1549
 7695SOL     OW34720   0.890   0.893   5.892 -0.1721 -0.0573 -0.7387
 7695SOL    HW134721   0.917   0.942   5.970 -2.3624  0.5518 -0.3563
 7695SOL    HW234722   0.809   0.943   5.880 -0.2054  0.3272  1.0466
 7696SOL     OW34723   3.729   3.769   4.744  0.4900 -0.2213  0.2992
 7696SOL    HW134724   3.727   3.742   4.836  0.0235 -0.9681  0.0755
 7696SOL    HW234725   3.757   3.681   4.717  2.4170  0.6903 -0.6829
 7697SOL     OW34726   0.546   0.452   9.677 -0.7351 -0.6102 -0.7706
 7697SOL    HW134727   0.464   0.497   9.697  0.4983  1.8598 -1.3989
 7697SOL    HW234728   0.506   0.388   9.618 -1.1274 -0.9570 -0.1287
 7698SOL     OW34729   2.976   3.071   2.051  0.5790  0.0108 -0.3934
 7698SOL    HW134730   2.929   3.017   1.987 -0.6424  1.1217 -0.4345
 7698SOL    HW234731   2.967   3.153   2.001  0.6499  1.5170  2.0874
 7699SOL     OW34732   1.140   3.399   9.298  0.0975  0.1147  0.3121
 7699SOL    HW134733   1.083   3.457   9.247  0.8015  0.3894 -0.1553
 7699SOL    HW234734   1.070   3.358   9.349  0.0824  0.0409  0.2326
 7700SOL     OW34735   0.997   1.492  16.866  0.0672 -0.1980 -0.1490
 7700SOL    HW134736   1.045   1.475  16.786  2.3074  1.2611  0.8959
 7700SOL    HW234737   0.948   1.410  16.875 -3.2288  1.7657 -0.2203
 7701SOL     OW34738   3.482   3.644   5.292 -0.0028  0.1152 -0.6780
 7701SOL    HW134739   3.473   3.621   5.200  2.4766 -1.4736 -0.5225
 7701SOL    HW234740   3.564   3.600   5.316  0.1289  0.3027 -0.7883
 7702SOL     OW34741   3.002   3.812  10.181  0.2612 -0.1879 -0.2903
 7702SOL    HW134742   2.966   3.886  10.132 -1.0688 -0.9690 -0.4885
 7702SOL    HW234743   3.050   3.866  10.244  0.8185 -1.9593  0.7964
 7703SOL     OW34744   1.538   3.229   8.375 -0.0167  0.0307  0.0844
 7703SOL    HW134745   1.450   3.192   8.368  0.3337 -0.8434  0.3295
 7703SOL    HW234746   1.529   3.257   8.466  0.6431 -0.9886  0.4657
 7704SOL     OW34747   2.702   2.246   8.676  0.7817  0.0951  0.0912
 7704SOL    HW134748   2.704   2.174   8.739  1.5789  0.7546  0.8218
 7704SOL    HW234749   2.695   2.323   8.733 -2.0903 -1.2833  1.5980
 7705SOL     OW34750   1.054   0.558  14.073  0.5491 -0.0737 -0.1616
 7705SOL    HW134751   1.134   0.610  14.058  0.6507 -1.1191 -3.2990
 7705SOL    HW234752   1.010   0.620  14.131 -2.4059 -2.4755  0.1170
 7706SOL     OW34753   1.265   3.331  11.565  0.7691  0.2446 -0.3587
 7706SOL    HW134754   1.260   3.264  11.496  1.7762 -2.1661  1.9410
 7706SOL    HW234755   1.201   3.306  11.632  0.2892  1.3587 -0.3916
 7707SOL     OW34756   0.024   1.290   2.019  0.3948  0.2368  0.3051
 7707SOL    HW134757   0.020   1.259   2.109  1.5783 -2.3428 -0.5257
 7707SOL    HW234758   4.681   1.250   1.983  1.0502 -1.3437  0.6060
 7708SOL     OW34759   1.349   2.556   3.625  0.2931  0.4595 -0.0477
 7708SOL    HW134760   1.282   2.522   3.684 -1.0042 -1.1078 -2.4363
 7708SOL    HW234761   1.343   2.651   3.625 -1.0473  0.3699  0.6026
 7709SOL     OW34762   0.532   0.598   5.284 -0.0401  0.1081  0.2618
 7709SOL    HW134763   0.575   0.577   5.201  0.7183 -0.0820  0.7020
 7709SOL    HW234764   0.578   0.681   5.296  1.2895 -0.7974  1.5115
 7710SOL     OW34765   3.686   4.060   4.475  0.1527 -0.1589  0.5982
 7710SOL    HW134766   3.687   4.151   4.505 -0.5131 -0.7653  2.4740
 7710SOL    HW234767   3.763   4.060   4.418 -0.9109 -0.4118 -0.8363
 7711SOL     OW34768   2.974   3.737   2.176  0.3103 -0.1221  0.0202
 7711SOL    HW134769   2.938   3.736   2.265  0.3941  0.0921  0.0561
 7711SOL    HW234770   3.035   3.665   2.190  0.9867  0.2406 -1.0954
 7712SOL     OW34771   1.858   0.084   1.215 -0.7500 -0.3619 -0.2033
 7712SOL    HW134772   1.874   0.059   1.306  1.1974 -0.1716 -0.4860
 7712SOL    HW234773   1.875   0.178   1.215  0.0422 -0.4919  1.7513
 7713SOL     OW34774   2.513   0.235   9.477  0.8014  0.3984  0.0107
 7713SOL    HW134775   2.458   0.312   9.464  1.8875  1.1286 -0.2917
 7713SOL    HW234776   2.456   0.169   9.439  0.4687  1.6934 -1.7582
 7714SOL     OW34777   0.367   0.699   2.166  0.4483  0.1909 -0.1191
 7714SOL    HW134778   0.396   0.788   2.149  0.4383  0.4449  1.2076
 7714SOL    HW234779   0.332   0.707   2.254  2.2007  0.2209  0.5707
 7715SOL     OW34780   1.194   1.429   4.329 -0.4018  0.5879  0.1277
 7715SOL    HW134781   1.193   1.516   4.289 -1.2480  0.1933 -0.7337
 7715SOL    HW234782   1.169   1.448   4.419 -0.6137 -0.8133  0.3558
 7716SOL     OW34783   0.461   0.596   8.081 -0.6115  0.0772 -0.3752
 7716SOL    HW134784   0.493   0.590   8.171 -0.2103  0.0040 -0.5238
 7716SOL    HW234785   0.373   0.569   8.108 -1.3327  0.0067 -2.8141
 7717SOL     OW34786   3.779   0.109   3.748 -0.0786  0.4588  0.3866
 7717SOL    HW134787   3.855   0.062   3.713  0.9833 -0.1108  3.4720
 7717SOL    HW234788   3.821   0.175   3.803 -1.0646  1.4533 -0.0502
 7718SOL     OW34789   0.015   1.815   7.100 -0.3535 -0.7252 -0.7140
 7718SOL    HW134790   0.053   1.903   7.093  2.9020 -2.0398  0.5487
 7718SOL    HW234791   0.058   1.783   7.179 -3.6213 -1.1651  0.8874
 7719SOL     OW34792   0.056   3.815   0.886  0.3780  0.3612 -0.5329
 7719SOL    HW134793   0.085   3.791   0.974  0.1846 -1.9704 -1.1179
 7719SOL    HW234794   0.097   3.901   0.875 -0.6190  0.8943 -0.1442
 7720SOL     OW34795   0.353   2.758   8.787  0.4951 -0.4714  0.0472
 7720SOL    HW134796   0.378   2.839   8.743  0.8519 -0.6893 -0.1565
 7720SOL    HW234797   0.258   2.771   8.789  0.6310  0.3389  1.0748
 7721SOL     OW34798   4.679   0.193   4.371 -0.4577 -0.1190  0.8725
 7721SOL    HW134799   4.628   0.230   4.299  1.5871  2.3093  0.6918
 7721SOL    HW234800   0.013   0.256   4.383 -0.1930 -0.3241  0.3598
 7722SOL     OW34801   0.282   1.985   7.050  0.2776  0.4975 -0.0557
 7722SOL    HW134802   0.258   2.058   7.108  1.3872  0.3000  0.6542
 7722SOL    HW234803   0.331   1.918   7.098 -0.7851 -0.7451 -0.7203
 7723SOL     OW34804   3.629   2.966   8.692 -0.2884  0.1334 -0.1281
 7723SOL    HW134805   3.685   2.931   8.624 -0.0291 -1.8536  1.1042
 7723SOL    HW234806   3.658   2.925   8.774 -0.9310 -3.5670 -1.7696
 7724SOL     OW34807   2.788   3.206   5.610 -0.0934  0.3015  0.3028
 7724SOL    HW134808   2.770   3.140   5.677 -3.2913 -0.5005 -1.3352
 7724SOL    HW234809   2.871   3.247   5.636  0.3874 -0.8626  0.5830
 7725SOL     OW34810   0.958   1.759   2.886 -0.4696 -0.2437  0.1079
 7725SOL    HW134811   0.875   1.712   2.889  0.2673 -1.5087  0.3517
 7725SOL    HW234812   0.979   1.746   2.978 -0.4401 -0.2632  0.0981
 7726SOL     OW34813   0.746   1.661   8.053 -0.5143  0.3587  0.8096
 7726SOL    HW134814   0.834   1.667   8.017 -0.5033 -0.2857  0.7385
 7726SOL    HW234815   0.710   1.746   8.025 -0.9672 -0.3531 -0.7658
 7727SOL     OW34816   4.110   1.768   0.440  0.0215 -0.2296 -0.1851
 7727SOL    HW134817   4.201   1.739   0.445  0.2409  0.6930  1.2130
 7727SOL    HW234818   4.081   1.757   0.350 -1.0836 -3.5494  0.5647
 7728SOL     OW34819   0.456   2.489   5.782 -0.2768  0.7865  0.2644
 7728SOL    HW134820   0.534   2.523   5.826 -1.5171 -0.9665  3.8412
 7728SOL    HW234821   0.408   2.444   5.852 -2.1257 -0.7131 -1.9816
 7729SOL     OW34822   4.411   1.091  17.544  0.5914 -0.0831  0.1555
 7729SOL    HW134823   4.501   1.115  17.565  1.4496 -1.3624 -2.1595
 7729SOL    HW234824   4.368   1.106  17.629 -0.4053  2.2932 -0.7779
 7730SOL     OW34825   3.533   1.849  12.911  0.1817  0.2743 -0.1831
 7730SOL    HW134826   3.515   1.892  12.994 -1.0961  1.1387 -0.9158
 7730SOL    HW234827   3.629   1.842  12.909 -0.0308 -2.1624 -2.6029
 7731SOL     OW34828   2.288   0.609   4.934  0.7784 -0.3949  0.1443
 7731SOL    HW134829   2.382   0.591   4.930  0.5716 -1.6195  0.9062
 7731SOL    HW234830   2.286   0.674   4.864  1.0662  0.0614  0.5630
 7732SOL     OW34831   2.312   3.215   8.940  0.4768  0.5428  0.1820
 7732SOL    HW134832   2.292   3.122   8.932 -1.2036  0.8712  0.5710
 7732SOL    HW234833   2.303   3.244   8.849 -0.1608  2.1513  0.7556
 7733SOL     OW34834   2.869   0.181   6.032 -0.7123 -0.4624 -0.1634
 7733SOL    HW134835   2.926   0.189   5.956 -0.4388 -2.0141 -0.1165
 7733SOL    HW234836   2.803   0.249   6.016 -0.1814  0.6908  2.4812
 7734SOL     OW34837   2.790   3.094   4.736 -0.5116 -0.1821 -0.2832
 7734SOL    HW134838   2.863   3.106   4.675 -2.6582 -2.9099 -3.4081
 7734SOL    HW234839   2.836   3.112   4.818 -0.4745 -0.7232 -0.1821
 7735SOL     OW34840   4.582   1.967  13.170  0.0321  0.0384  0.5188
 7735SOL    HW134841   4.648   1.936  13.108 -0.1473  1.2696 -0.2796
 7735SOL    HW234842   4.507   1.979  13.111 -0.3788 -1.2272  0.7932
 7736SOL     OW34843   3.754   0.439   7.061 -0.3234 -0.3644  0.2864
 7736SOL    HW134844   3.705   0.375   7.113  1.6726 -0.7868  1.7095
 7736SOL    HW234845   3.839   0.418   7.102 -0.7603  1.6498  2.2667
 7737SOL     OW34846   2.933   2.414  12.103  0.2526 -1.1189  0.0329
 7737SOL    HW134847   3.006   2.447  12.156 -0.4096  1.2859 -0.5465
 7737SOL    HW234848   2.980   2.378  12.028  0.3040  0.5811 -0.7411
 7738SOL     OW34849   1.925   0.565   5.855 -0.8274  0.0626 -0.3910
 7738SOL    HW134850   1.849   0.597   5.807 -1.1628  1.3106  0.9541
 7738SOL    HW234851   1.985   0.560   5.781 -0.1414 -1.1126  0.2572
 7739SOL     OW34852   2.971   2.694  15.167 -0.0735  0.1469  0.1243
 7739SOL    HW134853   2.940   2.728  15.251 -0.6305 -0.9774  0.3702
 7739SOL    HW234854   2.931   2.608  15.158  1.5624 -0.5317 -0.5875
 7740SOL     OW34855   0.275   3.480   5.708  0.8202 -0.0526  0.1807
 7740SOL    HW134856   0.227   3.501   5.628 -0.5906  0.7035  1.2461
 7740SOL    HW234857   0.206   3.482   5.774  1.1051 -0.1858  0.4833
 7741SOL     OW34858   3.877   0.446  11.229  0.9138  0.2036  0.1853
 7741SOL    HW134859   3.916   0.465  11.144  1.1633 -2.2030 -0.2407
 7741SOL    HW234860   3.947   0.426  11.291  1.4626  0.6627 -0.2909
 7742SOL     OW34861   3.462   0.764  13.074 -0.2915  0.0677 -0.0442
 7742SOL    HW134862   3.496   0.796  13.158  0.1899 -0.7339  0.0619
 7742SOL    HW234863   3.388   0.713  13.106 -0.2381  0.0190  0.0023
 7743SOL     OW34864   0.607   0.823   6.750  0.4186  0.2098 -0.1725
 7743SOL    HW134865   0.553   0.814   6.671  0.5286 -0.0839 -0.2133
 7743SOL    HW234866   0.558   0.784   6.822 -1.8755  1.8272 -0.8624
 7744SOL     OW34867   0.355   3.393   6.138  0.4276 -0.2903  0.5573
 7744SOL    HW134868   0.417   3.331   6.098  0.8941  0.5724 -0.0738
 7744SOL    HW234869   0.416   3.445   6.190  0.3197  0.4249 -0.0291
 7745SOL     OW34870   3.875   1.601   4.600 -0.1345 -0.1788 -0.0120
 7745SOL    HW134871   3.855   1.514   4.633 -1.1711  0.0874  0.0455
 7745SOL    HW234872   3.872   1.579   4.507 -0.1590  1.9914 -0.5227
 7746SOL     OW34873   2.555   3.426  12.205  0.2390  0.0404 -0.3562
 7746SOL    HW134874   2.579   3.379  12.125 -1.4414 -0.9199 -0.2917
 7746SOL    HW234875   2.488   3.482  12.167  1.6044  1.2110 -1.0426
 7747SOL     OW34876   2.191   1.721   3.197  0.4833  0.0401 -0.8666
 7747SOL    HW134877   2.272   1.772   3.184 -0.3378  1.8390  1.0833
 7747SOL    HW234878   2.149   1.718   3.111 -1.5775  3.0795  0.0204
 7748SOL     OW34879   3.315   2.950   1.667 -0.1863 -0.2022 -0.5126
 7748SOL    HW134880   3.273   3.026   1.626 -1.7804 -0.1162  1.2639
 7748SOL    HW234881   3.407   2.943   1.643  0.0006  1.3587 -0.2430
 7749SOL     OW34882   3.401   1.258   8.188  0.1965  0.2107 -0.7035
 7749SOL    HW134883   3.475   1.271   8.129  0.0781  1.0729 -0.6593
 7749SOL    HW234884   3.367   1.182   8.140 -2.0349  0.5617  0.3000
 7750SOL     OW34885   1.214   4.461  11.473 -0.0192 -0.0016 -0.2151
 7750SOL    HW134886   1.155   4.533  11.454 -1.4324 -1.3568 -0.9382
 7750SOL    HW234887   1.185   4.384  11.424  0.8416  0.0644 -0.8309
 7751SOL     OW34888   0.023   1.910   2.913 -0.4625  0.7407 -0.5488
 7751SOL    HW134889   0.064   1.866   2.987  0.7027 -0.0179 -1.6578
 7751SOL    HW234890   0.085   1.983   2.901  1.7450 -0.8446  1.1709
 7752SOL     OW34891   0.332   1.995  16.829 -0.4744  0.3807  0.0285
 7752SOL    HW134892   0.370   1.954  16.751  3.0827  1.8875  0.9249
 7752SOL    HW234893   0.409   2.052  16.841 -0.7310  0.4064  1.6048
 7753SOL     OW34894   2.226   2.961   4.078 -0.3388  0.4169  0.2468
 7753SOL    HW134895   2.186   2.883   4.038  0.3217  0.2701 -0.1157
 7753SOL    HW234896   2.290   2.918   4.135 -1.7587  1.3710  2.5909
 7754SOL     OW34897   0.153   0.546  16.673  0.4966 -0.4586  0.1641
 7754SOL    HW134898   0.101   0.625  16.686  1.5534  0.2434  0.1810
 7754SOL    HW234899   0.106   0.488  16.733 -3.8418  1.8567 -1.0726
 7755SOL     OW34900   0.872   2.000   3.832 -0.3532 -0.3280 -0.2401
 7755SOL    HW134901   0.968   1.993   3.831 -0.2634  1.0448 -0.4093
 7755SOL    HW234902   0.845   1.987   3.741 -1.1365 -0.5189  0.0240
 7756SOL     OW34903   3.381   2.183  16.513 -0.1828  0.1635 -0.1758
 7756SOL    HW134904   3.324   2.174  16.436 -1.6268 -0.1498  0.9284
 7756SOL    HW234905   3.450   2.119  16.496 -1.5262 -1.2482 -0.3930
 7757SOL     OW34906   2.830   3.764  12.973 -0.3926  0.2960 -0.1170
 7757SOL    HW134907   2.798   3.679  13.002 -1.2592  0.8010  0.3964
 7757SOL    HW234908   2.815   3.817  13.051 -1.1442  0.6739 -0.5224
 7758SOL     OW34909   0.751   4.070   8.500 -0.0020 -0.5126  0.7962
 7758SOL    HW134910   0.791   4.008   8.562  1.2528 -0.7311 -0.2275
 7758SOL    HW234911   0.774   4.026   8.418  1.8536  0.0327  1.0158
 7759SOL     OW34912   0.880   0.462   9.209 -0.0728 -0.6247  0.4347
 7759SOL    HW134913   0.843   0.486   9.124 -0.2624  0.9863  0.9754
 7759SOL    HW234914   0.939   0.537   9.221 -2.6227  1.2529  1.2187
 7760SOL     OW34915   2.193   0.317   2.266 -0.1160 -0.0147  0.5498
 7760SOL    HW134916   2.187   0.388   2.329 -0.7209 -2.4107  3.1754
 7760SOL    HW234917   2.175   0.237   2.315 -1.5584 -0.5783 -0.8987
 7761SOL     OW34918   0.844   1.659   7.797 -0.1185 -0.2811  0.2859
 7761SOL    HW134919   0.919   1.668   7.738 -1.0300 -0.7112 -0.9180
 7761SOL    HW234920   0.810   1.571   7.781  2.7068 -1.2858 -0.1226
 7762SOL     OW34921   0.901   0.775   2.784 -1.0996  0.3697 -0.0935
 7762SOL    HW134922   0.902   0.829   2.706  1.6729  0.0417 -0.2809
 7762SOL    HW234923   0.936   0.694   2.747 -2.4279 -0.0300 -0.4641
 7763SOL     OW34924   2.821   0.971   7.727 -0.1201 -0.2975  0.1015
 7763SOL    HW134925   2.787   0.884   7.747 -2.9039  0.6091 -0.6597
 7763SOL    HW234926   2.778   0.987   7.643  2.4096  0.1673 -1.0994
 7764SOL     OW34927   4.507   3.494   5.508  0.5477  0.0703 -0.1697
 7764SOL    HW134928   4.430   3.530   5.464  0.0675 -0.7393  0.0144
 7764SOL    HW234929   4.567   3.567   5.527 -0.7552  0.2564  3.3531
 7765SOL     OW34930   4.006   3.137   0.338  0.5730  0.2877  0.2327
 7765SOL    HW134931   4.027   3.051   0.301  0.7444 -0.7735  2.7937
 7765SOL    HW234932   4.074   3.188   0.294  1.7047 -0.6942  0.8304
 7766SOL     OW34933   3.043   3.938  12.904 -0.3504  0.0782  0.1474
 7766SOL    HW134934   2.966   3.882  12.916 -0.1094 -0.4423 -0.6601
 7766SOL    HW234935   3.104   3.889  12.959  0.0377  0.8930  0.4306
 7767SOL     OW34936   1.191   2.807   2.237 -0.1478  0.4189 -0.2290
 7767SOL    HW134937   1.172   2.720   2.274  2.2599  0.7721  1.8930
 7767SOL    HW234938   1.275   2.829   2.278  0.5978  1.9807 -2.6234
 7768SOL     OW34939   3.187   2.299   6.204  0.2734 -0.1226  0.1926
 7768SOL    HW134940   3.227   2.258   6.280 -0.0242  1.4515  1.1920
 7768SOL    HW234941   3.263   2.321   6.150 -0.6591 -0.6233 -1.3142
 7769SOL     OW34942   4.463   1.645  11.660 -0.1775 -0.1633  0.8535
 7769SOL    HW134943   4.434   1.734  11.642  0.6667  0.3118  1.8534
 7769SOL    HW234944   4.524   1.632  11.587 -0.8620 -1.0418  0.4447
 7770SOL     OW34945   3.851   3.308   0.655  0.0080 -1.1108  0.1580
 7770SOL    HW134946   3.903   3.372   0.606  0.2728 -0.3385  1.4218
 7770SOL    HW234947   3.845   3.247   0.582  0.0393  1.2576 -1.8427
 7771SOL     OW34948   1.544   4.040   8.317 -0.2182 -0.2123 -0.5410
 7771SOL    HW134949   1.597   3.962   8.334  0.2390  0.3323  0.5816
 7771SOL    HW234950   1.471   4.027   8.378 -0.7484  1.2414 -0.8632
 7772SOL     OW34951   3.298   2.115   4.412  0.1085 -0.4093  0.0208
 7772SOL    HW134952   3.312   2.209   4.426  1.1584 -0.5572 -0.0181
 7772SOL    HW234953   3.210   2.122   4.377  1.4706 -0.8576 -3.5095
 7773SOL     OW34954   3.352   0.287  11.954 -0.5221  0.2149 -0.0916
 7773SOL    HW134955   3.304   0.362  11.919 -0.6717  0.2142  0.1120
 7773SOL    HW234956   3.366   0.310  12.046 -0.8692  0.3907 -0.0844
 7774SOL     OW34957   3.356   0.917   2.210 -0.2005  0.4260  0.9883
 7774SOL    HW134958   3.431   0.888   2.158  0.6059 -3.3716  4.2365
 7774SOL    HW234959   3.301   0.925   2.132 -0.2586 -2.7658  0.7027
 7775SOL     OW34960   2.020   0.047  11.267 -0.0275  0.0599 -0.0832
 7775SOL    HW134961   1.982   0.054  11.355 -0.4341  1.3192 -0.3606
 7775SOL    HW234962   2.104   0.005  11.283  1.3480  2.2859 -1.4885
 7776SOL     OW34963   0.534   0.272  12.896  0.0470 -0.4322  0.1558
 7776SOL    HW134964   0.627   0.293  12.887  0.2584 -1.2058  0.4469
 7776SOL    HW234965   0.535   0.176  12.890 -1.0366 -0.5633  1.9367
 7777SOL     OW34966   3.981   1.371   6.697 -0.2896  0.1410 -0.3589
 7777SOL    HW134967   4.064   1.406   6.727 -0.4439  0.6473 -0.5236
 7777SOL    HW234968   4.006   1.343   6.609  0.8883 -2.4868  0.8048
 7778SOL     OW34969   4.647   2.673   7.293  0.0883 -0.4504  0.0381
 7778SOL    HW134970   4.708   2.601   7.276  2.2857  1.4521 -0.2776
 7778SOL    HW234971   4.584   2.632   7.351 -0.3703  0.7858  0.4035
 7779SOL     OW34972   4.311   2.310   3.337 -0.0545  0.4516 -0.4873
 7779SOL    HW134973   4.372   2.271   3.274  1.4204 -0.5003  1.5291
 7779SOL    HW234974   4.366   2.328   3.413  0.7864  0.9807 -1.2221
 7780SOL     OW34975   0.377   0.554  17.550 -0.5737  0.6543 -0.3107
 7780SOL    HW134976   0.455   0.548  17.496 -0.7611  2.4074 -0.7769
 7780SOL    HW234977   0.381   0.470  17.597  2.9547  0.9517 -0.1387
 7781SOL     OW34978   0.674   0.199   2.910 -0.1783 -0.5601  0.2067
 7781SOL    HW134979   0.736   0.127   2.924 -0.3581 -0.4937  1.3234
 7781SOL    HW234980   0.713   0.258   2.846 -3.0266  1.8448  0.6573
 7782SOL     OW34981   4.588   1.564   7.403  0.1229  0.0524  0.4872
 7782SOL    HW134982   4.590   1.630   7.472  0.0151  1.0356 -0.4452
 7782SOL    HW234983   4.665   1.517   7.434  0.7724  0.2747 -0.7728
 7783SOL     OW34984   3.111   2.901   6.331 -0.0276 -0.4926 -0.5384
 7783SOL    HW134985   3.169   2.825   6.338  0.6342  0.0520 -0.0885
 7783SOL    HW234986   3.097   2.914   6.424 -0.6616  1.6704 -0.9467
 7784SOL     OW34987   2.700   3.048   5.828  0.3716 -0.2473 -0.4629
 7784SOL    HW134988   2.673   3.077   5.915 -0.7596  2.1681 -1.6080
 7784SOL    HW234989   2.618   3.021   5.787  0.4441  0.6314 -1.1848
 7785SOL     OW34990   2.077   4.025   2.728  0.0215  0.0784 -0.2590
 7785SOL    HW134991   2.101   3.965   2.657  0.2658 -0.8777  0.6227
 7785SOL    HW234992   2.021   3.968   2.780 -0.2554 -1.6525 -2.4054
 7786SOL     OW34993   2.450   1.661   6.594  0.5128 -0.1006 -0.1031
 7786SOL    HW134994   2.451   1.645   6.689 -1.4176  0.1105 -0.0388
 7786SOL    HW234995   2.521   1.602   6.570  0.9314 -0.8388  2.8810
 7787SOL     OW34996   3.615   2.552   9.043 -0.1945  0.0462  0.0331
 7787SOL    HW134997   3.687   2.553   8.980  0.3116  1.1305  0.6408
 7787SOL    HW234998   3.657   2.590   9.120 -0.2501 -2.7918  1.4695
 7788SOL     OW34999   2.668   3.144  15.481  0.5891  0.2433 -0.0090
 7788SOL    HW135000   2.699   3.132  15.391 -1.1807  0.7312 -0.6800
 7788SOL    HW235001   2.577   3.164  15.461  0.4266  1.2869  1.7697
 7789SOL     OW35002   0.513   2.245   5.200  0.2760 -0.3992 -0.4921
 7789SOL    HW135003   0.554   2.262   5.115  0.6309  2.4128  0.2578
 7789SOL    HW235004   0.565   2.294   5.263  0.6031 -0.2121 -0.9055
 7790SOL     OW35005   2.927   0.949   2.671  0.0894  0.1548 -0.1175
 7790SOL    HW135006   2.881   0.914   2.748  3.1127 -1.7226  0.8276
 7790SOL    HW235007   2.994   1.008   2.704 -0.5780  0.2801  1.0210
 7791SOL     OW35008   1.801   3.528  15.670 -0.3619 -0.0167  0.8094
 7791SOL    HW135009   1.812   3.530  15.765  2.1019  0.0150  0.5350
 7791SOL    HW235010   1.740   3.598  15.647 -0.7873 -0.2282  1.2723
 7792SOL     OW35011   4.329   2.605   5.332  0.4879  0.1491  0.3778
 7792SOL    HW135012   4.269   2.563   5.271  0.1093  2.3297 -0.7254
 7792SOL    HW235013   4.275   2.679   5.359  1.7669  1.0218  0.5526
 7793SOL     OW35014   3.296   0.571   2.296 -0.1799  0.2781 -0.1892
 7793SOL    HW135015   3.211   0.529   2.307  0.5143 -1.2442 -0.6014
 7793SOL    HW235016   3.299   0.618   2.379 -1.2422 -1.1623  0.6637
 7794SOL     OW35017   1.307   3.743   1.306 -0.2904  0.3015  0.3715
 7794SOL    HW135018   1.265   3.820   1.267 -1.9875 -0.9122 -0.1762
 7794SOL    HW235019   1.396   3.754   1.271 -0.7526 -1.9715 -1.5032
 7795SOL     OW35020   4.476   3.332   2.394  0.1260  0.1207  0.3265
 7795SOL    HW135021   4.559   3.306   2.433 -0.6769  1.5812  3.0300
 7795SOL    HW235022   4.501   3.384   2.317 -0.7893  1.1325  0.7160
 7796SOL     OW35023   2.862   1.612   4.469  0.5237 -0.0158  0.0792
 7796SOL    HW135024   2.780   1.581   4.507  0.2705 -1.1738 -1.4428
 7796SOL    HW235025   2.829   1.627   4.381  1.8842 -1.2050 -0.6270
 7797SOL     OW35026   4.340   1.289   7.452  0.1225 -0.2097  0.3487
 7797SOL    HW135027   4.327   1.355   7.384 -2.2040 -0.8313  0.1962
 7797SOL    HW235028   4.263   1.302   7.506 -1.0028 -0.6050 -1.1667
 7798SOL     OW35029   3.814   4.244  12.314  0.2160  0.3039  1.0909
 7798SOL    HW135030   3.726   4.280  12.304 -0.1912 -1.3144 -1.3220
 7798SOL    HW235031   3.829   4.261  12.407 -1.1359  1.7649  1.0366
 7799SOL     OW35032   1.222   0.914   5.087  0.2048  0.4836  0.2848
 7799SOL    HW135033   1.252   0.830   5.121  1.6343  0.2006 -1.6808
 7799SOL    HW235034   1.130   0.896   5.103  0.4940 -0.2157  1.1759
 7800SOL     OW35035   2.200   2.685   5.596  0.3632  0.2757  0.9958
 7800SOL    HW135036   2.285   2.659   5.561  1.0152  0.0863  2.7470
 7800SOL    HW235037   2.163   2.599   5.616 -2.7459  1.1103 -0.9394
 7801SOL     OW35038   4.385   0.324   2.336  0.3485  0.7283 -0.6715
 7801SOL    HW135039   4.306   0.363   2.373  1.1135  0.0732  1.6867
 7801SOL    HW235040   4.453   0.383   2.370 -1.9824  1.7073  2.2399
 7802SOL     OW35041   1.168   2.992  11.604 -0.3488 -0.4380  0.3455
 7802SOL    HW135042   1.183   3.051  11.530 -1.2064 -0.4335  0.1734
 7802SOL    HW235043   1.244   2.935  11.594  0.0095  0.0655  0.2379
 7803SOL     OW35044   1.152   3.585   6.367  0.3897 -0.5212  0.1801
 7803SOL    HW135045   1.114   3.521   6.306  0.8239 -0.4923 -0.1210
 7803SOL    HW235046   1.138   3.533   6.447 -0.6118 -0.3614  0.1101
 7804SOL     OW35047   0.686   4.153   8.142  0.1084 -0.8488 -0.0368
 7804SOL    HW135048   0.707   4.216   8.211  0.0795 -0.1248 -0.6872
 7804SOL    HW235049   0.699   4.204   8.062  1.1308  1.0360  1.3309
 7805SOL     OW35050   2.741   3.588   3.544  0.1937 -1.0877 -0.4884
 7805SOL    HW135051   2.665   3.529   3.543 -1.1943  0.6868  0.5778
 7805SOL    HW235052   2.762   3.605   3.452 -1.2943 -1.5183 -0.9168
 7806SOL     OW35053   1.503   0.896   8.758  0.2148 -0.6221 -0.2395
 7806SOL    HW135054   1.452   0.815   8.754 -1.6861  0.5781 -0.2586
 7806SOL    HW235055   1.458   0.949   8.693  0.7273  1.4444  1.1038
 7807SOL     OW35056   4.544   2.975   5.607  0.2585  0.2648 -0.2854
 7807SOL    HW135057   4.619   2.990   5.665 -0.1926 -1.3911  0.7114
 7807SOL    HW235058   4.498   2.905   5.653  0.3624  0.1471 -0.3593
 7808SOL     OW35059   1.699   4.625  10.507 -0.2690 -0.1413 -0.7425
 7808SOL    HW135060   1.773   4.642  10.565 -0.2040 -0.0357 -0.8569
 7808SOL    HW235061   1.630   4.650  10.568 -1.5814  0.9869 -2.7049
 7809SOL     OW35062   0.995   3.846   3.019  0.0501  0.4743  0.0234
 7809SOL    HW135063   1.015   3.894   2.938  0.7278 -2.2980 -1.4443
 7809SOL    HW235064   0.901   3.831   3.005 -0.0720  1.1914  0.0807
 7810SOL     OW35065   1.579   2.802  11.400 -0.5736  0.1652 -0.2441
 7810SOL    HW135066   1.641   2.731  11.417  1.8792  2.4335  0.2639
 7810SOL    HW235067   1.630   2.850  11.335 -1.1214  0.3998 -0.5021
 7811SOL     OW35068   2.868   0.011  15.409 -0.3176  0.4657 -0.6179
 7811SOL    HW135069   2.809   4.733  15.483  1.8608  2.1997  1.4424
 7811SOL    HW235070   2.941   0.041  15.463  0.3848  0.4866 -1.5824
 7812SOL     OW35071   2.447   4.008   7.664  0.1280 -0.2596  0.0285
 7812SOL    HW135072   2.493   3.951   7.725 -2.1846 -0.4467  1.6048
 7812SOL    HW235073   2.410   3.942   7.606  2.7889  0.6543 -2.7291
 7813SOL     OW35074   2.297   4.670   1.981 -0.0026  0.3559 -0.1228
 7813SOL    HW135075   2.330   4.623   1.904 -4.8605  1.3453 -2.8309
 7813SOL    HW235076   2.331   0.020   1.961  0.6509 -0.1711 -1.2895
 7814SOL     OW35077   0.097   1.698   8.220  0.1944  0.0332  0.1094
 7814SOL    HW135078   0.050   1.638   8.279 -1.3062 -0.6733 -1.7824
 7814SOL    HW235079   0.024   1.721   8.163 -0.1609 -1.5761 -0.1061
 7815SOL     OW35080   0.957   1.192   3.702  0.3728 -0.0555 -0.2188
 7815SOL    HW135081   1.026   1.154   3.756 -1.3792 -0.1267  1.9507
 7815SOL    HW235082   0.881   1.182   3.758  1.2137 -1.2590  0.7061
 7816SOL     OW35083   0.044   2.050   5.731 -0.2397 -0.0359  0.0119
 7816SOL    HW135084   0.106   1.978   5.720 -1.3009 -0.8640 -0.4746
 7816SOL    HW235085   0.083   2.109   5.666  0.2205 -0.2940  0.0535
 7817SOL     OW35086   0.067   4.003  16.724 -0.7379  0.1205  0.0948
 7817SOL    HW135087   0.048   4.096  16.735 -0.0760  0.3793 -0.9933
 7817SOL    HW235088   0.042   3.994  16.632  0.1964 -1.1951 -0.0300
 7818SOL     OW35089   1.341   1.297   3.679 -0.0190  0.2817 -1.1189
 7818SOL    HW135090   1.412   1.361   3.674  1.4931 -1.4243 -1.4538
 7818SOL    HW235091   1.352   1.259   3.592  0.6225  0.0480 -0.9350
 7819SOL     OW35092   3.384   4.198   0.564  0.1044 -0.3684  0.2283
 7819SOL    HW135093   3.365   4.292   0.556 -0.2685 -0.3783  0.9959
 7819SOL    HW235094   3.343   4.174   0.481 -1.5655  0.0448  0.9124
 7820SOL     OW35095   4.113   1.822   3.453 -0.5464 -0.6540  0.1369
 7820SOL    HW135096   4.086   1.913   3.463  0.4928 -0.4664  1.2909
 7820SOL    HW235097   4.153   1.810   3.540 -1.1171 -0.0288  0.4847
 7821SOL     OW35098   0.222   3.847  10.130 -0.2938  0.3752 -0.4334
 7821SOL    HW135099   0.260   3.766  10.095 -1.4866 -0.3788  0.0272
 7821SOL    HW235100   0.137   3.845  10.087 -0.7510  1.5938  0.4076
 7822SOL     OW35101   2.719   4.273  13.919 -0.6468 -0.0863  0.1633
 7822SOL    HW135102   2.788   4.334  13.944  0.3335 -1.4830  0.8806
 7822SOL    HW235103   2.770   4.207  13.873 -1.7767 -1.6336  1.1206
 7823SOL     OW35104   0.717   1.671  12.327  0.3692 -0.4547  0.1010
 7823SOL    HW135105   0.700   1.760  12.298  2.0066  0.6249  2.4572
 7823SOL    HW235106   0.812   1.679  12.338  0.2706 -0.2889  0.8752
 7824SOL     OW35107   2.838   4.481  14.822 -0.0998  0.2027  0.9033
 7824SOL    HW135108   2.856   4.467  14.914  1.0390 -0.9287  0.4988
 7824SOL    HW235109   2.778   4.554  14.840 -0.6498 -0.0907  0.2629
 7825SOL     OW35110   2.628   2.871  12.837 -0.4620  0.2549 -0.2615
 7825SOL    HW135111   2.615   2.963  12.815  1.7978  0.1261 -2.1623
 7825SOL    HW235112   2.653   2.865  12.929 -0.3764  0.2331 -0.2854
 7826SOL     OW35113   2.863   3.810  14.533  0.3523  0.5079  0.3890
 7826SOL    HW135114   2.781   3.770  14.504  2.3547 -0.7765 -3.6544
 7826SOL    HW235115   2.842   3.903  14.539  1.5486  0.9333 -1.8012
 7827SOL     OW35116   4.254   1.584   6.116 -0.0877  0.4408  0.8406
 7827SOL    HW135117   4.193   1.511   6.102  1.2708 -0.5330 -0.0176
 7827SOL    HW235118   4.259   1.620   6.027 -2.3983 -0.5154  0.3291
 7828SOL     OW35119   1.799   2.199   1.199 -0.1768 -0.4322  0.4731
 7828SOL    HW135120   1.763   2.122   1.155 -0.8340  0.9403 -1.4438
 7828SOL    HW235121   1.862   2.222   1.130 -0.1975 -2.0917 -0.1014
 7829SOL     OW35122   3.625   0.580   9.876 -0.3322  0.0741  0.0613
 7829SOL    HW135123   3.658   0.491   9.876  0.0168  0.2021  1.2180
 7829SOL    HW235124   3.616   0.594   9.781 -0.0405  0.8098  0.1423
 7830SOL     OW35125   4.330   2.768   7.122  0.0410 -0.2057 -0.4883
 7830SOL    HW135126   4.255   2.758   7.063 -0.2811  0.6539 -0.2175
 7830SOL    HW235127   4.307   2.715   7.198 -1.5878 -2.2402 -2.3914
 7831SOL     OW35128   4.392   0.318   2.906 -0.2904 -0.0943 -0.1498
 7831SOL    HW135129   4.383   0.270   2.989 -1.6104 -0.5572 -0.5657
 7831SOL    HW235130   4.303   0.317   2.872 -0.2682 -0.0864 -0.2076
 7832SOL     OW35131   1.637   1.935  12.118 -0.0529  0.1215 -0.0314
 7832SOL    HW135132   1.619   1.957  12.027  1.3038 -0.4599 -0.4554
 7832SOL    HW235133   1.549   1.915  12.150  0.5326  1.5258  2.4540
 7833SOL     OW35134   2.022   2.665  13.269  0.5183 -0.2807  0.7384
 7833SOL    HW135135   2.107   2.628  13.243  1.3591  1.6962  0.6690
 7833SOL    HW235136   2.047   2.756  13.281 -0.3882 -0.1655  1.7385
 7834SOL     OW35137   3.018   2.226   7.164 -0.1250 -0.2608 -0.2405
 7834SOL    HW135138   3.007   2.165   7.237 -1.6078 -0.0370 -0.2780
 7834SOL    HW235139   3.073   2.169   7.109 -1.1069 -0.5573 -0.9083
 7835SOL     OW35140   1.633   1.875  17.527  0.3489  0.0026 -0.3798
 7835SOL    HW135141   1.636   1.942  17.596 -1.7712 -0.4513  0.1470
 7835SOL    HW235142   1.545   1.886  17.491  0.3592  0.4429 -0.2687
 7836SOL     OW35143   3.607   2.402  16.799  0.5578  0.2890 -0.5984
 7836SOL    HW135144   3.594   2.309  16.819 -0.1483  0.8555  1.5426
 7836SOL    HW235145   3.688   2.415  16.848  1.9751  0.8513 -3.0556
 7837SOL     OW35146   3.662   1.725   3.646 -0.4990  0.2827  0.4158
 7837SOL    HW135147   3.614   1.643   3.639 -1.1744  0.6812  0.3658
 7837SOL    HW235148   3.623   1.761   3.725  1.8237  0.0984  1.6337
 7838SOL     OW35149   2.550   4.147   3.840 -0.2304  0.1779  0.2001
 7838SOL    HW135150   2.458   4.124   3.823 -0.6269  0.6396  1.7747
 7838SOL    HW235151   2.586   4.158   3.752 -1.4649  1.1716 -0.1774
 7839SOL     OW35152   0.239   2.049   4.856  0.0684  0.1432 -0.0799
 7839SOL    HW135153   0.261   2.142   4.845  0.7743  0.2494  2.2582
 7839SOL    HW235154   0.215   2.031   4.765  0.5464  2.4396 -0.6742
 7840SOL     OW35155   2.058   1.400   6.723  0.3144  0.6127 -0.1508
 7840SOL    HW135156   2.012   1.337   6.667 -1.3502  2.0178 -0.3498
 7840SOL    HW235157   2.152   1.382   6.714  0.3603  1.2292 -0.9330
 7841SOL     OW35158   3.033   2.272   9.060  0.0531 -0.1039  0.0821
 7841SOL    HW135159   3.051   2.228   8.977 -1.8478  2.2561 -1.5925
 7841SOL    HW235160   3.103   2.243   9.118  0.8678  4.1496  1.2244
 7842SOL     OW35161   2.151   1.920   7.450  0.3972 -0.2810 -0.3449
 7842SOL    HW135162   2.171   1.905   7.357 -0.2743  0.3512 -0.5964
 7842SOL    HW235163   2.091   1.994   7.436  0.1242 -0.7232 -1.5569
 7843SOL     OW35164   4.574   2.219   6.839  0.4551 -0.4634 -0.4313
 7843SOL    HW135165   4.495   2.243   6.886 -0.3154 -2.3330 -0.7622
 7843SOL    HW235166   4.551   2.127   6.829 -1.4083  0.0511 -0.9169
 7844SOL     OW35167   2.746   0.844   5.125  0.1819 -0.1088  0.0876
 7844SOL    HW135168   2.697   0.762   5.131  0.9582 -0.7380 -2.1051
 7844SOL    HW235169   2.815   0.822   5.062  0.0689  1.7323 -0.6910
 7845SOL     OW35170   0.842   2.511   6.305 -1.4980 -0.4469  0.1352
 7845SOL    HW135171   0.925   2.485   6.264 -0.2378 -1.4775  3.3355
 7845SOL    HW235172   0.826   2.601   6.277 -1.5643  0.1670  2.1532
 7846SOL     OW35173   2.011   4.120   8.494  0.0950 -0.0631 -0.4297
 7846SOL    HW135174   1.924   4.093   8.524 -0.6544  2.2541 -0.4857
 7846SOL    HW235175   1.986   4.173   8.419  1.3190  1.8877  0.5410
 7847SOL     OW35176   1.297   3.854  14.168  0.3844 -0.1101 -0.6896
 7847SOL    HW135177   1.207   3.872  14.138  0.5216  0.9569 -0.4510
 7847SOL    HW235178   1.294   3.920  14.236 -0.3240 -0.0215 -0.8036
 7848SOL     OW35179   2.593   3.500   2.079  0.0853 -0.0762 -0.0549
 7848SOL    HW135180   2.673   3.466   2.118 -0.7925 -2.5531 -0.4504
 7848SOL    HW235181   2.537   3.423   2.068  0.7231 -0.5297 -0.0801
 7849SOL     OW35182   4.617   1.110   8.987  0.2884  0.1717  0.7169
 7849SOL    HW135183   4.598   1.123   8.894  2.6534 -1.3052  0.0145
 7849SOL    HW235184   4.579   1.189   9.026  0.4166 -0.0430  1.2775
 7850SOL     OW35185   2.990   3.231   4.449 -1.0492 -0.0781 -0.4853
 7850SOL    HW135186   2.922   3.297   4.460 -1.5856 -0.7776  0.3813
 7850SOL    HW235187   3.038   3.250   4.530 -0.1721 -1.5928 -0.6633
 7851SOL     OW35188   1.658   0.735   8.190  1.0532 -0.9756 -0.0026
 7851SOL    HW135189   1.656   0.647   8.228  1.4525 -0.3746  1.4042
 7851SOL    HW235190   1.652   0.786   8.270 -1.0197  0.5723 -1.1410
 7852SOL     OW35191   2.666   0.865   0.762 -0.1173 -0.1022  0.1738
 7852SOL    HW135192   2.684   0.773   0.744 -0.7144 -0.6304  2.2315
 7852SOL    HW235193   2.597   0.857   0.828 -1.9324 -0.6980 -1.7771
 7853SOL     OW35194   0.454   4.042   0.523  0.3450  0.0655 -0.1910
 7853SOL    HW135195   0.446   4.110   0.590  2.4548  2.4514 -2.3735
 7853SOL    HW235196   0.380   3.988   0.552  0.2973  0.3105  0.1447
 7854SOL     OW35197   1.269   1.912   2.956 -0.1466 -0.3524  0.2806
 7854SOL    HW135198   1.198   1.971   2.981 -0.0650 -0.4748  0.7984
 7854SOL    HW235199   1.230   1.834   2.996  0.2681 -0.0195  1.3519
 7855SOL     OW35200   2.749   3.412  13.699 -0.5258 -0.4176  0.0793
 7855SOL    HW135201   2.745   3.468  13.622 -1.1651  1.0367  1.1658
 7855SOL    HW235202   2.669   3.430  13.748 -0.6844  2.8805 -1.3871
 7856SOL     OW35203   1.447   1.291  13.642 -0.0433  0.0709  0.0036
 7856SOL    HW135204   1.410   1.255  13.561  0.1709  2.4283 -1.1417
 7856SOL    HW235205   1.541   1.275  13.646 -0.1502 -0.7914 -0.7700
 7857SOL     OW35206   3.882   0.779  13.672  0.1547  0.1898  0.3300
 7857SOL    HW135207   3.937   0.854  13.651 -0.4023  0.7859  0.9830
 7857SOL    HW235208   3.943   0.729  13.726 -1.7801 -2.0924  0.4380
 7858SOL     OW35209   4.573   2.556  17.314  0.3838  0.3026 -0.1703
 7858SOL    HW135210   4.540   2.646  17.316 -2.6352 -0.7868 -1.5031
 7858SOL    HW235211   4.490   2.509  17.314  0.4622  0.2039 -2.3657
 7859SOL     OW35212   3.823   3.978  15.983  0.0769 -0.2263  1.0385
 7859SOL    HW135213   3.890   3.909  15.978 -0.5028 -0.9878  3.7314
 7859SOL    HW235214   3.834   4.029  15.903 -0.9591 -1.2035  0.2633
 7860SOL     OW35215   3.244   3.730   5.975  0.0555  0.4701  0.9146
 7860SOL    HW135216   3.180   3.772   5.917  1.3719  0.3235 -0.6591
 7860SOL    HW235217   3.294   3.685   5.906  1.7906  1.1199  1.7529
 7861SOL     OW35218   0.399   0.738   3.644 -0.3203  0.0574  0.0400
 7861SOL    HW135219   0.424   0.831   3.651  0.1797 -0.0008 -0.9701
 7861SOL    HW235220   0.395   0.731   3.549  0.4599  2.1343 -0.1546
 7862SOL     OW35221   1.727   0.551   1.731  0.1044  1.1215 -0.4869
 7862SOL    HW135222   1.818   0.544   1.702 -0.4146 -0.8268 -1.6382
 7862SOL    HW235223   1.729   0.537   1.825  2.0878 -2.7035 -1.0986
 7863SOL     OW35224   0.708   2.661  15.668 -0.4837 -0.1980  0.2230
 7863SOL    HW135225   0.648   2.692  15.600 -0.1622 -2.0359 -0.9199
 7863SOL    HW235226   0.784   2.715  15.649 -1.4821  0.7925 -0.9954
 7864SOL     OW35227   3.585   4.024  12.012 -0.7253  0.1270  0.0897
 7864SOL    HW135228   3.679   4.034  11.998 -0.6930 -2.6361 -1.7102
 7864SOL    HW235229   3.583   3.952  12.075  0.1468  1.4817  1.6631
 7865SOL     OW35230   3.965   0.670  13.338  0.0093 -0.3100  0.7214
 7865SOL    HW135231   3.918   0.647  13.418  0.8116  2.4562  1.9877
 7865SOL    HW235232   3.916   0.631  13.265 -3.3576  1.3731  2.0840
 7866SOL     OW35233   4.654   3.652   9.036  0.0661 -0.8601  0.1454
 7866SOL    HW135234   4.673   3.681   9.125 -1.3334  1.0645 -0.1865
 7866SOL    HW235235   4.637   3.559   9.055  1.3077 -0.7383  1.8260
 7867SOL     OW35236   0.506   4.094   8.593  0.0139 -0.6273  0.3316
 7867SOL    HW135237   0.521   4.029   8.662  1.1693  0.4919  1.1426
 7867SOL    HW235238   0.585   4.086   8.540 -0.3939  0.0624 -0.3717
 7868SOL     OW35239   1.970   1.477   3.102  0.0557  0.1626 -0.1997
 7868SOL    HW135240   1.999   1.507   3.188  0.5187 -0.4065 -0.1576
 7868SOL    HW235241   2.034   1.522   3.047  1.5962 -1.6989  0.1075
 7869SOL     OW35242   3.638   1.523   2.565 -0.3962  0.0075  0.1338
 7869SOL    HW135243   3.687   1.551   2.642  0.1908  1.2501 -0.6912
 7869SOL    HW235244   3.689   1.567   2.496  3.3546 -2.9103  1.0155
 7870SOL     OW35245   1.218   1.538   3.415  0.3397  0.0011 -0.0534
 7870SOL    HW135246   1.182   1.504   3.497 -1.3711 -0.3345 -0.9429
 7870SOL    HW235247   1.228   1.458   3.363 -3.4910  1.3833 -2.8467
 7871SOL     OW35248   1.316   1.907   7.846 -0.3465  0.0479 -0.0044
 7871SOL    HW135249   1.388   1.969   7.861 -1.1153  1.1029 -0.7104
 7871SOL    HW235250   1.349   1.835   7.900 -1.5916  1.2212  2.3128
 7872SOL     OW35251   2.710   1.482   5.582 -0.1537  0.3974  0.1565
 7872SOL    HW135252   2.649   1.461   5.511 -0.6882 -0.9159  1.0071
 7872SOL    HW235253   2.770   1.543   5.538 -0.9365  0.7514 -0.4362
 7873SOL     OW35254   0.155   2.164   6.811 -0.1539 -0.4308  0.1945
 7873SOL    HW135255   0.186   2.074   6.825  1.6100  0.6064  2.8400
 7873SOL    HW235256   0.091   2.151   6.740 -0.3179  3.2818 -0.3200
 7874SOL     OW35257   1.346   2.974  11.842  0.0365 -0.3682 -0.6918
 7874SOL    HW135258   1.287   2.988  11.768  0.2710 -2.0559 -1.2054
 7874SOL    HW235259   1.405   3.047  11.823  0.7734 -0.6228  0.5971
 7875SOL     OW35260   3.098   4.342   9.238 -0.2823  0.3182  0.3900
 7875SOL    HW135261   3.080   4.285   9.313 -1.2710  1.9448  1.3703
 7875SOL    HW235262   3.088   4.423   9.287  2.0882  0.8460  0.0351
 7876SOL     OW35263   1.094   1.391  11.294 -0.3704 -0.1388 -0.0018
 7876SOL    HW135264   1.106   1.433  11.208  0.4268 -1.1420 -0.3708
 7876SOL    HW235265   1.154   1.319  11.278 -2.0413 -1.1265 -1.8031
 7877SOL     OW35266   1.188   3.219   1.940 -0.2494  0.6602 -0.5791
 7877SOL    HW135267   1.131   3.260   2.005 -1.4878  0.8802 -1.8024
 7877SOL    HW235268   1.246   3.288   1.909  1.2373 -0.8283 -1.1460
 7878SOL     OW35269   3.297   0.219   6.248 -0.0120  0.3021 -0.5111
 7878SOL    HW135270   3.312   0.222   6.342 -0.8685  4.4083 -0.5112
 7878SOL    HW235271   3.386   0.221   6.213 -0.1085  1.0994 -0.7272
 7879SOL     OW35272   1.680   2.480   6.884  0.5301 -0.5789  0.7191
 7879SOL    HW135273   1.610   2.415   6.879 -0.3174  0.3702  0.3768
 7879SOL    HW235274   1.729   2.439   6.812  2.5866  0.6111  1.4264
 7880SOL     OW35275   2.828   0.198   5.676  0.4903 -0.6429 -0.0281
 7880SOL    HW135276   2.881   0.274   5.698  0.6137 -0.7824  0.1524
 7880SOL    HW235277   2.746   0.220   5.721 -0.1619  0.0731 -1.5758
 7881SOL     OW35278   1.492   2.317   3.438 -0.6436  0.0826  0.2120
 7881SOL    HW135279   1.529   2.365   3.512  1.0166  2.0882 -1.9328
 7881SOL    HW235280   1.480   2.388   3.375 -0.3062  2.1089  2.4307
 7882SOL     OW35281   3.554   1.806  11.847  0.3384  0.0371 -0.4591
 7882SOL    HW135282   3.560   1.840  11.937  0.3593 -3.6558  0.9125
 7882SOL    HW235283   3.643   1.799  11.812  1.2557  2.8092  1.2803
 7883SOL     OW35284   2.589   4.616  17.652  0.2505 -0.2655 -0.2749
 7883SOL    HW135285   2.553   4.606  17.740 -1.2843 -2.1009 -1.0957
 7883SOL    HW235286   2.504   4.600  17.611  0.0256  0.4420 -0.0755
 7884SOL     OW35287   3.050   2.794   2.909  0.1672 -0.6666 -0.3075
 7884SOL    HW135288   3.141   2.800   2.939  0.1564 -1.6861 -0.0733
 7884SOL    HW235289   3.027   2.704   2.931  2.0587 -0.6931  1.5798
 7885SOL     OW35290   0.059   4.698   7.725  0.5345  0.0114 -0.0293
 7885SOL    HW135291   0.030   4.729   7.811 -0.6937 -0.4619 -0.2612
 7885SOL    HW235292   0.076   4.606   7.748 -0.2354  0.0576  0.7257
 7886SOL     OW35293   3.147   0.599   8.921 -0.0212 -0.3340  0.4692
 7886SOL    HW135294   3.090   0.522   8.930  0.2148 -0.6906 -1.1060
 7886SOL    HW235295   3.100   0.663   8.975 -2.4947 -1.9880  0.2755
 7887SOL     OW35296   3.140   0.823   5.777  0.1941  0.0129  0.4372
 7887SOL    HW135297   3.068   0.812   5.715 -1.1802  0.8892  1.8932
 7887SOL    HW235298   3.209   0.813   5.711  0.3075  0.2033  0.5237
 7888SOL     OW35299   3.150   1.636   6.495  0.0862  0.4842 -0.0908
 7888SOL    HW135300   3.237   1.675   6.490 -0.6553  1.9573 -1.2399
 7888SOL    HW235301   3.106   1.691   6.431 -0.4093  0.9707  0.6647
 7889SOL     OW35302   4.409   0.044   5.699  0.3984  0.2616  0.1910
 7889SOL    HW135303   4.482   0.070   5.642 -1.3553  0.9966 -1.7168
 7889SOL    HW235304   4.400   4.686   5.700 -3.6762  0.6441 -0.6848
 7890SOL     OW35305   2.594   3.265   4.908  0.4975 -0.2780 -0.3564
 7890SOL    HW135306   2.626   3.281   4.820 -0.4074  1.6831 -0.3359
 7890SOL    HW235307   2.520   3.327   4.909 -0.1177 -1.0101 -0.4249
 7891SOL     OW35308   3.125   0.006   1.687  0.2885 -0.5927 -0.0346
 7891SOL    HW135309   3.219   4.725   1.682  0.4756  1.0505 -2.1726
 7891SOL    HW235310   3.126   0.084   1.632  0.4914  0.3607  1.3310
 7892SOL     OW35311   0.580   0.683   5.563 -0.1696  0.2021  0.1368
 7892SOL    HW135312   0.577   0.649   5.474  2.6391  1.1986 -0.3419
 7892SOL    HW235313   0.661   0.646   5.599 -0.2568 -2.2399 -2.2038
 7893SOL     OW35314   1.095   2.619   4.080  0.4569  0.7475  0.4404
 7893SOL    HW135315   1.004   2.649   4.083 -0.3141 -1.3332 -1.9440
 7893SOL    HW235316   1.139   2.695   4.116  0.5731 -0.4192  2.7638
 7894SOL     OW35317   4.704   0.655   5.307  0.6215 -0.2148  0.0097
 7894SOL    HW135318   0.038   0.606   5.350 -0.2495 -2.1698 -0.7598
 7894SOL    HW235319   4.672   0.592   5.242 -0.9359  2.8284 -2.1134
 7895SOL     OW35320   1.220   1.231   9.226 -0.7127  0.0180  0.1228
 7895SOL    HW135321   1.270   1.312   9.236  0.1411 -0.5152  0.2589
 7895SOL    HW235322   1.221   1.216   9.132  0.9135 -0.5556  0.2184
 7896SOL     OW35323   1.728   0.421   2.642  0.1389 -0.8223 -0.2105
 7896SOL    HW135324   1.646   0.373   2.654 -1.2167  1.6426  0.4815
 7896SOL    HW235325   1.782   0.378   2.709 -1.1238 -0.4804  1.0351
 7897SOL     OW35326   1.611   0.563  11.500  0.3810  0.2394  0.7702
 7897SOL    HW135327   1.618   0.648  11.455 -1.3406 -1.0667 -1.9765
 7897SOL    HW235328   1.701   0.547  11.528  0.7198 -0.7173 -0.8697
 7898SOL     OW35329   0.382   0.944   7.139 -0.8913  0.2078  0.1532
 7898SOL    HW135330   0.331   0.869   7.169  1.6936 -1.0612  1.3352
 7898SOL    HW235331   0.459   0.950   7.196 -0.8574  0.3667  0.0927
 7899SOL     OW35332   2.271   4.540   6.473 -0.1452 -0.0681 -0.7447
 7899SOL    HW135333   2.344   4.492   6.434  0.1205  0.0474 -0.3893
 7899SOL    HW235334   2.219   4.464   6.500  0.5308  0.6335  2.6092
 7900SOL     OW35335   2.687   3.792  11.512  0.0470  0.3822 -0.7114
 7900SOL    HW135336   2.769   3.757  11.478  0.6185 -1.4417  2.5235
 7900SOL    HW235337   2.701   3.885  11.496 -0.8553  0.5809 -0.3685
 7901SOL     OW35338   0.542   0.514   2.037  0.1699  0.0173  0.1015
 7901SOL    HW135339   0.497   0.587   2.081 -0.4125 -0.6521  0.6178
 7901SOL    HW235340   0.539   0.444   2.102 -2.8601 -1.5272 -1.7012
 7902SOL     OW35341   0.616   2.928   9.686  0.0791 -0.1452 -0.3757
 7902SOL    HW135342   0.599   2.958   9.596 -0.1291  2.0233  0.3920
 7902SOL    HW235343   0.634   2.834   9.678 -3.9945 -0.8639 -0.8911
 7903SOL     OW35344   2.606   3.695   8.993 -0.0669  0.0835  0.1877
 7903SOL    HW135345   2.523   3.649   9.008 -0.6127  0.6633 -1.0807
 7903SOL    HW235346   2.615   3.746   9.073 -4.0562  1.0727  0.0053
 7904SOL     OW35347   0.155   2.142   1.782 -0.0352 -0.1324  0.4536
 7904SOL    HW135348   0.130   2.208   1.717  1.8115 -1.6080 -1.7729
 7904SOL    HW235349   0.191   2.080   1.719  2.0642  2.0202 -0.4771
 7905SOL     OW35350   3.153   3.830   4.512 -0.4051 -0.1509  0.0655
 7905SOL    HW135351   3.063   3.852   4.489 -0.9418 -1.0962  1.2535
 7905SOL    HW235352   3.190   3.817   4.425  0.1019 -0.7396  0.3653
 7906SOL     OW35353   1.851   2.014  14.571 -0.6913  0.1841  0.1941
 7906SOL    HW135354   1.912   2.051  14.635 -1.1583 -1.3273  1.5317
 7906SOL    HW235355   1.916   1.971  14.515 -0.2577  0.4100  0.5162
 7907SOL     OW35356   4.579   3.794  12.369  0.4530 -0.2983 -0.0442
 7907SOL    HW135357   4.647   3.862  12.364 -0.9818  1.2039  1.1418
 7907SOL    HW235358   4.572   3.782  12.464  1.0192  4.0817  0.5448
 7908SOL     OW35359   1.777   1.964   9.357 -0.0753  0.0923  0.3461
 7908SOL    HW135360   1.753   1.978   9.266 -0.9449 -2.0020  0.2680
 7908SOL    HW235361   1.714   1.895   9.376  0.4595 -0.1594  1.2308
 7909SOL     OW35362   2.755   1.952  17.020  0.5398 -0.2806  0.4037
 7909SOL    HW135363   2.814   1.878  17.033  1.6962  0.5065 -0.4231
 7909SOL    HW235364   2.678   1.912  17.060  0.3976 -0.1632  0.2495
 7910SOL     OW35365   0.654   4.067   4.663  0.3432 -0.1285 -0.2895
 7910SOL    HW135366   0.718   3.998   4.645  0.9124  0.6344 -1.1955
 7910SOL    HW235367   0.586   4.044   4.600 -0.1288  0.7571 -0.1021
 7911SOL     OW35368   3.922   3.729   1.616  0.0924  0.3691 -0.5003
 7911SOL    HW135369   4.013   3.723   1.643 -0.0398 -0.9339 -0.3032
 7911SOL    HW235370   3.898   3.637   1.628 -0.3009  0.5233 -0.0889
 7912SOL     OW35371   4.459   2.020  14.453  0.3484 -0.8926 -0.4257
 7912SOL    HW135372   4.486   1.992  14.365 -0.5982 -1.6286 -0.4816
 7912SOL    HW235373   4.365   2.000  14.450  0.2763 -0.7508  0.9528
 7913SOL     OW35374   4.421   4.429   1.002  0.1018 -0.0156 -0.9024
 7913SOL    HW135375   4.328   4.406   0.997  0.5158 -1.4470 -1.8876
 7913SOL    HW235376   4.440   4.397   1.090  1.7953  2.1265 -0.4896
 7914SOL     OW35377   2.111   1.484   2.781  0.2021  0.0624 -0.0933
 7914SOL    HW135378   2.104   1.556   2.844  0.8953  1.4661 -1.6271
 7914SOL    HW235379   2.126   1.535   2.702 -1.6310  0.4413 -0.2108
 7915SOL     OW35380   3.502   1.947   6.105 -0.2864  0.0805  0.4155
 7915SOL    HW135381   3.521   2.017   6.168 -0.5761  1.5891 -1.1538
 7915SOL    HW235382   3.544   1.867   6.136  3.3960  1.1927 -1.6972
 7916SOL     OW35383   0.424   4.306   9.123 -0.9871 -0.4935  0.0046
 7916SOL    HW135384   0.446   4.233   9.182 -3.3854  0.5908  2.2159
 7916SOL    HW235385   0.438   4.377   9.186 -0.3443 -0.3863 -0.2490
 7917SOL     OW35386   1.964   1.638   6.777  0.1094 -0.7038  0.1799
 7917SOL    HW135387   2.000   1.554   6.750  2.0225  0.1555  0.0130
 7917SOL    HW235388   1.925   1.627   6.864 -2.7486  3.1777 -0.6051
 7918SOL     OW35389   3.519   4.503  17.649 -0.0046  0.0282 -0.3596
 7918SOL    HW135390   3.448   4.556  17.614 -2.3426 -1.3147  2.3468
 7918SOL    HW235391   3.598   4.545  17.615  0.2220 -0.8597 -0.9141
 7919SOL     OW35392   0.790   2.181   9.529 -0.0396 -0.0494  0.0069
 7919SOL    HW135393   0.801   2.135   9.446 -1.5765  0.1802 -0.3102
 7919SOL    HW235394   0.853   2.131   9.580  1.1613 -0.4056 -1.8260
 7920SOL     OW35395   3.389   0.067   1.386  0.6077  1.0050 -0.2426
 7920SOL    HW135396   3.381   0.147   1.438 -0.8444 -0.2038  1.3807
 7920SOL    HW235397   3.447   0.017   1.444 -0.2428 -0.3331 -0.5643
 7921SOL     OW35398   3.486   0.935   8.688  0.0270 -1.2754 -0.5611
 7921SOL    HW135399   3.503   0.997   8.758 -0.0282 -1.2362 -0.5821
 7921SOL    HW235400   3.400   0.902   8.715  0.3511 -0.6995  1.1653
 7922SOL     OW35401   4.733   2.390   4.805  0.1306  0.2174  0.3017
 7922SOL    HW135402   4.653   2.419   4.850  0.9519 -0.8558  2.4444
 7922SOL    HW235403   4.696   2.343   4.730  0.9760  2.2605 -1.4214
 7923SOL     OW35404   3.083   0.497   0.576  0.3092  0.0448 -0.4158
 7923SOL    HW135405   3.018   0.435   0.609  2.8327 -0.0360  4.3204
 7923SOL    HW235406   3.101   0.553   0.651  0.5084  0.2665 -0.6288
 7924SOL     OW35407   2.057   0.160  17.505 -0.3634 -0.8917  0.0351
 7924SOL    HW135408   2.048   0.182  17.598  1.4320 -0.1798  0.0246
 7924SOL    HW235409   1.964   0.142  17.490 -0.0908 -2.6195  0.4038
 7925SOL     OW35410   3.536   4.055   7.481 -0.2187 -0.1665  0.1570
 7925SOL    HW135411   3.484   4.075   7.559 -2.4040 -0.2450 -1.2698
 7925SOL    HW235412   3.603   4.123   7.485  1.4632 -1.8861  1.0809
 7926SOL     OW35413   0.984   0.563   7.229 -0.2926  0.3062  0.1329
 7926SOL    HW135414   1.008   0.605   7.311  0.0394  1.0275 -0.3325
 7926SOL    HW235415   0.992   0.635   7.166  1.4728 -0.3390 -0.3694
 7927SOL     OW35416   1.251   1.384   1.008 -0.1065  0.1367 -0.7813
 7927SOL    HW135417   1.323   1.333   0.971 -0.4086  1.2397 -2.8927
 7927SOL    HW235418   1.219   1.319   1.070  0.9805  0.2990 -0.0375
 7928SOL     OW35419   0.724   1.508   5.843 -0.3120  0.2685 -0.5290
 7928SOL    HW135420   0.795   1.481   5.900  1.2811  1.7040 -1.8385
 7928SOL    HW235421   0.693   1.589   5.884  2.5425  0.2289  1.6569
 7929SOL     OW35422   2.629   2.602   4.940  0.0404 -0.0004 -0.0765
 7929SOL    HW135423   2.608   2.509   4.941  0.1725 -0.0369 -0.7012
 7929SOL    HW235424   2.542   2.642   4.932  0.2898  0.2034 -1.8505
 7930SOL     OW35425   1.888   2.065   6.946  0.3804 -0.3110 -0.5550
 7930SOL    HW135426   1.922   2.146   6.983 -1.3329 -0.4041  1.2308
 7930SOL    HW235427   1.964   2.034   6.896  0.0735  2.2416 -2.6322
 7931SOL     OW35428   1.497   0.726   6.634 -0.0437  0.1713 -0.4139
 7931SOL    HW135429   1.512   0.773   6.716  1.2910 -0.2937 -0.3916
 7931SOL    HW235430   1.486   0.802   6.577  0.7701  0.2713 -0.4303
 7932SOL     OW35431   4.082   0.886   4.190 -0.2803  0.1719 -0.2461
 7932SOL    HW135432   4.002   0.929   4.222 -1.5734 -1.4029 -1.3546
 7932SOL    HW235433   4.117   0.942   4.121  2.1023 -0.0675  0.7650
 7933SOL     OW35434   1.302   2.263   5.473 -0.2760  0.0447  0.0504
 7933SOL    HW135435   1.263   2.328   5.414  0.6653 -0.4046 -1.0577
 7933SOL    HW235436   1.363   2.314   5.526 -1.6672  2.0459 -0.2514
 7934SOL     OW35437   2.058   1.399   7.411 -0.0279 -0.1202  0.3366
 7934SOL    HW135438   1.996   1.465   7.445  3.4186  1.7096  3.1065
 7934SOL    HW235439   1.995   1.328   7.399  1.8859 -2.1901  2.5775
 7935SOL     OW35440   2.344   2.976   6.649  0.5357  0.4562 -0.3034
 7935SOL    HW135441   2.430   3.016   6.635  1.3741 -1.0307  0.5965
 7935SOL    HW235442   2.318   3.026   6.726 -0.4410 -1.3923  0.5632
 7936SOL     OW35443   2.248   4.649   0.082 -0.3740 -0.1675 -0.2729
 7936SOL    HW135444   2.317   4.598   0.124  2.0077  3.0686 -0.2159
 7936SOL    HW235445   2.261   4.637  17.734  1.3340 -1.3393  0.1095
 7937SOL     OW35446   3.387   3.382   5.605  0.3737 -0.4722  0.3067
 7937SOL    HW135447   3.344   3.338   5.678 -0.3632 -1.8817 -0.9603
 7937SOL    HW235448   3.479   3.375   5.631  0.3272 -0.0105  0.5836
 7938SOL     OW35449   1.086   0.768   3.253  0.2981  0.4047  0.0965
 7938SOL    HW135450   1.125   0.688   3.217 -1.9516 -0.3937 -0.5305
 7938SOL    HW235451   1.025   0.795   3.185  2.0163  0.3915 -1.4261
 7939SOL     OW35452   1.524   1.505   7.059  0.0589 -0.1978 -0.0090
 7939SOL    HW135453   1.443   1.548   7.034  0.2755 -0.5380 -1.2890
 7939SOL    HW235454   1.515   1.495   7.154 -0.4871 -0.0042 -0.0415
 7940SOL     OW35455   2.044   4.172  12.046 -0.2123  0.3419  0.0634
 7940SOL    HW135456   1.982   4.214  11.987 -0.7068  0.5644  0.7413
 7940SOL    HW235457   1.987   4.109  12.090 -1.3177  1.0743 -0.3354
 7941SOL     OW35458   2.924   4.171   3.997  0.2775 -0.2758 -0.2871
 7941SOL    HW135459   2.931   4.127   4.082 -1.2015  0.9415  0.4590
 7941SOL    HW235460   2.880   4.104   3.945 -0.5823 -1.0247  1.4258
 7942SOL     OW35461   1.973   1.714  12.809 -0.1868 -0.2614 -0.4991
 7942SOL    HW135462   2.022   1.796  12.805 -0.2253 -0.3077 -1.8052
 7942SOL    HW235463   1.906   1.725  12.742  1.1454  0.9434 -1.6360
 7943SOL     OW35464   0.559   2.101  16.942  0.2838 -0.4442 -0.2481
 7943SOL    HW135465   0.549   2.097  17.037 -1.8403  0.9184 -0.4077
 7943SOL    HW235466   0.575   2.194  16.925 -1.5795  0.0530  0.6734
 7944SOL     OW35467   3.271   0.033   8.307 -0.2413  0.1373  0.3335
 7944SOL    HW135468   3.205   4.702   8.297 -0.6345  0.4417  0.8995
 7944SOL    HW235469   3.285   0.071   8.220 -2.4199 -0.1030 -0.1122
 7945SOL     OW35470   1.338   3.018   5.757 -0.0781  0.1461 -0.1478
 7945SOL    HW135471   1.246   3.018   5.732  0.1281  1.0176 -0.8678
 7945SOL    HW235472   1.380   3.005   5.672 -1.1702  1.3734 -0.8601
 7946SOL     OW35473   3.548   2.636   9.948  0.0418  0.1009  0.8701
 7946SOL    HW135474   3.524   2.661  10.038  1.5789 -0.9305  1.5545
 7946SOL    HW235475   3.574   2.718   9.906  1.1627  0.4665  2.2888
 7947SOL     OW35476   0.016   4.145   4.984 -0.1706  0.1071 -0.0106
 7947SOL    HW135477   4.699   4.202   4.929  0.9499 -1.1629 -2.4342
 7947SOL    HW235478   0.104   4.180   4.976 -0.4818  0.4024 -2.1633
 7948SOL     OW35479   3.380   2.927   2.617  0.2156 -0.0039  0.5307
 7948SOL    HW135480   3.296   2.969   2.598 -0.2813 -0.8025  0.9681
 7948SOL    HW235481   3.432   2.999   2.652  1.7853 -0.7504 -0.2886
 7949SOL     OW35482   0.653   2.381   9.625  0.2182  0.0896  0.6964
 7949SOL    HW135483   0.704   2.337   9.558 -1.4934  0.3576 -0.7940
 7949SOL    HW235484   0.588   2.313   9.643 -0.8121  1.0464  0.5810
 7950SOL     OW35485   4.183   2.882   1.877  0.2829  0.6132 -0.3458
 7950SOL    HW135486   4.115   2.939   1.913  0.5756 -1.8893  4.1380
 7950SOL    HW235487   4.257   2.902   1.934 -1.1565  0.3919  1.6155
 7951SOL     OW35488   3.606   3.952   7.118  0.4317 -0.2103  0.1073
 7951SOL    HW135489   3.676   3.911   7.170  1.7876  1.5902 -0.2879
 7951SOL    HW235490   3.548   3.879   7.098  0.8883 -0.4637 -0.3031
 7952SOL     OW35491   1.387   0.087   3.331  0.0559 -0.1400 -0.2874
 7952SOL    HW135492   1.462   0.028   3.323  0.3466  0.5691 -2.5436
 7952SOL    HW235493   1.356   0.048   3.413  0.6724  0.5638  0.2766
 7953SOL     OW35494   0.268   2.305   9.791 -0.4965  0.6209 -0.8659
 7953SOL    HW135495   0.343   2.255   9.760 -0.9090  1.5638 -3.4165
 7953SOL    HW235496   0.211   2.232   9.817 -0.7047  1.4473  0.9545
 7954SOL     OW35497   2.302   4.176   2.492  0.2231  0.4962  0.2656
 7954SOL    HW135498   2.356   4.172   2.571 -2.6232 -2.3457  2.1013
 7954SOL    HW235499   2.337   4.095   2.455 -2.4157 -0.4842 -0.0783
 7955SOL     OW35500   3.380   3.107  10.055  0.4047 -0.4496  0.0253
 7955SOL    HW135501   3.425   3.128  10.137 -1.0362  1.8550  0.1850
 7955SOL    HW235502   3.422   3.173  10.001 -1.3469  0.7597  0.1664
 7956SOL     OW35503   1.456   4.116  14.797  0.2772  0.1630  0.2801
 7956SOL    HW135504   1.419   4.034  14.762 -1.0612  0.2097  1.6062
 7956SOL    HW235505   1.548   4.094  14.781 -0.0173  0.6821 -2.1170
 7957SOL     OW35506   4.351   0.333   4.774  0.3308 -0.1105  0.0594
 7957SOL    HW135507   4.427   0.390   4.780  0.5400 -0.1504 -2.2839
 7957SOL    HW235508   4.382   0.257   4.726 -0.6195 -0.1758 -0.4609
 7958SOL     OW35509   3.461   4.239   5.821  0.4072 -0.6940  0.4998
 7958SOL    HW135510   3.513   4.168   5.784  1.0626  1.5481 -2.8648
 7958SOL    HW235511   3.387   4.233   5.761 -0.9543 -2.2231  2.3329
 7959SOL     OW35512   2.436   1.859   7.812  0.0791 -0.8229  0.0121
 7959SOL    HW135513   2.406   1.821   7.895 -0.0224 -1.2106 -0.1990
 7959SOL    HW235514   2.489   1.784   7.785 -0.8358 -1.4874  0.0317
 7960SOL     OW35515   2.868   4.395   2.794  0.4707  0.3332 -0.7736
 7960SOL    HW135516   2.939   4.405   2.731  1.1631  2.1129  0.2826
 7960SOL    HW235517   2.916   4.393   2.877 -0.6991 -1.1052 -0.1290
 7961SOL     OW35518   1.793   2.317  12.039 -0.4372  0.3459 -0.4961
 7961SOL    HW135519   1.757   2.337  12.126  1.1779 -1.0656  0.5103
 7961SOL    HW235520   1.834   2.401  12.017 -1.6821  0.6398 -1.7003
 7962SOL     OW35521   2.312   0.627   2.186  0.2822  0.3814 -0.6997
 7962SOL    HW135522   2.337   0.608   2.277  0.1782 -0.8115 -0.9144
 7962SOL    HW235523   2.403   0.621   2.156  0.7640  0.8605  0.6610
 7963SOL     OW35524   3.701   2.130   5.494  0.2332 -0.1408 -0.6476
 7963SOL    HW135525   3.788   2.096   5.476  0.5210  0.5580 -0.5894
 7963SOL    HW235526   3.689   2.210   5.442  0.7889  0.8177  0.7017
 7964SOL     OW35527   2.661   3.246   9.460 -0.0429  0.2939 -0.4713
 7964SOL    HW135528   2.634   3.227   9.550 -2.9159  0.4214 -1.3197
 7964SOL    HW235529   2.574   3.277   9.434 -0.9977 -0.4145  1.8382
 7965SOL     OW35530   3.240   3.690   9.638  1.1302 -0.1358  0.2611
 7965SOL    HW135531   3.288   3.609   9.625 -1.1384 -1.1210 -1.9607
 7965SOL    HW235532   3.317   3.745   9.648 -0.1114  1.5378  0.7854
 7966SOL     OW35533   2.848   2.100   2.504 -0.3928  0.1703 -0.2431
 7966SOL    HW135534   2.922   2.129   2.451 -1.7802  0.6269 -1.9315
 7966SOL    HW235535   2.879   2.012   2.526 -1.6218 -0.3786 -0.7036
 7967SOL     OW35536   3.523   4.323   8.789  0.0205  0.4475  0.2605
 7967SOL    HW135537   3.506   4.289   8.877  0.0955  0.4616  0.2806
 7967SOL    HW235538   3.596   4.268   8.760  0.5220  1.3208 -0.1460
 7968SOL     OW35539   3.113   3.263   6.948 -0.2063 -0.0315 -0.8811
 7968SOL    HW135540   3.191   3.230   6.993 -0.6604  0.3386  0.1855
 7968SOL    HW235541   3.046   3.240   7.013  0.4185 -1.3265 -0.6960
 7969SOL     OW35542   0.267   3.681  11.392 -0.9375 -0.1789 -0.1067
 7969SOL    HW135543   0.190   3.691  11.447  0.6517  2.0185  1.6962
 7969SOL    HW235544   0.298   3.596  11.426 -1.5670 -0.6922 -0.8213
 7970SOL     OW35545   3.028   1.696   1.831  0.0345  0.2342 -0.1015
 7970SOL    HW135546   3.068   1.614   1.860  0.8023  0.2586 -1.0656
 7970SOL    HW235547   3.105   1.752   1.818  0.3699  0.0945  1.2926
 7971SOL     OW35548   1.615   3.129   6.072  0.1064  0.0383 -0.1457
 7971SOL    HW135549   1.685   3.094   6.126  0.8871  0.3340 -0.9774
 7971SOL    HW235550   1.584   3.060   6.013  1.3201 -0.6241  0.0150
 7972SOL     OW35551   2.440   3.058   7.406  0.0672  0.6340 -0.1160
 7972SOL    HW135552   2.486   3.022   7.330 -0.1103  1.3634 -0.5681
 7972SOL    HW235553   2.440   2.984   7.466 -2.6032  1.3363  0.7452
 7973SOL     OW35554   2.471   4.687   3.593 -0.1210 -0.0997  0.2478
 7973SOL    HW135555   2.509   4.700   3.506 -2.7273  2.5564 -0.4914
 7973SOL    HW235556   2.466   4.595   3.619  1.8516 -0.8564 -2.0534
 7974SOL     OW35557   1.141   0.857   8.673  0.3449  0.1803 -0.0353
 7974SOL    HW135558   1.202   0.795   8.713 -1.6034 -1.9508 -0.4148
 7974SOL    HW235559   1.208   0.912   8.631  1.4155 -0.4340  0.8639
 7975SOL     OW35560   4.285   4.528   9.302  0.1949 -0.0707  0.3711
 7975SOL    HW135561   4.211   4.566   9.255 -0.7336 -1.5584  0.6217
 7975SOL    HW235562   4.344   4.512   9.228  0.7590 -1.1345  1.0399
 7976SOL     OW35563   2.842   0.629   6.004 -0.0484 -0.0484 -0.2839
 7976SOL    HW135564   2.760   0.582   5.987  0.7719 -0.9722 -1.7340
 7976SOL    HW235565   2.824   0.715   5.966 -1.0367  0.0200  0.3564
 7977SOL     OW35566   0.869   2.544   4.352 -0.0578 -0.1841 -0.7724
 7977SOL    HW135567   0.829   2.514   4.434  1.8624  0.7456  0.5034
 7977SOL    HW235568   0.802   2.603   4.319  1.1658  0.4725 -2.0931
 7978SOL     OW35569   0.968   0.765  10.889 -0.1629  0.3780 -0.3564
 7978SOL    HW135570   0.877   0.737  10.899  0.5655 -1.7819  0.1897
 7978SOL    HW235571   1.006   0.748  10.975  0.3821  1.9918 -0.2891
 7979SOL     OW35572   0.306   1.475  11.480  0.1517 -0.3267  0.1345
 7979SOL    HW135573   0.253   1.524  11.418  0.5016 -0.3195 -0.1562
 7979SOL    HW235574   0.241   1.417  11.520 -0.7148 -0.5456 -1.5823
 7980SOL     OW35575   4.108   2.633   2.179  0.2370 -0.3390 -0.2058
 7980SOL    HW135576   4.193   2.640   2.136  0.4105 -0.7084  0.0656
 7980SOL    HW235577   4.087   2.724   2.200 -0.5403 -0.6481  0.3938
 7981SOL     OW35578   2.939   1.523   6.123 -0.0983 -0.1936 -0.0508
 7981SOL    HW135579   2.936   1.471   6.043  0.1825  0.4922 -0.5036
 7981SOL    HW235580   2.979   1.465   6.188 -1.9854  0.8804  2.0399
 7982SOL     OW35581   0.417   1.800  15.896 -0.2738  0.1948  0.4508
 7982SOL    HW135582   0.381   1.820  15.809  2.2369  1.0028 -0.4174
 7982SOL    HW235583   0.372   1.719  15.920 -0.8378 -0.5122 -2.9796
 7983SOL     OW35584   2.968   3.217   7.436  0.3767  0.3999  0.1794
 7983SOL    HW135585   2.969   3.247   7.527 -4.7713  1.1210  0.0042
 7983SOL    HW235586   2.950   3.124   7.446 -2.4399  0.8474 -0.4297
 7984SOL     OW35587   0.964   1.212   5.246  0.1101  0.4303  0.4236
 7984SOL    HW135588   0.891   1.272   5.232 -2.4945 -2.7272  0.5638
 7984SOL    HW235589   0.931   1.152   5.179  0.8922 -0.0434  0.4601
 7985SOL     OW35590   2.872   1.627   5.411  0.3644 -0.2491 -0.1470
 7985SOL    HW135591   2.966   1.619   5.395  0.6757 -1.5087  2.1765
 7985SOL    HW235592   2.843   1.609   5.322 -2.8004 -0.2837  0.8848
 7986SOL     OW35593   2.254   0.774   8.502  0.1171  0.0065 -0.6277
 7986SOL    HW135594   2.329   0.714   8.500  0.2555  0.2154 -1.6261
 7986SOL    HW235595   2.180   0.721   8.470 -0.5636 -0.1603  1.2318
 7987SOL     OW35596   4.585   2.045   0.853  0.3350  0.1726  0.5018
 7987SOL    HW135597   4.679   2.026   0.843  0.4439  0.6607  0.5977
 7987SOL    HW235598   4.546   1.972   0.804 -0.7197  1.7996 -1.0548
 7988SOL     OW35599   3.041   0.850  11.268 -0.0864  0.4505  0.2956
 7988SOL    HW135600   3.002   0.823  11.186  0.0829  1.1008  0.0068
 7988SOL    HW235601   3.110   0.784  11.282  0.4229  1.3674  2.0817
 7989SOL     OW35602   2.860   3.025   8.305 -0.1813 -0.4981 -0.2327
 7989SOL    HW135603   2.828   3.070   8.227 -0.2959 -1.6299 -0.8493
 7989SOL    HW235604   2.786   2.968   8.324 -1.8959  1.5510 -0.8040
 7990SOL     OW35605   0.283   3.599   1.148  0.5341 -0.2173  0.1005
 7990SOL    HW135606   0.274   3.692   1.129 -0.4927 -0.5719 -1.1055
 7990SOL    HW235607   0.368   3.603   1.192 -0.3793 -0.1444  1.8563
 7991SOL     OW35608   1.275   3.362   8.551  0.5481 -0.2647 -0.0593
 7991SOL    HW135609   1.363   3.356   8.590 -0.2412  2.0921  2.0858
 7991SOL    HW235610   1.227   3.338   8.630 -0.9507  1.1300 -0.5481
 7992SOL     OW35611   2.708   0.541   7.131  1.0481  0.4526 -0.2515
 7992SOL    HW135612   2.748   0.625   7.155 -0.5732  1.3380 -0.6438
 7992SOL    HW235613   2.753   0.515   7.051  2.9559  0.8202  0.7094
 7993SOL     OW35614   3.606   0.553  13.246 -0.0113  0.0819  0.1893
 7993SOL    HW135615   3.568   0.619  13.303 -0.0899  0.0883  0.1302
 7993SOL    HW235616   3.569   0.475  13.288  0.0650 -0.1910 -0.2497
 7994SOL     OW35617   3.418   1.106  12.700 -0.7106 -0.0544  0.4370
 7994SOL    HW135618   3.322   1.108  12.698 -0.6692  3.4110  1.7623
 7994SOL    HW235619   3.442   1.015  12.685 -0.6832 -0.1810  1.2651
 7995SOL     OW35620   3.998   0.828   2.088  0.4037  0.4285  0.1010
 7995SOL    HW135621   4.056   0.754   2.071  0.2415  0.0664  1.1585
 7995SOL    HW235622   3.965   0.845   2.000  1.2636 -0.7760 -0.4578
 7996SOL     OW35623   4.026   1.504   4.967 -0.1497  0.1420 -0.1510
 7996SOL    HW135624   3.976   1.426   4.943  0.1525 -0.5948  1.5737
 7996SOL    HW235625   4.116   1.473   4.956  0.3674  0.9761  1.7720
 7997SOL     OW35626   0.453   4.279  12.100 -0.1529  0.0588  0.4703
 7997SOL    HW135627   0.474   4.186  12.104  0.2332  0.1894  1.6758
 7997SOL    HW235628   0.369   4.268  12.056  0.1378 -0.0393 -0.0577
 7998SOL     OW35629   2.911   0.111   3.360 -0.0638  0.3657  0.1951
 7998SOL    HW135630   2.888   0.196   3.324  1.0578  1.3976  1.9024
 7998SOL    HW235631   3.003   0.129   3.382  0.3849  0.0070 -1.4220
 7999SOL     OW35632   4.492   1.312   5.099  0.0253 -0.0253  0.2119
 7999SOL    HW135633   4.531   1.226   5.113 -1.0796 -0.6070 -0.3531
 7999SOL    HW235634   4.462   1.330   5.188  0.0239  0.0120  0.2039
 8000SOL     OW35635   0.484   1.256  14.118  0.4368  0.0763  0.3133
 8000SOL    HW135636   0.514   1.165  14.114 -1.0467 -0.3501 -1.4109
 8000SOL    HW235637   0.405   1.241  14.065 -0.0652  0.7121  0.8874
 8001SOL     OW35638   2.076   4.384   5.152  0.4599  0.1711  0.1375
 8001SOL    HW135639   2.064   4.461   5.096  0.8726  0.7351  0.8196
 8001SOL    HW235640   2.144   4.418   5.211 -1.4042  3.0594  0.6259
 8002SOL     OW35641   0.696   1.495   4.157 -0.3058  0.3139 -0.1836
 8002SOL    HW135642   0.745   1.509   4.076  0.7199 -0.1244  0.3504
 8002SOL    HW235643   0.617   1.448   4.131 -0.3493  0.2195  0.1150
 8003SOL     OW35644   2.851   1.116  12.004  0.0318  0.2740 -0.0063
 8003SOL    HW135645   2.861   1.110  12.099  0.0286  3.6332  0.2059
 8003SOL    HW235646   2.769   1.068  11.996 -0.7253  1.9216 -1.8273
 8004SOL     OW35647   2.934   3.540  14.453  0.3472  0.1975 -0.2017
 8004SOL    HW135648   2.889   3.606  14.506 -0.8858  0.0232 -1.0179
 8004SOL    HW235649   2.983   3.487  14.515 -0.5770  1.5060  1.6545
 8005SOL     OW35650   0.455   0.699   8.459  0.4210  0.5725  0.5253
 8005SOL    HW135651   0.526   0.644   8.427  0.8815  0.2768  2.0539
 8005SOL    HW235652   0.500   0.720   8.541  2.2608  1.5269 -0.7417
 8006SOL     OW35653   4.711   4.114   9.370  0.4893  0.1740 -0.1122
 8006SOL    HW135654   4.649   4.106   9.298 -1.4896  0.5062  1.5515
 8006SOL    HW235655   4.677   4.050   9.434  2.4699 -0.8980 -0.1462
 8007SOL     OW35656   3.063   4.662  13.915  0.1755  0.4340 -0.4582
 8007SOL    HW135657   2.994   4.632  13.855 -0.5236  0.8526  0.1397
 8007SOL    HW235658   3.133   4.681  13.853  0.6594  0.2460  0.0394
 8008SOL     OW35659   0.212   4.502   4.294  0.2516  0.2619  0.1861
 8008SOL    HW135660   0.201   4.442   4.220  0.4954  0.1428  0.2479
 8008SOL    HW235661   0.124   4.500   4.333  0.3992 -0.0859  0.5030
 8009SOL     OW35662   3.171   3.500   4.222 -0.9035 -0.9985 -0.3686
 8009SOL    HW135663   3.196   3.581   4.266 -0.8244  0.4836 -3.1500
 8009SOL    HW235664   3.077   3.517   4.218 -0.7833 -0.2456 -0.0672
 8010SOL     OW35665   3.700   2.605   0.140 -0.7862  0.3044 -0.4913
 8010SOL    HW135666   3.653   2.582   0.220  0.7768  1.7467  0.8482
 8010SOL    HW235667   3.674   2.693   0.114  0.9153  1.1314  0.5939
 8011SOL     OW35668   4.526   4.295   9.860  0.1372 -0.2926 -0.1397
 8011SOL    HW135669   4.541   4.353   9.934 -0.7409  0.0801 -0.2585
 8011SOL    HW235670   4.502   4.370   9.806 -0.4901 -0.5291 -0.1908
 8012SOL     OW35671   2.150   4.083  13.523 -0.4066  0.3337 -0.1318
 8012SOL    HW135672   2.084   4.105  13.589 -1.4792 -1.8693 -0.4564
 8012SOL    HW235673   2.201   4.012  13.561 -1.6638 -0.9945 -0.9121
 8013SOL     OW35674   3.418   3.803   9.943 -0.0194  0.2016 -0.1905
 8013SOL    HW135675   3.411   3.741  10.016  0.7900  0.1363 -0.1737
 8013SOL    HW235676   3.329   3.837   9.950 -0.2334 -0.4523  0.2473
 8014SOL     OW35677   2.976   4.042  11.429 -0.2901  0.1378 -0.1671
 8014SOL    HW135678   3.022   4.045  11.513  1.3177 -0.2540 -1.0331
 8014SOL    HW235679   2.978   4.129  11.389  0.5837 -0.0903 -0.6468
 8015SOL     OW35680   3.155   4.475   0.830  0.4323  0.3682 -0.1513
 8015SOL    HW135681   3.211   4.439   0.899  0.1793  1.9696  0.8692
 8015SOL    HW235682   3.069   4.485   0.871  0.8587  2.2686  0.2690
 8016SOL     OW35683   4.472   1.158   1.702 -0.2766 -0.9544 -0.0612
 8016SOL    HW135684   4.507   1.239   1.737  1.2421 -1.4527 -0.4346
 8016SOL    HW235685   4.379   1.178   1.715 -0.2058 -1.5155  1.2851
 8017SOL     OW35686   1.914   1.692   2.436 -0.5578  0.3521 -0.1233
 8017SOL    HW135687   1.827   1.719   2.467  0.0572 -0.9801  2.8379
 8017SOL    HW235688   1.900   1.652   2.350 -3.2884 -0.9339  0.8807
 8018SOL     OW35689   1.246   2.909   9.867 -0.0423 -0.4306 -0.0300
 8018SOL    HW135690   1.276   2.996   9.842 -1.3343 -0.2429 -0.9456
 8018SOL    HW235691   1.237   2.863   9.784 -0.1034  0.5755 -0.5761
 8019SOL     OW35692   2.149   3.277   9.999 -0.2990  0.4710  0.2964
 8019SOL    HW135693   2.139   3.203   9.939 -2.0012  1.3906 -0.5523
 8019SOL    HW235694   2.058   3.306  10.007 -0.1117  0.7876  1.3564
 8020SOL     OW35695   2.549   3.631   3.119  0.3264  0.3703 -0.4734
 8020SOL    HW135696   2.526   3.699   3.182 -0.5874  1.2009 -1.7283
 8020SOL    HW235697   2.540   3.676   3.036 -0.3812 -2.3702 -1.8879
 8021SOL     OW35698   2.700   2.386  11.664 -0.5713  0.1152 -0.5338
 8021SOL    HW135699   2.605   2.379  11.660 -0.7357  1.5315  0.7801
 8021SOL    HW235700   2.729   2.298  11.687 -4.9376 -1.6124 -1.8688
 8022SOL     OW35701   3.514   2.716   6.895  0.2339  0.6011 -0.4077
 8022SOL    HW135702   3.419   2.724   6.902  0.2903 -0.5952  1.8560
 8022SOL    HW235703   3.544   2.806   6.911  2.0385 -0.0925  0.1455
 8023SOL     OW35704   4.485   1.742  14.317  0.3649 -0.0316  0.0245
 8023SOL    HW135705   4.425   1.673  14.288 -1.2135  0.0732  2.9991
 8023SOL    HW235706   4.485   1.809  14.249  0.8507 -2.0752 -1.9791
 8024SOL     OW35707   3.427   1.100   4.439 -0.3183  0.4173 -0.2224
 8024SOL    HW135708   3.473   1.182   4.458  1.9109 -0.7415 -0.6636
 8024SOL    HW235709   3.433   1.049   4.519  2.7121 -1.0169 -1.3755
 8025SOL     OW35710   2.743   3.952   9.018 -0.3107 -0.6446  0.6344
 8025SOL    HW135711   2.679   4.024   9.019  0.2647 -0.1252 -0.6401
 8025SOL    HW235712   2.783   3.963   9.104  0.5564  0.9199  0.0195
 8026SOL     OW35713   4.087   0.006  11.885 -0.0688  0.3072  0.2578
 8026SOL    HW135714   4.170   4.723  11.928  0.1771 -1.1446 -0.8936
 8026SOL    HW235715   4.051   4.660  11.853 -0.5250  0.5756  0.0895
 8027SOL     OW35716   4.170   3.201  10.834 -0.0781  0.2174 -0.0471
 8027SOL    HW135717   4.201   3.197  10.743 -1.4185  1.1410 -0.5560
 8027SOL    HW235718   4.251   3.196  10.885 -1.0154 -0.0564  1.4088
 8028SOL     OW35719   0.936   4.149  11.503 -0.0247 -0.0972 -0.1752
 8028SOL    HW135720   0.966   4.164  11.592 -0.8173 -0.8540  0.2110
 8028SOL    HW235721   0.991   4.204  11.447  0.8845 -1.0448 -0.2305
 8029SOL     OW35722   3.275   4.041   8.811 -0.1900 -0.2803  0.1594
 8029SOL    HW135723   3.279   4.100   8.886  0.3812 -1.8137  1.3307
 8029SOL    HW235724   3.250   3.960   8.856 -1.3918  0.1731  0.3089
 8030SOL     OW35725   2.067   2.680   8.492  0.1911  0.0635 -0.4665
 8030SOL    HW135726   1.992   2.707   8.440  0.4354  2.3698  0.3276
 8030SOL    HW235727   2.021   2.694   8.574  0.1689  4.4044 -1.2197
 8031SOL     OW35728   2.624   0.177  15.221 -0.0456  0.0754 -0.2944
 8031SOL    HW135729   2.696   0.134  15.176  1.1687  2.2620 -0.4678
 8031SOL    HW235730   2.655   0.164  15.311  2.0736  0.5280 -0.9471
 8032SOL     OW35731   0.137   2.552   8.327 -0.4613  0.0999  0.2943
 8032SOL    HW135732   0.076   2.565   8.401 -1.5295 -0.8359 -0.4204
 8032SOL    HW235733   0.165   2.461   8.332  0.1531  0.2797  0.1089
 8033SOL     OW35734   4.732   1.655  15.882  0.2802 -0.3130  0.2102
 8033SOL    HW135735   4.690   1.713  15.945 -1.0017 -1.7005  0.6404
 8033SOL    HW235736   4.697   1.681  15.796  0.6315 -1.8818 -0.4030
 8034SOL     OW35737   0.743   1.244  13.400 -0.9707 -0.1134  0.0299
 8034SOL    HW135738   0.747   1.292  13.482  0.8084 -0.8212  0.3525
 8034SOL    HW235739   0.712   1.307  13.335  0.6660 -0.1283 -0.7645
 8035SOL     OW35740   4.502   2.455   4.906 -0.6225 -0.5955 -0.1878
 8035SOL    HW135741   4.483   2.541   4.943  1.5317 -0.2573  0.0998
 8035SOL    HW235742   4.418   2.422   4.873 -1.5167  1.5114 -0.0306
 8036SOL     OW35743   1.981   1.345  12.165  0.5445 -0.4816 -0.3698
 8036SOL    HW135744   1.967   1.305  12.079 -0.5175 -0.9013  0.0014
 8036SOL    HW235745   2.074   1.333  12.184  0.6010 -3.6769 -2.8357
 8037SOL     OW35746   1.383   2.828   3.740 -0.5632  0.2874  0.2717
 8037SOL    HW135747   1.446   2.813   3.810 -1.0128 -0.2853  0.5593
 8037SOL    HW235748   1.377   2.923   3.743  1.5854  0.2668  4.6988
 8038SOL     OW35749   1.173   0.811   1.775  0.2586 -0.2523  0.9669
 8038SOL    HW135750   1.263   0.781   1.761 -1.2491 -3.1746 -2.5326
 8038SOL    HW235751   1.131   0.737   1.818 -2.2910  0.8978  0.4657
 8039SOL     OW35752   2.843   3.348   3.990 -0.0544 -0.4574 -0.1799
 8039SOL    HW135753   2.843   3.255   4.012 -1.1694 -0.7471 -1.4170
 8039SOL    HW235754   2.799   3.344   3.905  0.3394  1.8146 -0.4805
 8040SOL     OW35755   2.084   3.736   1.598 -0.0549  0.4416 -0.0526
 8040SOL    HW135756   2.062   3.700   1.512 -0.2334 -2.9956  1.4554
 8040SOL    HW235757   2.118   3.665   1.653  0.7821 -1.6456 -3.2523
 8041SOL     OW35758   2.315   3.508   3.843 -0.3086  0.1767  0.0352
 8041SOL    HW135759   2.294   3.540   3.931 -0.0246 -0.7872  0.4485
 8041SOL    HW235760   2.409   3.526   3.851  0.2511 -1.6320 -2.3445
 8042SOL     OW35761   0.429   2.318   1.589  0.0447  0.8410 -0.0902
 8042SOL    HW135762   0.413   2.260   1.663 -1.7420  0.8500 -0.4713
 8042SOL    HW235763   0.432   2.255   1.517 -0.3361 -0.4172  0.9997
 8043SOL     OW35764   2.704   4.082  15.502  0.3113 -0.2104  0.2793
 8043SOL    HW135765   2.741   4.119  15.422 -1.1314  0.6226  0.0057
 8043SOL    HW235766   2.671   4.000  15.466 -0.9555  1.0950 -1.5226
 8044SOL     OW35767   3.974   1.457  13.457  0.1292  0.2135 -0.2388
 8044SOL    HW135768   3.929   1.523  13.510  0.1550  0.4119 -0.4641
 8044SOL    HW235769   4.013   1.390  13.514  0.6826  1.8507  1.3225
 8045SOL     OW35770   4.017   0.203  10.700 -0.0305  0.4230  0.6010
 8045SOL    HW135771   4.071   0.199  10.779 -1.2863  2.3783  1.5720
 8045SOL    HW235772   3.930   0.223  10.735 -0.2445  3.0412 -1.4336
 8046SOL     OW35773   4.736   1.599   9.046 -0.3501 -0.0355 -0.0239
 8046SOL    HW135774   0.093   1.593   9.065 -0.2080  0.3729 -0.5910
 8046SOL    HW235775   4.702   1.530   9.102 -0.5984  0.2831  0.2143
 8047SOL     OW35776   2.304   0.385  15.596 -0.1955  0.3538  0.1946
 8047SOL    HW135777   2.366   0.363  15.526 -0.1289 -2.1295  1.0383
 8047SOL    HW235778   2.287   0.480  15.592 -2.2607 -0.0383 -0.1129
 8048SOL     OW35779   0.226   4.381  10.936 -0.7385 -0.2661 -0.3512
 8048SOL    HW135780   0.172   4.307  10.963 -0.6116  0.1136  0.9149
 8048SOL    HW235781   0.300   4.340  10.890 -1.3116 -1.3350 -0.3286
 8049SOL     OW35782   0.039   1.809   6.090  0.5975 -0.9268 -0.0840
 8049SOL    HW135783   0.094   1.883   6.116  1.3251 -0.7865 -2.0041
 8049SOL    HW235784   0.059   1.739   6.152  0.4191  1.4434  2.6123
 8050SOL     OW35785   0.272   1.012   6.365  0.2827  0.2094  0.2648
 8050SOL    HW135786   0.362   0.979   6.369 -0.0022 -0.7774 -1.5415
 8050SOL    HW235787   0.258   1.047   6.453 -0.4575 -0.6476  0.4846
 8051SOL     OW35788   2.465   4.169   9.144 -0.1306  0.3828  0.1283
 8051SOL    HW135789   2.495   4.195   9.057  0.1525  0.9454  0.3920
 8051SOL    HW235790   2.392   4.228   9.167  0.9129  1.6803  0.1141
 8052SOL     OW35791   0.152   0.751   5.710  0.5431  0.2681 -0.6803
 8052SOL    HW135792   0.247   0.761   5.719  0.2581  0.3143  2.1957
 8052SOL    HW235793   0.132   0.845   5.707  0.7962  0.3602  0.6412
 8053SOL     OW35794   1.000   2.146   5.031  0.4022 -0.1950  0.1513
 8053SOL    HW135795   0.976   2.131   5.122  0.9796  2.7051  0.7736
 8053SOL    HW235796   1.069   2.212   5.037 -0.1350  0.2492  1.3333
 8054SOL     OW35797   3.953   4.173  13.834  0.0641 -0.2288  0.3725
 8054SOL    HW135798   4.031   4.162  13.779  0.2180  1.4461  0.2455
 8054SOL    HW235799   3.879   4.161  13.775 -2.3443 -0.1400  3.3651
 8055SOL     OW35800   2.963   3.338   1.965 -0.0158  0.1469 -0.3432
 8055SOL    HW135801   2.971   3.432   1.947  0.8496 -0.0201 -0.8513
 8055SOL    HW235802   2.906   3.348   2.041  0.4566  0.0224  0.0311
 8056SOL     OW35803   2.032   3.629   5.193 -0.6047  0.5974  0.4386
 8056SOL    HW135804   2.009   3.644   5.285  0.3670  1.0450  0.6068
 8056SOL    HW235805   2.058   3.537   5.204  2.9399  1.7486  1.6056
 8057SOL     OW35806   2.278   2.320  10.484  0.4723 -0.0014  0.5437
 8057SOL    HW135807   2.235   2.260  10.545  2.8841 -0.3214  1.8916
 8057SOL    HW235808   2.362   2.342  10.524  0.9952  0.1402 -0.6376
 8058SOL     OW35809   4.592   0.582   3.587 -0.7061  0.1139 -0.1806
 8058SOL    HW135810   4.683   0.594   3.614 -0.2159 -1.2170 -1.2686
 8058SOL    HW235811   4.559   0.671   3.600  0.2286 -0.1989  4.1716
 8059SOL     OW35812   3.389   0.978   7.000 -0.3470 -0.4337 -0.1161
 8059SOL    HW135813   3.433   0.894   6.990  0.0090 -0.0531 -1.8029
 8059SOL    HW235814   3.338   0.963   6.921 -0.0322  0.3743 -0.4739
 8060SOL     OW35815   1.912   1.387   5.483 -0.5454  0.3438 -0.4136
 8060SOL    HW135816   1.984   1.413   5.426 -0.5413  0.7107 -0.2406
 8060SOL    HW235817   1.945   1.419   5.566 -2.2722 -3.2124  1.6388
 8061SOL     OW35818   1.744   0.711  16.632  0.2107  0.1183  0.0351
 8061SOL    HW135819   1.747   0.654  16.709 -2.1914  0.5894  0.4820
 8061SOL    HW235820   1.654   0.696  16.600  0.0203  0.9009  0.1993
 8062SOL     OW35821   3.847   2.769   5.143  0.8867 -0.2112  0.1276
 8062SOL    HW135822   3.922   2.827   5.148  0.5669  0.3628 -1.5661
 8062SOL    HW235823   3.833   2.736   5.232 -1.4820  1.3205  0.3363
 8063SOL     OW35824   0.052   2.128   6.544 -0.4448  0.2403  0.1463
 8063SOL    HW135825   4.700   2.110   6.512 -0.6280  1.5782 -0.0894
 8063SOL    HW235826   0.099   2.126   6.461 -0.2303 -0.0097  0.2720
 8064SOL     OW35827   1.039   2.605   0.453 -0.2160  0.3282 -0.3228
 8064SOL    HW135828   0.987   2.568   0.382 -0.9300  0.8166 -0.0545
 8064SOL    HW235829   1.104   2.544   0.488 -0.6133  1.1333  1.8531
 8065SOL     OW35830   2.458   1.999   8.997 -0.0441  0.2516  0.5942
 8065SOL    HW135831   2.423   1.924   9.044 -0.9749 -1.0998 -2.2409
 8065SOL    HW235832   2.422   2.077   9.039 -0.8643 -0.3879  1.0785
 8066SOL     OW35833   2.089   0.871   5.829 -0.3677 -0.5055 -0.3531
 8066SOL    HW135834   2.069   0.800   5.889  0.3096 -0.0823  0.3693
 8066SOL    HW235835   1.998   0.898   5.815 -0.4524 -0.6593 -0.1000
 8067SOL     OW35836   1.063   1.005  11.987 -0.1118 -0.1036  0.1088
 8067SOL    HW135837   0.983   0.990  11.937 -0.6537  0.3512  0.8389
 8067SOL    HW235838   1.135   1.048  11.942  0.4975  0.4785  1.6206
 8068SOL     OW35839   3.317   3.748   4.743 -0.3865 -0.2603 -0.4582
 8068SOL    HW135840   3.391   3.797   4.707  0.0959  0.2635  1.2427
 8068SOL    HW235841   3.261   3.749   4.666 -2.4244 -0.4403  0.9959
 8069SOL     OW35842   4.586   3.581  16.846 -0.1043 -0.2266 -0.6278
 8069SOL    HW135843   4.599   3.670  16.880 -0.8188  0.0229 -1.0195
 8069SOL    HW235844   4.641   3.573  16.768 -1.6612 -0.0145 -1.7329
 8070SOL     OW35845   0.015   4.366   2.159 -0.2041  0.3491  0.1353
 8070SOL    HW135846   0.009   4.371   2.063  1.6492 -0.5829 -0.0332
 8070SOL    HW235847   0.032   4.452   2.198  1.0264  0.4535 -0.6094
 8071SOL     OW35848   3.099   2.767   7.229 -0.0946  0.3946 -0.4516
 8071SOL    HW135849   3.022   2.730   7.273 -0.7030  2.2456  0.0027
 8071SOL    HW235850   3.138   2.834   7.285 -1.1604  0.2963  0.4128
 8072SOL     OW35851   3.952   1.648  16.087  0.1347 -0.3469 -0.0635
 8072SOL    HW135852   3.962   1.556  16.113 -0.4515 -0.8845 -1.7627
 8072SOL    HW235853   3.924   1.694  16.166 -2.5045  0.3903 -1.4323
 8073SOL     OW35854   3.433   1.444   4.803  0.2819  0.1737  0.7478
 8073SOL    HW135855   3.404   1.535   4.804  0.6078  0.2929 -1.8652
 8073SOL    HW235856   3.359   1.400   4.847 -3.5199  1.7123 -4.1091
 8074SOL     OW35857   3.272   3.862  17.159 -0.0085 -0.5989  0.2389
 8074SOL    HW135858   3.357   3.895  17.129 -0.7755  0.2243 -1.0475
 8074SOL    HW235859   3.223   3.930  17.113  0.1096 -1.3317 -0.9654
 8075SOL     OW35860   2.308   3.006  15.844 -0.2758  0.2303 -0.0338
 8075SOL    HW135861   2.386   3.020  15.791 -2.3444 -0.3169 -3.2255
 8075SOL    HW235862   2.333   3.030  15.933  1.3816  0.3432 -0.5435
 8076SOL     OW35863   0.651   1.837   6.909  0.4166  0.1280 -0.1672
 8076SOL    HW135864   0.664   1.854   6.816 -1.5913 -0.1094 -0.5114
 8076SOL    HW235865   0.659   1.928   6.938  1.8788  0.4434 -1.6043
 8077SOL     OW35866   1.407   2.256   8.589 -0.3613  0.1463 -0.2942
 8077SOL    HW135867   1.446   2.308   8.659 -0.0017 -1.6774  0.8592
 8077SOL    HW235868   1.365   2.197   8.651  2.3016 -0.2894  1.0965
 8078SOL     OW35869   4.225   2.621   9.235 -0.3162 -0.1983  0.8941
 8078SOL    HW135870   4.134   2.636   9.262 -0.1603 -0.5115  1.5949
 8078SOL    HW235871   4.217   2.652   9.145  0.0188  2.4433  1.7591
 8079SOL     OW35872   3.610   3.166   0.047 -1.0619  0.3315 -0.3819
 8079SOL    HW135873   3.617   3.162   0.142 -2.6177 -0.5083 -0.2989
 8079SOL    HW235874   3.643   3.254   0.032  1.0704 -0.6279 -1.2734
 8080SOL     OW35875   1.160   0.518   8.922  0.1722 -0.1268  0.0416
 8080SOL    HW135876   1.193   0.470   8.998  1.8777 -0.5862 -1.0000
 8080SOL    HW235877   1.081   0.466   8.912  1.2450 -1.4652 -1.3756
 8081SOL     OW35878   2.116   3.902   4.220  0.5314 -0.2150  1.4691
 8081SOL    HW135879   2.047   3.836   4.231  1.1409 -1.1005 -0.0019
 8081SOL    HW235880   2.091   3.924   4.130  1.5372 -1.1339  0.9715
 8082SOL     OW35881   3.466   2.789  14.274 -0.1248  0.6409  0.0678
 8082SOL    HW135882   3.526   2.863  14.272  0.4641  0.1471 -0.3652
 8082SOL    HW235883   3.503   2.738  14.347  0.9574 -0.2521 -1.1141
 8083SOL     OW35884   2.201   1.844   6.357  0.0148  0.3376 -0.6655
 8083SOL    HW135885   2.204   1.804   6.270  0.3944 -1.3625  0.1398
 8083SOL    HW235886   2.107   1.844   6.375  0.3106 -1.4219  0.8035
 8084SOL     OW35887   4.568   4.178  14.525 -0.2624  0.1031  0.4138
 8084SOL    HW135888   4.544   4.092  14.491 -0.0365 -0.3853  1.4641
 8084SOL    HW235889   4.593   4.219  14.443  2.3376  2.2500  2.2523
 8085SOL     OW35890   1.739   4.470   7.537  0.2814 -0.2121  0.1414
 8085SOL    HW135891   1.755   4.385   7.578 -2.0444  0.0492  1.6411
 8085SOL    HW235892   1.760   4.457   7.444 -1.3566 -2.5474  0.0917
 8086SOL     OW35893   2.003   0.021   0.174  0.3988  0.1006 -0.1263
 8086SOL    HW135894   2.090   4.735   0.143  0.3712  2.4637 -1.9341
 8086SOL    HW235895   1.984   0.105   0.132  1.4417  0.1031 -0.5703
 8087SOL     OW35896   4.652   4.719  12.568 -0.0417 -0.1486  0.0468
 8087SOL    HW135897   0.005   4.712  12.601  0.4534  4.6877 -0.3255
 8087SOL    HW235898   4.660   0.029  12.485 -1.3913  0.5556  0.3170
 8088SOL     OW35899   3.641   3.599  11.761 -0.0883  0.6329  0.0346
 8088SOL    HW135900   3.691   3.679  11.780 -1.7777  1.7910 -0.3361
 8088SOL    HW235901   3.606   3.631  11.678 -0.3388 -1.7814 -0.7635
 8089SOL     OW35902   0.309   1.482   2.450 -0.0509  0.0365  0.2378
 8089SOL    HW135903   0.268   1.529   2.378 -1.1220  0.5513  1.1792
 8089SOL    HW235904   0.314   1.555   2.512 -0.5819 -0.1266  0.4790
 8090SOL     OW35905   0.980   0.901   4.571  0.6794  0.1101 -0.2841
 8090SOL    HW135906   1.039   0.963   4.614  0.8061  1.0094 -1.7718
 8090SOL    HW235907   0.976   0.936   4.482  2.6898 -3.2113 -1.6792
 8091SOL     OW35908   0.465   0.841  17.642  0.3509 -0.2472 -0.1674
 8091SOL    HW135909   0.514   0.888  17.710 -1.1961  0.3766  0.5205
 8091SOL    HW235910   0.385   0.822  17.691  0.1981  1.7562  0.3807
 8092SOL     OW35911   3.216   2.402  16.628 -0.1033 -0.1145 -0.3648
 8092SOL    HW135912   3.157   2.334  16.595  0.5645 -0.2811 -1.2241
 8092SOL    HW235913   3.190   2.479  16.576 -1.1333  0.7765  1.4737
 8093SOL     OW35914   2.731   2.730   4.666 -0.0664 -0.0498 -0.1819
 8093SOL    HW135915   2.785   2.795   4.621  0.1667 -0.3863 -0.3920
 8093SOL    HW235916   2.788   2.686   4.728 -0.3717 -0.7850 -0.4184
 8094SOL     OW35917   0.740   1.376   2.621 -0.5131  0.8116  0.4563
 8094SOL    HW135918   0.814   1.369   2.562  1.3387  1.5259  2.6960
 8094SOL    HW235919   0.788   1.398   2.701 -0.3080 -0.1313  0.5988
 8095SOL     OW35920   0.935   1.079   6.084  0.3018 -0.4140 -0.8036
 8095SOL    HW135921   0.855   1.092   6.135  0.8256  1.4221 -0.4695
 8095SOL    HW235922   0.911   1.134   6.009 -1.1182 -1.3419 -1.0523
 8096SOL     OW35923   0.250   0.103   9.409 -0.6178  0.4278 -0.0792
 8096SOL    HW135924   0.209   0.087   9.494 -1.2548  1.3077 -0.2211
 8096SOL    HW235925   0.206   0.041   9.350 -0.4759 -0.5580  0.8380
 8097SOL     OW35926   4.329   4.301  13.524  0.1379 -0.0882 -0.6765
 8097SOL    HW135927   4.333   4.394  13.547  0.3552  0.0344 -1.2243
 8097SOL    HW235928   4.379   4.303  13.443  1.5142  0.5318  0.1863
 8098SOL     OW35929   1.386   3.950  13.048  0.1647 -0.0885  0.0550
 8098SOL    HW135930   1.415   3.895  12.975  0.3645  2.1126 -1.5059
 8098SOL    HW235931   1.462   4.002  13.073  2.3526 -2.4300 -1.6814
 8099SOL     OW35932   0.579   2.294   4.391 -0.1059  0.4038 -0.1608
 8099SOL    HW135933   0.521   2.337   4.329  0.0478 -1.5804 -1.6905
 8099SOL    HW235934   0.664   2.279   4.349 -2.0983 -1.2786 -3.6054
 8100SOL     OW35935   3.765   1.045   5.059 -0.2222 -0.2410  0.7027
 8100SOL    HW135936   3.770   1.020   5.151 -0.7929  1.1448  1.0995
 8100SOL    HW235937   3.769   0.954   5.029  1.9085  0.2139 -0.4178
 8101SOL     OW35938   2.172   1.296   7.647 -0.0180  0.1908  0.0704
 8101SOL    HW135939   2.112   1.325   7.578  2.0103  0.1720 -1.7088
 8101SOL    HW235940   2.246   1.357   7.650  0.6287 -0.5148 -1.2637
 8102SOL     OW35941   3.481   2.170   3.076 -0.1340  0.0507 -0.1000
 8102SOL    HW135942   3.498   2.262   3.057  0.1581  0.5310  2.4434
 8102SOL    HW235943   3.386   2.163   3.069 -0.1113  0.2438 -0.5864
 8103SOL     OW35944   2.212   3.924   7.989 -0.1626 -0.0111 -0.2617
 8103SOL    HW135945   2.249   4.012   7.983 -0.8235  0.2855  0.0908
 8103SOL    HW235946   2.285   3.872   7.953 -0.5372 -0.4647 -0.3662
 8104SOL     OW35947   4.432   2.685   4.470  0.7440  0.4279 -0.0822
 8104SOL    HW135948   4.337   2.685   4.482  0.3671  2.4288 -2.9143
 8104SOL    HW235949   4.432   2.725   4.383 -2.0291  1.6243  0.4773
 8105SOL     OW35950   4.371   2.411   4.408  0.6608  0.6615  0.6128
 8105SOL    HW135951   4.413   2.495   4.426 -1.2813  1.6412  0.5615
 8105SOL    HW235952   4.343   2.427   4.318  0.0730  2.1272  1.0487
 8106SOL     OW35953   2.119   2.563   3.331 -0.4104 -0.4491 -0.3978
 8106SOL    HW135954   2.066   2.485   3.314 -1.8594  0.5841 -0.6847
 8106SOL    HW235955   2.177   2.558   3.255 -0.9061 -0.6455 -0.7622
 8107SOL     OW35956   3.417   2.508   8.662  0.2630  0.2858 -0.6019
 8107SOL    HW135957   3.405   2.601   8.681  0.2217  0.5760 -2.0419
 8107SOL    HW235958   3.378   2.505   8.575  0.2903 -1.3056 -0.5567
 8108SOL     OW35959   2.416   1.960   4.771  0.2275 -0.0056 -0.3607
 8108SOL    HW135960   2.388   1.997   4.855  1.5896 -0.9830  0.5260
 8108SOL    HW235961   2.352   1.890   4.757  1.1139 -0.8718 -0.0340
 8109SOL     OW35962   3.229   2.596   7.070 -0.1262 -0.0890 -0.2152
 8109SOL    HW135963   3.240   2.570   7.162  0.3925  0.9855  0.0170
 8109SOL    HW235964   3.163   2.663   7.090  0.3642  0.2420  0.2928
 8110SOL     OW35965   1.521   0.947   6.233  0.0646 -0.3098  0.3438
 8110SOL    HW135966   1.575   1.020   6.263 -1.5945  2.1856 -2.7858
 8110SOL    HW235967   1.464   0.941   6.309  1.1798 -0.6970  1.1361
 8111SOL     OW35968   1.448   0.868  13.986  0.3071  0.0893  0.1498
 8111SOL    HW135969   1.428   0.952  13.944 -2.0102  0.2542  1.5604
 8111SOL    HW235970   1.527   0.852  13.934  0.8108 -0.4439  1.0842
 8112SOL     OW35971   1.708   1.583  16.310  0.3914  0.2943 -0.5067
 8112SOL    HW135972   1.653   1.603  16.386  0.4005 -0.5431 -0.2788
 8112SOL    HW235973   1.678   1.643  16.242  0.5206 -0.0169 -0.8371
 8113SOL     OW35974   1.583   1.949   5.284  0.2920 -0.2206 -0.7976
 8113SOL    HW135975   1.622   1.920   5.201  0.4075 -1.8135 -0.1902
 8113SOL    HW235976   1.622   1.885   5.343  1.5488  1.6712  0.4331
 8114SOL     OW35977   0.418   2.082   4.107 -0.3950 -0.5342 -0.2367
 8114SOL    HW135978   0.463   2.094   4.023 -0.1783  0.5904  0.0333
 8114SOL    HW235979   0.350   2.149   4.098 -0.6108 -0.8654 -1.0181
 8115SOL     OW35980   2.892   0.340   1.482  0.7196 -1.0319 -0.1216
 8115SOL    HW135981   2.843   0.393   1.545  2.6449 -1.7665  1.9951
 8115SOL    HW235982   2.848   0.255   1.483  1.3531 -1.3614 -0.0749
 8116SOL     OW35983   2.797   3.228  11.238  0.6210  0.6053 -0.2597
 8116SOL    HW135984   2.880   3.267  11.209  0.9809 -0.8961 -1.2341
 8116SOL    HW235985   2.757   3.305  11.278  0.4052  0.3876 -0.0584
 8117SOL     OW35986   0.697   0.691  10.788  0.1915  0.2221  0.5636
 8117SOL    HW135987   0.701   0.625  10.857  1.3097  0.8798  1.1305
 8117SOL    HW235988   0.602   0.707  10.791  0.1099 -0.1816  0.1137
 8118SOL     OW35989   0.133   3.857   3.882  0.4488 -0.0392  0.0870
 8118SOL    HW135990   0.066   3.827   3.820 -1.6440  1.7931  1.4442
 8118SOL    HW235991   0.155   3.945   3.850 -1.0790  0.3606  0.1155
 8119SOL     OW35992   4.312   0.341  12.392 -0.4685 -0.5002  0.4697
 8119SOL    HW135993   4.289   0.272  12.330 -1.0783  1.0844 -1.0479
 8119SOL    HW235994   4.391   0.305  12.431  1.1629  3.1473  0.4732
 8120SOL     OW35995   1.581   2.196   6.149 -0.3929  0.1478 -0.4123
 8120SOL    HW135996   1.487   2.192   6.168 -0.3463 -0.3718 -0.2920
 8120SOL    HW235997   1.602   2.284   6.180  0.1209  0.5820 -1.9598
 8121SOL     OW35998   1.904   4.479   3.431  0.1491 -0.1529  0.6563
 8121SOL    HW135999   1.866   4.520   3.509 -2.0920  1.0581 -1.0617
 8121SOL    HW236000   1.981   4.532   3.408  0.2502 -0.8787 -0.6532
 8122SOL     OW36001   1.656   2.936  17.098 -0.3451  0.4265  0.3055
 8122SOL    HW136002   1.659   2.938  17.002  0.3450  1.8626  0.3601
 8122SOL    HW236003   1.605   3.015  17.116 -1.0769 -0.0773  0.4322
 8123SOL     OW36004   3.748   3.669  10.086 -0.4621 -0.8058  0.2824
 8123SOL    HW136005   3.653   3.666  10.079 -0.6261  2.3426  1.2712
 8123SOL    HW236006   3.772   3.581  10.057 -0.0273 -0.7117  0.3483
 8124SOL     OW36007   3.039   0.787  12.750 -0.1645 -0.2533 -0.1715
 8124SOL    HW136008   2.991   0.707  12.729  1.1739 -0.9401 -0.6297
 8124SOL    HW236009   3.029   0.791  12.845  2.5401  3.2330 -0.0321
 8125SOL     OW36010   4.647   2.374   8.205 -0.1572 -0.4459 -0.1631
 8125SOL    HW136011   4.608   2.456   8.175  0.3159 -0.4186 -0.7007
 8125SOL    HW236012   4.572   2.336   8.250  1.1685  0.8746  3.1640
 8126SOL     OW36013   3.025   1.505   2.048 -0.6516  0.4794  0.4883
 8126SOL    HW136014   2.989   1.418   2.030  0.0878  0.7249 -2.1958
 8126SOL    HW236015   2.943   1.549   2.070 -0.7900  0.8377 -0.7004
 8127SOL     OW36016   3.396   4.104   8.141 -0.3341 -0.0015  0.0381
 8127SOL    HW136017   3.339   4.081   8.067  0.7739 -0.1836 -0.7533
 8127SOL    HW236018   3.379   4.198   8.145 -0.2999 -0.1309  2.9140
 8128SOL     OW36019   0.720   4.681   4.720  0.2279 -0.5468  0.3059
 8128SOL    HW136020   0.657   4.654   4.787 -0.2283  1.2972  0.6231
 8128SOL    HW236021   0.711   0.040   4.716 -0.9022 -0.6699 -0.1024
 8129SOL     OW36022   0.959   4.619   5.349 -0.2347 -0.6303  0.4252
 8129SOL    HW136023   0.933   4.533   5.315 -1.3974 -1.1044  2.5224
 8129SOL    HW236024   0.876   4.667   5.344  0.8193  1.1921  0.3254
 8130SOL     OW36025   2.698   0.889   7.119  0.4046 -0.5544 -0.3501
 8130SOL    HW136026   2.740   0.972   7.095 -0.7256  0.6080  1.7966
 8130SOL    HW236027   2.770   0.831   7.091  0.1209 -0.3094 -1.5751
 8131SOL     OW36028   4.316   4.304   8.134 -0.2459 -0.4316  0.0122
 8131SOL    HW136029   4.328   4.210   8.149 -0.2334 -0.4050  0.1620
 8131SOL    HW236030   4.247   4.310   8.067 -0.9022 -3.5043  0.4014
 8132SOL     OW36031   1.970   2.386   4.422 -0.1170  0.0478  0.1576
 8132SOL    HW136032   1.954   2.301   4.380  1.6604 -0.3692  0.3225
 8132SOL    HW236033   2.002   2.359   4.508  1.8753  1.4897 -0.1497
 8133SOL     OW36034   1.831   3.789  15.825  0.1733 -0.2627 -0.5336
 8133SOL    HW136035   1.873   3.703  15.833  1.3192  0.3645  0.2203
 8133SOL    HW236036   1.907   3.840  15.796  0.5092  0.7158  2.0319
 8134SOL     OW36037   2.899   2.232   8.460  0.2006  0.5784 -0.6343
 8134SOL    HW136038   2.867   2.183   8.536 -4.4789  4.0263 -0.3646
 8134SOL    HW236039   2.840   2.307   8.449 -1.4908 -0.8695 -1.3729
 8135SOL     OW36040   4.720   1.532   9.499  1.0112  0.2641 -0.0725
 8135SOL    HW136041   0.037   1.601   9.461  1.4520  0.2252  0.4731
 8135SOL    HW236042   4.674   1.577   9.570  0.3113  1.1060 -1.0624
 8136SOL     OW36043   0.827   3.111   6.621 -0.4006  0.4200  0.1406
 8136SOL    HW136044   0.779   3.046   6.570 -0.5381 -0.8244  1.8569
 8136SOL    HW236045   0.817   3.082   6.712  4.4966  2.2958  1.2866
 8137SOL     OW36046   2.311   0.192   4.992  0.0646  0.7128 -0.2163
 8137SOL    HW136047   2.268   0.146   4.920  0.6444  0.2907 -0.2895
 8137SOL    HW236048   2.391   0.140   5.000 -1.2883 -1.2143  0.8220
 8138SOL     OW36049   0.766   1.090   2.785  0.1147  0.1510  0.4322
 8138SOL    HW136050   0.810   1.172   2.805  1.4467 -0.1918 -1.0788
 8138SOL    HW236051   0.809   1.039   2.716  1.4460 -1.4200  2.4443
 8139SOL     OW36052   1.820   3.445   0.180  0.2837  0.1520  0.8096
 8139SOL    HW136053   1.786   3.470   0.266 -1.8743  1.2124 -0.3270
 8139SOL    HW236054   1.911   3.428   0.203  0.5161  0.0180 -0.2281
 8140SOL     OW36055   1.415   1.121  13.880 -0.0903  0.7864 -0.0028
 8140SOL    HW136056   1.379   1.192  13.934  1.0874  2.9970 -2.1260
 8140SOL    HW236057   1.449   1.166  13.802 -0.2970  2.0288  0.6142
 8141SOL     OW36058   0.216   2.881   1.872  0.3181  0.3159 -0.1436
 8141SOL    HW136059   0.292   2.852   1.922  1.2554  3.1603  0.1035
 8141SOL    HW236060   0.163   2.803   1.858 -1.8823  2.2325 -2.5624
 8142SOL     OW36061   1.518   1.976   2.961  0.5536  0.1174 -0.3552
 8142SOL    HW136062   1.504   2.050   3.019 -0.3098  0.4046 -0.9398
 8142SOL    HW236063   1.428   1.950   2.942  1.5054 -2.2445 -1.6327
 8143SOL     OW36064   1.962   0.783  15.223 -0.2733 -0.1981  0.0563
 8143SOL    HW136065   1.891   0.839  15.253  0.2439  0.2801  0.3936
 8143SOL    HW236066   1.982   0.823  15.139  0.5044  1.4896  1.0369
 8144SOL     OW36067   0.213   1.520   4.025 -0.0707  0.5351  0.1776
 8144SOL    HW136068   0.154   1.511   4.100  0.4498  1.1723  0.6629
 8144SOL    HW236069   0.141   1.494   3.968  1.4517 -2.4070 -0.4201
 8145SOL     OW36070   3.657   2.806   3.711 -0.4250  0.1323  0.3035
 8145SOL    HW136071   3.740   2.758   3.705 -1.5336 -1.6517 -0.4865
 8145SOL    HW236072   3.656   2.865   3.636 -1.5937 -3.0274 -2.1336
 8146SOL     OW36073   0.787   1.639   5.095  0.2060 -0.0856 -0.3860
 8146SOL    HW136074   0.862   1.658   5.038  1.7018 -2.5731  0.7523
 8146SOL    HW236075   0.720   1.669   5.034 -1.1292 -1.0380  0.6267
 8147SOL     OW36076   3.093   2.457   9.848  0.7825  0.6869  0.1436
 8147SOL    HW136077   3.019   2.475   9.790  0.0512 -0.0827  0.8285
 8147SOL    HW236078   3.050   2.452   9.933  0.5626  0.7480  0.0370
 8148SOL     OW36079   2.827   1.259   2.816  0.2425 -0.0989 -0.2123
 8148SOL    HW136080   2.904   1.215   2.852  1.0939 -0.6892 -2.7787
 8148SOL    HW236081   2.779   1.189   2.772 -0.0871 -0.5079  0.8056
 8149SOL     OW36082   4.421   4.315   5.367 -0.4338 -0.2259  0.6091
 8149SOL    HW136083   4.396   4.406   5.380  1.2528  0.4656 -0.9695
 8149SOL    HW236084   4.409   4.279   5.455  0.1104 -0.1485  0.7206
 8150SOL     OW36085   4.371   3.807   1.727 -0.8649 -0.2226 -0.2968
 8150SOL    HW136086   4.336   3.742   1.665  1.2985 -2.4427  0.7754
 8150SOL    HW236087   4.458   3.773   1.748 -0.3391  1.4386  0.1315
 8151SOL     OW36088   0.632   4.250   3.241 -0.2099 -0.1815 -0.3876
 8151SOL    HW136089   0.540   4.225   3.237 -0.0263 -0.7993 -0.7603
 8151SOL    HW236090   0.684   4.170   3.240  0.5107  0.2640  1.2720
 8152SOL     OW36091   0.066   3.611  13.120 -0.7906 -0.3154 -0.5800
 8152SOL    HW136092   4.725   3.575  13.164  1.0295 -1.9792  1.2696
 8152SOL    HW236093   0.123   3.534  13.116 -2.3524 -1.5728  1.1919
 8153SOL     OW36094   2.087   4.483   1.624 -0.2479  0.1073 -0.5303
 8153SOL    HW136095   2.093   4.395   1.660  1.8259  0.7460  0.6754
 8153SOL    HW236096   1.996   4.481   1.596 -0.2247  1.7826 -0.7603
 8154SOL     OW36097   3.939   3.360  12.941  0.1804  0.2023  0.2484
 8154SOL    HW136098   3.876   3.375  13.011  1.7938 -1.1252  1.9763
 8154SOL    HW236099   3.914   3.269  12.923 -1.4838  0.7633 -0.2111
 8155SOL     OW36100   3.728   0.979  10.279 -0.7090 -0.0458 -0.6094
 8155SOL    HW136101   3.797   1.045  10.276  0.9812 -1.6848  2.3738
 8155SOL    HW236102   3.682   0.994  10.196 -1.0594  0.6920 -0.2925
 8156SOL     OW36103   2.761   1.812  10.164  0.5963 -0.2153 -0.2811
 8156SOL    HW136104   2.746   1.763  10.245 -0.4041  0.3535 -0.1267
 8156SOL    HW236105   2.828   1.872  10.196  0.0834  0.3371 -0.2474
 8157SOL     OW36106   2.446   2.277   7.446  0.5561  0.0799 -0.4787
 8157SOL    HW136107   2.501   2.200   7.462  0.4706 -0.0349 -0.7388
 8157SOL    HW236108   2.425   2.261   7.354 -2.2853  0.6139  0.0674
 8158SOL     OW36109   0.257   0.423   2.390  0.3531  0.2913 -0.3407
 8158SOL    HW136110   0.232   0.436   2.299  0.2511  2.0828 -0.0709
 8158SOL    HW236111   0.347   0.457   2.388  0.3741  0.2811  0.3786
 8159SOL     OW36112   0.643   0.210   6.493 -0.6921  0.2469  0.0455
 8159SOL    HW136113   0.576   0.254   6.441  0.2968  2.6472  0.8242
 8159SOL    HW236114   0.593   0.149   6.547  1.1792 -1.8146 -0.5229
 8160SOL     OW36115   3.001   1.359  13.582 -0.3355 -0.0604 -0.1540
 8160SOL    HW136116   3.079   1.323  13.625 -0.8346  1.6664  2.2076
 8160SOL    HW236117   2.981   1.420  13.654 -1.2619 -1.9152  1.1463
 8161SOL     OW36118   4.250   0.309  14.200 -0.9045  0.2544 -0.1238
 8161SOL    HW136119   4.234   0.219  14.229  2.9758 -0.2162  0.4507
 8161SOL    HW236120   4.342   0.307  14.226 -0.8060  2.6061 -0.3177
 8162SOL     OW36121   3.423   1.669   7.567  0.0133  0.4667 -0.0312
 8162SOL    HW136122   3.351   1.730   7.553 -0.6179 -0.4855 -0.8814
 8162SOL    HW236123   3.398   1.600   7.506 -2.9597 -0.5645  2.3829
 8163SOL     OW36124   0.310   3.074   7.291  0.7964  0.2117  0.2501
 8163SOL    HW136125   0.253   3.150   7.306 -0.5013 -1.0471  1.7101
 8163SOL    HW236126   0.323   3.040   7.379 -0.6942 -2.8118 -0.6929
 8164SOL     OW36127   0.257   0.960   4.913  0.0636 -0.3044 -0.0564
 8164SOL    HW136128   0.284   0.962   5.005 -0.2069 -0.0206  0.0150
 8164SOL    HW236129   0.263   1.054   4.895 -0.6346 -0.2924 -0.2184
 8165SOL     OW36130   2.005   4.024  14.102  0.4770  0.3544  0.1695
 8165SOL    HW136131   1.992   4.001  14.194  0.3884 -0.0468  0.0554
 8165SOL    HW236132   1.982   3.945  14.053  0.0113  1.6015 -1.6416
 8166SOL     OW36133   2.903   4.723   3.885 -0.0270  0.0739  0.3845
 8166SOL    HW136134   2.829   0.006   3.828  0.3364  1.6741  0.4519
 8166SOL    HW236135   2.974   4.731   3.822  0.6229  2.2839  1.3981
 8167SOL     OW36136   0.118   3.613   1.925  0.8607  0.3781 -0.8995
 8167SOL    HW136137   0.199   3.658   1.950  0.3883  0.6544  0.1342
 8167SOL    HW236138   0.156   3.526   1.935 -1.7370 -0.6556 -0.3245
 8168SOL     OW36139   1.497   4.304  12.325  0.1014  0.2783 -0.5884
 8168SOL    HW136140   1.523   4.395  12.307 -0.4571  0.4386 -0.5777
 8168SOL    HW236141   1.572   4.264  12.281  0.6983 -0.9659  1.5284
 8169SOL     OW36142   2.552   0.543   3.241  0.2702 -0.0949  0.1226
 8169SOL    HW136143   2.558   0.510   3.152 -0.2387 -1.0638  0.4362
 8169SOL    HW236144   2.550   0.461   3.291  0.1966  0.3211  0.7987
 8170SOL     OW36145   2.664   0.830  10.273  0.5306 -1.0248 -0.0625
 8170SOL    HW136146   2.600   0.823  10.202 -0.3837  0.1143  0.6536
 8170SOL    HW236147   2.715   0.749  10.274  0.2751 -1.1587  2.5368
 8171SOL     OW36148   3.360   1.119   7.409 -0.0003  0.5007 -0.0684
 8171SOL    HW136149   3.437   1.168   7.380  0.3225 -2.2847 -3.9788
 8171SOL    HW236150   3.306   1.119   7.329  0.7752 -3.1181 -0.6262
 8172SOL     OW36151   0.410   2.900   1.690  0.4162  0.1242 -0.3945
 8172SOL    HW136152   0.328   2.885   1.738 -0.3721  3.2439 -0.7658
 8172SOL    HW236153   0.391   2.850   1.611  0.2352  1.3217 -1.0902
 8173SOL     OW36154   3.246   0.846   6.024 -0.0041 -0.5545 -0.1924
 8173SOL    HW136155   3.191   0.788   6.077 -1.8772  0.6703 -0.7944
 8173SOL    HW236156   3.199   0.826   5.942  0.6182 -2.7723 -0.0142
 8174SOL     OW36157   3.804   0.627   8.411  0.6131  0.7066  0.5210
 8174SOL    HW136158   3.879   0.683   8.431  0.6747  0.3695  1.2443
 8174SOL    HW236159   3.748   0.645   8.486 -2.8028 -2.8817 -1.2117
 8175SOL     OW36160   3.003   2.501   8.591 -0.7223 -0.2085  0.2825
 8175SOL    HW136161   2.954   2.569   8.637  1.0865  1.0842  0.3136
 8175SOL    HW236162   2.964   2.487   8.505  1.3406 -2.5140 -0.2872
 8176SOL     OW36163   4.281   2.280   5.859 -0.0091 -0.3925 -0.3871
 8176SOL    HW136164   4.337   2.205   5.878  1.0897  0.5648  0.1243
 8176SOL    HW236165   4.197   2.239   5.840  0.4705 -1.9013  0.7006
 8177SOL     OW36166   4.084   0.550   5.032 -0.0850 -0.2007 -0.5083
 8177SOL    HW136167   4.042   0.507   5.106  0.0720  1.0008  0.2865
 8177SOL    HW236168   4.154   0.488   5.012  1.3654  1.8070 -1.7063
 8178SOL     OW36169   2.501   2.401   8.928  0.1639  0.2717  0.1801
 8178SOL    HW136170   2.587   2.366   8.951  0.2375  0.6082  0.4010
 8178SOL    HW236171   2.447   2.332   8.967  4.0822 -2.3410  0.9688
 8179SOL     OW36172   0.822   4.479   1.874  0.2905  0.2387 -0.7020
 8179SOL    HW136173   0.903   4.501   1.920 -1.1381  0.4599  1.7024
 8179SOL    HW236174   0.763   4.479   1.949  1.3312 -1.5923  0.1011
 8180SOL     OW36175   1.846   4.498   5.764 -0.1430 -0.3293 -0.8356
 8180SOL    HW136176   1.904   4.460   5.830 -0.2662 -0.2993 -0.7106
 8180SOL    HW236177   1.883   4.586   5.759 -0.5941 -0.0876  0.1098
 8181SOL     OW36178   3.018   1.444   1.344  0.1241 -0.0055  0.9181
 8181SOL    HW136179   2.947   1.410   1.289 -0.4337  1.0693  0.9701
 8181SOL    HW236180   3.061   1.361   1.362  1.0032  1.0584  3.7310
 8182SOL     OW36181   3.993   2.891  10.022  0.1869  0.2667 -0.0971
 8182SOL    HW136182   3.938   2.890   9.943 -3.4318 -1.7908  2.4560
 8182SOL    HW236183   4.080   2.889   9.983  1.0381  0.5495  1.7967
 8183SOL     OW36184   1.829   3.867   6.411  0.3608  0.3077 -0.4988
 8183SOL    HW136185   1.852   3.778   6.435 -0.3637 -0.2412 -1.8359
 8183SOL    HW236186   1.766   3.893   6.479  0.3175 -1.3273  0.0768
 8184SOL     OW36187   3.953   3.328   7.889 -0.3120  0.4908 -0.4312
 8184SOL    HW136188   3.863   3.314   7.919 -0.1096  2.1356  0.9727
 8184SOL    HW236189   3.962   3.262   7.820 -0.6681  1.3721 -1.3121
 8185SOL     OW36190   2.822   0.121   8.918 -0.4813  0.0044  0.4012
 8185SOL    HW136191   2.863   0.040   8.949 -2.1411 -1.8430 -2.2255
 8185SOL    HW236192   2.760   0.085   8.854  0.1396  0.2532 -0.3361
 8186SOL     OW36193   3.072   1.390  10.593  0.7268  0.5681 -0.1487
 8186SOL    HW136194   3.166   1.399  10.581  0.8452  2.7416  2.2624
 8186SOL    HW236195   3.053   1.363  10.503 -0.5406 -1.2851  0.6608
 8187SOL     OW36196   4.394   0.774   7.984 -0.0480 -0.4835  0.1826
 8187SOL    HW136197   4.323   0.776   7.920  0.0635 -1.4712  0.0294
 8187SOL    HW236198   4.467   0.757   7.925  0.1137 -1.6093  0.7134
 8188SOL     OW36199   1.629   4.486   5.937  0.2415 -0.1807 -0.1024
 8188SOL    HW136200   1.687   4.487   5.861 -0.9621 -0.6734 -1.0382
 8188SOL    HW236201   1.684   4.524   6.005 -0.2745 -1.9637  1.2981
 8189SOL     OW36202   0.708   4.588   8.059  0.9648  0.4878  0.2378
 8189SOL    HW136203   0.643   4.528   8.096 -0.1080  2.2545  1.1885
 8189SOL    HW236204   0.662   4.619   7.981  5.1231  1.4104 -1.8311
 8190SOL     OW36205   3.202   2.947   7.438  0.0611  0.0216 -0.2097
 8190SOL    HW136206   3.281   2.910   7.477  1.0703  0.8854 -1.4463
 8190SOL    HW236207   3.159   2.976   7.519  0.4158 -1.5919  0.5647
 8191SOL     OW36208   4.398   0.264   1.670  0.1217 -0.2926 -0.2870
 8191SOL    HW136209   4.444   0.217   1.739 -2.2823  0.1868  1.6450
 8191SOL    HW236210   4.429   0.353   1.688 -0.3278 -0.2477  0.2719
 8192SOL     OW36211   4.232   3.705   4.566 -0.0857  0.1394  0.2195
 8192SOL    HW136212   4.143   3.677   4.584 -0.1695 -0.2990 -0.8815
 8192SOL    HW236213   4.232   3.716   4.471 -3.3143  0.3786  0.2737
 8193SOL     OW36214   1.132   4.687   1.992 -0.0100  0.1838 -0.2105
 8193SOL    HW136215   1.191   4.722   1.924 -1.1849  3.4897  0.4325
 8193SOL    HW236216   1.069   0.019   2.012  0.1125  0.3446 -0.3731
 8194SOL     OW36217   1.323   2.578   8.253 -0.4926 -0.4318  0.4535
 8194SOL    HW136218   1.365   2.634   8.188  0.0821 -1.4249 -0.0285
 8194SOL    HW236219   1.230   2.599   8.249 -0.4630 -0.6066 -1.1166
 8195SOL     OW36220   2.185   0.088   2.396  0.1831 -0.1146  0.0622
 8195SOL    HW136221   2.229   0.008   2.368  0.0326  0.5812 -2.1329
 8195SOL    HW236222   2.163   0.070   2.487  0.0290 -0.4413 -0.0414
 8196SOL     OW36223   0.123   3.114  11.954 -0.2061  0.2509  0.5038
 8196SOL    HW136224   0.028   3.121  11.951 -0.1910  0.9974  1.7142
 8196SOL    HW236225   0.137   3.189  12.012 -2.1442  1.8289 -1.0800
 8197SOL     OW36226   2.901   2.355  10.074  0.1773  0.6622 -0.2514
 8197SOL    HW136227   2.909   2.447  10.099  1.0734  0.1897  1.2085
 8197SOL    HW236228   2.856   2.354   9.990 -1.9718  0.8213  0.9127
 8198SOL     OW36229   4.124   3.126   2.417  0.6153 -0.0922  0.9940
 8198SOL    HW136230   4.216   3.140   2.437  0.4658 -0.4022  1.8919
 8198SOL    HW236231   4.086   3.106   2.502  1.7639 -1.1741  1.2634
 8199SOL     OW36232   2.841   2.011   3.778  0.0265 -1.0064 -0.4829
 8199SOL    HW136233   2.899   1.992   3.852 -1.0273 -0.3782  0.4869
 8199SOL    HW236234   2.780   1.937   3.773  0.8541 -1.5418 -2.6296
 8200SOL     OW36235   2.515   3.022   5.012  0.1807 -0.7139 -0.4762
 8200SOL    HW136236   2.525   3.107   4.969 -1.6300 -0.3622 -0.2016
 8200SOL    HW236237   2.422   3.032   5.033  0.0113  1.1860 -2.1831
 8201SOL     OW36238   1.634   1.324   1.435  0.0922 -0.4248  0.6705
 8201SOL    HW136239   1.581   1.371   1.500  0.3538  0.6754  0.0956
 8201SOL    HW236240   1.586   1.241   1.435 -0.5793 -0.0304  0.0863
 8202SOL     OW36241   4.297   4.012   9.418 -0.5538  0.2316 -0.0240
 8202SOL    HW136242   4.342   4.096   9.409  1.4956 -1.1238 -2.2737
 8202SOL    HW236243   4.237   4.037   9.489 -2.0647  1.5343 -1.7695
 8203SOL     OW36244   4.027   1.726   7.386  0.7372 -0.4562  0.5423
 8203SOL    HW136245   4.039   1.632   7.372  0.2374 -0.2554 -1.2120
 8203SOL    HW236246   4.119   1.752   7.384 -0.1171  2.4500 -0.9480
 8204SOL     OW36247   0.525   0.925   8.126  0.1192 -0.0122 -0.5019
 8204SOL    HW136248   0.482   0.902   8.209  0.5455 -0.5990 -0.4450
 8204SOL    HW236249   0.544   1.018   8.140  0.6279  0.0858 -1.8742
 8205SOL     OW36250   4.340   1.396   4.887 -0.4871 -0.2920  0.3062
 8205SOL    HW136251   4.382   1.361   4.965 -1.8890 -1.8452  0.3582
 8205SOL    HW236252   4.326   1.315   4.837  0.8276 -0.7305  0.6425
 8206SOL     OW36253   1.098   0.188  11.132  0.6814 -0.3597 -0.6350
 8206SOL    HW136254   1.054   0.112  11.094  0.3787 -0.8244  0.6659
 8206SOL    HW236255   1.139   0.149  11.209  0.2773  2.7485  1.1604
 8207SOL     OW36256   2.403   3.769  16.810 -0.5287 -0.0899 -0.0118
 8207SOL    HW136257   2.355   3.796  16.888  0.7296  0.9244  0.4214
 8207SOL    HW236258   2.486   3.738  16.846 -0.2613  0.4309 -0.1791
 8208SOL     OW36259   4.669   4.655   6.647  0.2462  0.0459 -0.0421
 8208SOL    HW136260   4.602   4.657   6.579 -0.2171  2.2508  0.4878
 8208SOL    HW236261   0.005   4.701   6.607  1.4154 -0.8095  1.0777
 8209SOL     OW36262   4.699   4.110   6.582  0.2761 -0.2463 -0.0307
 8209SOL    HW136263   4.686   4.024   6.543  0.4287  0.0933 -0.8417
 8209SOL    HW236264   4.658   4.098   6.667  0.7813  0.5970  0.3324
 8210SOL     OW36265   0.238   1.310   1.221 -0.0366 -0.1623 -0.1743
 8210SOL    HW136266   0.312   1.313   1.160 -1.0962  1.1190 -1.3939
 8210SOL    HW236267   0.219   1.216   1.221  1.6750 -0.4910 -2.5241
 8211SOL     OW36268   1.282   0.075   0.241 -0.0816 -0.2973  0.2903
 8211SOL    HW136269   1.369   0.086   0.280 -0.6705  0.2964  1.4389
 8211SOL    HW236270   1.221   0.090   0.313  0.8965 -0.8508  1.2302
 8212SOL     OW36271   3.178   0.196   9.102 -0.1883  0.3710  0.1050
 8212SOL    HW136272   3.163   0.251   9.179  2.2651 -2.7178  2.7374
 8212SOL    HW236273   3.162   0.105   9.126  4.6247 -0.1836  1.2091
 8213SOL     OW36274   2.602   4.699  11.929 -0.6272  0.2381  0.1654
 8213SOL    HW136275   2.580   4.722  12.019 -1.7801 -0.9349  0.1845
 8213SOL    HW236276   2.588   4.604  11.925  0.4532 -0.0745  3.6772
 8214SOL     OW36277   4.019   0.103   9.432  0.2495  0.4562 -0.3107
 8214SOL    HW136278   3.985   0.092   9.343  0.8042 -0.6195 -0.3973
 8214SOL    HW236279   4.083   0.173   9.424 -1.4287  1.9005 -1.0667
 8215SOL     OW36280   1.409   2.746  11.186 -0.0407 -0.2407 -0.1131
 8215SOL    HW136281   1.473   2.750  11.258  0.0697  2.7058 -0.3600
 8215SOL    HW236282   1.362   2.666  11.207 -1.8102  0.7901 -0.1381
 8216SOL     OW36283   1.976   2.734   8.817 -0.6764 -0.2588  0.2071
 8216SOL    HW136284   1.998   2.643   8.799  0.6482 -0.1905  1.4932
 8216SOL    HW236285   1.882   2.718   8.816 -0.5533 -0.8727 -1.2522
 8217SOL     OW36286   0.229   0.557   9.097  0.5865  0.1360  0.2107
 8217SOL    HW136287   0.196   0.473   9.130 -2.5347  1.5262  0.6443
 8217SOL    HW236288   0.173   0.608   9.156 -1.9858  0.2083 -2.2878
 8218SOL     OW36289   0.912   1.201   1.251 -0.3739 -0.2294 -0.0426
 8218SOL    HW136290   0.860   1.278   1.230 -1.0380  0.1996  3.1120
 8218SOL    HW236291   1.004   1.215   1.231 -0.3327 -0.5896 -0.1168
 8219SOL     OW36292   4.565   2.653   3.496 -0.0608 -0.1853  0.1213
 8219SOL    HW136293   4.541   2.650   3.403 -1.8769  0.1002  0.5878
 8219SOL    HW236294   4.499   2.702   3.545  0.6503 -0.0101  0.8944
 8220SOL     OW36295   0.507   4.120   7.598 -0.1737 -0.2776  0.4546
 8220SOL    HW136296   0.437   4.067   7.636 -0.3411 -0.7587 -0.5205
 8220SOL    HW236297   0.481   4.210   7.621 -2.6791 -0.8966  0.1235
 8221SOL     OW36298   4.074   1.245   8.806 -0.0964 -0.2223 -0.2770
 8221SOL    HW136299   4.060   1.332   8.843  1.0480 -0.7425  1.3561
 8221SOL    HW236300   4.169   1.246   8.793 -0.2325  0.9794 -1.1645
 8222SOL     OW36301   2.620   4.447   2.676 -0.6324 -0.1378 -0.4070
 8222SOL    HW136302   2.702   4.428   2.722 -0.4011 -1.7747 -1.5020
 8222SOL    HW236303   2.592   4.535   2.701  1.5362  0.5208 -0.2476
 8223SOL     OW36304   4.690   4.641  16.812  0.0324  0.4068  0.1133
 8223SOL    HW136305   4.635   4.650  16.735  0.8337  1.5464 -0.3193
 8223SOL    HW236306   4.638   4.582  16.867 -0.1516 -0.6250 -1.1775
 8224SOL     OW36307   4.397   0.048  11.963  0.0477 -0.1208  0.1628
 8224SOL    HW136308   4.473   0.056  11.906  0.5412 -1.0320  0.6920
 8224SOL    HW236309   4.428   4.733  12.037 -1.6994 -0.4656  0.6509
 8225SOL     OW36310   3.956   1.501  14.968 -0.5527 -0.4388 -0.7936
 8225SOL    HW136311   4.011   1.568  15.009 -0.6156 -1.1577  0.4777
 8225SOL    HW236312   4.009   1.422  14.981 -0.5872 -0.0695  1.5293
 8226SOL     OW36313   3.069   3.593   4.756 -0.2944 -0.1389 -0.4987
 8226SOL    HW136314   3.039   3.601   4.847  1.8820 -1.9502  0.3838
 8226SOL    HW236315   3.158   3.627   4.764 -0.8844  1.1391  0.6682
 8227SOL     OW36316   0.785   2.767  11.828 -0.4600  0.2869 -0.2086
 8227SOL    HW136317   0.808   2.753  11.736  0.0633  0.9423 -0.1744
 8227SOL    HW236318   0.845   2.707  11.872 -0.0444  2.2006  1.8412
 8228SOL     OW36319   1.748   2.324  11.344  0.2022 -0.3929  0.2145
 8228SOL    HW136320   1.777   2.258  11.407 -0.3393 -0.0436  0.8381
 8228SOL    HW236321   1.799   2.394  11.384  0.6090  0.5079 -1.8992
 8229SOL     OW36322   0.598   3.779   8.424  0.5414  0.4590 -0.0478
 8229SOL    HW136323   0.612   3.685   8.417  0.6290  0.4603  0.1153
 8229SOL    HW236324   0.685   3.807   8.396 -0.7624  1.7990 -2.7153
 8230SOL     OW36325   0.327   3.015   2.235 -0.1980  0.1631  0.0533
 8230SOL    HW136326   0.267   3.088   2.251 -0.5223  0.5072 -2.7981
 8230SOL    HW236327   0.407   3.050   2.275  0.4149  1.3796 -2.2167
 8231SOL     OW36328   4.291   3.401  17.122 -0.1957  0.0020  0.1732
 8231SOL    HW136329   4.288   3.450  17.204  0.2472 -0.5099  0.4957
 8231SOL    HW236330   4.265   3.319  17.165 -0.1098 -0.8280 -1.3639
 8232SOL     OW36331   2.345   2.719   9.442 -0.3425 -0.0491 -0.1208
 8232SOL    HW136332   2.282   2.772   9.395 -0.0669  1.2680  0.9884
 8232SOL    HW236333   2.374   2.661   9.372 -0.0286 -0.7827  0.6039
 8233SOL     OW36334   1.931   3.988  14.368  0.1194  0.2167  0.3792
 8233SOL    HW136335   1.852   4.032  14.400 -0.6824 -2.2052  1.7607
 8233SOL    HW236336   1.899   3.899  14.385  2.3189 -0.3762  1.5037
 8234SOL     OW36337   4.347   0.242  17.407  0.1900  0.1851  0.0784
 8234SOL    HW136338   4.272   0.270  17.459  1.0564  1.5209  0.5949
 8234SOL    HW236339   4.301   0.184  17.347 -0.5602 -0.1972  1.0210
 8235SOL     OW36340   3.538   2.037   9.465 -0.0809  0.4821  0.2751
 8235SOL    HW136341   3.622   2.076   9.445 -0.3776 -0.2631 -2.4674
 8235SOL    HW236342   3.521   2.050   9.558 -1.2845 -1.0497  0.2740
 8236SOL     OW36343   2.444   1.612  14.869 -0.3425  0.0480  0.1967
 8236SOL    HW136344   2.444   1.538  14.809 -1.4077 -0.8587  1.3081
 8236SOL    HW236345   2.479   1.683  14.816  0.2096 -0.3084  0.0923
 8237SOL     OW36346   0.160   1.710   3.505  0.0872  0.1129  0.2255
 8237SOL    HW136347   0.233   1.652   3.482 -0.2512 -0.6606  1.0713
 8237SOL    HW236348   0.201   1.775   3.561  1.7274 -1.6372  1.0843
 8238SOL     OW36349   4.392   4.386   7.272 -0.0930  0.4466  0.0657
 8238SOL    HW136350   4.409   4.368   7.365  2.1561  1.4916 -0.1399
 8238SOL    HW236351   4.478   4.380   7.231  0.2926  1.0904  0.7890
 8239SOL     OW36352   1.061   4.524  15.267 -0.2032  0.0215  0.2495
 8239SOL    HW136353   1.064   4.429  15.280  0.4961  0.2504  1.8070
 8239SOL    HW236354   0.970   4.553  15.271 -0.1170  0.3748 -0.5838
 8240SOL     OW36355   4.711   4.165   7.605  0.0356 -0.2832 -0.0010
 8240SOL    HW136356   4.713   4.149   7.699 -0.9737 -1.2679 -0.1436
 8240SOL    HW236357   0.065   4.147   7.580 -0.7689  0.7236 -3.5679
 8241SOL     OW36358   0.483   0.916   4.096 -0.0253  0.6052  0.2350
 8241SOL    HW136359   0.578   0.930   4.092  0.1472  0.0906  2.2968
 8241SOL    HW236360   0.462   0.949   4.184 -0.5457 -0.5481  0.5476
 8242SOL     OW36361   0.337   0.768   8.940 -0.2516  0.1772 -0.3970
 8242SOL    HW136362   0.294   0.713   9.006  1.1152  1.3540  1.4769
 8242SOL    HW236363   0.430   0.749   8.938 -0.2781  0.1742 -1.3608
 8243SOL     OW36364   3.774   3.918   1.815 -0.1366 -0.3328  0.2904
 8243SOL    HW136365   3.805   3.856   1.749  0.0977  1.2767 -1.1215
 8243SOL    HW236366   3.785   3.863   1.892  1.3346  1.4808  1.3785
 8244SOL     OW36367   3.279   0.068   7.549 -0.3059 -0.0950  0.1564
 8244SOL    HW136368   3.368   0.080   7.582  0.4927 -0.5439 -1.8845
 8244SOL    HW236369   3.284   4.713   7.522 -1.0368 -0.6325  1.8225
 8245SOL     OW36370   2.706   3.050   3.035 -0.1291  0.2724  0.3719
 8245SOL    HW136371   2.733   3.079   2.948  2.3546 -0.0566  1.0396
 8245SOL    HW236372   2.643   3.115   3.067  0.6136  2.6549 -2.9666
 8246SOL     OW36373   1.605   1.589  12.753  0.2742  0.0985 -0.0199
 8246SOL    HW136374   1.574   1.504  12.722 -2.2799  0.5500  1.3038
 8246SOL    HW236375   1.677   1.600  12.692 -0.9253  1.3118 -1.2060
 8247SOL     OW36376   3.414   0.336   3.882 -0.6915 -0.5263 -0.0036
 8247SOL    HW136377   3.418   0.427   3.912 -0.9384 -0.4254 -0.2875
 8247SOL    HW236378   3.448   0.346   3.793 -0.5628 -0.8742  0.0068
 8248SOL     OW36379   2.872   2.977   1.813  0.5320  0.3318  0.7081
 8248SOL    HW136380   2.930   2.949   1.742 -1.1179  0.6119 -0.7231
 8248SOL    HW236381   2.786   2.962   1.775  0.4065 -0.8153  1.4430
 8249SOL     OW36382   3.902   4.694  15.929  0.2025  0.1959  0.1021
 8249SOL    HW136383   3.829   0.017  15.946 -1.1291 -1.3751 -0.1104
 8249SOL    HW236384   3.919   4.720  15.838  1.6885 -0.5855  0.1584
 8250SOL     OW36385   0.171   2.950   2.624 -0.3446 -0.2330 -0.3756
 8250SOL    HW136386   0.201   2.919   2.538  0.3023 -0.9605  0.1011
 8250SOL    HW236387   0.124   3.028   2.596  2.0459  0.6331 -2.0263
 8251SOL     OW36388   4.257   2.086  12.755  0.2386 -0.2470  0.1245
 8251SOL    HW136389   4.227   1.997  12.740 -1.6496  0.5587 -0.9558
 8251SOL    HW236390   4.309   2.080  12.834  0.7450  0.6365 -0.1351
 8252SOL     OW36391   1.115   3.796  17.393  0.0026  0.6116  0.3451
 8252SOL    HW136392   1.070   3.717  17.365  4.0586 -2.9578  3.8572
 8252SOL    HW236393   1.105   3.797  17.489 -2.2151 -0.5277  0.1176
 8253SOL     OW36394   0.312   1.169   8.018 -0.0669  0.0371 -0.7548
 8253SOL    HW136395   0.300   1.102   7.952  0.6552  1.1177 -1.9842
 8253SOL    HW236396   0.398   1.148   8.054 -1.2937  0.2228  2.3569
 8254SOL     OW36397   2.567   1.922   9.964  0.3738 -0.1852  0.0883
 8254SOL    HW136398   2.632   1.885  10.024  2.3872  0.5550 -1.6091
 8254SOL    HW236399   2.559   2.010  10.000  0.5744 -1.1590  2.5359
 8255SOL     OW36400   4.139   2.231   8.940  0.4755 -0.8484  0.3148
 8255SOL    HW136401   4.200   2.181   8.995  0.6290 -0.3413  0.6041
 8255SOL    HW236402   4.183   2.316   8.928  1.4608 -1.0357  2.6556
 8256SOL     OW36403   4.439   0.108   3.360  0.0151  0.1912  0.0534
 8256SOL    HW136404   4.395   0.178   3.312  1.9337  1.5877  0.3663
 8256SOL    HW236405   4.443   0.150   3.446 -1.4647 -0.4024  0.4306
 8257SOL     OW36406   0.674   1.660   0.055 -0.7000  0.4386  0.1341
 8257SOL    HW136407   0.766   1.686   0.067 -1.4612  2.1229  2.3115
 8257SOL    HW236408   0.674   1.615  17.716  1.3623  1.5210 -0.4443
 8258SOL     OW36409   2.822   0.157   4.918  0.2263 -0.0613  0.7795
 8258SOL    HW136410   2.884   0.107   4.864  0.3454 -0.3563  1.1870
 8258SOL    HW236411   2.827   0.117   5.005  2.4985 -0.5886  0.4281
 8259SOL     OW36412   2.094   1.939   9.398  0.4455 -0.1283  0.7913
 8259SOL    HW136413   2.137   1.864   9.356 -0.3695 -0.3338  0.3267
 8259SOL    HW236414   2.039   1.975   9.329  0.6776  1.9015  1.6661
 8260SOL     OW36415   0.375   3.950   6.404  0.0417  0.2593 -0.4523
 8260SOL    HW136416   0.460   3.919   6.374  1.8650  2.3842  2.5491
 8260SOL    HW236417   0.326   3.941   6.322  0.4254 -0.3088 -0.6194
 8261SOL     OW36418   3.790   1.736   9.776 -0.4852 -0.5468 -0.2723
 8261SOL    HW136419   3.724   1.699   9.718 -0.9202  4.1400 -2.7916
 8261SOL    HW236420   3.761   1.827   9.772 -2.1578 -1.1072 -0.7552
 8262SOL     OW36421   1.529   0.315   1.712  0.2736  0.4339  0.4519
 8262SOL    HW136422   1.506   0.323   1.805 -1.3896 -0.4865  0.1173
 8262SOL    HW236423   1.614   0.358   1.711 -0.1781  1.3108  0.2191
 8263SOL     OW36424   1.411   1.918   8.931  0.0726 -0.3128  0.4463
 8263SOL    HW136425   1.325   1.943   8.898 -0.8895 -0.6202  2.7089
 8263SOL    HW236426   1.390   1.825   8.924 -0.9112 -0.0782  0.2584
 8264SOL     OW36427   0.426   4.226   4.402  0.3923  0.4214 -0.3065
 8264SOL    HW136428   0.469   4.142   4.387  2.6089  1.3552  0.8020
 8264SOL    HW236429   0.335   4.209   4.380  1.0997 -2.0988 -1.3175
 8265SOL     OW36430   0.603   0.069   2.365  0.4286  0.2202  0.7685
 8265SOL    HW136431   0.599   4.710   2.360 -2.1580  0.2585  1.9892
 8265SOL    HW236432   0.642   0.083   2.452  1.9860 -0.4816  0.1888
 8266SOL     OW36433   0.184   0.738   7.274  0.2849  0.1461  0.1842
 8266SOL    HW136434   0.171   0.792   7.352  1.1954 -1.1200  1.2123
 8266SOL    HW236435   0.131   0.788   7.211 -1.0342 -0.0894  1.0963
 8267SOL     OW36436   4.565   0.749   5.642 -0.2820  0.1404 -0.0543
 8267SOL    HW136437   4.614   0.721   5.719  0.5144 -0.4670 -0.7764
 8267SOL    HW236438   4.635   0.773   5.582  0.3842 -1.1316  0.2144
 8268SOL     OW36439   0.684   2.330   9.058  0.7538 -0.0156  0.4274
 8268SOL    HW136440   0.609   2.292   9.104  1.5730 -1.5473  0.5233
 8268SOL    HW236441   0.637   2.332   8.975  0.1536 -0.2155  0.7645
 8269SOL     OW36442   0.528   1.489  10.128  0.5699  0.0496 -0.3726
 8269SOL    HW136443   0.596   1.543  10.086  0.2235 -1.1149 -2.4467
 8269SOL    HW236444   0.573   1.447  10.201  1.1247 -0.2995 -0.9149
 8270SOL     OW36445   3.754   3.567   9.357  0.3132  0.0611  0.8380
 8270SOL    HW136446   3.694   3.616   9.302  3.0916  0.4923 -1.7884
 8270SOL    HW236447   3.707   3.490   9.391  0.3266  1.3583  3.8159
 8271SOL     OW36448   4.662   1.685   2.333  0.0492  0.1547  0.7212
 8271SOL    HW136449   4.659   1.779   2.318 -1.4414  0.1765  1.1150
 8271SOL    HW236450   4.567   1.689   2.343 -0.2571  2.1075 -2.7281
 8272SOL     OW36451   4.373   0.657   7.106  0.6291  0.8183  0.0227
 8272SOL    HW136452   4.404   0.568   7.118 -0.4993  0.1826 -1.7407
 8272SOL    HW236453   4.285   0.643   7.142  0.9716 -1.7239 -0.1667
 8273SOL     OW36454   2.816   2.954   6.322  0.0900  0.1608 -0.4595
 8273SOL    HW136455   2.823   3.043   6.356  1.6010 -0.1741  0.0858
 8273SOL    HW236456   2.895   2.909   6.353 -0.5581  1.0245  2.4518
 8274SOL     OW36457   0.145   1.606  14.532 -0.0614 -0.0795 -0.1004
 8274SOL    HW136458   0.125   1.697  14.509  1.0096 -0.7962 -3.8293
 8274SOL    HW236459   0.240   1.613  14.528  0.1424 -2.1449  1.1005
 8275SOL     OW36460   0.039   0.676   6.085 -0.3711 -0.3535 -0.1365
 8275SOL    HW136461   4.691   0.667   6.127  1.7887 -1.4481  4.0487
 8275SOL    HW236462   0.055   0.770   6.094  1.0845 -0.4142 -2.1550
 8276SOL     OW36463   3.041   4.340  14.707  0.3279  0.1304  0.4682
 8276SOL    HW136464   3.078   4.419  14.668 -0.0845  0.0277 -0.1273
 8276SOL    HW236465   2.953   4.365  14.733  0.3049 -0.0387  0.5541
 8277SOL     OW36466   4.342   0.607  14.252  0.5109  0.5813 -0.2114
 8277SOL    HW136467   4.311   0.527  14.210  1.9155  0.4777 -1.0312
 8277SOL    HW236468   4.436   0.591  14.261  0.3272  1.0029  2.4994
 8278SOL     OW36469   0.735   2.888  11.322 -0.2065 -0.3971 -0.3021
 8278SOL    HW136470   0.827   2.867  11.305 -0.5352 -2.0555  0.0014
 8278SOL    HW236471   0.720   2.952  11.253  1.2335  0.0905 -0.1734
 8279SOL     OW36472   4.356   4.681  16.146 -0.0466 -0.0928 -0.4603
 8279SOL    HW136473   4.286   0.010  16.150 -1.8332 -1.9101 -1.7830
 8279SOL    HW236474   4.308   4.598  16.154  2.8706 -1.7080  0.1980
 8280SOL     OW36475   0.481   2.777   9.022 -0.3494  0.1236 -0.4628
 8280SOL    HW136476   0.427   2.762   8.944  2.5768 -0.1968 -2.4513
 8280SOL    HW236477   0.420   2.815   9.085  0.4924 -0.8854  0.9404
 8281SOL     OW36478   0.975   2.435   7.390  0.1499  0.5792 -0.1210
 8281SOL    HW136479   0.894   2.484   7.404  0.9507  1.7854  0.3958
 8281SOL    HW236480   0.954   2.384   7.312 -1.5641 -0.6158  1.1340
 8282SOL     OW36481   0.921   0.847  15.846 -0.4373  0.2425  0.6292
 8282SOL    HW136482   0.835   0.807  15.852 -0.5041  0.3454  0.3430
 8282SOL    HW236483   0.972   0.766  15.846  1.4302  1.4012 -2.2609
 8283SOL     OW36484   4.004   3.991   1.150  0.2784 -0.7189 -0.1802
 8283SOL    HW136485   4.025   4.047   1.224 -2.4907 -0.0508  0.1277
 8283SOL    HW236486   4.087   3.963   1.113  0.9319  0.3305  0.5067
 8284SOL     OW36487   3.493   4.130   2.497  0.1375 -0.1916  0.3247
 8284SOL    HW136488   3.588   4.117   2.501  0.3390  1.2074  0.1659
 8284SOL    HW236489   3.485   4.225   2.504  0.8729 -0.0267 -0.9718
 8285SOL     OW36490   3.441   1.423   8.574 -0.0100  0.4090  0.0411
 8285SOL    HW136491   3.513   1.484   8.592  0.2633  0.4097 -1.0167
 8285SOL    HW236492   3.494   1.344   8.567  1.0056  1.0275  0.6743
 8286SOL     OW36493   0.151   0.804   7.771 -0.3602 -0.0971  0.5735
 8286SOL    HW136494   0.226   0.807   7.830 -0.3994  0.7119  0.5899
 8286SOL    HW236495   0.147   0.711   7.749 -0.8746 -0.6680  3.0712
 8287SOL     OW36496   1.519   1.155   8.260 -0.3187 -0.6015  0.1063
 8287SOL    HW136497   1.565   1.117   8.185 -0.4804 -0.2687 -0.1609
 8287SOL    HW236498   1.555   1.243   8.252 -0.3722 -0.4579  1.4586
 8288SOL     OW36499   1.240   2.540  12.885  0.3444  0.2134 -0.0385
 8288SOL    HW136500   1.289   2.503  12.812  0.5680  0.9577 -0.2686
 8288SOL    HW236501   1.230   2.462  12.940 -1.7214 -0.2017 -0.9783
 8289SOL     OW36502   0.758   2.603   9.990  0.2018 -0.0997  0.8877
 8289SOL    HW136503   0.848   2.608   9.955  0.6283  1.4811  2.2112
 8289SOL    HW236504   0.779   2.630  10.079 -2.9563 -0.5088  1.7368
 8290SOL     OW36505   3.411   1.072   6.019 -0.1634  0.0634 -0.4556
 8290SOL    HW136506   3.364   0.997   6.057  3.0812 -0.8169  1.8437
 8290SOL    HW236507   3.425   1.045   5.929  6.2462 -0.7302  0.7851
 8291SOL     OW36508   1.831   0.385   2.268 -0.0366 -0.1244 -0.0940
 8291SOL    HW136509   1.739   0.402   2.246 -0.1987 -0.7915  0.0666
 8291SOL    HW236510   1.840   0.435   2.349  0.3301  0.3192 -0.4098
 8292SOL     OW36511   1.610   2.006  14.731 -0.1709 -0.3547 -0.3963
 8292SOL    HW136512   1.624   2.099  14.752 -1.3552 -0.3241  0.2404
 8292SOL    HW236513   1.689   1.978  14.684  0.2414  2.9482 -1.6643
 8293SOL     OW36514   2.089   3.489   6.399  0.2007  0.0575 -0.1641
 8293SOL    HW136515   2.155   3.532   6.454 -0.5345 -0.5212  1.1508
 8293SOL    HW236516   2.152   3.453   6.336 -1.1340  0.0163 -1.4793
 8294SOL     OW36517   1.285   0.418  12.885  0.0051 -0.5128 -0.0632
 8294SOL    HW136518   1.226   0.362  12.835 -1.3938  1.0810 -0.1889
 8294SOL    HW236519   1.355   0.423  12.819  0.5483 -0.7844  0.4911
 8295SOL     OW36520   1.643   2.613   7.847  0.0977 -0.2771 -0.4581
 8295SOL    HW136521   1.717   2.659   7.886 -1.0453  0.1889  1.1580
 8295SOL    HW236522   1.683   2.581   7.766  1.5995 -1.1932  0.6450
 8296SOL     OW36523   4.392   3.406   8.750  0.0322  0.3763 -0.1464
 8296SOL    HW136524   4.336   3.367   8.682 -0.3855  1.4876 -0.4468
 8296SOL    HW236525   4.427   3.487   8.714  1.6454 -0.4607 -0.4521
 8297SOL     OW36526   2.326   2.738   0.896  0.2306  0.3048 -0.0032
 8297SOL    HW136527   2.262   2.795   0.938  1.5693  4.1511 -3.1572
 8297SOL    HW236528   2.408   2.773   0.929 -0.4364 -0.4451  2.4089
 8298SOL     OW36529   1.218   4.529   6.699 -0.0451  0.1122 -0.5663
 8298SOL    HW136530   1.295   4.559   6.749 -1.3408  2.7781 -0.1578
 8298SOL    HW236531   1.221   4.590   6.625  0.6082  0.2781 -0.4031
 8299SOL     OW36532   3.873   1.735  12.469 -0.1407  0.4564 -0.1672
 8299SOL    HW136533   3.818   1.677  12.522 -1.6345  2.1199  0.1010
 8299SOL    HW236534   3.944   1.677  12.441  0.5493  1.0173  0.4214
 8300SOL     OW36535   3.679   0.063   8.409  0.0533  0.5221 -0.7476
 8300SOL    HW136536   3.626   4.732   8.451  0.6759 -1.0574 -2.4955
 8300SOL    HW236537   3.676   0.131   8.476  0.5265 -0.5152  0.3091
 8301SOL     OW36538   2.109   4.445  16.922  0.2537  0.1031  0.0521
 8301SOL    HW136539   2.025   4.480  16.894  0.8842  0.2665 -1.6468
 8301SOL    HW236540   2.080   4.363  16.960  1.0842  0.2250  0.9631
 8302SOL     OW36541   2.712   0.921   3.403  0.4219 -0.3092 -0.0079
 8302SOL    HW136542   2.762   0.892   3.326  0.2652 -2.4315  0.6798
 8302SOL    HW236543   2.771   0.991   3.428 -2.1126  1.2241  1.7258
 8303SOL     OW36544   0.375   3.868   1.451 -0.3344  0.1683 -0.7422
 8303SOL    HW136545   0.325   3.895   1.528  3.3328 -0.9356  2.0118
 8303SOL    HW236546   0.370   3.774   1.473  0.2731  0.3291  0.0714
 8304SOL     OW36547   0.714   0.881  16.077  0.3140 -0.4645 -0.4866
 8304SOL    HW136548   0.726   0.827  16.155 -3.4039 -2.5001 -1.3487
 8304SOL    HW236549   0.670   0.954  16.120 -1.7523 -1.5079 -0.8444
 8305SOL     OW36550   1.289   3.280   1.602 -0.1013 -0.4364  0.1532
 8305SOL    HW136551   1.215   3.316   1.554  0.0946 -0.3453 -0.0824
 8305SOL    HW236552   1.260   3.195   1.632  0.4970 -0.4911  0.5887
 8306SOL     OW36553   0.041   2.525   5.553 -0.1719 -0.0224 -0.1938
 8306SOL    HW136554   0.019   2.498   5.643 -1.0680  0.7199 -0.1923
 8306SOL    HW236555   4.692   2.533   5.512  0.2657  1.8602 -0.7457
 8307SOL     OW36556   3.274   1.981  13.019  0.0158  0.7613 -0.6188
 8307SOL    HW136557   3.196   2.036  13.034 -1.0891 -1.6266  2.4491
 8307SOL    HW236558   3.239   1.910  12.966  1.8423  1.2935 -2.5023
 8308SOL     OW36559   1.959   4.591   2.391 -0.2062  0.3604  0.6042
 8308SOL    HW136560   2.053   4.581   2.372 -0.7493 -2.5135 -0.5792
 8308SOL    HW236561   1.933   4.536   2.318 -0.3278  1.5109 -0.2225
 8309SOL     OW36562   1.872   1.725   4.485  0.1987 -0.1726  0.3686
 8309SOL    HW136563   1.805   1.793   4.488 -0.5011 -0.7549 -2.0346
 8309SOL    HW236564   1.878   1.711   4.579 -0.1848 -0.1114  0.4012
 8310SOL     OW36565   3.757   4.103   6.953  0.2143 -0.0622  0.0748
 8310SOL    HW136566   3.667   4.074   6.969  0.0128  0.2050 -0.5670
 8310SOL    HW236567   3.804   4.097   7.036 -0.6020  0.6794  0.5973
 8311SOL     OW36568   1.038   1.819  12.765 -0.0926 -0.1095  0.1812
 8311SOL    HW136569   0.963   1.764  12.791  0.5757 -0.6506  0.9636
 8311SOL    HW236570   1.013   1.852  12.679  0.6241 -0.0027  0.0167
 8312SOL     OW36571   0.678   3.423   4.257 -0.0818 -0.3908 -0.0977
 8312SOL    HW136572   0.704   3.513   4.277  2.2295 -0.9662 -0.5035
 8312SOL    HW236573   0.744   3.370   4.303 -1.3688  0.4992  2.7382
 8313SOL     OW36574   1.471   2.014  10.436 -0.0995  0.1715  0.4404
 8313SOL    HW136575   1.451   1.983  10.348 -1.8676 -1.0371  1.2652
 8313SOL    HW236576   1.534   2.078  10.404  0.2967 -0.6706 -0.4638
 8314SOL     OW36577   2.786   0.518   3.017 -0.1729  0.0500 -0.0383
 8314SOL    HW136578   2.703   0.473   3.037 -0.1766  0.3048  0.5293
 8314SOL    HW236579   2.820   0.448   2.961  1.0609  1.9472 -1.6888
 8315SOL     OW36580   4.660   2.276   2.934 -0.4822 -0.6862  0.3231
 8315SOL    HW136581   0.009   2.235   2.929 -0.3805 -0.0957 -3.0730
 8315SOL    HW236582   4.684   2.352   2.987 -2.1188 -0.4432  0.7112
 8316SOL     OW36583   2.465   3.980  11.713 -0.2406  0.1830  0.4992
 8316SOL    HW136584   2.451   3.885  11.708 -0.0968  0.2928 -2.4795
 8316SOL    HW236585   2.557   3.988  11.738  0.0538  0.7114 -0.7317
 8317SOL     OW36586   2.201   3.704   2.726  0.6389 -0.3010 -0.2948
 8317SOL    HW136587   2.147   3.670   2.797  1.3394  0.7981  0.7609
 8317SOL    HW236588   2.257   3.633   2.695 -0.3027 -0.5414 -1.4252
 8318SOL     OW36589   0.171   0.653  15.826  0.1939 -0.0294 -0.3673
 8318SOL    HW136590   0.117   0.605  15.888  1.0677  0.8728  1.0744
 8318SOL    HW236591   0.108   0.654  15.754  2.7942 -1.1322 -2.6968
 8319SOL     OW36592   4.211   0.081   5.431 -0.1852  0.0214 -0.0192
 8319SOL    HW136593   4.153   0.024   5.482  2.3376 -1.4950  1.1920
 8319SOL    HW236594   4.145   0.145   5.407  0.3168  1.0074  1.2437
 8320SOL     OW36595   0.573   3.416   1.618 -0.9005 -0.5142  0.1313
 8320SOL    HW136596   0.501   3.362   1.648 -1.1371  0.1917  0.8249
 8320SOL    HW236597   0.533   3.500   1.596  0.9754  0.9783  2.4920
 8321SOL     OW36598   0.761   0.032   5.815 -0.3961  0.1435 -0.2495
 8321SOL    HW136599   0.785   0.047   5.907 -0.3075  0.5290 -0.3345
 8321SOL    HW236600   0.795   4.685   5.784 -0.8547 -0.9107  2.0966
 8322SOL     OW36601   4.367   2.565   5.976 -0.1265  0.0242  0.2396
 8322SOL    HW136602   4.273   2.578   5.966  0.0609  1.2662  0.0521
 8322SOL    HW236603   4.370   2.484   6.026  1.7594 -1.0307 -1.5832
 8323SOL     OW36604   2.074   2.317   6.079 -0.6808 -0.0744  0.0189
 8323SOL    HW136605   2.038   2.384   6.138  1.1418  0.0028  1.0413
 8323SOL    HW236606   2.165   2.347   6.079 -0.3682 -1.0120  1.7997
 8324SOL     OW36607   3.528   1.887   1.674 -0.1711  0.2287  0.0632
 8324SOL    HW136608   3.437   1.914   1.660 -0.4950 -0.7087  0.3995
 8324SOL    HW236609   3.511   1.794   1.662 -0.5548  0.1938  0.9343
 8325SOL     OW36610   2.698   1.900  13.032  0.3194  0.1960  0.4941
 8325SOL    HW136611   2.616   1.905  13.080  0.2265  2.3279  0.1350
 8325SOL    HW236612   2.666   1.922  12.944  0.2230  0.5704  0.6214
 8326SOL     OW36613   3.346   0.762   2.706 -0.2635 -0.1767  0.0144
 8326SOL    HW136614   3.271   0.795   2.756  2.1801  0.7614  3.0424
 8326SOL    HW236615   3.310   0.759   2.617 -0.8666  1.5239  0.2100
 8327SOL     OW36616   4.477   3.649  14.256 -0.3431 -0.6606 -0.9933
 8327SOL    HW136617   4.419   3.708  14.303 -0.8011  0.2936 -2.7657
 8327SOL    HW236618   4.421   3.599  14.197 -4.2457  0.4062  1.8578
 8328SOL     OW36619   3.909   3.695  12.061  0.2549  0.3693 -0.5132
 8328SOL    HW136620   3.870   3.707  12.147 -0.3577 -0.0708 -0.7349
 8328SOL    HW236621   3.871   3.761  12.003 -1.0860  1.0570  1.1522
 8329SOL     OW36622   3.151   4.265   4.782  0.0193  0.0379 -0.2266
 8329SOL    HW136623   3.149   4.205   4.708 -1.0873  0.2996 -0.4205
 8329SOL    HW236624   3.114   4.345   4.745  0.3652 -1.0102 -2.8418
 8330SOL     OW36625   3.200   2.049   8.592  0.7103 -0.6600 -0.0620
 8330SOL    HW136626   3.226   1.968   8.548 -1.4881 -0.8198 -1.0787
 8330SOL    HW236627   3.220   2.109   8.520  0.5661  0.9287  1.2312
 8331SOL     OW36628   0.198   2.125   6.330 -0.2112  0.4431  0.4091
 8331SOL    HW136629   0.127   2.180   6.298 -1.2273 -1.0675  0.1021
 8331SOL    HW236630   0.213   2.068   6.254  0.2602  2.5228 -1.0506
 8332SOL     OW36631   4.238   0.134  10.885 -0.4359 -0.6283  0.0788
 8332SOL    HW136632   4.317   0.081  10.896  2.0805  3.3856  1.3764
 8332SOL    HW236633   4.216   0.143  10.978  0.5341  1.5888  0.0898
 8333SOL     OW36634   0.364   4.528  13.693 -0.5345 -0.6515 -0.0790
 8333SOL    HW136635   0.326   4.503  13.609  1.2638  0.1000 -1.1236
 8333SOL    HW236636   0.297   4.577  13.741  2.2692 -0.8883  4.0239
 8334SOL     OW36637   3.979   3.550   4.532 -0.5740 -0.1791  0.3546
 8334SOL    HW136638   3.941   3.635   4.510 -2.0161 -0.6111  1.1683
 8334SOL    HW236639   3.928   3.487   4.481  0.3497 -0.3277 -0.3702
 8335SOL     OW36640   2.616   4.551   1.334  0.1567  0.4171 -0.7678
 8335SOL    HW136641   2.685   4.495   1.369 -1.4675  0.1660  2.0665
 8335SOL    HW236642   2.644   4.566   1.244  1.4360 -2.6813 -0.8940
 8336SOL     OW36643   1.818   2.364   6.688  0.2259 -0.0611 -0.3250
 8336SOL    HW136644   1.909   2.394   6.693  1.0509 -1.9399 -3.6509
 8336SOL    HW236645   1.788   2.375   6.598 -0.3476  1.0664  0.0172
 8337SOL     OW36646   0.860   1.370   2.389 -0.3525  0.0244 -0.3906
 8337SOL    HW136647   0.821   1.455   2.366  0.6412  0.6399  0.1783
 8337SOL    HW236648   0.955   1.379   2.396 -0.2654 -0.2099 -1.1669
 8338SOL     OW36649   4.270   4.321   8.628 -0.0377 -0.3983  0.1296
 8338SOL    HW136650   4.300   4.400   8.673  0.2583 -0.2913 -0.2542
 8338SOL    HW236651   4.178   4.342   8.613 -0.1936 -1.1588 -0.0009
 8339SOL     OW36652   1.160   3.412  15.113  0.1012  0.6398  0.0874
 8339SOL    HW136653   1.129   3.322  15.103  1.1875  0.3898 -1.0054
 8339SOL    HW236654   1.230   3.417  15.048  0.7891  0.1506  0.7772
 8340SOL     OW36655   1.270   2.099  15.976  0.0988 -0.0101 -0.0666
 8340SOL    HW136656   1.299   2.153  15.901 -1.2742  1.0625  0.1748
 8340SOL    HW236657   1.181   2.131  15.994 -0.2705 -1.8037  1.2117
 8341SOL     OW36658   1.574   4.005   8.909 -0.3004  0.2720  0.0797
 8341SOL    HW136659   1.545   4.012   8.818  1.0067 -1.5614 -0.4783
 8341SOL    HW236660   1.635   4.078   8.903  0.9218 -0.8112 -0.5538
 8342SOL     OW36661   0.805   3.580  16.086  0.7634  0.4781 -0.0287
 8342SOL    HW136662   0.763   3.656  16.046  2.1498  1.9135  1.2265
 8342SOL    HW236663   0.797   3.608  16.177 -1.6664  0.7593 -0.3560
 8343SOL     OW36664   1.387   2.313   6.729 -0.3855 -0.4575 -0.1961
 8343SOL    HW136665   1.432   2.262   6.796  2.1472 -0.3436 -1.8175
 8343SOL    HW236666   1.361   2.243   6.670 -1.1920 -0.6013  0.3294
 8344SOL     OW36667   0.083   3.769   8.645  0.0105 -0.5492 -0.2656
 8344SOL    HW136668   0.088   3.733   8.733 -1.1000 -1.2667 -0.4886
 8344SOL    HW236669   0.151   3.725   8.595  0.2342  1.3968 -1.6718
 8345SOL     OW36670   2.112   4.331   6.536  0.5857 -0.2389  0.2544
 8345SOL    HW136671   2.076   4.244   6.549 -0.5673  0.1125 -0.6023
 8345SOL    HW236672   2.032   4.384   6.541  0.4682 -0.3107 -0.9569
 8346SOL     OW36673   2.426   3.009   5.321  0.2490  0.1591  0.2744
 8346SOL    HW136674   2.489   2.984   5.254 -0.0396  2.2109 -0.7833
 8346SOL    HW236675   2.390   2.924   5.345 -0.6616  0.4471 -0.0328
 8347SOL     OW36676   1.758   1.327  11.815 -0.3931  0.5261 -0.8505
 8347SOL    HW136677   1.818   1.384  11.767 -1.3553 -0.3975 -3.1471
 8347SOL    HW236678   1.816   1.305  11.888 -0.0746 -0.3017 -1.3595
 8348SOL     OW36679   0.377   1.375  16.261  0.1491 -0.5556  0.4518
 8348SOL    HW136680   0.371   1.353  16.354 -2.5802  1.7691  0.8497
 8348SOL    HW236681   0.330   1.307  16.213 -0.1201  0.6890 -1.0603
 8349SOL     OW36682   1.999   3.829   8.147 -0.1123  0.7135 -0.7270
 8349SOL    HW136683   1.992   3.916   8.186  0.3608  0.0546  0.8362
 8349SOL    HW236684   2.087   3.831   8.109  1.3683 -0.6851  2.5499
 8350SOL     OW36685   0.364   0.969  11.116 -0.4635 -0.5190  0.6027
 8350SOL    HW136686   0.365   1.057  11.079 -0.8824 -0.1663  1.4290
 8350SOL    HW236687   0.393   0.983  11.207  2.8068  3.5249 -1.0515
 8351SOL     OW36688   0.590   3.750   9.429  0.7353  0.1219 -0.0667
 8351SOL    HW136689   0.603   3.803   9.350  0.7031 -1.6787 -1.2731
 8351SOL    HW236690   0.625   3.666   9.398  1.1826  0.2099  0.2098
 8352SOL     OW36691   1.256   3.067   7.381  0.0978 -0.4001 -0.3354
 8352SOL    HW136692   1.178   3.040   7.429 -0.3953 -1.1151 -1.5117
 8352SOL    HW236693   1.286   3.137   7.439 -0.1972  2.9859 -4.2546
 8353SOL     OW36694   3.926   1.040   8.268  0.2766 -0.0132 -0.2039
 8353SOL    HW136695   3.944   1.127   8.233 -3.3455  0.5984 -0.5368
 8353SOL    HW236696   4.008   1.025   8.315  0.4151 -1.0106 -0.7565
 8354SOL     OW36697   1.531   4.263   1.941  0.4827 -0.4677 -0.2646
 8354SOL    HW136698   1.537   4.324   2.015  1.5183  0.4078 -1.0724
 8354SOL    HW236699   1.595   4.195   1.965  0.5027  0.4268  2.2480
 8355SOL     OW36700   4.219   1.064  10.535 -0.2846 -0.0461 -0.4393
 8355SOL    HW136701   4.123   1.054  10.534 -0.2268 -0.6263  0.0798
 8355SOL    HW236702   4.232   1.116  10.614 -1.2964 -0.0861 -0.2380
 8356SOL     OW36703   1.336   0.029   1.814  0.1954  0.7488  0.1524
 8356SOL    HW136704   1.348   0.077   1.732  0.3297  1.0926  0.3764
 8356SOL    HW236705   1.373   0.079   1.886  1.8478  0.8405 -0.7665
 8357SOL     OW36706   1.178   4.434  10.989 -0.6481  0.3932  0.2122
 8357SOL    HW136707   1.142   4.483  11.063 -2.1813  1.9949 -1.6279
 8357SOL    HW236708   1.251   4.382  11.023 -1.3047  0.2393  1.3876
 8358SOL     OW36709   3.442   0.437   5.837 -0.3913  0.0055 -0.0342
 8358SOL    HW136710   3.472   0.352   5.806 -0.1206  0.3854 -0.8282
 8358SOL    HW236711   3.347   0.429   5.828  0.0352 -2.7073 -1.9944
 8359SOL     OW36712   4.349   4.439  14.508  0.2703  0.4319 -0.0147
 8359SOL    HW136713   4.284   4.481  14.452 -2.3215 -1.3985  1.6360
 8359SOL    HW236714   4.374   4.361  14.458 -0.1217  0.6123 -0.4916
 8360SOL     OW36715   0.897   3.386   8.790 -0.0434  0.0033  0.2177
 8360SOL    HW136716   0.948   3.459   8.754 -1.7521  0.4156 -1.3438
 8360SOL    HW236717   0.806   3.415   8.782 -0.0026 -0.0444 -0.4374
 8361SOL     OW36718   0.698   1.891   2.453 -0.0885  0.2552  0.7855
 8361SOL    HW136719   0.672   1.816   2.399  0.8886  0.9231 -0.6217
 8361SOL    HW236720   0.772   1.865   2.508  0.2413  1.7693  1.0572
 8362SOL     OW36721   4.043   0.867   2.682 -0.2329  0.2792  0.9301
 8362SOL    HW136722   3.989   0.789   2.672  1.0106 -0.5703  0.8700
 8362SOL    HW236723   4.024   0.912   2.600  0.9241  1.2705  1.2048
 8363SOL     OW36724   2.850   1.384   0.036  0.3253 -0.0331 -0.3475
 8363SOL    HW136725   2.844   1.471   0.075  0.4817  0.0860 -0.5914
 8363SOL    HW236726   2.787   1.392  17.711 -0.8485 -0.5097  0.6404
 8364SOL     OW36727   1.170   3.057   4.784 -0.7713  0.4918  0.9731
 8364SOL    HW136728   1.198   2.967   4.768 -0.1156  0.9863 -0.6572
 8364SOL    HW236729   1.086   3.062   4.739 -0.2549 -3.5607 -0.3788
 8365SOL     OW36730   3.427   1.234   5.084 -0.3702 -0.3940 -0.3683
 8365SOL    HW136731   3.419   1.329   5.080 -1.8468 -0.4922  0.1962
 8365SOL    HW236732   3.397   1.217   5.173  0.0320  3.1529  0.4114
 8366SOL     OW36733   3.848   2.102   2.930  0.0419 -0.4969  0.2383
 8366SOL    HW136734   3.797   2.078   3.007 -0.4166  0.6546  0.2981
 8366SOL    HW236735   3.839   2.196   2.948 -0.0960 -0.4567 -0.0400
 8367SOL     OW36736   3.441   2.060   6.776  0.1803 -0.5078  0.1389
 8367SOL    HW136737   3.531   2.075   6.805  0.4247 -2.1507  0.2753
 8367SOL    HW236738   3.395   2.140   6.801 -3.6263 -1.6858 -3.0562
 8368SOL     OW36739   0.468   1.335   7.407  0.2918 -0.4222  0.3318
 8368SOL    HW136740   0.411   1.261   7.385 -0.4340 -0.3589  1.9859
 8368SOL    HW236741   0.435   1.348   7.496 -2.6817  1.2596 -0.9997
 8369SOL     OW36742   2.276   3.627   3.525  0.1665  0.0205 -0.1422
 8369SOL    HW136743   2.353   3.569   3.525  2.4366  2.9968 -3.4984
 8369SOL    HW236744   2.331   3.701   3.550 -2.4517  1.7987  0.2993
 8370SOL     OW36745   2.205   0.288   7.958  0.2101 -0.6764 -0.3014
 8370SOL    HW136746   2.264   0.358   7.930  0.2169 -1.3411 -1.9133
 8370SOL    HW236747   2.244   0.267   8.043  0.3531  2.2817  0.3831
 8371SOL     OW36748   3.469   3.656   8.271 -0.2511  0.3349  0.7048
 8371SOL    HW136749   3.415   3.593   8.317  0.1252  1.6380  2.9400
 8371SOL    HW236750   3.457   3.726   8.335 -0.9055 -0.4785  1.4676
 8372SOL     OW36751   2.469   4.211  10.785  0.0852  0.0166  0.2242
 8372SOL    HW136752   2.449   4.230  10.877  4.2106  1.3026  0.8745
 8372SOL    HW236753   2.465   4.303  10.758 -1.1079  0.1290  0.7725
 8373SOL     OW36754   2.656   0.172  14.605 -0.2841  0.2904 -0.1581
 8373SOL    HW136755   2.678   0.213  14.522  3.3875 -0.9360  0.2328
 8373SOL    HW236756   2.738   0.130  14.630 -1.2690  0.2535  3.0326
 8374SOL     OW36757   3.206   1.299   5.985  0.1273 -0.3479 -0.1880
 8374SOL    HW136758   3.153   1.219   5.985  0.3544 -0.5109 -3.0917
 8374SOL    HW236759   3.292   1.260   6.002  0.1625 -0.0216  0.3461
 8375SOL     OW36760   2.546   1.888   0.454 -0.1190  0.0638 -0.3444
 8375SOL    HW136761   2.458   1.920   0.437  0.5944  1.6158 -1.0274
 8375SOL    HW236762   2.600   1.963   0.478  0.8483 -0.4555 -0.8830
 8376SOL     OW36763   4.437   0.244   9.626 -0.3983 -0.1112  0.2441
 8376SOL    HW136764   4.423   0.301   9.701  0.2909  0.5504 -0.1374
 8376SOL    HW236765   4.471   0.170   9.676 -0.1605 -0.8141 -0.9483
 8377SOL     OW36766   0.231   1.035   0.935 -0.0302  0.2811  0.4698
 8377SOL    HW136767   0.223   1.037   1.030 -0.6666  0.8496  0.4063
 8377SOL    HW236768   0.195   0.949   0.912 -0.5714  1.2962 -2.5331
 8378SOL     OW36769   4.325   1.683   1.001  0.0980  0.2438 -0.4846
 8378SOL    HW136770   4.357   1.709   0.915  1.3268 -1.6387 -0.5764
 8378SOL    HW236771   4.384   1.608   1.011 -0.7974 -0.2960  0.7280
 8379SOL     OW36772   3.242   1.053  12.415  0.2244  0.3414 -0.0823
 8379SOL    HW136773   3.240   1.146  12.435 -1.7706  0.1609  0.5579
 8379SOL    HW236774   3.331   1.037  12.385  0.5619  0.6929  0.7192
 8380SOL     OW36775   3.711   3.789   8.702  0.1341 -1.1175 -0.4726
 8380SOL    HW136776   3.711   3.724   8.632 -0.6014 -1.1821 -0.4138
 8380SOL    HW236777   3.619   3.812   8.710  0.5702  0.0535  1.1118
 8381SOL     OW36778   0.743   4.728   6.683 -0.1707 -0.4207  0.6266
 8381SOL    HW136779   0.655   0.028   6.681 -0.1260 -0.3198  0.5522
 8381SOL    HW236780   0.730   4.647   6.733 -1.1956  0.6767  2.1385
 8382SOL     OW36781   1.888   1.191   5.907 -0.7850 -0.3488 -0.8009
 8382SOL    HW136782   1.805   1.232   5.880 -0.7700 -0.3461 -0.8439
 8382SOL    HW236783   1.871   1.107   5.863 -0.7736  0.3201 -2.0987
 8383SOL     OW36784   4.614   1.063   3.441  0.4888 -0.0191  0.1991
 8383SOL    HW136785   4.561   1.127   3.488  1.8889  0.7716  0.7254
 8383SOL    HW236786   4.704   1.093   3.455  1.0395 -0.0161 -3.1780
 8384SOL     OW36787   1.730   4.171  12.222  0.0252  0.7467  0.3347
 8384SOL    HW136788   1.790   4.099  12.204 -0.5896  0.1847  0.5444
 8384SOL    HW236789   1.719   4.202  12.132  3.5915  4.2132  1.1217
 8385SOL     OW36790   4.705   2.449   7.655  0.7843  0.0567  0.2372
 8385SOL    HW136791   4.721   2.418   7.744 -0.9902 -1.8163 -0.0784
 8385SOL    HW236792   0.030   2.521   7.663  0.0615  0.8921 -1.6783
 8386SOL     OW36793   1.333   2.808   0.710 -0.1063 -0.3788 -0.2236
 8386SOL    HW136794   1.285   2.884   0.743  0.7351 -0.4095  1.0687
 8386SOL    HW236795   1.296   2.739   0.765  1.5306  0.8643  2.3945
 8387SOL     OW36796   2.950   0.938  16.394 -0.5762 -0.1550  0.2549
 8387SOL    HW136797   2.859   0.965  16.402 -0.6597 -0.0579 -1.1078
 8387SOL    HW236798   2.981   1.006  16.334 -1.2266  0.2330  0.3584
 8388SOL     OW36799   3.644   0.911  13.237 -0.0838 -0.0669 -0.3224
 8388SOL    HW136800   3.622   1.003  13.220  1.5583  0.4367  0.3262
 8388SOL    HW236801   3.715   0.904  13.173 -0.5260  1.0832 -0.9335
 8389SOL     OW36802   4.457   4.574   3.254  0.0038 -0.0430 -0.1974
 8389SOL    HW136803   4.425   4.660   3.282  1.0195  0.3327 -0.2030
 8389SOL    HW236804   4.380   4.521   3.273  0.8102 -0.0350  3.1891
 8390SOL     OW36805   1.185   2.284   2.822 -0.2966 -0.4590  0.1513
 8390SOL    HW136806   1.168   2.191   2.805  0.0972 -0.5190  0.0872
 8390SOL    HW236807   1.130   2.301   2.899 -0.3004 -0.8981  0.2482
 8391SOL     OW36808   2.125   0.240   4.192 -0.8956 -0.1803 -0.0041
 8391SOL    HW136809   2.175   0.300   4.248 -1.7698 -0.0757  0.6649
 8391SOL    HW236810   2.161   0.260   4.106 -0.6590 -0.5374  0.0103
 8392SOL     OW36811   3.683   3.331   7.989  0.0650  0.3819 -0.1694
 8392SOL    HW136812   3.595   3.357   7.962  0.1339 -0.5901 -1.3093
 8392SOL    HW236813   3.666   3.275   8.064 -0.6134 -0.3961 -0.8981
 8393SOL     OW36814   2.227   1.913   5.690  0.5292 -0.4349  0.3492
 8393SOL    HW136815   2.309   1.922   5.642  0.0874 -1.0039 -0.5110
 8393SOL    HW236816   2.195   1.825   5.671 -0.8696  0.3424 -0.9687
 8394SOL     OW36817   3.053   2.548   6.626 -0.2787  0.0750 -0.3240
 8394SOL    HW136818   3.148   2.534   6.618 -0.3769 -1.9917  1.9563
 8394SOL    HW236819   3.039   2.536   6.532 -1.2464  0.8695 -0.2719
 8395SOL     OW36820   2.024   4.499   0.964  0.2672 -0.6933 -0.2154
 8395SOL    HW136821   1.979   4.477   0.883 -0.8529 -0.2853  0.2914
 8395SOL    HW236822   1.956   4.538   1.019  0.4692 -1.2785  0.4527
 8396SOL     OW36823   1.266   0.657   4.851  0.2022  0.3925  0.0440
 8396SOL    HW136824   1.291   0.684   4.939 -0.2159 -0.3172  0.3769
 8396SOL    HW236825   1.258   0.562   4.861  0.6274  0.3782  0.2437
 8397SOL     OW36826   1.427   3.945   0.613 -0.0687 -0.3516 -0.1807
 8397SOL    HW136827   1.481   4.001   0.557 -1.2159 -2.3861 -3.3474
 8397SOL    HW236828   1.469   3.959   0.697 -0.3251  0.3365 -0.1670
 8398SOL     OW36829   0.846   2.389   1.707 -0.3968  0.1516 -0.0965
 8398SOL    HW136830   0.929   2.420   1.672  0.2434 -1.6865 -0.2138
 8398SOL    HW236831   0.875   2.356   1.792 -0.7962  0.9380  0.3475
 8399SOL     OW36832   1.300   3.563   8.063  0.0662  0.0318 -0.1015
 8399SOL    HW136833   1.237   3.520   8.120  0.6214 -0.4178  0.1810
 8399SOL    HW236834   1.300   3.494   7.997  2.7940 -0.1291  0.0309
 8400SOL     OW36835   1.034   1.289   5.507 -0.6532  0.6527  0.0145
 8400SOL    HW136836   1.018   1.263   5.416  2.0824  0.3823 -0.4172
 8400SOL    HW236837   0.976   1.225   5.547 -0.5550 -0.5293 -1.7259
 8401SOL     OW36838   1.677   1.459   6.264 -0.0230 -0.0347  0.5589
 8401SOL    HW136839   1.768   1.489   6.266 -0.0508  0.0604  0.3189
 8401SOL    HW236840   1.638   1.494   6.184 -2.2726  0.2051  1.7624
 8402SOL     OW36841   0.580   2.214   9.284 -0.0536 -0.0844 -0.0467
 8402SOL    HW136842   0.561   2.123   9.264 -0.5770  0.0984 -0.3754
 8402SOL    HW236843   0.547   2.218   9.374 -0.1845 -1.5551 -0.0303
 8403SOL     OW36844   1.476   0.641   0.266  0.6625  0.3836  0.0525
 8403SOL    HW136845   1.510   0.666   0.180 -0.8169 -0.0588 -0.6660
 8403SOL    HW236846   1.559   0.616   0.306 -0.0444  0.2566  1.4324
 8404SOL     OW36847   3.162   1.902  15.181  0.6564 -0.2548  0.1329
 8404SOL    HW136848   3.129   1.897  15.091  0.5923 -0.2621  0.1567
 8404SOL    HW236849   3.177   1.810  15.205  0.4243 -0.5782 -0.9645
 8405SOL     OW36850   0.984   3.285   9.055  0.1663  0.5435 -0.3517
 8405SOL    HW136851   0.907   3.288   9.113  1.8332  0.7042  1.8744
 8405SOL    HW236852   0.951   3.309   8.969  1.3727  1.2055 -0.6319
 8406SOL     OW36853   4.043   3.841   3.681  0.4252 -0.4543 -0.4305
 8406SOL    HW136854   4.062   3.759   3.726 -1.5961  0.3242  1.8657
 8406SOL    HW236855   4.043   3.813   3.590  4.3707  0.0330 -0.5528
 8407SOL     OW36856   4.187   1.732  10.169 -0.4142 -0.6771 -0.5305
 8407SOL    HW136857   4.112   1.754  10.115 -0.5164 -0.8342 -0.4531
 8407SOL    HW236858   4.232   1.680  10.102  1.5301  0.9847 -0.5455
 8408SOL     OW36859   3.251   4.323  16.916  0.7688 -0.3300  0.4383
 8408SOL    HW136860   3.235   4.333  16.822  2.8365  1.3513  0.2531
 8408SOL    HW236861   3.311   4.392  16.943 -0.8674  1.7618 -1.2436
 8409SOL     OW36862   1.849   0.404   0.558 -0.0950  0.1792  0.4774
 8409SOL    HW136863   1.863   0.318   0.597 -0.4037  0.5094  1.3043
 8409SOL    HW236864   1.810   0.450   0.632  2.3680 -0.7584  2.3216
 8410SOL     OW36865   1.334   2.695  14.227 -0.3999  0.3134 -0.5615
 8410SOL    HW136866   1.308   2.617  14.178  2.8538 -1.3424  0.3724
 8410SOL    HW236867   1.382   2.739  14.157 -0.1013 -0.3165 -0.7481
 8411SOL     OW36868   3.257   2.500   2.966  0.1600 -0.3043  0.2933
 8411SOL    HW136869   3.215   2.440   2.905 -0.3274 -1.1769  1.5001
 8411SOL    HW236870   3.188   2.504   3.032 -1.3462 -1.5500 -1.2226
 8412SOL     OW36871   3.783   2.993   2.989  0.2559 -0.2651 -0.2047
 8412SOL    HW136872   3.772   2.917   2.933 -0.6505  0.5536 -1.1427
 8412SOL    HW236873   3.827   3.043   2.920 -1.4249 -0.4921 -1.4322
 8413SOL     OW36874   4.530   2.123  17.284  0.3912  0.0413 -0.1844
 8413SOL    HW136875   4.619   2.098  17.260  1.8959  2.2475  3.0821
 8413SOL    HW236876   4.516   2.067  17.360  2.4613 -0.4791 -0.1841
 8414SOL     OW36877   2.655   2.371   8.422  0.0762 -0.6361  0.1660
 8414SOL    HW136878   2.629   2.340   8.509  0.0676 -1.4452 -0.1252
 8414SOL    HW236879   2.574   2.407   8.387  0.2161  0.9963  1.4940
 8415SOL     OW36880   2.867   1.263   4.569 -0.1069 -0.1396 -0.2213
 8415SOL    HW136881   2.907   1.265   4.655  0.6353 -1.0888 -0.5414
 8415SOL    HW236882   2.773   1.269   4.590 -0.3840 -1.7500 -0.9585
 8416SOL     OW36883   2.677   2.464  17.456 -0.1251  0.4653  0.0482
 8416SOL    HW136884   2.718   2.549  17.470 -1.9982  1.5193 -0.9815
 8416SOL    HW236885   2.642   2.472  17.368  1.6059  1.6251 -0.5494
 8417SOL     OW36886   0.565   4.286   6.437  0.2421  0.0782  0.2781
 8417SOL    HW136887   0.650   4.246   6.456 -1.1715 -2.6167  0.9874
 8417SOL    HW236888   0.592   4.375   6.418 -2.3719  0.6824 -0.6402
 8418SOL     OW36889   1.543   1.633  10.574  0.2941  0.1885  0.0171
 8418SOL    HW136890   1.562   1.681  10.655  1.1953 -1.3096  0.6773
 8418SOL    HW236891   1.447   1.635  10.569  0.3246  2.3493  0.3373
 8419SOL     OW36892   1.057   2.650   8.191 -0.6348 -0.2593  0.2039
 8419SOL    HW136893   1.075   2.652   8.097  0.7877  0.5310  0.4908
 8419SOL    HW236894   0.961   2.650   8.187 -0.7067 -0.5985  2.0094
 8420SOL     OW36895   0.807   2.677   7.012  0.4323 -0.0503  0.4406
 8420SOL    HW136896   0.873   2.740   6.982  1.7059 -2.1285 -1.0988
 8420SOL    HW236897   0.755   2.650   6.935  0.7146 -0.1178  0.2750
 8421SOL     OW36898   1.291   1.653  10.895  0.1531 -0.7349  0.3878
 8421SOL    HW136899   1.286   1.625  10.803  2.9530 -0.6331  0.2059
 8421SOL    HW236900   1.305   1.747  10.893 -0.7583 -0.6042 -0.0439
 8422SOL     OW36901   4.213   3.990   7.014 -0.4456 -0.2520 -0.0909
 8422SOL    HW136902   4.277   4.062   7.019  0.6692 -1.0749 -2.6488
 8422SOL    HW236903   4.204   3.978   7.109  1.1894  0.6528  0.1922
 8423SOL     OW36904   3.086   1.801   7.389  0.1618  0.5984  0.5169
 8423SOL    HW136905   3.146   1.856   7.338  1.0135 -1.1538 -0.3630
 8423SOL    HW236906   3.035   1.760   7.320 -1.4909  2.1566  0.8120
 8424SOL     OW36907   4.512   2.502   6.562  0.1018 -0.5103  0.2261
 8424SOL    HW136908   4.571   2.569   6.527  1.3764 -0.7846  1.8238
 8424SOL    HW236909   4.560   2.481   6.642  0.7058  0.0578  0.0214
 8425SOL     OW36910   3.720   0.760   6.796  0.1434 -0.8759 -0.1480
 8425SOL    HW136911   3.741   0.725   6.883  0.3846 -0.7937 -0.1728
 8425SOL    HW236912   3.717   0.855   6.801  0.2992 -0.8901  0.2469
 8426SOL     OW36913   2.071   3.947  15.761 -0.0151 -0.2160  0.1818
 8426SOL    HW136914   2.065   4.042  15.755 -0.5286 -0.2297  0.4594
 8426SOL    HW236915   2.062   3.921  15.669  1.2298  0.0450 -0.0171
 8427SOL     OW36916   3.219   0.597  17.099  0.0916  0.2410 -0.0848
 8427SOL    HW136917   3.209   0.551  17.016 -0.0194  2.3491 -1.2361
 8427SOL    HW236918   3.232   0.530  17.166  0.6316 -0.1610 -0.5879
 8428SOL     OW36919   4.569   3.499   2.186  0.1967  0.0470 -0.0102
 8428SOL    HW136920   4.540   3.590   2.201  2.5052  0.8049 -0.1138
 8428SOL    HW236921   4.662   3.494   2.211  0.3576  0.8758 -0.4213
 8429SOL     OW36922   3.397   2.397  17.061 -0.4453  0.4511  0.0948
 8429SOL    HW136923   3.437   2.484  17.066 -0.0775  0.2086  1.3414
 8429SOL    HW236924   3.426   2.352  16.982 -2.4398 -2.7384  1.1511
 8430SOL     OW36925   3.412   2.687  12.592  0.0779  0.0261  0.1183
 8430SOL    HW136926   3.453   2.661  12.675  0.9246  1.7235  0.2387
 8430SOL    HW236927   3.485   2.729  12.547  0.9445 -0.0241  1.4741
 8431SOL     OW36928   0.944   2.799  15.627 -0.6251 -0.0918 -0.4433
 8431SOL    HW136929   0.990   2.828  15.549 -0.0251  0.0325 -0.0448
 8431SOL    HW236930   1.020   2.792  15.685 -1.0258 -0.2644  0.0702
 8432SOL     OW36931   1.203   0.003   6.499 -0.2302 -0.7727 -0.3392
 8432SOL    HW136932   1.227   4.715   6.410 -3.0925  0.5076 -1.4838
 8432SOL    HW236933   1.280   0.054   6.524 -0.7156 -1.6227  2.8891
 8433SOL     OW36934   4.040   3.648   5.018  0.5397  0.3252 -0.2325
 8433SOL    HW136935   3.944   3.642   5.027  0.5385 -0.0308 -0.4678
 8433SOL    HW236936   4.059   3.739   5.041  0.1458 -0.0080  1.4193
 8434SOL     OW36937   2.006   2.690   4.664  0.0438  0.0272  0.1746
 8434SOL    HW136938   2.053   2.653   4.589  1.3014 -0.6310  1.2777
 8434SOL    HW236939   1.931   2.720   4.613  0.1879  0.9730  0.5180
 8435SOL     OW36940   3.008   4.297   7.276 -0.2584 -0.5357 -0.0272
 8435SOL    HW136941   2.996   4.273   7.184  2.1282  0.8932 -0.6965
 8435SOL    HW236942   2.980   4.388   7.268  2.2431  0.2254 -0.0442
 8436SOL     OW36943   0.885   2.416   2.132  0.2439 -0.3853 -0.4354
 8436SOL    HW136944   0.794   2.390   2.148  0.9297 -1.1197  2.2965
 8436SOL    HW236945   0.914   2.341   2.080  0.5616  0.1954 -1.0924
 8437SOL     OW36946   3.822   2.709   4.344  0.1569  0.3430  0.4642
 8437SOL    HW136947   3.836   2.618   4.319  0.5906  0.2286  1.1338
 8437SOL    HW236948   3.811   2.700   4.439  0.7141 -2.9247  0.2149
 8438SOL     OW36949   4.381   0.079   4.109  0.4447  0.5641 -0.3924
 8438SOL    HW136950   4.354   0.024   4.036  1.3675  0.3823 -0.5992
 8438SOL    HW236951   4.471   0.083   4.077 -0.0640  0.9165 -1.7622
 8439SOL     OW36952   0.075   4.613   2.281 -0.0956  0.4710  0.3140
 8439SOL    HW136953   0.004   4.655   2.233  2.4283  0.8372 -3.0669
 8439SOL    HW236954   0.058   4.640   2.371  0.1175  2.6914 -0.3221
 8440SOL     OW36955   0.146   3.828   1.162 -0.1458  0.0852  0.3295
 8440SOL    HW136956   0.153   3.802   1.253  0.3446  1.4763  0.6851
 8440SOL    HW236957   0.171   3.919   1.174  1.5439 -0.2044 -0.9376
 8441SOL     OW36958   3.312   0.658   7.395  0.1293  0.3831  0.0476
 8441SOL    HW136959   3.394   0.612   7.410 -0.8600 -1.2574  0.4980
 8441SOL    HW236960   3.251   0.586   7.413 -0.2798  0.8601  0.5800
 8442SOL     OW36961   2.972   2.037   5.887  0.1914  0.2127  0.6787
 8442SOL    HW136962   3.005   1.949   5.903 -2.4765 -0.7539  0.9053
 8442SOL    HW236963   3.051   2.088   5.871  0.9598 -1.1416  0.1864
 8443SOL     OW36964   3.533   3.803   3.415 -1.2574 -0.8412  0.5262
 8443SOL    HW136965   3.608   3.767   3.368 -2.2172 -0.4272 -1.3311
 8443SOL    HW236966   3.557   3.790   3.507  0.0666  0.9198  0.4325
 8444SOL     OW36967   0.127   0.592   3.637 -0.0096 -0.1455  0.6329
 8444SOL    HW136968   0.193   0.662   3.640 -2.0685  1.7840  0.3446
 8444SOL    HW236969   0.182   0.516   3.654  0.3343  0.7043  3.3456
 8445SOL     OW36970   0.796   4.218   8.732 -0.2547  0.5010 -0.2562
 8445SOL    HW136971   0.734   4.284   8.762  0.1274  0.2635  1.0620
 8445SOL    HW236972   0.753   4.182   8.654 -2.0294  1.4836  0.2547
 8446SOL     OW36973   1.358   1.819   3.591 -0.7273  0.2446 -0.1410
 8446SOL    HW136974   1.381   1.745   3.535  0.6870 -1.3472  2.5088
 8446SOL    HW236975   1.353   1.892   3.530 -0.8517 -0.2226 -0.6870
 8447SOL     OW36976   1.152   1.983   3.888 -0.0623 -0.5858 -0.3555
 8447SOL    HW136977   1.160   2.078   3.896  2.3485 -0.7947 -0.3117
 8447SOL    HW236978   1.119   1.964   3.976  0.4013  1.6196  0.3133
 8448SOL     OW36979   3.060   2.539   1.873 -0.2776 -0.1347  0.0110
 8448SOL    HW136980   3.101   2.615   1.832 -1.8232  0.5657 -0.2539
 8448SOL    HW236981   3.052   2.564   1.966  0.1835 -1.7231  0.4660
 8449SOL     OW36982   0.742   4.347  14.227 -0.1061  0.5908  0.1535
 8449SOL    HW136983   0.795   4.371  14.151 -0.1880 -0.4689 -0.2377
 8449SOL    HW236984   0.699   4.432  14.234 -0.6808  0.4334 -1.4032
 8450SOL     OW36985   1.907   4.515  15.285  0.1113 -0.5112 -0.2028
 8450SOL    HW136986   1.934   4.536  15.374  1.0781 -3.5872  0.2251
 8450SOL    HW236987   1.812   4.517  15.283  0.1012 -0.4537  0.5919
 8451SOL     OW36988   0.772   0.173  16.955  0.3138  0.2180 -0.0833
 8451SOL    HW136989   0.865   0.154  16.939  0.5857  0.7484  0.8411
 8451SOL    HW236990   0.750   0.239  16.889  0.2820 -1.4678 -1.7421
 8452SOL     OW36991   4.266   1.392   7.185 -0.0814 -0.1523  0.3916
 8452SOL    HW136992   4.194   1.440   7.227 -0.8669  0.4065 -1.6062
 8452SOL    HW236993   4.239   1.376   7.094 -0.4265 -1.3500  0.6986
 8453SOL     OW36994   0.432   3.383   8.552  0.3694 -0.0155  0.1012
 8453SOL    HW136995   0.391   3.448   8.495 -1.2147 -0.3396  0.8644
 8453SOL    HW236996   0.360   3.342   8.599  0.0861 -1.1848 -1.3710
 8454SOL     OW36997   1.611   0.770   2.265  0.5318 -0.2490 -0.1640
 8454SOL    HW136998   1.693   0.818   2.276  0.7781 -0.6791 -0.1023
 8454SOL    HW236999   1.554   0.826   2.317 -0.7439 -0.8153 -0.9644
 8455SOL     OW37000   4.517   0.630   7.569 -0.2318  0.1303 -0.3437
 8455SOL    HW137001   4.564   0.551   7.544 -1.3447  0.0913 -2.2645
 8455SOL    HW237002   4.430   0.609   7.537 -1.1007  0.5301  1.7110
 8456SOL     OW37003   0.512   3.977   6.962  0.5799  0.0733  0.1166
 8456SOL    HW137004   0.575   3.956   7.031 -0.1800 -0.1543  0.7443
 8456SOL    HW237005   0.551   3.932   6.887 -0.3264  0.1529 -0.3992
 8457SOL     OW37006   3.172   2.424   5.312 -0.0311 -0.2032  0.0265
 8457SOL    HW137007   3.196   2.419   5.220  1.0844 -0.4090  0.3205
 8457SOL    HW237008   3.249   2.388   5.356  0.8032  1.2344 -0.2413
 8458SOL     OW37009   3.054   0.049  13.474  0.2057 -0.7091  0.5469
 8458SOL    HW137010   3.101   4.704  13.491  0.3797 -1.0778 -1.7144
 8458SOL    HW237011   2.998   0.023  13.401 -2.2842 -1.2805  2.6209
 8459SOL     OW37012   3.914   3.982   2.143  0.1487  0.2465 -0.4096
 8459SOL    HW137013   4.003   4.013   2.161  0.3486 -0.1777 -0.6607
 8459SOL    HW237014   3.927   3.901   2.094  1.6751  0.6723 -0.7074
 8460SOL     OW37015   1.320   3.910   7.396  0.0403  0.2671  0.5916
 8460SOL    HW137016   1.254   3.870   7.339  1.7147  1.1724 -1.9850
 8460SOL    HW237017   1.285   3.913   7.485  0.3733 -0.3690  0.7447
 8461SOL     OW37018   2.616   0.611   5.140  0.0555 -0.1748 -0.5020
 8461SOL    HW137019   2.527   0.597   5.171  1.0488 -3.0112  1.0611
 8461SOL    HW237020   2.636   0.530   5.094 -2.0352 -1.2812  0.5548
 8462SOL     OW37021   3.769   1.848   3.418 -0.5372 -0.2186  0.3843
 8462SOL    HW137022   3.805   1.924   3.463 -0.2510 -0.6743  0.9354
 8462SOL    HW237023   3.746   1.796   3.495 -2.3160  0.6040  0.3900
 8463SOL     OW37024   1.429   2.891   7.618 -0.3068  0.2317 -0.3987
 8463SOL    HW137025   1.439   2.966   7.677 -0.6669  0.6305 -0.8364
 8463SOL    HW237026   1.519   2.877   7.589  0.4238 -1.3597  2.6564
 8464SOL     OW37027   1.377   1.415  16.365 -0.5633 -0.1768  0.1861
 8464SOL    HW137028   1.445   1.482  16.366  2.6523 -3.4520  0.2813
 8464SOL    HW237029   1.359   1.404  16.271  3.1806 -0.7535 -0.4404
 8465SOL     OW37030   0.615   0.489   7.505  0.5924 -0.1702  0.3701
 8465SOL    HW137031   0.534   0.521   7.466 -0.1254  1.8352  3.4726
 8465SOL    HW237032   0.573   0.433   7.570 -1.4921  0.4865 -0.4242
 8466SOL     OW37033   2.732   2.859   6.092  0.2838  0.4127  0.4156
 8466SOL    HW137034   2.750   2.872   6.185  2.3772  0.0683  0.0697
 8466SOL    HW237035   2.803   2.914   6.058  1.0538 -0.3478  0.8238
 8467SOL     OW37036   0.647   3.791   6.535 -0.1792  0.8877  0.2878
 8467SOL    HW137037   0.646   3.838   6.451  1.8388  1.2389  0.4510
 8467SOL    HW237038   0.727   3.740   6.520 -1.3535 -1.2648  1.2737
 8468SOL     OW37039   0.183   4.226  12.377  0.6589 -0.2273 -0.2820
 8468SOL    HW137040   0.167   4.315  12.408  1.6126 -0.1321 -0.0798
 8468SOL    HW237041   0.171   4.182  12.461 -0.3924  1.8281  0.6540
 8469SOL     OW37042   2.343   3.258  15.083 -0.5992  0.4139  0.0627
 8469SOL    HW137043   2.301   3.271  14.998 -1.0624 -0.3022  0.1729
 8469SOL    HW237044   2.316   3.166  15.095  0.7885  0.1611  1.1868
 8470SOL     OW37045   3.800   3.164  15.227  0.3988 -0.4119 -0.7841
 8470SOL    HW137046   3.820   3.140  15.318 -2.6072 -2.2203 -0.6248
 8470SOL    HW237047   3.891   3.172  15.197  0.2688  0.1879 -1.0098
 8471SOL     OW37048   1.698   0.581   6.426 -0.0547  0.0303 -0.0641
 8471SOL    HW137049   1.646   0.519   6.375 -0.3223 -0.3863  0.7143
 8471SOL    HW237050   1.627   0.614   6.481  1.0180  0.9161  0.7781
 8472SOL     OW37051   3.652   4.075   2.045 -0.5703  0.4239  0.4461
 8472SOL    HW137052   3.746   4.058   2.047 -0.5630  0.1525 -2.7210
 8472SOL    HW237053   3.645   4.154   1.992 -0.5715  0.3343  0.3135
 8473SOL     OW37054   0.249   1.379   8.197  0.0618  0.0822  0.5263
 8473SOL    HW137055   0.333   1.424   8.197  0.2879 -0.3447 -2.3954
 8473SOL    HW237056   0.267   1.294   8.157 -0.1568  0.3619 -0.1697
 8474SOL     OW37057   4.092   2.823  16.739 -0.2765 -0.3456 -0.4493
 8474SOL    HW137058   4.035   2.760  16.695 -0.3401 -0.5931 -0.0084
 8474SOL    HW237059   4.030   2.890  16.769  0.0569  0.7262 -2.1460
 8475SOL     OW37060   4.454   4.341   2.248  0.3171  0.2415  1.0846
 8475SOL    HW137061   4.428   4.305   2.164  0.1990 -0.7589  1.5541
 8475SOL    HW237062   4.540   4.375   2.224  0.4540 -2.0980 -1.6735
 8476SOL     OW37063   3.884   2.002  10.104 -0.0321  0.1489 -0.1731
 8476SOL    HW137064   3.792   2.004  10.133 -0.2505 -0.4977 -0.7978
 8476SOL    HW237065   3.906   2.095  10.101  0.8149 -0.0788 -0.8284
 8477SOL     OW37066   0.434   1.636   4.040  0.2396  0.0043 -0.0022
 8477SOL    HW137067   0.387   1.711   4.076 -1.1352 -1.4475  1.2324
 8477SOL    HW237068   0.361   1.575   4.029  2.2914 -2.0120 -2.6322
 8478SOL     OW37069   4.330   4.608   7.981  0.2126  0.1908 -0.3263
 8478SOL    HW137070   4.338   4.569   7.894 -0.5147  3.1681 -1.7149
 8478SOL    HW237071   4.240   4.639   7.973 -0.2065 -1.5808 -2.5700
 8479SOL     OW37072   3.438   3.403   0.840  0.0489 -0.4303 -0.3494
 8479SOL    HW137073   3.357   3.365   0.873  0.9155  0.0901  2.3924
 8479SOL    HW237074   3.463   3.446   0.921  0.7778 -1.5025  0.0007
 8480SOL     OW37075   0.979   0.145   4.844  0.2167 -0.2552  0.2303
 8480SOL    HW137076   0.896   0.113   4.878  0.3328  1.4847  2.1656
 8480SOL    HW237077   1.007   0.064   4.803  1.1071 -0.0573  0.4407
 8481SOL     OW37078   0.614   4.405   8.832 -0.1069  0.2301 -0.1392
 8481SOL    HW137079   0.579   4.444   8.912 -0.2705 -0.9316  0.3597
 8481SOL    HW237080   0.545   4.414   8.767 -2.1075 -0.3040  1.9086
 8482SOL     OW37081   0.484   4.493  11.123 -0.1847 -0.1924 -0.1057
 8482SOL    HW137082   0.545   4.566  11.109  0.4389 -0.2158  2.3701
 8482SOL    HW237083   0.524   4.415  11.086  1.5466  0.1536  1.0458
 8483SOL     OW37084   2.242   1.335  11.504 -0.4228 -0.3424 -0.0373
 8483SOL    HW137085   2.271   1.259  11.453  0.4520  0.4026 -0.6490
 8483SOL    HW237086   2.314   1.394  11.484 -0.3122  0.0644  1.5717
 8484SOL     OW37087   0.328   1.355   5.626  0.0943  0.3641 -0.6141
 8484SOL    HW137088   0.422   1.360   5.642  0.2768 -0.6120 -1.3782
 8484SOL    HW237089   0.325   1.297   5.550 -2.2255  1.7626 -1.5978
 8485SOL     OW37090   4.195   3.163   7.060 -0.0005 -0.1836  0.1965
 8485SOL    HW137091   4.166   3.142   6.971  1.7691 -2.3994  0.1740
 8485SOL    HW237092   4.276   3.113   7.068  1.6744  2.5220  0.1939
 8486SOL     OW37093   3.727   1.528   4.354  0.5555  0.1487  0.0028
 8486SOL    HW137094   3.671   1.456   4.384  0.3561  0.8392  1.3206
 8486SOL    HW237095   3.813   1.487   4.350 -0.3694 -1.8762  0.5396
 8487SOL     OW37096   2.687   0.001   8.445  0.0708 -0.4605 -0.1701
 8487SOL    HW137097   2.644   0.086   8.457 -0.8064 -0.7521 -1.3111
 8487SOL    HW237098   2.699   4.732   8.350 -0.4954 -1.0864 -0.1964
 8488SOL     OW37099   1.297   1.243  12.111 -0.5263  0.3135  0.0245
 8488SOL    HW137100   1.282   1.203  12.025 -0.5281  0.5692 -0.0945
 8488SOL    HW237101   1.362   1.307  12.083 -0.5112  0.2195 -0.1611
 8489SOL     OW37102   3.901   2.477   3.393  0.4693 -0.5257  0.3758
 8489SOL    HW137103   3.822   2.485   3.340  0.7121 -1.2103 -0.1022
 8489SOL    HW237104   3.943   2.410   3.338  0.6544 -1.9960  2.3237
 8490SOL     OW37105   1.701   2.633   2.330 -0.1967 -0.0368  0.2786
 8490SOL    HW137106   1.748   2.616   2.248 -0.7482 -0.1604 -0.0114
 8490SOL    HW237107   1.775   2.672   2.375 -1.0256  1.1365  0.6267
 8491SOL     OW37108   2.107   0.058   7.843  0.1696 -0.1265 -0.0906
 8491SOL    HW137109   2.109   0.136   7.899  1.1629  0.0658 -0.4001
 8491SOL    HW237110   2.179   4.736   7.864  1.1160  0.4018 -1.9323
 8492SOL     OW37111   4.159   3.403   0.809  0.1787  0.1923  0.3004
 8492SOL    HW137112   4.109   3.322   0.806  1.1853 -0.4978  1.6776
 8492SOL    HW237113   4.239   3.373   0.765 -0.0360 -1.2236  0.8877
 8493SOL     OW37114   2.264   3.352   6.233 -0.3443 -0.4981  0.1339
 8493SOL    HW137115   2.266   3.257   6.244 -1.8343 -0.4970  0.4374
 8493SOL    HW237116   2.359   3.367   6.234 -0.9065  3.2149 -0.1130
 8494SOL     OW37117   2.281   0.249   2.965  0.1260 -0.0014 -0.1580
 8494SOL    HW137118   2.258   0.341   2.978  1.5243  0.3980 -0.5514
 8494SOL    HW237119   2.306   0.246   2.873  1.3291  0.0450  0.1617
 8495SOL     OW37120   3.476   0.468  10.083 -0.4196 -0.0065  0.1035
 8495SOL    HW137121   3.428   0.475  10.166 -0.8836 -0.6447 -0.1127
 8495SOL    HW237122   3.560   0.513  10.091 -0.1817 -0.3804 -0.2684
 8496SOL     OW37123   0.421   0.677  15.816  0.3557  0.6146  0.7157
 8496SOL    HW137124   0.325   0.680  15.820  0.2916  0.9222 -1.1103
 8496SOL    HW237125   0.436   0.662  15.723  1.8127 -0.4874  1.1385
 8497SOL     OW37126   0.554   0.519   3.715  0.2197  0.1180  0.1980
 8497SOL    HW137127   0.517   0.608   3.709 -0.4895 -0.3471 -2.5094
 8497SOL    HW237128   0.508   0.483   3.790  0.5410 -1.2766 -0.2747
 8498SOL     OW37129   3.336   4.199   0.296 -0.1405 -0.3217 -0.2807
 8498SOL    HW137130   3.395   4.255   0.245 -0.6264 -2.1856 -2.9138
 8498SOL    HW237131   3.294   4.146   0.228  1.6797 -1.6232 -0.4203
 8499SOL     OW37132   1.550   1.942  11.853 -0.5398  0.1301  0.0499
 8499SOL    HW137133   1.593   2.019  11.816 -0.1550 -1.2335 -2.3991
 8499SOL    HW237134   1.569   1.869  11.794 -0.5307 -0.0007  0.2149
 8500SOL     OW37135   0.427   2.494   9.127 -0.5308  0.3275 -0.2908
 8500SOL    HW137136   0.486   2.516   9.200  0.3282 -3.5844  0.2229
 8500SOL    HW237137   0.435   2.573   9.074  0.0065  0.6553  0.2651
 8501SOL     OW37138   0.418   2.771   5.300 -0.0272  1.0663  0.1458
 8501SOL    HW137139   0.461   2.711   5.361  0.3532 -0.1034 -1.2886
 8501SOL    HW237140   0.326   2.746   5.308 -0.1960  1.8109  0.5246
 8502SOL     OW37141   2.929   4.303  17.353  0.4486 -0.0872  0.1501
 8502SOL    HW137142   2.874   4.317  17.430 -0.7633 -1.5349 -0.4579
 8502SOL    HW237143   2.881   4.357  17.289  0.3262 -1.2366 -0.7182
 8503SOL     OW37144   1.197   2.359  16.955  0.6463 -0.5044 -0.9439
 8503SOL    HW137145   1.222   2.376  17.046 -1.4027  0.6711 -0.5998
 8503SOL    HW237146   1.105   2.387  16.953  0.0408 -2.4139  0.6399
 8504SOL     OW37147   3.196   2.055   7.009 -0.1332  0.0819 -0.0309
 8504SOL    HW137148   3.290   2.060   7.023 -0.1484  0.8770 -0.2010
 8504SOL    HW237149   3.180   1.994   7.081 -1.4925 -2.7364 -2.6975
 8505SOL     OW37150   3.637   0.425   8.079 -0.0725 -0.2214 -1.0988
 8505SOL    HW137151   3.600   0.480   8.148 -1.2587 -0.0945 -1.8259
 8505SOL    HW237152   3.700   0.478   8.030  0.4680  1.1414  1.0955
 8506SOL     OW37153   3.947   3.483   0.483 -0.8431 -0.0699 -0.2407
 8506SOL    HW137154   4.012   3.511   0.418 -1.1192  1.2113  0.0484
 8506SOL    HW237155   3.943   3.563   0.535  1.0972 -0.4244  0.4479
 8507SOL     OW37156   1.132   3.503   4.133 -0.0768  0.0286 -0.5249
 8507SOL    HW137157   1.158   3.579   4.185 -0.9350 -0.5418  0.7279
 8507SOL    HW237158   1.177   3.433   4.181 -0.3548 -0.0626 -0.3970
 8508SOL     OW37159   2.376   2.857  14.821 -0.1492  0.4542 -0.0543
 8508SOL    HW137160   2.316   2.869  14.748 -0.4210 -0.5067  0.0111
 8508SOL    HW237161   2.448   2.911  14.788  0.2300  1.2777  2.1142
 8509SOL     OW37162   2.235   0.390   5.967  0.1076  0.5416  0.0644
 8509SOL    HW137163   2.276   0.476   5.958  2.0722 -0.3426  0.6721
 8509SOL    HW237164   2.303   0.327   5.945 -0.2226  1.1344 -2.6889
 8510SOL     OW37165   1.592   1.671  17.736  0.1954  0.4004 -0.3424
 8510SOL    HW137166   1.619   1.737  17.671  1.3509  0.2739 -0.0012
 8510SOL    HW237167   1.499   1.691  17.735  0.0321 -0.2158  2.2711
 8511SOL     OW37168   3.168   2.638  17.212  0.3894 -0.0709  0.1719
 8511SOL    HW137169   3.246   2.584  17.215  0.3345 -0.0319  2.5292
 8511SOL    HW237170   3.100   2.577  17.241 -1.1089  0.6773 -1.7530
 8512SOL     OW37171   4.610   4.081   4.650  0.1185  0.2123  0.6721
 8512SOL    HW137172   4.591   4.148   4.715 -0.2823  0.9109 -0.1607
 8512SOL    HW237173   4.571   4.129   4.577 -0.6917  1.1330  1.7160
 8513SOL     OW37174   0.395   1.820   1.365 -0.0256  0.2781 -0.3918
 8513SOL    HW137175   0.461   1.752   1.353 -1.2654 -0.6636 -2.0117
 8513SOL    HW237176   0.403   1.874   1.286 -1.3676 -2.3004 -2.2825
 8514SOL     OW37177   0.375   0.606  15.524 -0.5435  0.8252  0.5205
 8514SOL    HW137178   0.395   0.515  15.546 -1.9496  0.8789  2.0757
 8514SOL    HW237179   0.293   0.598  15.476  0.4144  0.6916 -1.0792
 8515SOL     OW37180   2.366   0.396   7.589  0.0138  0.1937 -0.0155
 8515SOL    HW137181   2.337   0.436   7.507  4.7481  0.9894 -1.3215
 8515SOL    HW237182   2.346   0.306   7.562 -0.7349  0.4655 -0.3632
 8516SOL     OW37183   4.572   4.139   6.820  0.0734  0.3427  0.2824
 8516SOL    HW137184   4.543   4.115   6.908  0.4009 -0.9167  0.0471
 8516SOL    HW237185   4.509   4.206   6.796  0.2591  0.8777  1.2675
 8517SOL     OW37186   4.350   0.263   8.771  0.1759 -0.2488 -0.9323
 8517SOL    HW137187   4.431   0.312   8.759 -0.8866  1.7614 -0.0686
 8517SOL    HW237188   4.303   0.279   8.690  0.3722  2.3422 -0.5316
 8518SOL     OW37189   1.555   0.230   6.850  0.0354 -0.0635  0.0310
 8518SOL    HW137190   1.497   0.154   6.848 -0.4439  0.3341 -1.1272
 8518SOL    HW237191   1.579   0.243   6.759  3.5181  0.9564  1.1081
 8519SOL     OW37192   3.704   0.319   9.822 -0.1273 -0.2683 -1.1793
 8519SOL    HW137193   3.628   0.294   9.876 -0.4926  0.2425 -1.4554
 8519SOL    HW237194   3.781   0.321   9.878 -0.9763  2.0862 -0.1090
 8520SOL     OW37195   0.513   2.663   9.457  0.1004  0.5240  0.1353
 8520SOL    HW137196   0.561   2.605   9.398  0.0192  1.4450 -0.8404
 8520SOL    HW237197   0.505   2.598   9.526  1.7581  0.1165 -0.0581
 8521SOL     OW37198   1.762   0.274   4.539 -0.0482  0.0217  0.2901
 8521SOL    HW137199   1.822   0.251   4.468  2.9363  1.9469  2.2095
 8521SOL    HW237200   1.731   0.358   4.503 -0.2150 -0.7401 -1.3369
 8522SOL     OW37201   0.617   2.792  13.720  0.2321 -0.2486  0.4732
 8522SOL    HW137202   0.572   2.876  13.734  2.2987  1.0703 -0.8047
 8522SOL    HW237203   0.551   2.747  13.667 -1.5160  1.7935  0.8978
 8523SOL     OW37204   4.502   1.204   1.423  0.5140 -0.3795  0.2114
 8523SOL    HW137205   4.597   1.192   1.416  0.7294  1.6262 -0.1030
 8523SOL    HW237206   4.497   1.182   1.516  2.6378  0.4726  0.5307
 8524SOL     OW37207   1.591   4.347   5.388  0.3615  0.0844 -0.2528
 8524SOL    HW137208   1.548   4.380   5.467  3.2918  0.5293  1.1732
 8524SOL    HW237209   1.525   4.377   5.326 -1.5385 -0.6930  1.3561
 8525SOL     OW37210   2.540   3.224   2.300  0.1183  0.1476  0.0364
 8525SOL    HW137211   2.521   3.224   2.206 -0.8282 -0.3395  0.2267
 8525SOL    HW237212   2.473   3.162   2.329 -0.8245  1.0191 -0.2665
 8526SOL     OW37213   2.984   0.860   4.233  0.1257  0.2063 -0.3634
 8526SOL    HW137214   3.047   0.912   4.284  0.7430  0.4059 -1.3428
 8526SOL    HW237215   3.034   0.814   4.166  1.1390  0.8083 -0.0201
 8527SOL     OW37216   2.826   2.675   9.517  0.0184  0.1221 -0.2262
 8527SOL    HW137217   2.830   2.663   9.423  1.3093 -1.0863 -0.0095
 8527SOL    HW237218   2.732   2.694   9.514  0.3114  1.7706  0.8458
 8528SOL     OW37219   0.778   2.965   8.648 -0.2047  0.3224  0.7405
 8528SOL    HW137220   0.770   2.973   8.743 -3.3998 -1.8134  0.6653
 8528SOL    HW237221   0.751   3.054   8.626  1.0880  0.2484 -1.1541
 8529SOL     OW37222   0.147   3.565   4.910  0.1960  0.5807 -0.1261
 8529SOL    HW137223   0.100   3.634   4.957  1.8670  2.6438 -1.4793
 8529SOL    HW237224   0.198   3.544   4.988  0.0353  1.5887  0.2551
 8530SOL     OW37225   4.246   3.188   5.496  0.1550  0.3604  0.2168
 8530SOL    HW137226   4.170   3.243   5.513 -1.0688 -1.5869  1.0930
 8530SOL    HW237227   4.266   3.207   5.405  0.9243  0.1849  0.3450
 8531SOL     OW37228   3.865   3.532   7.332 -0.8181  0.8579 -0.2926
 8531SOL    HW137229   3.882   3.613   7.284 -0.8718  0.6645 -0.6323
 8531SOL    HW237230   3.954   3.505   7.352  0.0176  3.1079 -0.9731
 8532SOL     OW37231   0.742   1.952   7.314  0.4374 -0.1430  0.0613
 8532SOL    HW137232   0.675   1.884   7.304  0.1676  0.5172 -2.5877
 8532SOL    HW237233   0.802   1.921   7.382 -0.1403 -1.7105 -0.1363
 8533SOL     OW37234   3.197   0.194  11.464  0.3536  0.2864  0.4935
 8533SOL    HW137235   3.162   0.260  11.524 -3.1345 -1.4702  0.3427
 8533SOL    HW237236   3.201   0.122  11.526 -0.8211  0.1265  0.3709
 8534SOL     OW37237   0.091   3.100   8.218  0.0988 -0.1257 -0.2737
 8534SOL    HW137238   0.006   3.084   8.258  1.0741 -1.1210  1.4059
 8534SOL    HW237239   0.139   3.048   8.282 -0.1139  0.9207  0.7344
 8535SOL     OW37240   1.747   1.237   5.327 -0.1092 -0.1129  0.4767
 8535SOL    HW137241   1.717   1.150   5.353  2.2511 -0.9543  0.3262
 8535SOL    HW237242   1.820   1.264   5.382 -0.0641 -1.0375  0.8753
 8536SOL     OW37243   1.539   2.321   7.885  1.2038 -0.1236  0.3860
 8536SOL    HW137244   1.577   2.405   7.858 -1.9801  0.8385 -1.1011
 8536SOL    HW237245   1.545   2.332   7.980 -1.3154  2.2476  0.2528
 8537SOL     OW37246   0.276   0.739   6.713 -0.2371 -0.0696 -0.1692
 8537SOL    HW137247   0.183   0.716   6.718 -0.2051 -0.3033 -0.6009
 8537SOL    HW237248   0.267   0.830   6.687 -1.9404  0.5237  2.5139
 8538SOL     OW37249   4.017   2.100   1.858  0.2739  0.3462 -0.2417
 8538SOL    HW137250   4.093   2.050   1.829 -0.5327 -1.6385  1.0900
 8538SOL    HW237251   4.032   2.104   1.952 -2.6999 -0.8815  0.2960
 8539SOL     OW37252   2.926   0.659   9.834  0.1244 -0.5189  0.0252
 8539SOL    HW137253   2.964   0.591   9.889 -1.2306 -1.4126 -0.1637
 8539SOL    HW237254   2.841   0.674   9.875 -0.2556  1.8222 -1.5642
 8540SOL     OW37255   3.649   3.418   2.872  0.0979  0.5238 -0.1606
 8540SOL    HW137256   3.579   3.363   2.907 -0.3783  0.7622 -0.7271
 8540SOL    HW237257   3.610   3.435   2.786  0.2518 -1.7160 -0.6932
 8541SOL     OW37258   2.240   0.043   7.006  0.3910  0.5870  0.3162
 8541SOL    HW137259   2.259   0.016   6.916  0.5137  1.1430  0.1740
 8541SOL    HW237260   2.328   0.059   7.038  0.1007  1.2329  0.7939
 8542SOL     OW37261   0.181   2.905   5.389 -0.1384 -0.0501  0.3897
 8542SOL    HW137262   0.159   2.904   5.482  1.7871 -1.7503  0.8144
 8542SOL    HW237263   0.135   2.824   5.366 -1.3704  0.4174  1.1582
 8543SOL     OW37264   3.773   1.399   2.039 -0.1530 -0.2683 -0.2984
 8543SOL    HW137265   3.728   1.317   2.062  3.0152 -1.9684 -0.2608
 8543SOL    HW237266   3.700   1.455   2.010 -1.8883 -1.6133  1.4513
 8544SOL     OW37267   2.750   2.141   6.920  0.0363  0.7912 -0.1204
 8544SOL    HW137268   2.719   2.097   6.841 -1.5710 -0.8717  1.4255
 8544SOL    HW237269   2.766   2.225   6.877  1.0624 -0.1539 -1.5729
 8545SOL     OW37270   1.294   2.345  17.561 -0.2124 -0.1285 -0.3218
 8545SOL    HW137271   1.389   2.350  17.554 -0.4317  1.8357 -1.5824
 8545SOL    HW237272   1.264   2.404  17.492  0.9731 -1.7458 -2.2260
 8546SOL     OW37273   0.317   3.752   6.816 -0.0642 -0.5779 -0.2433
 8546SOL    HW137274   0.296   3.764   6.723  0.7372 -2.2112 -0.6367
 8546SOL    HW237275   0.406   3.783   6.831 -0.7067  1.6077 -0.9629
 8547SOL     OW37276   4.545   2.410  13.852 -0.2499  0.4327  0.9036
 8547SOL    HW137277   4.570   2.382  13.764  1.4654 -1.2724  1.9326
 8547SOL    HW237278   4.455   2.430  13.827  0.1453 -1.0156 -1.7770
 8548SOL     OW37279   2.129   3.599   3.290 -0.2806 -0.1311  0.7037
 8548SOL    HW137280   2.170   3.611   3.375 -0.1758  0.7015  0.5369
 8548SOL    HW237281   2.185   3.662   3.245  0.2673 -1.6261 -0.7312
 8549SOL     OW37282   4.439   1.963  12.930 -0.1466  0.6131  0.6832
 8549SOL    HW137283   4.509   2.016  12.891  0.8037  0.8438  2.6815
 8549SOL    HW237284   4.459   1.874  12.899 -3.1208 -0.4083  1.6657
 8550SOL     OW37285   1.332   2.006   8.262  0.3067 -0.3096  0.0155
 8550SOL    HW137286   1.303   1.985   8.350  2.3663 -1.7210  0.3559
 8550SOL    HW237287   1.368   2.095   8.267 -2.9018  0.9862  0.0916
 8551SOL     OW37288   1.804   0.143   6.664 -0.1470  0.2142 -0.0946
 8551SOL    HW137289   1.823   0.099   6.747 -0.1963 -0.4284 -0.4194
 8551SOL    HW237290   1.784   0.062   6.616 -1.0679  0.6544 -0.4446
 8552SOL     OW37291   2.749   2.960   0.397 -0.0291  0.2274  0.0920
 8552SOL    HW137292   2.715   2.956   0.308 -0.5889  1.7418  0.2488
 8552SOL    HW237293   2.664   2.973   0.439 -0.0836 -3.1322  1.0302
 8553SOL     OW37294   3.991   3.235   9.103  0.0469 -0.0586 -0.3351
 8553SOL    HW137295   3.959   3.323   9.084 -0.0903  0.1577  0.9307
 8553SOL    HW237296   3.903   3.198   9.100  0.7586 -1.9638  2.1082
 8554SOL     OW37297   0.909   4.381   1.534  0.6853 -0.0496  0.6314
 8554SOL    HW137298   0.974   4.399   1.467 -0.1507 -0.9972 -0.4204
 8554SOL    HW237299   0.855   4.321   1.483  0.2265 -2.2246  3.6541
 8555SOL     OW37300   2.874   1.140   8.282 -0.1134  0.3576  0.6512
 8555SOL    HW137301   2.780   1.150   8.274  0.1333  0.9048 -1.6194
 8555SOL    HW237302   2.900   1.193   8.206 -1.2414  1.5103  1.0882
 8556SOL     OW37303   4.420   0.386  16.134 -0.2979 -0.5102 -0.0985
 8556SOL    HW137304   4.448   0.440  16.207 -1.3542 -1.3579  0.9239
 8556SOL    HW237305   4.336   0.351  16.164  0.0425 -0.9867  0.2833
 8557SOL     OW37306   2.318   1.106  16.237  0.0574 -0.3360  0.0745
 8557SOL    HW137307   2.315   1.024  16.285 -0.2351 -2.0775 -2.9412
 8557SOL    HW237308   2.332   1.167  16.310  2.0014  1.1651 -1.5540
 8558SOL     OW37309   4.263   0.284   5.653  0.1282  0.0989 -0.2698
 8558SOL    HW137310   4.238   0.287   5.745 -0.2047  0.7876 -0.3873
 8558SOL    HW237311   4.294   0.194   5.644  0.4775  0.2064 -0.1141
 8559SOL     OW37312   0.049   3.678   4.239  0.1486 -0.4992 -0.1292
 8559SOL    HW137313   0.033   3.750   4.301  1.1165  0.3048 -0.8183
 8559SOL    HW237314   4.727   3.697   4.167  1.0946 -2.4324 -1.4184
 8560SOL     OW37315   2.560   0.409   7.329 -0.2323  0.3745 -0.3066
 8560SOL    HW137316   2.566   0.456   7.412  0.7820 -0.3646  0.0342
 8560SOL    HW237317   2.627   0.444   7.269 -0.7060  2.9474  0.6707
 8561SOL     OW37318   4.614   0.144   2.681 -0.1668 -0.4432  0.1328
 8561SOL    HW137319   4.683   0.196   2.641  1.2361 -2.3350  0.0612
 8561SOL    HW237320   4.611   0.184   2.767  0.8696  0.6642 -0.3581
 8562SOL     OW37321   3.030   3.867   5.839 -0.2914  0.4823  0.6761
 8562SOL    HW137322   3.005   3.891   5.750 -1.6826 -4.8815 -0.4026
 8562SOL    HW237323   3.069   3.951   5.864 -2.6315  1.8594 -0.2452
 8563SOL     OW37324   1.227   4.059  17.293 -0.0848 -0.2756  0.1096
 8563SOL    HW137325   1.169   3.985  17.312 -0.1266 -0.3963 -0.4831
 8563SOL    HW237326   1.170   4.124  17.253 -1.8863 -1.1936  1.1873
 8564SOL     OW37327   2.636   1.119   1.775 -0.3513 -0.4155 -0.7959
 8564SOL    HW137328   2.711   1.117   1.835 -1.4172  0.7741  0.6137
 8564SOL    HW237329   2.564   1.083   1.826 -0.9827  2.6005  0.4824
 8565SOL     OW37330   4.035   1.647  10.396 -0.1677 -0.1754 -0.0874
 8565SOL    HW137331   4.092   1.679  10.326  0.3052  0.9790  0.8129
 8565SOL    HW237332   4.008   1.564  10.358 -0.3738  0.1266 -0.5964
 8566SOL     OW37333   1.807   3.320  12.698 -0.7492 -0.7468 -0.4566
 8566SOL    HW137334   1.808   3.312  12.793  2.4974 -1.4828 -0.5659
 8566SOL    HW237335   1.883   3.370  12.670 -0.9420 -1.2383 -1.8556
 8567SOL     OW37336   4.580   1.791  16.653 -0.5201  0.4488 -0.0935
 8567SOL    HW137337   4.668   1.803  16.688  0.3251 -0.4686 -1.8775
 8567SOL    HW237338   4.556   1.865  16.596  0.6171 -0.6984 -2.0783
 8568SOL     OW37339   2.715   0.022  12.893  0.0644 -0.5132 -0.2368
 8568SOL    HW137340   2.644   0.086  12.892 -0.1231 -0.7221 -0.1684
 8568SOL    HW237341   2.687   4.680  12.846  1.1138 -0.7124 -0.5327
 8569SOL     OW37342   1.759   0.364  17.742 -0.4158 -0.2919  0.2140
 8569SOL    HW137343   1.758   0.446   0.045 -0.9252 -1.0192  1.4438
 8569SOL    HW237344   1.671   0.331   0.017 -0.2171 -0.3984  0.9035
 8570SOL     OW37345   0.462   0.643   4.236  0.1403  0.1152 -0.3207
 8570SOL    HW137346   0.503   0.729   4.242 -0.7891  0.5339  0.0461
 8570SOL    HW237347   0.429   0.643   4.147 -0.4479 -1.9466 -0.1067
 8571SOL     OW37348   3.166   4.492   8.639 -0.4194 -0.0247 -0.1085
 8571SOL    HW137349   3.115   4.561   8.680 -1.5420 -0.0541 -1.4476
 8571SOL    HW237350   3.241   4.487   8.699  0.3047  2.6807 -0.8131
 8572SOL     OW37351   0.038   0.906   7.145  0.0742  0.7453  0.1264
 8572SOL    HW137352   4.705   0.924   7.082 -0.8093 -1.6146  0.4512
 8572SOL    HW237353   4.726   0.909   7.227  1.5409 -2.2553  1.0973
 8573SOL     OW37354   0.330   3.660  12.405  0.2524  0.1705  0.2090
 8573SOL    HW137355   0.235   3.655  12.396  0.0164  0.2563  2.7291
 8573SOL    HW237356   0.334   3.752  12.431 -0.0482  1.0862 -2.8962
 8574SOL     OW37357   1.547   2.042   6.424  0.0345  0.2493  0.2594
 8574SOL    HW137358   1.503   1.997   6.496  0.6457  1.8321  1.6490
 8574SOL    HW237359   1.639   2.049   6.451  0.0855 -0.7385  0.3444
 8575SOL     OW37360   3.816   4.080  12.108 -0.2495 -0.6011  0.2614
 8575SOL    HW137361   3.837   4.007  12.166  0.9703 -0.5224 -0.0828
 8575SOL    HW237362   3.795   4.144  12.175  1.2385  2.2167 -1.9448
 8576SOL     OW37363   1.829   1.629   5.925  0.1249  0.8917  0.4480
 8576SOL    HW137364   1.849   1.711   5.971 -0.2786  2.1121 -1.5454
 8576SOL    HW237365   1.910   1.577   5.931  0.3516  1.4151  2.0108
 8577SOL     OW37366   3.981   3.510   9.494  0.0853 -0.1337  0.6669
 8577SOL    HW137367   4.036   3.459   9.434 -1.9839 -1.8670  0.2513
 8577SOL    HW237368   3.908   3.532   9.436 -1.3756 -2.3377  1.6838
 8578SOL     OW37369   1.468   2.261  16.526 -0.2726  0.5618  0.1345
 8578SOL    HW137370   1.413   2.270  16.604  0.6477 -1.3816  0.9992
 8578SOL    HW237371   1.407   2.295  16.461 -1.6823  0.6591  1.5174
 8579SOL     OW37372   3.017   4.540   2.590 -0.3599  0.5752  0.0424
 8579SOL    HW137373   3.066   4.476   2.538 -0.7317  0.5357 -0.2536
 8579SOL    HW237374   3.054   4.625   2.565  2.5701 -0.3991  0.9909
 8580SOL     OW37375   2.427   4.506   3.991 -0.4833  0.0392  0.1224
 8580SOL    HW137376   2.513   4.470   4.014 -0.8085  0.4564  2.0767
 8580SOL    HW237377   2.381   4.423   3.982  0.1143 -0.0426 -2.0781
 8581SOL     OW37378   4.434   3.667   8.185 -0.1831 -0.1971 -0.1132
 8581SOL    HW137379   4.417   3.729   8.115 -1.7627 -2.1330 -1.4527
 8581SOL    HW237380   4.376   3.705   8.250  0.0403 -0.4302  0.2268
 8582SOL     OW37381   3.212   2.710   2.712 -0.0246  0.1226 -0.5087
 8582SOL    HW137382   3.264   2.695   2.790 -1.4951 -0.4557  0.3608
 8582SOL    HW237383   3.257   2.783   2.670 -0.6075  1.4547  1.2060
 8583SOL     OW37384   4.240   4.641   4.773  0.4074 -0.2992 -0.3412
 8583SOL    HW137385   4.289   4.722   4.759 -1.6118  1.1050  0.8973
 8583SOL    HW237386   4.187   4.626   4.695  1.6511  1.1501 -1.4716
 8584SOL     OW37387   2.118   2.345  12.069 -0.2695 -0.1251 -0.1030
 8584SOL    HW137388   2.039   2.291  12.068  0.1807 -0.7252 -3.2455
 8584SOL    HW237389   2.080   2.433  12.072 -0.1941  0.0270 -3.9943
 8585SOL     OW37390   0.586   1.406   1.816 -0.9159 -0.0183 -0.0721
 8585SOL    HW137391   0.537   1.340   1.865 -0.9662  0.4186  0.4762
 8585SOL    HW237392   0.605   1.475   1.880 -0.3886 -0.4633  0.2429
 8586SOL     OW37393   1.944   3.156   4.434 -0.1695 -0.5611 -0.3182
 8586SOL    HW137394   1.915   3.065   4.436 -0.0241 -0.5977  0.3810
 8586SOL    HW237395   1.960   3.182   4.525  1.6834 -0.8875 -0.5370
 8587SOL     OW37396   4.705   0.912  13.142  0.0803  0.3417  0.0188
 8587SOL    HW137397   4.708   1.008  13.141 -2.9323  0.4242 -1.2553
 8587SOL    HW237398   4.690   0.896  13.235  0.6174 -1.4197 -0.2016
 8588SOL     OW37399   1.777   0.262   8.101  0.0044 -0.0265 -0.3919
 8588SOL    HW137400   1.834   0.189   8.124  0.8048  0.9456  0.7220
 8588SOL    HW237401   1.793   0.257   8.007  1.2226  1.9577 -0.2805
 8589SOL     OW37402   0.278   2.259   9.436 -0.1827  0.2454 -0.0175
 8589SOL    HW137403   0.343   2.229   9.500 -0.1871 -0.3108 -0.2763
 8589SOL    HW237404   0.247   2.337   9.483 -1.0795  0.7663 -1.4637
 8590SOL     OW37405   3.975   1.068  13.397  0.5655 -0.1646 -0.1149
 8590SOL    HW137406   4.050   1.122  13.419  0.0052  0.2317  0.8068
 8590SOL    HW237407   4.014   1.003  13.338  0.1574 -0.2912 -0.2501
 8591SOL     OW37408   4.130   2.036   9.301  0.7459  0.0723 -0.0489
 8591SOL    HW137409   4.135   2.003   9.391 -0.4892 -2.1348 -0.7891
 8591SOL    HW237410   4.105   1.956   9.254 -0.7919  0.8119 -0.4890
 8592SOL     OW37411   3.995   1.778   2.178  0.3683 -0.0778 -0.2390
 8592SOL    HW137412   3.979   1.703   2.121 -1.9062 -1.4910  2.2703
 8592SOL    HW237413   3.916   1.788   2.232  1.9439 -2.5731  2.5123
 8593SOL     OW37414   1.215   4.300  16.457 -0.4895  0.5993  0.3953
 8593SOL    HW137415   1.175   4.318  16.372  1.3066  1.6831 -0.2126
 8593SOL    HW237416   1.171   4.219  16.482  0.2058 -0.0602 -0.5328
 8594SOL     OW37417   0.699   2.275   1.497  0.0088 -0.1042  0.7875
 8594SOL    HW137418   0.606   2.293   1.512  0.1829  2.9072 -1.7703
 8594SOL    HW237419   0.738   2.345   1.550 -0.0201 -0.1763  0.9035
 8595SOL     OW37420   3.677   1.407   9.783 -0.2816  0.7514 -0.3371
 8595SOL    HW137421   3.623   1.486   9.791 -2.4809 -0.9009  1.0442
 8595SOL    HW237422   3.702   1.385   9.872  0.6437 -3.0270 -1.5455
 8596SOL     OW37423   1.118   1.142   6.277 -0.1253  0.5876  1.5557
 8596SOL    HW137424   1.082   1.138   6.188 -0.5766  1.0750  1.7158
 8596SOL    HW237425   1.080   1.061   6.312  0.9198 -0.8733 -0.6698
 8597SOL     OW37426   2.401   0.870   0.615 -0.3665 -0.0651  0.0871
 8597SOL    HW137427   2.365   0.785   0.641  0.3094 -0.6071 -0.7539
 8597SOL    HW237428   2.477   0.868   0.673  1.2675  2.1428 -1.9945
 8598SOL     OW37429   2.080   0.525  16.688  0.4004 -0.5136  0.3862
 8598SOL    HW137430   2.047   0.562  16.607 -1.8479  0.1123  1.5953
 8598SOL    HW237431   2.050   0.436  16.670  0.3377 -0.5544  0.6841
 8599SOL     OW37432   2.459   2.254  11.551 -0.1152 -0.5867  0.1987
 8599SOL    HW137433   2.524   2.193  11.586 -0.3284  0.0957  1.7962
 8599SOL    HW237434   2.409   2.196  11.494  1.4219 -0.7534 -0.9717
 8600SOL     OW37435   3.579   3.290   6.537 -0.5875  0.2773 -0.0050
 8600SOL    HW137436   3.573   3.332   6.451  0.8612  2.8517  1.1333
 8600SOL    HW237437   3.535   3.343   6.603 -1.4268 -2.5587  1.6776
 8601SOL     OW37438   2.096   3.828   6.591  0.0579  0.6678  0.0412
 8601SOL    HW137439   2.010   3.792   6.613  0.1811  0.8239  0.7915
 8601SOL    HW237440   2.135   3.835   6.678 -1.3813 -0.5904  0.8001
 8602SOL     OW37441   4.240   4.544   1.424  0.1958  0.1790  0.0531
 8602SOL    HW137442   4.296   4.595   1.365  0.7642 -0.8925 -0.3243
 8602SOL    HW237443   4.174   4.511   1.364  1.7912  0.2340 -1.7376
 8603SOL     OW37444   1.675   4.325   2.332  0.4014  0.0347  0.2153
 8603SOL    HW137445   1.642   4.355   2.247  0.1126  1.4515  0.8332
 8603SOL    HW237446   1.768   4.339   2.314  0.4265 -0.0857  0.2548
 8604SOL     OW37447   0.570   3.765   6.806 -0.0025  0.6647 -0.5036
 8604SOL    HW137448   0.583   3.674   6.833 -1.4634  0.5662 -0.1317
 8604SOL    HW237449   0.562   3.748   6.712  0.3152  3.5947 -1.0563
 8605SOL     OW37450   1.994   3.663   4.216  0.3811  0.3811  0.1463
 8605SOL    HW137451   1.954   3.640   4.133  1.8105  2.5139 -1.1431
 8605SOL    HW237452   2.034   3.585   4.255  2.0646  0.2692 -1.7627
 8606SOL     OW37453   1.186   3.449   8.310  0.0773  0.2975 -0.4123
 8606SOL    HW137454   1.210   3.396   8.385  0.8380 -0.0412 -0.8951
 8606SOL    HW237455   1.169   3.379   8.247 -1.3833  0.9713 -0.7744
 8607SOL     OW37456   0.706   2.054   0.611  0.3656 -0.2718  0.2113
 8607SOL    HW137457   0.792   2.020   0.638  0.5183 -0.1365 -0.1133
 8607SOL    HW237458   0.728   2.132   0.562  0.2428  0.4712  1.3319
 8608SOL     OW37459   3.628   0.492   9.388  0.0856 -0.3870 -0.4086
 8608SOL    HW137460   3.694   0.423   9.393  1.4228  0.7413 -2.0980
 8608SOL    HW237461   3.624   0.503   9.293  1.7562 -1.1936 -0.5776
 8609SOL     OW37462   1.158   0.198   3.767  0.1314  0.6412 -0.0745
 8609SOL    HW137463   1.253   0.185   3.762  0.3179  1.1155  2.1700
 8609SOL    HW237464   1.140   0.225   3.676  0.5770  2.7423  0.4486
 8610SOL     OW37465   2.398   1.024   9.507  0.0722  0.3165  0.6081
 8610SOL    HW137466   2.406   1.087   9.436  1.6103 -1.0771 -0.4659
 8610SOL    HW237467   2.480   1.045   9.553 -1.1319  0.2710  2.7425
 8611SOL     OW37468   3.813   2.172   1.032 -0.2144 -0.9917 -0.5573
 8611SOL    HW137469   3.858   2.249   0.996  1.3035 -1.6316 -0.0287
 8611SOL    HW237470   3.888   2.118   1.008 -0.4121 -1.1089 -0.9196
 8612SOL     OW37471   0.891   0.625   8.220 -0.1843  0.6989  0.2516
 8612SOL    HW137472   0.942   0.625   8.300  0.7558  1.6938 -0.3505
 8612SOL    HW237473   0.932   0.561   8.161  0.4896  2.0159 -0.6995
 8613SOL     OW37474   3.817   3.100   1.802 -0.1060 -0.5826 -0.6904
 8613SOL    HW137475   3.825   3.070   1.711 -1.7364  0.1738 -1.0833
 8613SOL    HW237476   3.829   3.017   1.847 -1.0332 -0.5065 -0.3211
 8614SOL     OW37477   1.870   2.174   7.720 -0.1512  0.3777 -0.3154
 8614SOL    HW137478   1.869   2.269   7.712  0.8312  0.6162  2.4230
 8614SOL    HW237479   1.810   2.146   7.650 -2.0940  0.2185  1.3827
 8615SOL     OW37480   3.034   0.143   0.475  0.2144  0.0674  0.6504
 8615SOL    HW137481   2.969   0.212   0.485 -0.2770 -0.2540 -0.2919
 8615SOL    HW237482   2.993   0.057   0.467  0.1659  0.0873  0.6902
 8616SOL     OW37483   3.884   0.831   3.000  0.2969 -0.0957 -0.0172
 8616SOL    HW137484   3.957   0.890   2.978  0.0093  0.6920  1.1057
 8616SOL    HW237485   3.814   0.896   3.008 -0.4666 -0.9669  0.3526
 8617SOL     OW37486   1.564   4.276   3.090 -0.0654 -0.1193 -0.2324
 8617SOL    HW137487   1.558   4.359   3.042  1.0776 -0.3913 -0.8448
 8617SOL    HW237488   1.521   4.313   3.167 -2.7573 -1.8783 -0.9109
 8618SOL     OW37489   2.178   3.894   6.841  0.5989 -0.1403  0.3097
 8618SOL    HW137490   2.174   3.858   6.930  2.2897  2.7236  1.5304
 8618SOL    HW237491   2.133   3.977   6.854  1.1464  0.3441 -0.9311
 8619SOL     OW37492   2.083   4.188  17.063  0.4405 -0.3270 -0.1106
 8619SOL    HW137493   2.131   4.139  17.130 -1.8493 -0.6379  1.2805
 8619SOL    HW237494   2.031   4.116  17.029  0.4741 -0.4660  0.1344
 8620SOL     OW37495   2.975   1.065  13.529  0.0075  0.3617 -0.2052
 8620SOL    HW137496   2.968   1.160  13.518  1.5036  0.8788  3.1250
 8620SOL    HW237497   2.950   1.020  13.448  2.9427 -0.2356 -0.7951
 8621SOL     OW37498   1.225   2.782   1.946  0.1681 -0.3629 -0.1048
 8621SOL    HW137499   1.164   2.709   1.937  0.8858 -0.8581 -0.9299
 8621SOL    HW237500   1.212   2.808   2.037  0.9802  0.1492 -0.1295
 8622SOL     OW37501   3.658   1.505  17.322  0.5265 -0.2306 -0.5005
 8622SOL    HW137502   3.593   1.472  17.384 -1.6826  0.8178 -2.2261
 8622SOL    HW237503   3.651   1.438  17.253  3.4518  0.4099 -1.4092
 8623SOL     OW37504   1.891   1.515  10.257  0.0912  0.4353 -0.6130
 8623SOL    HW137505   1.981   1.548  10.256 -0.0075  0.7411  1.6632
 8623SOL    HW237506   1.851   1.538  10.341  0.3123  3.3083 -1.2879
 8624SOL     OW37507   3.230   4.240   7.395 -0.4049  0.0052 -0.5811
 8624SOL    HW137508   3.139   4.254   7.369 -0.8601 -1.7026  0.1033
 8624SOL    HW237509   3.227   4.146   7.414  0.2265 -0.1541 -1.2830
 8625SOL     OW37510   1.707   4.175   0.217 -0.3086  0.6906  0.4118
 8625SOL    HW137511   1.708   4.268   0.196 -2.2433  0.7606  0.6518
 8625SOL    HW237512   1.801   4.156   0.219 -0.1737  1.2322 -0.6357
 8626SOL     OW37513   0.309   2.450   2.747 -0.0588  0.9144  0.2726
 8626SOL    HW137514   0.356   2.375   2.783  1.9691  1.1957 -1.7960
 8626SOL    HW237515   0.267   2.409   2.672 -2.2621  1.8732  0.9863
 8627SOL     OW37516   4.227   0.167   6.906 -0.6336  0.0333 -0.3798
 8627SOL    HW137517   4.192   0.255   6.895  3.0920  1.8259  1.7780
 8627SOL    HW237518   4.145   0.120   6.919  0.1559 -0.8534  1.4544
 8628SOL     OW37519   2.938   2.787   9.953 -0.5684 -0.0613 -0.3681
 8628SOL    HW137520   2.962   2.828   9.870 -0.0024  0.5024  0.0738
 8628SOL    HW237521   2.871   2.725   9.923 -0.7348  0.3331 -0.8051
 8629SOL     OW37522   3.084   3.896   3.793  0.0481  0.5013  0.1698
 8629SOL    HW137523   3.003   3.854   3.764  0.4467 -0.1190 -0.0413
 8629SOL    HW237524   3.150   3.894   3.724  0.8498  0.3386  0.9410
 8630SOL     OW37525   4.129   4.003  16.669  0.2029 -0.0529 -0.1774
 8630SOL    HW137526   4.187   3.958  16.730  0.0403  0.0650  0.0654
 8630SOL    HW237527   4.059   4.005  16.734 -0.3526 -3.6493 -0.6900
 8631SOL     OW37528   3.705   1.356  10.046 -0.6589 -0.2641  0.0400
 8631SOL    HW137529   3.650   1.388  10.118  0.7741 -0.4303  1.2113
 8631SOL    HW237530   3.678   1.264  10.041 -0.2585 -0.5793  3.2447
 8632SOL     OW37531   0.933   1.735   0.091 -0.6052 -0.2323 -0.5404
 8632SOL    HW137532   0.995   1.686   0.145 -0.3891  0.5068 -0.1214
 8632SOL    HW237533   0.990   1.801   0.051 -2.1234  1.3662 -0.0571
 8633SOL     OW37534   2.612   2.904   8.812 -0.6670  0.3072  0.3741
 8633SOL    HW137535   2.693   2.873   8.772 -1.4429 -2.1041  0.7012
 8633SOL    HW237536   2.571   2.822   8.840  3.1374 -2.7042 -2.9311
 8634SOL     OW37537   0.671   4.488   2.121  0.1409 -0.2884  0.1779
 8634SOL    HW137538   0.625   4.498   2.205  0.0317 -1.9834  0.3171
 8634SOL    HW237539   0.605   4.437   2.075 -1.2870 -0.6577  2.6428
 8635SOL     OW37540   2.913   3.030   8.934  0.1173  0.3620  0.1190
 8635SOL    HW137541   2.906   3.039   9.029 -1.4661 -0.8095  0.1156
 8635SOL    HW237542   3.003   3.060   8.923  0.2066 -0.1848 -0.6446
 8636SOL     OW37543   4.428   1.177  12.249  0.5464  0.3238  0.7819
 8636SOL    HW137544   4.363   1.130  12.301 -0.8925  1.8210  0.3505
 8636SOL    HW237545   4.450   1.121  12.175 -2.5963  2.1580 -1.5158
 8637SOL     OW37546   4.380   1.809   7.098  0.2268  0.5722  0.3201
 8637SOL    HW137547   4.306   1.762   7.060  0.1435  1.7324 -0.9590
 8637SOL    HW237548   4.449   1.742   7.091  0.4495  0.6654  1.5180
 8638SOL     OW37549   4.098   2.064   2.151  0.6690 -0.5819 -0.3164
 8638SOL    HW137550   4.069   1.973   2.143  0.5746 -0.7312  1.5997
 8638SOL    HW237551   4.188   2.059   2.185  0.0070 -0.8234  1.4135
 8639SOL     OW37552   0.767   2.079   4.076 -0.1905 -0.3140  0.1656
 8639SOL    HW137553   0.676   2.077   4.047 -0.0293 -2.3888 -0.1966
 8639SOL    HW237554   0.820   2.051   4.001 -2.0458  0.3338 -1.4128
 8640SOL     OW37555   0.090   1.482   5.708 -0.5452 -0.2738 -0.0296
 8640SOL    HW137556   0.171   1.433   5.695 -1.4739 -2.2910  1.8101
 8640SOL    HW237557   0.091   1.530   5.626  1.6935 -2.4943 -1.2965
 8641SOL     OW37558   1.019   4.391   3.333 -0.3263  0.1219  0.1032
 8641SOL    HW137559   1.006   4.469   3.388  1.8617 -0.2010  1.0690
 8641SOL    HW237560   0.956   4.339   3.384  0.1580  1.0855  1.7101
 8642SOL     OW37561   0.523   4.546  17.596  0.6677  0.0401 -0.0973
 8642SOL    HW137562   0.604   4.563  17.548  0.7694  1.1378  0.4543
 8642SOL    HW237563   0.504   4.464  17.551 -0.5761  0.9834 -1.2871
 8643SOL     OW37564   3.333   3.795  14.776  0.2125  0.1689  0.2396
 8643SOL    HW137565   3.381   3.860  14.723 -2.8184  2.4751  0.3413
 8643SOL    HW237566   3.250   3.796  14.729  0.1413  1.6786  0.3863
 8644SOL     OW37567   3.666   3.678   2.221 -0.4064  0.0616 -0.0385
 8644SOL    HW137568   3.714   3.749   2.263 -1.5841  0.5550  0.5022
 8644SOL    HW237569   3.610   3.734   2.166  0.9198  0.3357 -1.0986
 8645SOL     OW37570   2.388   0.242   1.988  0.1154  0.0687  0.0130
 8645SOL    HW137571   2.476   0.270   1.964 -0.6055  1.0734 -1.5165
 8645SOL    HW237572   2.383   0.274   2.078 -1.2029  2.6706 -1.0050
 8646SOL     OW37573   4.717   3.443   5.298 -0.0744  0.1280 -0.1361
 8646SOL    HW137574   0.030   3.475   5.374  0.9463 -0.2406 -0.6448
 8646SOL    HW237575   4.661   3.385   5.349  1.6446  0.4229  2.1090
 8647SOL     OW37576   4.406   0.142   9.011 -0.4550  0.1182 -0.7124
 8647SOL    HW137577   4.379   0.186   8.931  0.7154 -1.0992 -1.7764
 8647SOL    HW237578   4.356   0.190   9.077 -0.5949  0.4919 -1.0939
 8648SOL     OW37579   4.129   4.595   6.684  0.4190  0.5822  0.0257
 8648SOL    HW137580   4.159   4.664   6.625  1.6313  0.1797  0.1654
 8648SOL    HW237581   4.109   4.653   6.758 -2.3635  1.0121 -1.0852
 8649SOL     OW37582   2.623   4.033  12.565  0.2360  0.4119 -0.4552
 8649SOL    HW137583   2.547   4.085  12.539 -1.1351 -0.5649  1.6165
 8649SOL    HW237584   2.631   3.987  12.481 -1.8434  0.2444 -0.5553
 8650SOL     OW37585   0.077   0.789   6.495 -0.1891  0.2327 -0.0496
 8650SOL    HW137586   0.083   0.870   6.445  3.7501  0.2814  0.4910
 8650SOL    HW237587   0.157   0.746   6.467 -0.7260  0.5837 -2.0993
 8651SOL     OW37588   3.929   1.749  10.054  0.2582  0.2337  0.1258
 8651SOL    HW137589   3.917   1.842  10.073  0.3932  0.2313  0.2212
 8651SOL    HW237590   3.881   1.731   9.973  0.3067  0.0530  0.1364
 8652SOL     OW37591   1.226   3.272   4.971  0.2543  0.3615  0.2031
 8652SOL    HW137592   1.131   3.266   4.981 -0.0709  2.0747 -1.8060
 8652SOL    HW237593   1.238   3.192   4.920 -0.9178  1.1852 -1.3651
 8653SOL     OW37594   4.721   3.865  14.434 -0.0666 -0.6409  0.2921
 8653SOL    HW137595   4.634   3.902  14.420 -0.1542 -0.5582  1.0698
 8653SOL    HW237596   0.037   3.937  14.399  0.4088 -0.0591  2.2217
 8654SOL     OW37597   4.118   3.363   4.739 -0.4200  0.3823 -0.3997
 8654SOL    HW137598   4.181   3.380   4.669 -1.1052  1.3315 -0.7955
 8654SOL    HW237599   4.097   3.271   4.723  1.1345  0.1152 -0.8782
 8655SOL     OW37600   0.626   2.855   8.295  0.4708 -0.1296 -0.0959
 8655SOL    HW137601   0.547   2.838   8.244  1.3149  1.4444 -1.9276
 8655SOL    HW237602   0.642   2.944   8.264  0.4439 -0.3406 -0.7208
 8656SOL     OW37603   3.732   2.394   7.868 -0.0984 -0.3237  0.2712
 8656SOL    HW137604   3.754   2.465   7.809  3.1630 -2.1498 -0.6774
 8656SOL    HW237605   3.799   2.404   7.936 -0.3464  0.0714  0.4600
 8657SOL     OW37606   2.326   4.619   8.643 -0.2173 -0.7606  0.1177
 8657SOL    HW137607   2.403   4.616   8.700  1.2737  0.4391 -1.8554
 8657SOL    HW237608   2.267   4.574   8.703 -2.1203  3.2266  1.2743
 8658SOL     OW37609   1.122   4.140  17.684  0.1019 -0.0427 -0.1686
 8658SOL    HW137610   1.115   4.235  17.696  0.7317 -0.1275  0.8834
 8658SOL    HW237611   1.192   4.109  17.741  1.4758  2.5462 -0.4617
 8659SOL     OW37612   3.842   3.406   3.937  0.5443  0.0268 -0.3019
 8659SOL    HW137613   3.749   3.420   3.918  1.0006  1.6411 -1.3722
 8659SOL    HW237614   3.876   3.424   3.849  2.2581  0.7382  0.5088
 8660SOL     OW37615   2.273   1.475   3.618 -0.0029  0.1013 -0.0674
 8660SOL    HW137616   2.324   1.402   3.652 -1.0913 -1.0926 -0.9736
 8660SOL    HW237617   2.275   1.539   3.689 -0.2752  0.7883 -0.6797
 8661SOL     OW37618   3.209   3.988   4.891  0.6051  0.4307 -0.2775
 8661SOL    HW137619   3.228   4.067   4.841 -2.7533 -1.5653 -4.7772
 8661SOL    HW237620   3.263   3.920   4.852 -0.5610 -0.7483  0.1802
 8662SOL     OW37621   2.411   2.955   4.435  0.0062  0.4413  0.1833
 8662SOL    HW137622   2.388   2.891   4.501 -1.9593  1.2959  0.3306
 8662SOL    HW237623   2.459   3.022   4.485  0.5275  1.1213 -1.2279
 8663SOL     OW37624   3.432   3.204   7.449  0.3145 -0.4495  0.3266
 8663SOL    HW137625   3.390   3.185   7.365 -0.0372  0.8243  0.2027
 8663SOL    HW237626   3.522   3.218   7.421  0.4079 -3.0404 -0.6364
 8664SOL     OW37627   1.035   4.568   4.172 -0.0762  0.6933  0.3693
 8664SOL    HW137628   0.962   4.630   4.182 -0.5469  0.0067  1.1939
 8664SOL    HW237629   1.096   4.626   4.125 -2.1611  0.6807 -2.3754
 8665SOL     OW37630   2.711   0.237  14.886  0.3476 -0.4391 -0.3739
 8665SOL    HW137631   2.625   0.196  14.876  1.0753 -1.7938 -1.0989
 8665SOL    HW237632   2.766   0.171  14.927  0.2986 -1.3210 -1.7348
 8666SOL     OW37633   0.750   4.710   4.268  0.8815 -0.4152  0.1603
 8666SOL    HW137634   0.740   0.023   4.349 -0.1784 -1.0760  0.4326
 8666SOL    HW237635   0.700   4.633   4.294 -1.8333  0.8495 -1.3346
 8667SOL     OW37636   0.021   3.756   3.177 -0.4305  0.3975 -0.0282
 8667SOL    HW137637   4.676   3.711   3.162  0.2714 -0.8458 -0.1269
 8667SOL    HW237638   0.075   3.692   3.223  2.5039  2.5315 -0.4485
 8668SOL     OW37639   0.664   1.337   1.567  0.4202 -0.0677  0.3711
 8668SOL    HW137640   0.717   1.414   1.544  0.9998 -0.3215  0.8765
 8668SOL    HW237641   0.615   1.380   1.637 -0.6092  1.9479 -1.5618
 8669SOL     OW37642   1.281   3.908   7.694  0.1316  0.5588 -0.5244
 8669SOL    HW137643   1.266   3.815   7.678 -3.4217  1.0207  0.2147
 8669SOL    HW237644   1.192   3.944   7.699 -0.5005 -0.8506 -1.7185
 8670SOL     OW37645   2.778   4.090  14.530  0.4056  0.2650  0.2911
 8670SOL    HW137646   2.705   4.094  14.468 -0.4745  0.0318  1.3081
 8670SOL    HW237647   2.755   4.160  14.591 -0.5454  1.0566 -0.9964
 8671SOL     OW37648   0.880   4.037   6.250  0.4182  0.0456  0.3630
 8671SOL    HW137649   0.939   4.029   6.175 -2.5428  1.0162 -2.0662
 8671SOL    HW237650   0.945   4.071   6.312 -0.0016  1.5440 -0.0019
 8672SOL     OW37651   3.195   0.211   9.774  0.2200  0.3228 -0.4972
 8672SOL    HW137652   3.122   0.223   9.713  0.3112 -0.1857 -0.7017
 8672SOL    HW237653   3.205   0.301   9.808  0.6162 -0.3894  1.2908
 8673SOL     OW37654   3.534   1.521   0.901 -0.3449  0.4443  0.8004
 8673SOL    HW137655   3.457   1.577   0.912 -1.0685 -0.1474 -1.2293
 8673SOL    HW237656   3.587   1.555   0.973  1.9994 -0.4696 -0.4730
 8674SOL     OW37657   1.705   2.190  13.670  0.6370  0.6879  0.3557
 8674SOL    HW137658   1.753   2.121  13.715 -0.0854 -1.5824 -2.3292
 8674SOL    HW237659   1.618   2.182  13.710  1.5513  0.0847  2.2035
 8675SOL     OW37660   2.127   2.958   8.897 -0.4134  0.4387  0.1211
 8675SOL    HW137661   2.109   2.874   8.856  2.0793  0.0131 -0.1347
 8675SOL    HW237662   2.045   3.004   8.881  0.2463  1.0572 -1.4279
 8676SOL     OW37663   0.147   1.812   0.556 -0.0451  0.2685  0.1237
 8676SOL    HW137664   0.211   1.742   0.571  0.0256  0.6333  1.5166
 8676SOL    HW237665   0.178   1.844   0.471 -4.0447 -0.9122 -1.7961
 8677SOL     OW37666   1.128   4.313  14.521  0.6230  0.6403  0.4309
 8677SOL    HW137667   1.169   4.281  14.440 -0.3008  2.1732 -0.6533
 8677SOL    HW237668   1.206   4.340  14.568  0.2182 -0.4025  1.7149
 8678SOL     OW37669   2.583   3.169  12.776 -0.3854  0.2167  0.4051
 8678SOL    HW137670   2.618   3.214  12.853  1.1502 -0.3689  0.0549
 8678SOL    HW237671   2.491   3.152  12.798 -0.5268  1.5592  0.8197
 8679SOL     OW37672   0.648   4.489   7.399 -0.4861  0.1179 -0.2579
 8679SOL    HW137673   0.640   4.574   7.443 -0.7673  0.3512 -0.7612
 8679SOL    HW237674   0.598   4.430   7.455  0.8553 -0.4738  0.3039
 8680SOL     OW37675   0.837   2.684   4.044  0.3184  0.0145 -0.5005
 8680SOL    HW137676   0.782   2.753   4.007 -0.8903 -0.2965  0.6966
 8680SOL    HW237677   0.775   2.635   4.098  0.3551  1.3757  0.7743
 8681SOL     OW37678   0.734   2.302   3.851 -0.5591 -0.2683 -0.3252
 8681SOL    HW137679   0.784   2.222   3.847  1.4055  0.9880 -0.6863
 8681SOL    HW237680   0.653   2.255   3.831 -0.8649  0.0366  0.1652
 8682SOL     OW37681   1.506   0.469  12.233 -0.0238 -0.3049  0.5077
 8682SOL    HW137682   1.514   0.562  12.252  0.3233 -0.4410  1.0201
 8682SOL    HW237683   1.421   0.460  12.189 -0.8850 -1.3558  2.3731
 8683SOL     OW37684   1.799   1.821   3.687 -0.2139 -0.7388  0.3679
 8683SOL    HW137685   1.715   1.816   3.734  0.1549 -1.1154  0.9972
 8683SOL    HW237686   1.791   1.903   3.639  0.2251  0.1222  1.7514
 8684SOL     OW37687   3.717   2.139  15.990  0.1262 -0.2366 -0.2054
 8684SOL    HW137688   3.701   2.202  15.921  0.0648  0.0236  0.0453
 8684SOL    HW237689   3.704   2.057  15.944  0.8237 -1.9731  2.6584
 8685SOL     OW37690   1.472   4.259  11.981 -0.3704  0.6103 -0.0221
 8685SOL    HW137691   1.482   4.342  12.027 -0.9607 -0.9800  2.9836
 8685SOL    HW237692   1.557   4.259  11.937 -0.6663 -0.8815 -0.6005
 8686SOL     OW37693   1.797   0.845   0.458 -0.2079  0.4320  0.0608
 8686SOL    HW137694   1.710   0.815   0.485  0.2164 -0.8874 -0.0541
 8686SOL    HW237695   1.835   0.863   0.544 -0.8750  0.5899  0.3220
 8687SOL     OW37696   0.658   3.142   7.207 -0.1505  0.0184 -0.2828
 8687SOL    HW137697   0.569   3.167   7.184  0.1339 -0.6425 -2.0541
 8687SOL    HW237698   0.658   3.051   7.180 -0.0954 -0.1982  0.4375
 8688SOL     OW37699   3.361   0.045   8.037  0.0791  0.0960  0.5683
 8688SOL    HW137700   3.448   0.082   8.029  0.5859 -0.6741  2.3996
 8688SOL    HW237701   3.306   0.105   7.988 -0.3410 -0.9170 -0.2181
 8689SOL     OW37702   1.394   3.859   5.254 -0.5598 -0.3701 -0.0155
 8689SOL    HW137703   1.435   3.773   5.245 -0.3820 -0.0954 -1.7689
 8689SOL    HW237704   1.413   3.874   5.346 -0.5596 -0.4938  0.0047
 8690SOL     OW37705   0.300   4.605   7.288  0.0394  0.4853  0.0820
 8690SOL    HW137706   0.278   4.594   7.381  1.2479 -1.2958  0.1505
 8690SOL    HW237707   0.271   4.693   7.266 -1.3101 -0.4848 -2.0345
 8691SOL     OW37708   4.171   1.796   3.711  0.4767  0.1724 -0.2969
 8691SOL    HW137709   4.170   1.828   3.801  0.3319  1.0377 -0.6038
 8691SOL    HW237710   4.133   1.708   3.716  0.8807  0.0657  0.8758
 8692SOL     OW37711   2.197   4.117  17.499  0.3362 -0.4101  0.3943
 8692SOL    HW137712   2.123   4.090  17.555  0.3762 -0.7217  0.3001
 8692SOL    HW237713   2.166   4.208  17.501 -3.1412 -1.5219 -1.1154
 8693SOL     OW37714   2.948   1.203   8.543  0.0203 -0.0432  0.2054
 8693SOL    HW137715   2.946   1.172   8.452  2.3839  0.5431 -0.0464
 8693SOL    HW237716   2.888   1.142   8.586  1.5821 -1.0826  0.9199
 8694SOL     OW37717   0.107   0.707   2.866  0.2834 -0.3835 -0.2348
 8694SOL    HW137718   0.057   0.625   2.858 -0.4693  0.0821 -0.2687
 8694SOL    HW237719   0.159   0.673   2.939 -2.1718 -1.7060  0.8990
 8695SOL     OW37720   1.200   2.635  17.125  0.3736  0.3829  0.5025
 8695SOL    HW137721   1.160   2.632  17.038 -1.1038 -0.0496  1.2017
 8695SOL    HW237722   1.126   2.671  17.174  0.1933  1.8423 -0.8423
 8696SOL     OW37723   2.346   0.310   4.577 -0.5284  0.5011  0.0496
 8696SOL    HW137724   2.295   0.232   4.600  1.7214 -0.9062  0.2689
 8696SOL    HW237725   2.437   0.292   4.603 -0.4961 -1.3504 -1.3537
 8697SOL     OW37726   0.040   4.567   0.646  0.1167  0.6748  0.3541
 8697SOL    HW137727   4.683   4.552   0.652  0.3141  0.1503  2.2280
 8697SOL    HW237728   0.049   4.651   0.601  2.2018  0.1980 -0.1482
 8698SOL     OW37729   4.506   1.755   8.032  0.3861 -0.0087 -1.1011
 8698SOL    HW137730   4.417   1.721   8.045  0.4442  0.1942 -0.2255
 8698SOL    HW237731   4.499   1.801   7.948 -0.8065  0.5110 -0.7170
 8699SOL     OW37732   1.796   0.314   4.802 -0.2354  0.2824  0.0245
 8699SOL    HW137733   1.866   0.379   4.792 -0.0201 -0.1295 -1.0531
 8699SOL    HW237734   1.783   0.291   4.710  0.5077 -0.9425  0.2250
 8700SOL     OW37735   0.191   3.026  10.039 -0.1124 -0.2693  0.0985
 8700SOL    HW137736   0.221   2.947   9.995 -0.2023  0.3939 -1.1428
 8700SOL    HW237737   0.274   3.074  10.030 -0.3295 -0.2249 -1.7204
 8701SOL     OW37738   4.649   0.682  12.843 -0.0021 -0.1587 -0.4177
 8701SOL    HW137739   4.659   0.643  12.931 -0.1987  2.1000  0.6018
 8701SOL    HW237740   4.704   0.759  12.847  1.8925 -1.6025  1.4570
 8702SOL     OW37741   2.037   1.341  14.350 -0.1623  0.2609 -0.0749
 8702SOL    HW137742   2.023   1.247  14.358  1.2720  0.0374 -0.1968
 8702SOL    HW237743   1.967   1.368  14.291 -0.4424 -1.6678 -0.5879
 8703SOL     OW37744   1.662   4.022   5.729  0.3278  0.2055 -0.3785
 8703SOL    HW137745   1.735   4.074   5.695 -0.0860  1.0526  0.0425
 8703SOL    HW237746   1.692   3.996   5.816  1.3164 -0.9573 -1.0649
 8704SOL     OW37747   1.069   0.605   6.153  0.3177  0.4368 -0.2697
 8704SOL    HW137748   1.029   0.623   6.238  2.5144  1.5299  0.5311
 8704SOL    HW237749   1.145   0.555   6.184  0.3710  2.8717  3.5218
 8705SOL     OW37750   0.926   2.578   2.710 -0.4311 -0.1076  0.5164
 8705SOL    HW137751   0.952   2.661   2.750 -1.4517  0.4428  0.0271
 8705SOL    HW237752   0.832   2.591   2.717 -0.4942  1.3083 -3.0457
 8706SOL     OW37753   2.614   0.767   4.492  0.0568  0.5048 -0.3850
 8706SOL    HW137754   2.665   0.829   4.440 -0.4127  2.1423  1.0917
 8706SOL    HW237755   2.675   0.698   4.514  2.1318  2.4718 -0.0114
 8707SOL     OW37756   3.711   3.013  12.348  0.4150  0.0239  0.0369
 8707SOL    HW137757   3.664   3.082  12.302  0.5118  0.8477  1.1619
 8707SOL    HW237758   3.773   3.062  12.401  0.7619 -0.1040 -0.2508
 8708SOL     OW37759   0.032   3.784   9.507 -0.4496 -0.1850  0.1586
 8708SOL    HW137760   0.056   3.778   9.600 -0.7597 -0.0082  0.2485
 8708SOL    HW237761   4.691   3.838   9.519 -0.7806 -0.7715  0.6807
 8709SOL     OW37762   3.102   1.524   2.340 -0.1413  0.4998 -0.5599
 8709SOL    HW137763   3.098   1.619   2.344  1.2156  0.4983  1.1741
 8709SOL    HW237764   3.094   1.506   2.246 -1.1758 -0.9621 -0.2023
 8710SOL     OW37765   4.053   2.367   6.248 -0.0275 -0.1170 -0.4657
 8710SOL    HW137766   3.991   2.355   6.319 -0.2673 -1.7230 -0.9528
 8710SOL    HW237767   4.106   2.287   6.246 -0.6631 -0.5099 -1.5914
 8711SOL     OW37768   0.043   0.651   8.305  0.6330 -0.1224  1.0861
 8711SOL    HW137769   0.122   0.603   8.283  0.4068 -1.0038  2.2283
 8711SOL    HW237770   0.070   0.736   8.269  0.9467  0.0512  1.7276
 8712SOL     OW37771   4.006   2.475  12.298 -0.3283 -0.0673  0.3740
 8712SOL    HW137772   3.928   2.464  12.353 -0.0663 -1.6539  0.4364
 8712SOL    HW237773   4.040   2.385  12.302  0.5266  0.2249 -0.3203
 8713SOL     OW37774   1.755   2.596   0.742 -0.5726  0.4185  0.3137
 8713SOL    HW137775   1.804   2.554   0.812  1.4648  3.0505  0.4797
 8713SOL    HW237776   1.827   2.636   0.693  0.1644  0.1740  1.2112
 8714SOL     OW37777   3.555   0.640   4.690 -0.3010  0.4696 -0.2177
 8714SOL    HW137778   3.522   0.606   4.606  2.4306  0.6784 -1.3799
 8714SOL    HW237779   3.645   0.654   4.660  0.0981  2.7490  2.1067
 8715SOL     OW37780   2.685   3.979   8.103 -0.0491 -0.3546 -0.0421
 8715SOL    HW137781   2.744   3.987   8.178 -2.3714 -2.8269  2.0525
 8715SOL    HW237782   2.612   3.948   8.157 -0.3746  0.0936 -0.2206
 8716SOL     OW37783   3.425   0.139  17.728  0.5994 -0.5789 -0.1761
 8716SOL    HW137784   3.448   0.081   0.055 -0.8841  1.6709  2.1193
 8716SOL    HW237785   3.350   0.185   0.020  1.2642 -0.2253  0.7332
 8717SOL     OW37786   1.347   3.579   0.113 -0.7434 -0.2617 -0.7669
 8717SOL    HW137787   1.371   3.487   0.111 -0.2031 -0.1442  0.5435
 8717SOL    HW237788   1.385   3.617   0.034 -1.7095  1.1746 -0.5480
 8718SOL     OW37789   3.890   0.981   2.473 -0.3194  0.0353 -0.5771
 8718SOL    HW137790   3.804   1.013   2.503 -0.8369 -0.4167 -1.5744
 8718SOL    HW237791   3.925   1.054   2.423  0.6312  0.5775  0.8728
 8719SOL     OW37792   0.198   4.604   8.633  0.7382 -0.5768  0.5895
 8719SOL    HW137793   0.122   4.552   8.661 -0.1159  0.8380  0.9101
 8719SOL    HW237794   0.219   4.556   8.553  0.0318  0.0629  0.0161
 8720SOL     OW37795   3.605   3.745  12.128  0.1068  0.0511 -0.3864
 8720SOL    HW137796   3.620   3.797  12.207  0.7571 -0.2573 -0.3013
 8720SOL    HW237797   3.643   3.661  12.157  0.6124  1.9560  4.5884
 8721SOL     OW37798   1.462   2.001   3.241 -0.3408 -0.1646 -0.3735
 8721SOL    HW137799   1.409   1.922   3.228  0.0419 -0.5952  0.6457
 8721SOL    HW237800   1.548   1.961   3.224  0.5167  0.9524  1.3049
 8722SOL     OW37801   1.323   3.068   6.942 -0.0680  0.7524  0.0449
 8722SOL    HW137802   1.334   3.097   6.851 -1.1430  1.2770  0.0964
 8722SOL    HW237803   1.363   3.142   6.987  1.6639 -0.3407  0.3251
 8723SOL     OW37804   2.259   3.319   4.233 -0.1391  0.1464  0.2881
 8723SOL    HW137805   2.277   3.404   4.194  2.1370 -0.0233  0.9731
 8723SOL    HW237806   2.336   3.270   4.205 -1.6220 -1.5157 -0.8448
 8724SOL     OW37807   1.187   2.141   0.085 -0.2591  0.1166 -0.0736
 8724SOL    HW137808   1.160   2.181   0.167  2.0921  0.5161  0.5066
 8724SOL    HW237809   1.270   2.109   0.122 -1.4941 -0.1419  2.4242
 8725SOL     OW37810   2.346   2.049   1.131 -0.6003 -0.0212  0.2655
 8725SOL    HW137811   2.366   2.121   1.192  1.4482 -0.5955  0.2710
 8725SOL    HW237812   2.429   2.003   1.116 -0.5452 -0.0550  0.6636
 8726SOL     OW37813   4.063   0.852   6.867  0.3791  0.0612 -0.1400
 8726SOL    HW137814   4.072   0.938   6.910  0.5739 -0.1308  0.2030
 8726SOL    HW237815   3.968   0.849   6.867  0.3143  1.8431  1.2561
 8727SOL     OW37816   2.860   3.343  12.955  0.0459 -0.0682  0.2159
 8727SOL    HW137817   2.909   3.370  12.877  1.5380 -2.0988  0.4460
 8727SOL    HW237818   2.857   3.247  12.947 -0.8492  0.0907 -1.3967
 8728SOL     OW37819   2.152   3.768  14.686 -0.0612 -0.0474 -0.3842
 8728SOL    HW137820   2.139   3.844  14.629  2.5727 -1.2290 -2.5445
 8728SOL    HW237821   2.222   3.722  14.638  0.7448  0.5923  0.1782
 8729SOL     OW37822   0.679   2.151   1.926 -0.2972  0.1174  0.2243
 8729SOL    HW137823   0.773   2.160   1.941 -0.2045 -0.8354  0.2022
 8729SOL    HW237824   0.669   2.115   1.838 -2.1016  0.4381  0.2899
 8730SOL     OW37825   0.530   3.416   6.476 -0.6725  0.3863 -0.2159
 8730SOL    HW137826   0.488   3.357   6.538 -1.0517  0.1140 -0.7312
 8730SOL    HW237827   0.559   3.357   6.407 -0.8265  0.3164 -0.2218
 8731SOL     OW37828   4.396   1.189   6.960 -0.1290  0.3543 -0.5794
 8731SOL    HW137829   4.451   1.267   6.962 -1.6614  1.3690  1.1619
 8731SOL    HW237830   4.412   1.159   7.049  0.2986  1.3766 -0.3121
 8732SOL     OW37831   4.571   2.858   1.447 -0.4742  0.1039  0.0367
 8732SOL    HW137832   4.574   2.820   1.535  1.4336  0.6857  0.2293
 8732SOL    HW237833   4.479   2.864   1.421 -0.0265  3.0206 -0.8883
 8733SOL     OW37834   2.690   2.087   8.883 -0.4105 -0.4760 -0.7740
 8733SOL    HW137835   2.601   2.054   8.895 -0.0546 -1.0642  0.2864
 8733SOL    HW237836   2.706   2.127   8.969 -2.7654  2.3854 -1.6781
 8734SOL     OW37837   1.298   1.248   5.616  0.3145 -0.0329 -0.3640
 8734SOL    HW137838   1.222   1.255   5.558 -1.1631 -2.9826  1.2350
 8734SOL    HW237839   1.367   1.266   5.552 -1.4106  1.9202 -1.6726
 8735SOL     OW37840   1.318   4.183   1.817  0.0466 -0.1273  0.1480
 8735SOL    HW137841   1.389   4.199   1.878  1.1277  1.3579 -1.4804
 8735SOL    HW237842   1.334   4.256   1.757  0.1062  0.7337  1.2053
 8736SOL     OW37843   0.565   0.450   6.188  0.2204  0.4404 -0.0200
 8736SOL    HW137844   0.559   0.540   6.157 -1.8000  0.0702 -0.7234
 8736SOL    HW237845   0.658   0.428   6.182  0.7681  1.7720  3.3015
 8737SOL     OW37846   2.580   1.347  13.962 -0.5948 -0.2529  0.2317
 8737SOL    HW137847   2.609   1.288  13.893 -1.4504 -0.5537  0.1254
 8737SOL    HW237848   2.538   1.284  14.021  1.7509  0.2998  2.4260
 8738SOL     OW37849   3.654   3.176   4.644  0.0192 -0.3253  0.2486
 8738SOL    HW137850   3.576   3.173   4.588  0.5864 -1.5962 -0.4641
 8738SOL    HW237851   3.629   3.258   4.688 -0.3938 -1.3006  1.8201
 8739SOL     OW37852   0.262   1.394   9.611 -0.6926 -0.2734  0.5101
 8739SOL    HW137853   0.213   1.458   9.662 -2.2481  0.5396 -2.0043
 8739SOL    HW237854   0.287   1.340   9.686  1.8786 -1.6785 -1.3539
 8740SOL     OW37855   3.763   2.003   9.750 -0.2915  0.5891  0.6645
 8740SOL    HW137856   3.777   2.068   9.819  1.0834  2.1607 -1.0812
 8740SOL    HW237857   3.668   2.013   9.746 -0.0521  2.5175 -0.3462
 8741SOL     OW37858   1.813   0.273   6.199 -0.1955  0.0285  0.4800
 8741SOL    HW137859   1.883   0.330   6.231 -0.2992  0.9317 -0.9133
 8741SOL    HW237860   1.770   0.322   6.129  1.6933  0.8252 -0.1165
 8742SOL     OW37861   4.542   0.187  15.436  0.1458 -0.6922 -0.1962
 8742SOL    HW137862   4.469   0.173  15.497  0.3810 -2.1250 -0.2442
 8742SOL    HW237863   4.609   0.227  15.492 -0.5466 -0.2105  0.2853
 8743SOL     OW37864   3.986   4.232  14.309 -0.0329 -0.3970 -0.0206
 8743SOL    HW137865   3.946   4.230  14.222 -0.0249  2.4028 -0.0885
 8743SOL    HW237866   3.910   4.253  14.362  0.8442 -2.1774  1.9186
 8744SOL     OW37867   2.341   3.991   4.373  0.1464  0.0395 -0.1836
 8744SOL    HW137868   2.257   3.949   4.353  1.6658 -1.8189 -2.6566
 8744SOL    HW237869   2.394   3.915   4.397  0.5946  0.0300 -1.2481
 8745SOL     OW37870   1.845   3.304   4.897 -0.2858  0.4616  0.0426
 8745SOL    HW137871   1.795   3.359   4.958 -0.5184 -0.4002  0.6298
 8745SOL    HW237872   1.936   3.318   4.923 -0.4855 -0.4763  1.2582
 8746SOL     OW37873   2.368   1.213   9.286 -0.4025 -0.4878  0.1964
 8746SOL    HW137874   2.444   1.235   9.231 -0.1884  1.3023  1.2057
 8746SOL    HW237875   2.357   1.294   9.336  0.8083  0.2785 -0.7534
 8747SOL     OW37876   3.329   2.648   7.719 -0.5901  0.1057  0.4837
 8747SOL    HW137877   3.271   2.719   7.693  0.0062  1.1438  1.9833
 8747SOL    HW237878   3.385   2.635   7.643 -0.3915 -1.1438  0.8372
 8748SOL     OW37879   2.909   2.369  11.429 -0.1714  0.7080  0.2213
 8748SOL    HW137880   2.884   2.362  11.337  0.3040  1.6498  0.0166
 8748SOL    HW237881   2.830   2.379  11.481 -0.6100  0.2270 -0.3518
 8749SOL     OW37882   1.855   3.697   9.522  0.2847 -0.0060 -0.0065
 8749SOL    HW137883   1.767   3.725   9.497  0.0385 -3.5744 -3.1065
 8749SOL    HW237884   1.847   3.708   9.617 -2.2507  1.8970 -0.4355
 8750SOL     OW37885   2.008   4.037  15.098  0.2701  0.0824 -0.5793
 8750SOL    HW137886   1.996   4.125  15.132  0.9445  0.2978 -0.9043
 8750SOL    HW237887   2.090   4.050  15.051 -0.9258 -0.9018 -2.9241
 8751SOL     OW37888   0.589   2.434   3.518  0.3887  0.5128  0.2592
 8751SOL    HW137889   0.567   2.420   3.610 -0.5764 -1.2980 -0.2668
 8751SOL    HW237890   0.507   2.478   3.494  0.3671  0.1739 -0.2895
 8752SOL     OW37891   0.886   3.097   4.709  0.7566  0.3657 -0.3631
 8752SOL    HW137892   0.834   3.018   4.723  1.4918  0.0073  0.3403
 8752SOL    HW237893   0.823   3.156   4.668 -1.2861 -0.7987  1.1391
 8753SOL     OW37894   0.289   2.116   3.798 -0.6276  0.3167  0.2229
 8753SOL    HW137895   0.224   2.063   3.844 -1.3507  0.8091 -0.2367
 8753SOL    HW237896   0.285   2.068   3.715  1.0774 -0.9243  0.8377
 8754SOL     OW37897   3.631   2.896   9.804  0.0420  0.3309 -0.3562
 8754SOL    HW137898   3.699   2.907   9.737 -0.9025  0.3825 -1.3002
 8754SOL    HW237899   3.557   2.875   9.748 -0.5276  1.2459  0.0471
 8755SOL     OW37900   3.596   3.252   0.343  0.2970 -0.1039  0.0620
 8755SOL    HW137901   3.614   3.342   0.319 -0.8459  0.0269 -0.3124
 8755SOL    HW237902   3.566   3.264   0.433  0.9871 -0.0391  0.2813
 8756SOL     OW37903   2.425   2.904   1.107  0.0966  0.1207  0.1201
 8756SOL    HW137904   2.484   2.869   1.174  0.4744 -2.1451 -1.3754
 8756SOL    HW237905   2.348   2.863   1.146 -1.8342  1.7205 -2.0500
 8757SOL     OW37906   2.771   1.334  10.127  0.4684  0.2351 -0.5344
 8757SOL    HW137907   2.773   1.285  10.044 -1.2556  0.5780 -0.7688
 8757SOL    HW237908   2.793   1.266  10.191  1.9173 -1.1316 -2.4708
 8758SOL     OW37909   2.463   4.264  17.502 -0.2496 -0.0682 -0.5950
 8758SOL    HW137910   2.462   4.291  17.410 -2.0468  1.1738 -0.1966
 8758SOL    HW237911   2.400   4.192  17.502 -0.2985 -0.0245 -1.2988
 8759SOL     OW37912   3.088   1.785  11.041  0.5429 -0.2628 -0.0692
 8759SOL    HW137913   3.140   1.849  11.089  1.9011 -2.9429  2.0307
 8759SOL    HW237914   3.102   1.712  11.102  0.6782  1.8150  2.3576
 8760SOL     OW37915   4.468   4.533   9.768 -0.4265  0.3606 -0.8790
 8760SOL    HW137916   4.490   4.623   9.791 -1.7838  0.5481 -0.2754
 8760SOL    HW237917   4.409   4.540   9.693 -2.3555 -0.2343  0.5835
 8761SOL     OW37918   1.725   2.947   2.717 -0.0708  0.0948 -0.7192
 8761SOL    HW137919   1.785   2.892   2.768 -0.6735  1.0819  1.0418
 8761SOL    HW237920   1.655   2.952   2.783  0.2099 -6.3843  0.1493
 8762SOL     OW37921   3.349   4.033   9.372  0.8226 -0.3561 -0.0904
 8762SOL    HW137922   3.352   3.974   9.447  0.7694 -0.1494  0.0745
 8762SOL    HW237923   3.342   3.969   9.301  0.4401  0.8327 -1.1311
 8763SOL     OW37924   1.547   1.422   0.413 -0.1930 -0.0571  0.0611
 8763SOL    HW137925   1.604   1.478   0.466 -1.8716  1.1521  0.5567
 8763SOL    HW237926   1.585   1.334   0.405  0.1351 -0.1567  2.7397
 8764SOL     OW37927   4.690   2.180   1.984 -0.0028 -0.5046 -0.4562
 8764SOL    HW137928   0.019   2.146   1.923 -2.0110 -1.0277 -2.3290
 8764SOL    HW237929   4.614   2.155   1.932 -1.6538 -0.2336  1.8070
 8765SOL     OW37930   3.515   0.678   5.687 -0.2123  0.3844  0.2460
 8765SOL    HW137931   3.581   0.677   5.757  1.6731 -2.7890 -1.5662
 8765SOL    HW237932   3.469   0.604   5.727 -0.5774 -0.2240 -1.3211
 8766SOL     OW37933   4.129   1.330   6.098 -0.3069  0.2735 -0.4535
 8766SOL    HW137934   4.215   1.313   6.061  0.4058 -1.2921  1.9288
 8766SOL    HW237935   4.087   1.259   6.049  0.5843 -0.3701 -0.2825
 8767SOL     OW37936   0.598   3.504   6.847  0.7218 -0.4387  0.3389
 8767SOL    HW137937   0.673   3.449   6.869  0.8845  0.0910  1.0904
 8767SOL    HW237938   0.568   3.447   6.776 -0.7466 -0.9207  1.3596
 8768SOL     OW37939   1.010   0.754   7.954 -0.0604  0.4962 -0.4989
 8768SOL    HW137940   0.986   0.844   7.976  1.6641  1.0176 -0.7413
 8768SOL    HW237941   0.963   0.701   8.018 -1.1670  1.5437 -0.4489
 8769SOL     OW37942   0.561   1.456   8.020 -0.8678 -0.2377 -0.0219
 8769SOL    HW137943   0.622   1.527   8.036 -2.1905  0.7122  0.8367
 8769SOL    HW237944   0.537   1.460   7.928  0.0990 -1.3221 -0.3266
 8770SOL     OW37945   2.066   2.728   6.120 -0.2518 -0.9268  0.2666
 8770SOL    HW137946   2.096   2.743   6.210 -0.3399 -3.5431  0.7160
 8770SOL    HW237947   2.146   2.702   6.075 -0.7261 -0.5576 -0.7941
 8771SOL     OW37948   3.236   3.019   9.491 -0.3754  0.0432  0.1924
 8771SOL    HW137949   3.248   2.945   9.550  2.4748 -0.7495 -1.3747
 8771SOL    HW237950   3.241   3.092   9.553  0.7600  1.3739 -1.4826
 8772SOL     OW37951   0.146   0.051  12.719 -0.5515  0.6724  0.0917
 8772SOL    HW137952   0.200   0.118  12.676 -1.9602  0.1584 -2.5221
 8772SOL    HW237953   0.186   0.046  12.805  2.2329  0.1585 -1.2545
 8773SOL     OW37954   1.003   2.305  12.012 -0.0793  1.0199  0.0213
 8773SOL    HW137955   1.034   2.278  11.925 -0.8820 -0.9246  0.3437
 8773SOL    HW237956   1.017   2.399  12.017  1.9801  0.6473  1.2213
 8774SOL     OW37957   3.685   3.969   3.237 -0.7049 -0.1517  0.3175
 8774SOL    HW137958   3.660   3.877   3.236 -0.1706 -0.3068  1.1088
 8774SOL    HW237959   3.595   4.002   3.246 -1.1865 -1.5069  0.5039
 8775SOL     OW37960   2.103   1.243   3.724  0.2857 -0.3633 -0.1256
 8775SOL    HW137961   2.053   1.313   3.767  0.8863  0.4013 -0.6688
 8775SOL    HW237962   2.194   1.256   3.750  0.5154 -0.3318 -0.9283
 8776SOL     OW37963   0.573   0.357   2.609 -0.5627 -0.0894  0.6162
 8776SOL    HW137964   0.496   0.373   2.664 -0.1566  0.1298  1.1249
 8776SOL    HW237965   0.652   0.351   2.664  0.0945  2.5214 -0.0410
 8777SOL     OW37966   1.017   2.514  11.632  0.4629 -0.5303  0.8502
 8777SOL    HW137967   0.946   2.469  11.678  2.3563 -3.1502  1.2749
 8777SOL    HW237968   1.011   2.598  11.678  0.7560  1.4591 -2.7892
 8778SOL     OW37969   3.987   4.578  17.364  0.1530 -0.1670  0.2822
 8778SOL    HW137970   3.902   4.534  17.376  0.8021 -1.5308 -0.1781
 8778SOL    HW237971   4.036   4.528  17.428  0.5299  0.9628  0.8780
 8779SOL     OW37972   4.128   3.745   8.025  0.2380  0.1706 -0.3270
 8779SOL    HW137973   4.186   3.763   8.099 -1.9511  1.0202  1.1742
 8779SOL    HW237974   4.045   3.778   8.059  0.2133 -0.3610  0.1187
 8780SOL     OW37975   0.111   3.737  13.642  0.4248 -0.1246  0.5106
 8780SOL    HW137976   0.198   3.760  13.607 -0.2044  2.8557  0.9835
 8780SOL    HW237977   0.098   3.649  13.607  0.3127  1.2431 -2.8710
 8781SOL     OW37978   2.684   0.227  11.814  0.0422  0.1670 -0.2803
 8781SOL    HW137979   2.662   0.135  11.830  0.6101 -0.0238 -0.5617
 8781SOL    HW237980   2.757   0.209  11.754  0.7006  1.9364 -0.0157
 8782SOL     OW37981   4.174   3.979   6.338 -0.0770 -0.9017 -0.5926
 8782SOL    HW137982   4.106   4.028   6.384  0.6852  0.6850 -1.1564
 8782SOL    HW237983   4.242   4.046   6.328 -1.1723  0.5539  1.7514
 8783SOL     OW37984   2.513   4.219   5.722 -0.0362 -0.2465  0.4075
 8783SOL    HW137985   2.481   4.137   5.760 -2.3554  0.2548 -0.4968
 8783SOL    HW237986   2.493   4.200   5.630  0.0617 -1.0569  0.5466
 8784SOL     OW37987   0.430   2.095   2.384 -0.1159 -1.0628  0.0607
 8784SOL    HW137988   0.499   2.062   2.327  1.4474  1.0424  0.7034
 8784SOL    HW237989   0.351   2.058   2.345  0.7254 -2.6166 -0.1367
 8785SOL     OW37990   2.194   2.814  16.138  0.3369 -0.2018 -0.0083
 8785SOL    HW137991   2.225   2.754  16.071  0.5647 -1.8156  1.5329
 8785SOL    HW237992   2.196   2.897  16.090 -0.3476  1.2343  2.3918
 8786SOL     OW37993   2.940   2.759   7.676  0.4901 -0.1721  1.0147
 8786SOL    HW137994   2.875   2.709   7.724 -0.9138 -0.3589 -1.0773
 8786SOL    HW237995   2.932   2.717   7.591  1.8793  0.9619  0.3144
 8787SOL     OW37996   3.787   2.690   5.645 -0.0150  0.4478  0.0427
 8787SOL    HW137997   3.793   2.668   5.552 -0.6201 -1.8733  0.5599
 8787SOL    HW237998   3.723   2.626   5.675 -0.0504  0.3347 -0.2751
 8788SOL     OW37999   4.162   4.152   4.950  0.0968 -0.2202  0.0804
 8788SOL    HW138000   4.193   4.102   5.026 -1.2535  1.9107  2.0133
 8788SOL    HW238001   4.191   4.235   4.989  2.2035 -1.8539  2.0257
 8789SOL     OW38002   2.150   4.119  12.600 -0.6553 -0.0405  0.3545
 8789SOL    HW138003   2.120   4.180  12.533 -2.7487 -2.7632 -1.2064
 8789SOL    HW238004   2.119   4.153  12.684  0.7694 -2.0886  1.7229
 8790SOL     OW38005   0.841   0.375   7.097 -0.2198 -0.1381  0.1904
 8790SOL    HW138006   0.898   0.443   7.133  0.1548 -1.7217  2.5263
 8790SOL    HW238007   0.783   0.432   7.045 -0.4288 -0.1994  0.3570
 8791SOL     OW38008   1.870   4.077   7.374  0.2620  0.8461  0.0118
 8791SOL    HW138009   1.958   4.089   7.338 -0.2427  0.3334 -1.3712
 8791SOL    HW238010   1.867   4.150   7.437 -0.1907  0.9455 -0.1258
 8792SOL     OW38011   4.478   1.801   0.722 -0.2042 -0.2778 -0.7468
 8792SOL    HW138012   4.424   1.745   0.666 -0.8748 -0.2416 -0.1458
 8792SOL    HW238013   4.554   1.747   0.740  0.6163  0.1727 -2.8261
 8793SOL     OW38014   0.480   1.206  10.331 -0.3064 -0.0015 -0.0335
 8793SOL    HW138015   0.568   1.243  10.329 -0.1507 -0.2379  1.8660
 8793SOL    HW238016   0.503   1.115  10.350 -0.4371 -0.2395 -1.0166
 8794SOL     OW38017   1.879   2.061   5.974 -0.1036 -0.5789  0.1264
 8794SOL    HW138018   1.797   2.043   5.929 -0.1447  0.3614 -0.1693
 8794SOL    HW238019   1.855   2.144   6.014 -0.0579 -2.0384  3.2160
 8795SOL     OW38020   1.914   1.615   5.646 -0.0379  0.5971 -0.0817
 8795SOL    HW138021   1.827   1.627   5.609  0.4941  0.0733 -1.4906
 8795SOL    HW238022   1.882   1.635   5.734  0.3194  0.9680 -0.0343
 8796SOL     OW38023   1.737   1.118   3.889  0.0207  0.3817  0.1099
 8796SOL    HW138024   1.796   1.062   3.838 -0.3529 -1.2440  1.4589
 8796SOL    HW238025   1.760   1.204   3.856  0.3504 -0.5259 -2.0512
 8797SOL     OW38026   0.695   0.665  12.899  0.1478 -0.4433  0.4200
 8797SOL    HW138027   0.736   0.636  12.817  3.1445  0.3172  1.6549
 8797SOL    HW238028   0.608   0.686  12.864  0.5382  1.8985  0.8950
 8798SOL     OW38029   3.464   3.837  14.386 -0.3620 -0.2528 -0.2034
 8798SOL    HW138030   3.434   3.890  14.311  4.2326  0.6077 -1.4106
 8798SOL    HW238031   3.390   3.777  14.396 -2.2245  2.3674  1.7191
 8799SOL     OW38032   4.124   1.327   8.513 -0.2406  0.5910  0.0803
 8799SOL    HW138033   4.168   1.369   8.440  0.4922  0.6086  0.5311
 8799SOL    HW238034   4.114   1.387   8.586 -1.1183 -0.0121  0.4706
 8800SOL     OW38035   2.781   4.713   2.455 -0.0991  0.3675  1.1420
 8800SOL    HW138036   2.833   4.655   2.511 -0.0834  0.5938  1.3594
 8800SOL    HW238037   2.701   4.660   2.457 -0.2706  0.6641  2.3053
 8801SOL     OW38038   2.869   0.558  11.275  0.3726 -0.1197  0.4508
 8801SOL    HW138039   2.952   0.539  11.231  0.1463 -0.2145  0.0583
 8801SOL    HW238040   2.824   0.597  11.199 -0.4679  1.0111  1.5317
 8802SOL     OW38041   3.519   0.541   6.718  0.0211 -0.4815 -0.1190
 8802SOL    HW138042   3.520   0.544   6.622 -0.0859  3.1991  0.0033
 8802SOL    HW238043   3.550   0.629   6.736  0.3854 -0.8337  0.9227
 8803SOL     OW38044   4.332   0.733   4.754 -0.3104  0.0588 -0.0020
 8803SOL    HW138045   4.295   0.690   4.677 -0.7287  0.3387  0.0403
 8803SOL    HW238046   4.388   0.805   4.725 -2.3367  0.3866 -3.0765
 8804SOL     OW38047   4.115   1.285   7.624  0.9955 -0.4366 -0.1031
 8804SOL    HW138048   4.125   1.282   7.719 -1.9297  1.6900  0.2750
 8804SOL    HW238049   4.028   1.244   7.623  0.4961  0.6620 -1.5274
 8805SOL     OW38050   2.432   1.251  15.202  0.8826  0.1674 -0.7198
 8805SOL    HW138051   2.375   1.195  15.256  0.3694  1.2403 -0.1594
 8805SOL    HW238052   2.478   1.300  15.271 -2.4010 -1.5396  2.7120
 8806SOL     OW38053   1.575   3.975   0.864  0.4478  0.2225 -0.1608
 8806SOL    HW138054   1.493   3.982   0.913  0.5587  0.5170 -0.0188
 8806SOL    HW238055   1.620   4.057   0.886 -0.4748  1.2207 -2.0415
 8807SOL     OW38056   2.395   0.738   4.314 -0.3284  0.3546 -0.2154
 8807SOL    HW138057   2.472   0.753   4.369 -0.7082 -0.1649  0.4560
 8807SOL    HW238058   2.357   0.823   4.296 -2.6583 -0.5980  0.2756
 8808SOL     OW38059   4.245   2.024   0.366  0.3738  0.5574  0.9147
 8808SOL    HW138060   4.209   2.031   0.278  1.0173  0.0606  0.6140
 8808SOL    HW238061   4.183   1.959   0.400 -0.1996  0.7669  0.2453
 8809SOL     OW38062   0.559   4.314   5.375  0.5514 -0.1160 -0.1435
 8809SOL    HW138063   0.626   4.313   5.307  0.0820 -2.1063 -0.5830
 8809SOL    HW238064   0.496   4.253   5.337  0.6354  0.0315 -0.5174
 8810SOL     OW38065   3.140   1.790   5.152  0.3124  0.4522  0.7091
 8810SOL    HW138066   3.055   1.833   5.154  0.2516  0.2793  1.5382
 8810SOL    HW238067   3.117   1.701   5.126 -1.1025  0.7480  0.9498
 8811SOL     OW38068   1.230   0.401   2.007  0.2786 -0.8146  0.2270
 8811SOL    HW138069   1.198   0.489   2.026  0.2875 -1.1528  1.7760
 8811SOL    HW238070   1.228   0.355   2.091 -4.3262  1.4720  1.3695
 8812SOL     OW38071   2.988   3.682   9.722 -0.1157 -0.2352 -0.6958
 8812SOL    HW138072   2.972   3.659   9.630  1.2937 -0.6308 -0.8254
 8812SOL    HW238073   3.083   3.684   9.720 -0.1227  2.4584  1.8490
 8813SOL     OW38074   2.349   1.547   4.634  0.2817 -0.1410  0.4272
 8813SOL    HW138075   2.353   1.623   4.691 -2.1269 -0.0627  0.4698
 8813SOL    HW238076   2.267   1.560   4.587  1.5427 -2.4730 -2.4949
 8814SOL     OW38077   2.902   3.537   4.171 -0.4699  0.0280 -0.3458
 8814SOL    HW138078   2.905   3.458   4.118 -0.1923 -1.2149  1.4970
 8814SOL    HW238079   2.838   3.589   4.122 -0.5190  0.4247  0.1265
 8815SOL     OW38080   1.683   0.236   3.478 -0.3594  0.1643  0.0139
 8815SOL    HW138081   1.613   0.267   3.535  0.0953 -0.7234  1.0435
 8815SOL    HW238082   1.694   0.153   3.524  2.0282  0.1853 -0.4993
 8816SOL     OW38083   0.541   0.268   3.603  0.7043 -0.1131 -0.1758
 8816SOL    HW138084   0.565   0.349   3.648 -0.8503  0.2425 -0.0171
 8816SOL    HW238085   0.551   0.297   3.513  0.0196  0.0794 -0.1866
 8817SOL     OW38086   0.785   2.056   2.222  0.0699 -0.4143 -0.4580
 8817SOL    HW138087   0.743   2.008   2.151 -1.5780  0.2498  0.0535
 8817SOL    HW238088   0.769   1.997   2.296  0.5308  0.6466  0.4886
 8818SOL     OW38089   2.261   4.053  17.221 -0.7107 -0.2107 -0.3015
 8818SOL    HW138090   2.304   4.138  17.215 -0.9654  0.0052  1.0119
 8818SOL    HW238091   2.232   4.060  17.312  0.4521 -0.7990  0.1082
 8819SOL     OW38092   2.857   3.867   2.431 -0.4016 -0.0338  0.6369
 8819SOL    HW138093   2.814   3.939   2.386 -0.2593 -0.2095  0.2197
 8819SOL    HW238094   2.825   3.851   2.520 -1.7114  2.2493  0.5755
 8820SOL     OW38095   2.969   3.821   6.566  0.6618 -0.4248  0.0570
 8820SOL    HW138096   2.918   3.871   6.502 -0.6547 -0.7623  0.8176
 8820SOL    HW238097   3.060   3.833   6.542  0.2782 -0.5765 -1.4429
 8821SOL     OW38098   1.797   4.656   0.347  0.2414 -0.2420  0.3798
 8821SOL    HW138099   1.873   4.699   0.308  0.6199  0.4227  1.8453
 8821SOL    HW238100   1.836   4.614   0.423  0.6578 -0.5722 -0.0147
 8822SOL     OW38101   3.236   0.071   4.309 -0.3995 -0.1980 -0.5762
 8822SOL    HW138102   3.163   0.062   4.247 -0.3075  1.3567 -0.9169
 8822SOL    HW238103   3.304   0.108   4.253  2.4390 -0.7662  2.5295
 8823SOL     OW38104   2.066   4.185   2.372  0.1168  0.1626  0.1088
 8823SOL    HW138105   2.144   4.183   2.427 -0.8045 -1.3357  1.3656
 8823SOL    HW238106   2.069   4.105   2.320  1.8536 -0.8541  1.7744
 8824SOL     OW38107   3.014   0.793   6.446  0.1945 -0.5700 -0.3738
 8824SOL    HW138108   3.003   0.699   6.457 -0.7091 -0.2414  1.6543
 8824SOL    HW238109   3.100   0.800   6.405 -0.3190  3.1858 -0.8290
 8825SOL     OW38110   2.832   3.461   9.186 -0.7818 -0.1376  0.1412
 8825SOL    HW138111   2.750   3.416   9.165 -1.0016  0.2884  0.1056
 8825SOL    HW238112   2.806   3.538   9.236 -3.2098 -0.1937 -1.0334
 8826SOL     OW38113   0.339   2.651   7.472 -0.2692 -0.1255 -0.2203
 8826SOL    HW138114   0.275   2.684   7.535 -1.3124  0.2576 -1.4691
 8826SOL    HW238115   0.313   2.713   7.404 -2.0886 -0.1410  0.4606
 8827SOL     OW38116   0.858   3.012   9.227 -0.1152  0.2873 -0.5399
 8827SOL    HW138117   0.816   2.929   9.204  0.8702 -0.1954 -0.6327
 8827SOL    HW238118   0.953   3.008   9.214 -0.2989 -0.6472 -1.6607
 8828SOL     OW38119   4.422   3.256   6.168 -0.7953 -0.1251  0.0889
 8828SOL    HW138120   4.394   3.168   6.195 -0.1285 -0.4380 -0.2603
 8828SOL    HW238121   4.430   3.294   6.256 -0.5290  1.9957 -0.8427
 8829SOL     OW38122   2.131   3.770   9.433 -0.0148 -0.7225 -0.4213
 8829SOL    HW138123   2.080   3.850   9.417 -0.1992 -0.8063 -0.2530
 8829SOL    HW238124   2.053   3.717   9.450 -0.9189  0.5424 -0.6376
 8830SOL     OW38125   1.625   1.763   7.863  0.2459 -0.2173  0.6381
 8830SOL    HW138126   1.588   1.721   7.941 -1.2265 -0.7350 -0.3398
 8830SOL    HW238127   1.628   1.856   7.886 -1.9162  0.2825 -1.1066
 8831SOL     OW38128   2.270   4.410   7.217 -0.3090  0.1748 -0.2984
 8831SOL    HW138129   2.260   4.369   7.303 -0.4785  0.3912 -0.2175
 8831SOL    HW238130   2.202   4.476   7.227 -1.0763 -0.4775 -1.2576
 8832SOL     OW38131   1.994   1.198  11.888  0.1575 -0.4651  0.0144
 8832SOL    HW138132   2.077   1.177  11.845  0.3103 -2.5986  1.3700
 8832SOL    HW238133   1.945   1.116  11.886  0.9735 -0.9464  0.1089
 8833SOL     OW38134   1.776   2.234   5.705 -0.1164  0.2412  0.6537
 8833SOL    HW138135   1.716   2.160   5.691 -1.5063  1.4988 -0.1322
 8833SOL    HW238136   1.859   2.192   5.725 -0.6342 -0.6359  0.9957
 8834SOL     OW38137   3.619   3.547  17.126  0.2445 -0.4551  0.8138
 8834SOL    HW138138   3.682   3.583  17.063 -0.8134  0.7602  0.4659
 8834SOL    HW238139   3.648   3.589  17.207  0.4978  0.1080  0.4326
 8835SOL     OW38140   1.317   4.440  10.556 -0.0950  0.1023  0.0773
 8835SOL    HW138141   1.222   4.432  10.545 -0.2020  1.0393  0.3258
 8835SOL    HW238142   1.319   4.389  10.637  1.4497 -1.9741 -1.2539
 8836SOL     OW38143   4.734   3.157   2.556 -0.0301  0.1842  0.0236
 8836SOL    HW138144   4.671   3.134   2.625 -1.5452  1.2476 -1.0107
 8836SOL    HW238145   0.064   3.204   2.605  0.7379  0.5215 -1.3488
 8837SOL     OW38146   4.004   2.815   5.712  0.0210  0.7494 -0.1461
 8837SOL    HW138147   3.916   2.779   5.711  1.0053 -1.6926 -0.2317
 8837SOL    HW238148   3.986   2.905   5.684 -2.9933  0.4343  0.8623
 8838SOL     OW38149   2.220   3.359   8.020  0.5991  0.3010 -0.3304
 8838SOL    HW138150   2.250   3.424   8.083 -3.5173 -0.2946  2.2050
 8838SOL    HW238151   2.159   3.307   8.072 -2.2615  4.6980  0.7304
 8839SOL     OW38152   2.593   1.228  16.100  0.1327 -0.4014  0.7173
 8839SOL    HW138153   2.510   1.211  16.056  0.3246  0.0473  0.1849
 8839SOL    HW238154   2.605   1.323  16.100  1.6905 -0.6033 -0.5736
 8840SOL     OW38155   1.802   1.330   0.607  0.0691 -0.0735 -0.6100
 8840SOL    HW138156   1.784   1.394   0.538  2.2347  0.6272 -0.5256
 8840SOL    HW238157   1.770   1.253   0.559 -1.6413  0.2275  0.0501
 8841SOL     OW38158   2.741   2.850   4.983 -0.5070 -0.2045  0.4085
 8841SOL    HW138159   2.659   2.891   4.954 -0.5750  0.9900  2.3243
 8841SOL    HW238160   2.730   2.755   4.970  0.5843 -0.2661 -0.0392
 8842SOL     OW38161   2.235   2.292   0.455  0.2740  0.3046  0.5274
 8842SOL    HW138162   2.176   2.252   0.519  0.3012 -0.4839  0.0684
 8842SOL    HW238163   2.317   2.280   0.502  0.6395 -2.0546 -0.7072
 8843SOL     OW38164   2.810   2.417   7.159 -0.2360 -0.3700 -0.4826
 8843SOL    HW138165   2.786   2.416   7.066 -1.2948 -1.3786 -0.1957
 8843SOL    HW238166   2.888   2.362   7.153  0.0676 -0.0770  0.7933
 8844SOL     OW38167   4.735   1.050   7.784  0.2457 -0.4990 -0.0660
 8844SOL    HW138168   0.040   0.964   7.787 -1.9023 -1.6305 -2.5854
 8844SOL    HW238169   4.683   1.026   7.707  0.8597  1.0697 -0.9537
 8845SOL     OW38170   1.390   4.320   1.489  0.1773  0.3554 -0.1816
 8845SOL    HW138171   1.377   4.373   1.568  0.0539 -0.3355  0.2570
 8845SOL    HW238172   1.314   4.262   1.491 -0.1460  0.8012  0.5554
 8846SOL     OW38173   3.587   2.980   5.645  1.0187 -0.1295  0.5609
 8846SOL    HW138174   3.583   2.884   5.637 -0.1843  0.0900 -1.3425
 8846SOL    HW238175   3.632   2.982   5.729 -0.5890  0.6441  1.4026
 8847SOL     OW38176   0.577   1.846   3.570 -0.3994 -0.2613  0.1431
 8847SOL    HW138177   0.664   1.887   3.561  0.3926 -1.6433  1.4973
 8847SOL    HW238178   0.578   1.817   3.661  0.8793 -2.1207 -0.4832
 8848SOL     OW38179   0.276   0.488   6.633  0.0098  0.0411  0.0307
 8848SOL    HW138180   0.295   0.578   6.659  0.8074 -0.2943  0.6365
 8848SOL    HW238181   0.369   0.463   6.630  0.7683  2.8913 -0.2650
 8849SOL     OW38182   1.175   0.146   5.052 -0.0724 -0.1338 -0.7999
 8849SOL    HW138183   1.255   0.123   5.005  0.3433  0.9784 -0.6269
 8849SOL    HW238184   1.122   0.171   4.976 -2.2454  1.3244  1.1781
 8850SOL     OW38185   2.503   2.355   5.507 -0.0736 -0.2249 -0.1678
 8850SOL    HW138186   2.503   2.321   5.417 -0.0673  1.1489 -0.6807
 8850SOL    HW238187   2.595   2.345   5.531  0.0361  3.9400  1.0037
 8851SOL     OW38188   3.931   4.479   9.376 -0.8046 -0.3450  0.4306
 8851SOL    HW138189   3.974   4.540   9.316 -1.0105  0.9984  1.6437
 8851SOL    HW238190   3.926   4.402   9.320 -1.3548  1.6761 -2.2849
 8852SOL     OW38191   3.749   1.696  12.215  0.4676 -0.1568 -0.1111
 8852SOL    HW138192   3.790   1.720  12.299  1.1364  0.0072 -0.4878
 8852SOL    HW238193   3.759   1.602  12.224 -1.2901 -0.4289 -1.0285
 8853SOL     OW38194   4.139   1.055   8.426  0.1009 -0.0715  0.3296
 8853SOL    HW138195   4.231   1.040   8.445  0.4488  1.7878  0.0974
 8853SOL    HW238196   4.127   1.142   8.465 -2.3510 -0.4231  0.3663
 8854SOL     OW38197   4.587   2.954   4.328  0.3078 -0.0637 -0.4343
 8854SOL    HW138198   4.526   2.962   4.401  1.1239 -2.0290  0.4692
 8854SOL    HW238199   4.561   3.019   4.263  0.8898 -1.4794 -2.1137
 8855SOL     OW38200   3.749   3.650  16.917 -0.3377 -0.6671  0.2254
 8855SOL    HW138201   3.748   3.742  16.891  3.0051 -0.4799  0.7148
 8855SOL    HW238202   3.681   3.617  16.859 -0.6913 -0.6527  0.6359
 8856SOL     OW38203   4.100   0.886  13.248  0.1179 -0.6608 -0.7306
 8856SOL    HW138204   4.043   0.819  13.285  0.8051 -1.0519 -0.3691
 8856SOL    HW238205   4.131   0.834  13.174 -0.1081 -0.5132 -0.9262
 8857SOL     OW38206   3.760   1.224  15.303 -0.6144 -0.0893  0.1775
 8857SOL    HW138207   3.672   1.242  15.268  0.6610  1.5053 -2.2358
 8857SOL    HW238208   3.756   1.129  15.319  0.5272 -0.1485  0.1008
 8858SOL     OW38209   3.224   4.100   7.108 -0.0430 -0.9939  0.0813
 8858SOL    HW138210   3.194   4.189   7.126 -0.3721 -1.2733  0.9174
 8858SOL    HW238211   3.175   4.083   7.027  0.8749  1.6380 -1.0319
 8859SOL     OW38212   2.863   2.608  11.695  0.0199 -0.2759  0.0583
 8859SOL    HW138213   2.794   2.542  11.699 -1.4293  1.2395  0.4093
 8859SOL    HW238214   2.861   2.637  11.786 -3.2895  3.9940 -1.3400
 8860SOL     OW38215   2.669   3.841  15.352 -0.1029 -0.0586  0.5361
 8860SOL    HW138216   2.627   3.756  15.364 -1.3413  0.1705 -2.2309
 8860SOL    HW238217   2.723   3.838  15.273 -1.6805  0.4505 -0.5677
 8861SOL     OW38218   0.416   0.883   5.126 -0.1728 -0.1914  0.5980
 8861SOL    HW138219   0.489   0.856   5.182  0.6839 -0.4551 -0.6556
 8861SOL    HW238220   0.381   0.797   5.101  2.8986 -1.7511  1.6762
 8862SOL     OW38221   0.540   2.794  16.888  0.0834 -0.4793 -0.3783
 8862SOL    HW138222   0.479   2.772  16.958  0.4184  2.0774  0.6933
 8862SOL    HW238223   0.493   2.852  16.827  0.2328 -0.2008 -0.2258
 8863SOL     OW38224   0.810   1.706   9.391 -0.4837 -0.5790 -0.1025
 8863SOL    HW138225   0.764   1.627   9.360  1.1849 -1.0855 -1.2824
 8863SOL    HW238226   0.814   1.748   9.306 -0.9646  0.2843  0.3070
 8864SOL     OW38227   2.279   3.592  13.136  0.3567  0.2323  0.6312
 8864SOL    HW138228   2.186   3.611  13.141  0.5733  1.3507  0.1947
 8864SOL    HW238229   2.282   3.523  13.069  3.7882  2.5380 -1.5723
 8865SOL     OW38230   1.959   1.845   4.229 -0.4457  0.0820 -0.3296
 8865SOL    HW138231   1.915   1.781   4.285 -0.3376  0.8199  0.6007
 8865SOL    HW238232   2.008   1.892   4.296 -0.9147 -0.9546  0.7454
 8866SOL     OW38233   4.218   3.460   4.999 -0.0787 -0.2456 -0.6783
 8866SOL    HW138234   4.173   3.410   4.930  3.0457 -1.9950 -1.4563
 8866SOL    HW238235   4.163   3.538   4.998  1.6147  0.9528  0.1636
 8867SOL     OW38236   2.592   3.985   7.267  0.5324  0.1567 -0.1008
 8867SOL    HW138237   2.572   3.910   7.324 -0.6163  0.1402 -0.5244
 8867SOL    HW238238   2.521   3.973   7.203 -0.4484  0.4176  0.9342
 8868SOL     OW38239   3.736   1.501   6.483 -0.0914  0.4936  0.2095
 8868SOL    HW138240   3.773   1.589   6.473 -1.9758  1.1104 -1.3999
 8868SOL    HW238241   3.804   1.447   6.443  0.2040 -1.5861  3.5116
 8869SOL     OW38242   3.991   1.372   3.950 -0.0766 -0.5786  0.2483
 8869SOL    HW138243   3.991   1.420   4.033 -0.8319  0.2845 -0.2419
 8869SOL    HW238244   3.902   1.390   3.920 -0.4639 -1.9703  0.5394
 8870SOL     OW38245   0.321   3.288   9.242  0.0090  0.4587  0.1237
 8870SOL    HW138246   0.413   3.301   9.219  0.2875 -2.0096 -0.1450
 8870SOL    HW238247   0.281   3.290   9.155 -0.1349 -0.0977  0.1772
 8871SOL     OW38248   2.186   2.135   3.116  1.1778  0.1763 -0.0389
 8871SOL    HW138249   2.172   2.065   3.053 -1.2425  0.6433  0.0078
 8871SOL    HW238250   2.280   2.131   3.136  0.4564 -1.1765  3.1694
 8872SOL     OW38251   2.865   1.269   9.624 -0.3370 -0.1616  0.8313
 8872SOL    HW138252   2.862   1.359   9.658  1.7501 -0.0406  0.6569
 8872SOL    HW238253   2.931   1.234   9.684 -0.2829  1.3960  1.6692
 8873SOL     OW38254   0.666   3.818  16.078 -0.7829 -0.1400 -0.0275
 8873SOL    HW138255   0.674   3.892  16.019  2.1716  0.0531  0.6184
 8873SOL    HW238256   0.572   3.802  16.085 -0.9221 -0.7811 -3.4185
 8874SOL     OW38257   1.006   2.677   8.903 -0.0163  0.0179 -0.6582
 8874SOL    HW138258   0.924   2.630   8.917 -1.6487  2.7279 -1.2390
 8874SOL    HW238259   0.973   2.733   8.833  0.1945  0.4416 -0.4197
 8875SOL     OW38260   3.977   3.458   5.200  0.2014  0.1004 -1.0925
 8875SOL    HW138261   3.979   3.387   5.135 -2.0433 -0.4145 -0.5798
 8875SOL    HW238262   4.009   3.530   5.145  0.4923  1.4863  0.8795
 8876SOL     OW38263   2.648   1.282   5.736  0.8636 -0.1858  0.2424
 8876SOL    HW138264   2.674   1.349   5.672  0.1369  0.0697  0.2090
 8876SOL    HW238265   2.570   1.324   5.774  0.4269  0.0678 -0.9293
 8877SOL     OW38266   1.574   0.805   1.363 -0.3918 -0.3588 -0.1261
 8877SOL    HW138267   1.483   0.788   1.340 -0.1248 -0.7854 -0.8726
 8877SOL    HW238268   1.569   0.896   1.392  0.6595  0.0152 -1.1137
 8878SOL     OW38269   2.123   2.423   5.764 -0.1869  0.3614  0.1687
 8878SOL    HW138270   2.219   2.427   5.766 -0.0753 -2.5410  1.1690
 8878SOL    HW238271   2.114   2.329   5.779  1.9434  0.1237  0.0361
 8879SOL     OW38272   2.519   2.788  15.645  0.0324  0.4989  0.3440
 8879SOL    HW138273   2.545   2.878  15.667 -0.7853  0.9567 -0.4993
 8879SOL    HW238274   2.449   2.804  15.581 -2.2269 -0.2792  2.6082
 8880SOL     OW38275   1.753   1.026   5.005  0.0351 -0.0174  0.2010
 8880SOL    HW138276   1.771   0.940   4.966 -0.9205 -1.4444  2.9304
 8880SOL    HW238277   1.674   1.041   4.953 -0.7021 -0.0766  1.3246
 8881SOL     OW38278   1.062   0.224   5.702  0.0739 -0.3760 -0.5394
 8881SOL    HW138279   0.988   0.283   5.692 -0.0792 -0.3781  0.6087
 8881SOL    HW238280   1.069   0.188   5.613 -0.4013  2.1601 -1.6112
 8882SOL     OW38281   3.276   1.831   1.128 -0.0446  0.5139 -0.3084
 8882SOL    HW138282   3.295   1.882   1.049  0.8544  0.2036 -0.2998
 8882SOL    HW238283   3.198   1.784   1.101 -0.0097 -0.8874  1.9719
 8883SOL     OW38284   2.693   2.571   3.488  0.1081 -0.8476 -0.1467
 8883SOL    HW138285   2.687   2.579   3.392  0.7571  1.0537 -0.0145
 8883SOL    HW238286   2.599   2.562   3.503 -0.7289  3.1565 -3.0087
 8884SOL     OW38287   0.837   0.656   1.554  0.7238  0.4608  0.7509
 8884SOL    HW138288   0.808   0.741   1.587 -0.2755  0.9418 -1.4124
 8884SOL    HW238289   0.786   0.654   1.473 -0.5863  0.7323  1.5722
 8885SOL     OW38290   4.393   2.892   5.371 -0.5686  0.4105 -0.3874
 8885SOL    HW138291   4.439   2.942   5.439 -0.6492  0.1390 -0.1313
 8885SOL    HW238292   4.452   2.817   5.365  0.7812  1.4644 -0.3294
 8886SOL     OW38293   1.362   3.548   7.626  0.3598 -0.4765 -0.2594
 8886SOL    HW138294   1.417   3.557   7.548  2.1815 -0.3049  1.0524
 8886SOL    HW238295   1.429   3.561   7.692  1.4221 -0.2892 -1.3770
 8887SOL     OW38296   2.865   1.851  13.729 -0.0029  0.7490  0.2517
 8887SOL    HW138297   2.863   1.929  13.674  1.2742 -0.5066 -1.5833
 8887SOL    HW238298   2.776   1.816  13.723  0.8589 -1.2470 -0.8025
 8888SOL     OW38299   1.338   2.416  12.673  0.0187 -0.2893 -0.0823
 8888SOL    HW138300   1.426   2.383  12.691 -0.1513 -0.1504  0.9912
 8888SOL    HW238301   1.291   2.333  12.663  1.0022 -1.1078  2.1027
 8889SOL     OW38302   3.460   0.811   9.407  0.1515 -0.0502 -0.0320
 8889SOL    HW138303   3.549   0.842   9.389  1.2009 -2.0103  1.8243
 8889SOL    HW238304   3.428   0.799   9.318  0.3339  1.1717 -0.2689
 8890SOL     OW38305   3.627   1.771   4.327 -0.0273  0.5658  0.1000
 8890SOL    HW138306   3.656   1.835   4.392 -3.2931  2.2539 -0.1302
 8890SOL    HW238307   3.681   1.694   4.347 -1.5416  0.0039  1.9633
 8891SOL     OW38308   0.425   1.701  11.597 -0.7581  0.8346  0.1417
 8891SOL    HW138309   0.396   1.631  11.539  1.3828 -0.1708  0.2794
 8891SOL    HW238310   0.440   1.651  11.677 -1.0529 -0.2643 -0.4940
 8892SOL     OW38311   0.499   4.619   8.645  0.6805  0.3609 -0.1164
 8892SOL    HW138312   0.417   4.604   8.597 -0.9379  1.4887  2.2739
 8892SOL    HW238313   0.476   4.674   8.720  1.4431 -0.3704  0.6441
 8893SOL     OW38314   2.741   4.538   4.977  0.1434 -0.2903 -0.4640
 8893SOL    HW138315   2.752   4.598   5.051 -0.1338  0.2979 -0.9014
 8893SOL    HW238316   2.649   4.557   4.960  0.1057  1.2494  1.4782
 8894SOL     OW38317   2.236   1.688   6.117 -0.2562  0.3690  0.3640
 8894SOL    HW138318   2.308   1.630   6.142  0.8041  2.0320  1.1818
 8894SOL    HW238319   2.247   1.685   6.022  0.7266  4.0216  0.3293
 8895SOL     OW38320   2.297   4.106  12.039 -0.3175  0.7063  0.3406
 8895SOL    HW138321   2.203   4.104  12.054 -0.2894  0.7264  0.5092
 8895SOL    HW238322   2.311   4.200  12.047  0.6924  0.6934 -1.1160
 8896SOL     OW38323   2.265   3.582   4.148 -1.0218 -0.3243  0.0700
 8896SOL    HW138324   2.340   3.595   4.205 -1.6985 -0.0672  0.9051
 8896SOL    HW238325   2.225   3.667   4.170  1.6413  0.6014  1.2679
 8897SOL     OW38326   1.021   2.759  17.263  0.5411  0.3520 -0.0011
 8897SOL    HW138327   1.058   2.799  17.342  0.3539 -1.9130  1.2351
 8897SOL    HW238328   0.932   2.796  17.262  1.1266  1.7362 -1.6260
 8898SOL     OW38329   2.493   1.553   2.445  0.7136 -0.0330  0.0683
 8898SOL    HW138330   2.518   1.575   2.355  0.8397  0.6236  0.2614
 8898SOL    HW238331   2.582   1.555   2.482  1.2162 -2.0385 -1.0375
 8899SOL     OW38332   0.170   1.848   5.075 -0.0736  0.9416 -0.2559
 8899SOL    HW138333   0.147   1.932   5.116  2.0715  0.8452  1.1289
 8899SOL    HW238334   0.265   1.858   5.068  0.4101 -1.5821  3.0202
 8900SOL     OW38335   3.427   4.452   5.296  0.3344  0.1772  0.5259
 8900SOL    HW138336   3.489   4.439   5.225 -1.3731  0.8403 -1.0860
 8900SOL    HW238337   3.407   4.542   5.268 -1.6597  0.1807  1.9707
 8901SOL     OW38338   0.393   2.413   4.202 -0.5949 -0.6229  0.0208
 8901SOL    HW138339   0.305   2.407   4.165 -0.5899  2.0887 -0.4880
 8901SOL    HW238340   0.391   2.509   4.209  0.3783 -0.5241 -0.9967
 8902SOL     OW38341   0.872   1.287   1.852  0.9055 -0.7724 -0.2503
 8902SOL    HW138342   0.863   1.350   1.923 -0.4716  1.9811 -2.8610
 8902SOL    HW238343   0.799   1.315   1.797  0.7028 -1.5279 -0.3623
 8903SOL     OW38344   0.890   4.495  11.183 -0.2825 -0.4004  0.4258
 8903SOL    HW138345   0.843   4.477  11.264 -0.6094 -1.1311  0.0851
 8903SOL    HW238346   0.904   4.407  11.148  0.1591 -0.5605  1.0011
 8904SOL     OW38347   1.535   0.845  10.740 -0.2511  0.0060 -0.1435
 8904SOL    HW138348   1.552   0.864  10.647  0.0431 -1.0615 -0.3088
 8904SOL    HW238349   1.518   0.751  10.733  0.9670 -0.3820  2.2632
 8905SOL     OW38350   2.950   1.249   0.717 -0.0536 -0.4255 -0.3712
 8905SOL    HW138351   2.896   1.179   0.681  0.8556 -1.8098  0.9971
 8905SOL    HW238352   3.016   1.245   0.649 -1.5761  2.3784 -2.0350
 8906SOL     OW38353   4.686   2.619   8.515 -0.1116 -0.5978 -0.6061
 8906SOL    HW138354   4.616   2.554   8.507 -0.2497 -0.5788  0.4949
 8906SOL    HW238355   4.719   2.591   8.600  1.5955 -0.0426 -1.0880
 8907SOL     OW38356   3.117   0.236   2.932  0.0959 -0.4137 -0.0032
 8907SOL    HW138357   3.200   0.232   2.980  1.3207 -1.4227 -2.1705
 8907SOL    HW238358   3.141   0.296   2.861  2.5546 -1.2137  0.1587
 8908SOL     OW38359   0.861   3.461   1.613  0.5574  0.4397  0.1442
 8908SOL    HW138360   0.847   3.555   1.604  1.0673  0.1246 -4.0431
 8908SOL    HW238361   0.773   3.424   1.616  0.6315  0.3174  0.6714
 8909SOL     OW38362   3.054   2.866  13.575 -0.0499 -0.0396  0.0855
 8909SOL    HW138363   3.037   2.877  13.482 -2.2003  0.6972  0.5656
 8909SOL    HW238364   3.027   2.946  13.621  1.6115  0.2963  0.4599
 8910SOL     OW38365   4.333   3.286   0.654 -0.2684  0.4143 -0.1202
 8910SOL    HW138366   4.347   3.239   0.572 -1.2470  0.7209 -0.4630
 8910SOL    HW238367   4.373   3.373   0.643  1.6078 -0.3130  0.9458
 8911SOL     OW38368   2.099   2.014   4.391  0.0103 -0.2966 -0.2453
 8911SOL    HW138369   2.089   2.044   4.482  0.7038 -2.8434  0.6685
 8911SOL    HW238370   2.038   2.068   4.342  2.5972  0.1866 -2.9753
 8912SOL     OW38371   0.520   1.460  12.361  0.4163 -0.4073 -0.4846
 8912SOL    HW138372   0.500   1.452  12.454 -0.3097  0.2560 -0.5824
 8912SOL    HW238373   0.591   1.525  12.360 -0.5569  0.6609 -0.6630
 8913SOL     OW38374   1.365   3.805  10.985 -0.0032  0.0478 -0.4834
 8913SOL    HW138375   1.396   3.895  10.975 -0.9543  0.4430  0.1602
 8913SOL    HW238376   1.447   3.765  11.014 -0.7131 -1.9382 -1.2683
 8914SOL     OW38377   2.529   1.424   5.372  0.0742 -0.2067  0.5771
 8914SOL    HW138378   2.555   1.396   5.284 -1.5651  0.3266 -0.0924
 8914SOL    HW238379   2.497   1.339   5.400 -1.3147  0.3197  0.6042
 8915SOL     OW38380   3.790   0.921   8.912 -0.5775  0.1722  0.0885
 8915SOL    HW138381   3.871   0.957   8.947 -2.1931  2.0788  1.8893
 8915SOL    HW238382   3.725   0.964   8.967  0.9453  0.5838  1.5645
 8916SOL     OW38383   1.036   4.237   1.015 -0.0661  0.0490  0.4809
 8916SOL    HW138384   0.994   4.151   1.022  0.7984 -0.5378 -1.7643
 8916SOL    HW238385   1.053   4.250   1.109 -0.0620 -0.7367  0.5847
 8917SOL     OW38386   4.727   0.195   1.695  0.1075  0.5508  0.6401
 8917SOL    HW138387   0.064   0.201   1.634  0.6137  0.0702  1.2015
 8917SOL    HW238388   4.699   0.285   1.682  2.4590  1.2358  0.2975
 8918SOL     OW38389   3.497   3.985  14.624 -0.0078  0.9211  0.5256
 8918SOL    HW138390   3.488   3.926  14.550 -0.3896  0.2272  1.1214
 8918SOL    HW238391   3.567   4.046  14.601  0.0408  0.7188  0.1502
 8919SOL     OW38392   0.406   1.362   2.184 -0.2293 -0.2816  0.3449
 8919SOL    HW138393   0.470   1.293   2.197 -1.4070 -1.2181  1.2389
 8919SOL    HW238394   0.363   1.368   2.269 -1.5137 -2.0006 -0.1770
 8920SOL     OW38395   2.972   1.399   7.965  0.1098 -0.0621  0.4838
 8920SOL    HW138396   2.974   1.426   8.057 -1.3937  1.5878  0.0263
 8920SOL    HW238397   2.910   1.458   7.922  1.1238 -0.0614 -0.9943
 8921SOL     OW38398   1.879   1.751   6.523  0.0062 -0.4148  0.0440
 8921SOL    HW138399   1.864   1.843   6.545  0.3174 -0.0986 -1.0476
 8921SOL    HW238400   1.909   1.721   6.609  1.2708 -0.2196 -0.3259
 8922SOL     OW38401   1.966   0.763   2.300  0.4423  0.1511 -0.0393
 8922SOL    HW138402   1.922   0.742   2.382  1.6924 -0.4582  0.4747
 8922SOL    HW238403   2.037   0.700   2.313 -0.5828 -0.3900  3.0700
 8923SOL     OW38404   0.506   3.222   2.027  0.3305 -0.2321 -0.0954
 8923SOL    HW138405   0.476   3.134   2.048 -2.2806  0.7054  0.1069
 8923SOL    HW238406   0.559   3.239   2.104  1.2302 -0.0843 -0.7481
 8924SOL     OW38407   2.928   2.625  10.170 -0.5581 -0.1278 -0.0473
 8924SOL    HW138408   2.983   2.694  10.208 -1.4566 -0.5072  1.9535
 8924SOL    HW238409   2.919   2.666  10.084  2.9459 -0.5668 -0.6420
 8925SOL     OW38410   1.239   4.662  10.807  0.0433 -0.2403  0.3926
 8925SOL    HW138411   1.228   4.706  10.891  2.2567  1.1906 -0.0846
 8925SOL    HW238412   1.237   4.570  10.833 -0.7643 -0.7992 -1.6471
 8926SOL     OW38413   1.532   3.879   2.093  0.0733 -0.0738 -0.0898
 8926SOL    HW138414   1.473   3.877   2.018  1.1169 -0.0935 -0.9166
 8926SOL    HW238415   1.564   3.789   2.095  0.8427  0.2286  1.0441
 8927SOL     OW38416   4.093   1.369   3.170 -0.2835 -0.2563 -0.0664
 8927SOL    HW138417   4.005   1.400   3.150 -0.0275  1.1738  1.0086
 8927SOL    HW238418   4.122   1.419   3.247 -0.5791 -1.5255  0.8749
 8928SOL     OW38419   0.022   0.396   6.524  0.5088 -0.5320 -0.1591
 8928SOL    HW138420   4.694   0.464   6.503 -0.1056 -0.6491  1.3507
 8928SOL    HW238421   0.102   0.448   6.530  0.0824  0.3067 -1.6205
 8929SOL     OW38422   0.373   0.969   9.657 -0.1021 -0.4189  0.1340
 8929SOL    HW138423   0.343   1.050   9.699  0.5647  0.0010 -0.1938
 8929SOL    HW238424   0.408   0.924   9.734  0.1087  1.4744  1.1409
 8930SOL     OW38425   3.715   0.388  12.548  0.1570 -0.2596  0.3252
 8930SOL    HW138426   3.742   0.466  12.500 -0.3951 -1.3780 -1.8145
 8930SOL    HW238427   3.742   0.320  12.485 -1.1327  0.8530 -1.4244
 8931SOL     OW38428   0.651   2.649   9.712 -0.5172  0.3306  0.5172
 8931SOL    HW138429   0.640   2.629   9.805  1.3630  2.3083  1.1578
 8931SOL    HW238430   0.670   2.560   9.680 -0.0171 -0.8047  3.9650
 8932SOL     OW38431   4.626   3.712   8.467  0.5599 -0.0762 -0.3475
 8932SOL    HW138432   4.543   3.740   8.504  1.1056  0.3478  0.5304
 8932SOL    HW238433   4.693   3.731   8.533  3.0505  0.0631 -2.8918
 8933SOL     OW38434   1.169   1.429  11.026 -0.4898 -0.0546 -0.6148
 8933SOL    HW138435   1.205   1.514  11.002 -3.6816  0.7515 -2.4791
 8933SOL    HW238436   1.141   1.410  10.937 -0.8150  2.1502 -0.9742
 8934SOL     OW38437   1.895   1.324   4.101 -0.5298  0.0339  0.5404
 8934SOL    HW138438   1.844   1.249   4.069  0.7213 -0.2212 -0.8530
 8934SOL    HW238439   1.832   1.378   4.149 -1.6874 -1.1674  0.3785
 8935SOL     OW38440   3.303   3.983   7.361 -0.1501  0.3339  0.2070
 8935SOL    HW138441   3.388   4.012   7.394  0.0794 -2.1871  1.7887
 8935SOL    HW238442   3.306   3.991   7.265  3.1826  1.5107  0.4183
 8936SOL     OW38443   0.457   0.860  14.395  0.7403 -0.1229  0.1614
 8936SOL    HW138444   0.400   0.846  14.471 -0.8753  2.0584 -0.6303
 8936SOL    HW238445   0.421   0.791  14.338 -1.5937 -0.2510  1.7985
 8937SOL     OW38446   3.155   3.286   9.002 -0.5843 -0.2170  0.1782
 8937SOL    HW138447   3.202   3.204   8.989  0.4500 -0.1353  3.4122
 8937SOL    HW238448   3.198   3.324   9.079  0.4618  1.4854 -1.2251
 8938SOL     OW38449   2.338   0.400   1.636 -0.0255 -0.0934  0.4604
 8938SOL    HW138450   2.270   0.381   1.700 -1.4394  0.9304 -0.7302
 8938SOL    HW238451   2.316   0.334   1.570 -3.3457  1.8991 -0.4497
 8939SOL     OW38452   4.653   4.494   3.986 -0.7921  0.4928  0.2161
 8939SOL    HW138453   4.706   4.566   4.021 -0.3501  0.8086 -1.1072
 8939SOL    HW238454   4.597   4.547   3.930  1.3114 -0.4769 -2.7428
 8940SOL     OW38455   4.570   1.153  10.846 -0.1433 -0.0596  0.4720
 8940SOL    HW138456   4.644   1.094  10.860 -0.4086 -0.2908  0.8528
 8940SOL    HW238457   4.494   1.096  10.844 -0.4331  0.3974 -2.4773
 8941SOL     OW38458   2.734   4.696   8.703 -0.1145  0.3336  0.0140
 8941SOL    HW138459   2.712   4.720   8.613 -0.7619 -0.6538 -0.0924
 8941SOL    HW238460   2.669   4.626   8.707  0.2845 -0.0412 -0.0264
 8942SOL     OW38461   1.148   4.628   5.148  0.4816  0.4026 -0.0639
 8942SOL    HW138462   1.144   4.722   5.127  1.7087  0.5633  0.3999
 8942SOL    HW238463   1.108   4.626   5.235  1.7980 -0.2151  0.5317
 8943SOL     OW38464   2.600   2.115   3.602 -0.3893 -0.6425 -0.2600
 8943SOL    HW138465   2.671   2.139   3.661 -0.9373  0.5039 -0.0737
 8943SOL    HW238466   2.548   2.195   3.592  0.0413 -0.0971  1.8293
 8944SOL     OW38467   0.399   4.177   8.075  0.1668 -0.2472 -0.1329
 8944SOL    HW138468   0.436   4.137   8.153 -2.6966 -2.2401  0.2313
 8944SOL    HW238469   0.407   4.099   8.021 -1.8186  0.4860 -1.5031
 8945SOL     OW38470   2.848   1.795  16.271  0.7227 -0.2979  0.4425
 8945SOL    HW138471   2.824   1.841  16.190 -1.6595  1.2541  2.0344
 8945SOL    HW238472   2.867   1.867  16.331 -1.4459  0.8079 -0.1838
 8946SOL     OW38473   4.253   0.710   8.223  0.7969 -0.1034 -0.2506
 8946SOL    HW138474   4.324   0.676   8.278  0.6344  0.6219  0.4199
 8946SOL    HW238475   4.305   0.749   8.153 -0.5380  0.5502 -0.8726
 8947SOL     OW38476   2.943   0.179   4.413 -0.3777  0.3738  0.1080
 8947SOL    HW138477   2.938   0.137   4.327 -1.5481 -0.4800  0.5884
 8947SOL    HW238478   2.849   0.177   4.429  0.2377  0.8490  3.7028
 8948SOL     OW38479   0.063   0.083   0.544  0.0907 -0.1827  0.5165
 8948SOL    HW138480   0.057   0.030   0.465 -0.1431 -0.6586  0.8490
 8948SOL    HW238481   0.135   0.143   0.524  0.0111 -0.3630 -0.3028
 8949SOL     OW38482   1.009   3.653  10.774  0.4000 -0.2424  0.2486
 8949SOL    HW138483   1.053   3.678  10.692 -0.1109  0.0258  0.0621
 8949SOL    HW238484   1.056   3.701  10.842  0.0258  0.0354  0.3067
 8950SOL     OW38485   4.195   2.368   2.949  0.1307  0.1874  0.1033
 8950SOL    HW138486   4.160   2.279   2.952  0.0149  0.2503  0.7617
 8950SOL    HW238487   4.254   2.366   2.874  1.7336 -3.0976  1.4512
 8951SOL     OW38488   2.792   1.128   6.883  0.2045  0.1978 -0.2229
 8951SOL    HW138489   2.767   1.197   6.945 -1.0743  0.1065 -0.6265
 8951SOL    HW238490   2.884   1.107   6.895 -0.3241 -1.9889  0.0018
 8952SOL     OW38491   1.564   0.900   6.832  0.1609 -0.4338  0.5533
 8952SOL    HW138492   1.557   0.872   6.923  0.3750 -3.0526 -0.2208
 8952SOL    HW238493   1.540   0.991   6.846 -1.5934 -0.3757 -2.8865
 8953SOL     OW38494   0.038   0.334   2.552  0.2194  0.2601 -0.4759
 8953SOL    HW138495   0.115   0.381   2.519 -0.6877  1.8243 -0.3670
 8953SOL    HW238496   4.704   0.365   2.495  0.3499  0.6462 -0.4258
 8954SOL     OW38497   0.432   4.408   7.639  0.4250 -0.1570 -0.1162
 8954SOL    HW138498   0.421   4.451   7.724  0.3024  0.3879 -0.4023
 8954SOL    HW238499   0.370   4.457   7.583  0.8296 -0.5118 -0.8793
 8955SOL     OW38500   2.876   3.205   6.168  0.2195  0.4907  0.3166
 8955SOL    HW138501   2.908   3.135   6.112 -1.4217 -0.4972  0.5923
 8955SOL    HW238502   2.808   3.250   6.118  2.1674  0.1908 -2.5249
 8956SOL     OW38503   1.136   1.248   7.099 -0.0844  0.1573 -0.2165
 8956SOL    HW138504   1.042   1.236   7.110 -0.3134  0.8625 -1.4640
 8956SOL    HW238505   1.145   1.261   7.005 -0.6905 -0.4286 -0.3526
 8957SOL     OW38506   0.985   2.761   7.335  0.8978  0.3559 -0.4854
 8957SOL    HW138507   1.017   2.756   7.425 -2.7614 -2.6747  0.6431
 8957SOL    HW238508   1.069   2.766   7.288 -0.8432  1.0397 -3.5195
 8958SOL     OW38509   0.775   4.700   6.098 -0.1636  0.5267  0.3779
 8958SOL    HW138510   0.802   4.696   6.190  1.1081 -1.6133 -0.0907
 8958SOL    HW238511   0.827   4.630   6.059  0.2486  1.0934 -0.0815
 8959SOL     OW38512   1.822   1.340  13.747  0.4557 -0.0160 -0.5239
 8959SOL    HW138513   1.758   1.373  13.810  0.1010 -2.1444  0.2357
 8959SOL    HW238514   1.768   1.274  13.703  0.9167 -0.0677 -1.0109
 8960SOL     OW38515   0.417   1.755   6.412  0.1363  0.0390 -0.0307
 8960SOL    HW138516   0.422   1.788   6.501 -0.2884  2.1218 -0.7718
 8960SOL    HW238517   0.473   1.820   6.370  1.5479 -0.9604  0.2890
 8961SOL     OW38518   2.197   2.003  16.037  0.5765 -0.3467  0.1666
 8961SOL    HW138519   2.125   1.958  16.080  0.2925 -0.9483 -0.9312
 8961SOL    HW238520   2.209   2.065  16.109  0.0564 -0.0070 -0.0349
 8962SOL     OW38521   1.014   0.866  17.683 -0.2423 -0.1639  0.1848
 8962SOL    HW138522   0.919   0.876  17.691 -0.4897 -1.7163 -0.8603
 8962SOL    HW238523   1.023   0.773  17.704  0.4609  0.3797  2.3004
 8963SOL     OW38524   0.340   0.227   9.132  0.0060 -0.0478  0.1290
 8963SOL    HW138525   0.282   0.181   9.071  1.4245  0.3904 -1.5593
 8963SOL    HW238526   0.301   0.183   9.207  0.4744 -0.1130  0.3354
 8964SOL     OW38527   3.813   1.488   7.771 -0.2881  0.2302 -0.0908
 8964SOL    HW138528   3.814   1.579   7.740 -0.4605  0.7265  1.3476
 8964SOL    HW238529   3.733   1.460   7.727  0.5180 -1.2608 -0.5924
 8965SOL     OW38530   0.076   3.225   7.608 -0.3027 -0.5997  0.1012
 8965SOL    HW138531   0.019   3.274   7.549  0.3116  0.8199  0.6902
 8965SOL    HW238532   0.060   3.143   7.562 -3.1336 -0.8045  1.4488
 8966SOL     OW38533   2.798   1.060  10.028 -0.2989 -0.2024 -0.3266
 8966SOL    HW138534   2.795   1.051  10.124  1.1457 -2.0564 -0.4536
 8966SOL    HW238535   2.735   0.989  10.014  0.1505 -1.0155  1.6808
 8967SOL     OW38536   2.727   2.550  10.344 -0.3788 -0.3012 -0.5631
 8967SOL    HW138537   2.732   2.642  10.372 -0.0784 -0.3907 -0.3152
 8967SOL    HW238538   2.801   2.551  10.284 -0.0192  1.8574 -0.1016
 8968SOL     OW38539   3.248   3.458  13.371  0.2888 -0.2934 -0.4377
 8968SOL    HW138540   3.303   3.453  13.293  0.5404 -3.5262 -0.0669
 8968SOL    HW238541   3.264   3.371  13.409  2.1641  0.0521 -0.4231
 8969SOL     OW38542   2.814   1.681  17.682  0.5512  0.2921 -0.2939
 8969SOL    HW138543   2.874   1.755  17.672  1.8122 -0.7995 -0.8550
 8969SOL    HW238544   2.828   1.664   0.030 -3.0349 -1.1852 -0.0156
 8970SOL     OW38545   3.593   1.286   7.388 -0.0391 -0.0015 -0.0635
 8970SOL    HW138546   3.641   1.368   7.403 -1.2856  0.1261  3.1794
 8970SOL    HW238547   3.626   1.271   7.299 -4.2229 -2.3094 -1.2242
 8971SOL     OW38548   3.775   2.850   4.681 -0.2268 -0.3040 -0.7908
 8971SOL    HW138549   3.840   2.797   4.728 -0.9273 -0.8443 -0.4396
 8971SOL    HW238550   3.835   2.921   4.659 -0.0180 -1.0419 -2.6104
 8972SOL     OW38551   1.616   0.459   7.647 -0.5044 -0.2610  0.5785
 8972SOL    HW138552   1.565   0.536   7.623  1.9401  1.2032  0.1813
 8972SOL    HW238553   1.692   0.511   7.670  0.0002 -1.3838  1.4549
 8973SOL     OW38554   3.562   4.442   5.043  0.1576  0.3108 -0.1952
 8973SOL    HW138555   3.619   4.489   4.982  2.0328 -0.9393  0.5750
 8973SOL    HW238556   3.474   4.434   5.005 -0.2409 -0.1731  0.8441
 8974SOL     OW38557   4.299   3.664   7.188  0.5197 -0.4648 -0.1441
 8974SOL    HW138558   4.260   3.597   7.244  1.7459 -0.5554  0.6125
 8974SOL    HW238559   4.251   3.743   7.213  1.6088 -0.0334  0.5763
 8975SOL     OW38560   3.267   2.198   7.944 -0.1689  0.0064 -0.5136
 8975SOL    HW138561   3.232   2.251   7.873 -2.0305 -0.7727 -0.1739
 8975SOL    HW238562   3.233   2.110   7.930 -2.0443  0.7008 -0.2861
 8976SOL     OW38563   4.465   2.619  14.940 -0.8514  0.5328 -0.8872
 8976SOL    HW138564   4.536   2.562  14.910 -0.5102 -0.6256  2.1404
 8976SOL    HW238565   4.508   2.674  15.006  0.5366 -1.3895 -0.1911
 8977SOL     OW38566   2.978   4.704   8.411  0.3595 -0.1185 -0.1589
 8977SOL    HW138567   2.899   0.018   8.433  1.7432  1.8767  0.1734
 8977SOL    HW238568   3.030   4.701   8.491 -0.2929  0.4078  0.2847
 8978SOL     OW38569   3.332   2.717  13.641 -0.3760 -0.0888  0.6180
 8978SOL    HW138570   3.343   2.750  13.730 -1.5038 -2.4196  1.5959
 8978SOL    HW238571   3.359   2.798  13.597 -1.5660 -0.2479 -0.3991
 8979SOL     OW38572   0.903   4.560   7.322 -0.2865 -0.2869 -0.6673
 8979SOL    HW138573   0.839   4.489   7.331  0.4167 -0.5198  2.5425
 8979SOL    HW238574   0.983   4.508   7.329 -2.4101 -3.1042  2.6297
 8980SOL     OW38575   4.247   2.975   7.391 -0.3924  0.1021  0.1814
 8980SOL    HW138576   4.285   3.003   7.307  0.5755 -0.7417  0.3451
 8980SOL    HW238577   4.189   3.048   7.412 -1.4219 -0.6533 -0.0244
 8981SOL     OW38578   3.518   0.016   2.861 -0.2275  0.3770 -0.0209
 8981SOL    HW138579   3.596   0.050   2.904  0.6346 -3.1259  1.1884
 8981SOL    HW238580   3.545   0.020   2.769 -1.0079 -1.1965 -0.3257
 8982SOL     OW38581   1.064   1.722   8.657  0.9196  0.1949  0.0158
 8982SOL    HW138582   1.075   1.661   8.584 -0.0217  0.5296 -0.4007
 8982SOL    HW238583   1.004   1.790   8.627  0.6192 -0.1239 -0.1065
 8983SOL     OW38584   1.649   1.758   7.579  0.4247 -0.0632  0.0137
 8983SOL    HW138585   1.636   1.847   7.611  1.0943  0.0038  0.0937
 8983SOL    HW238586   1.640   1.712   7.663 -2.4726  2.1540  0.9273
 8984SOL     OW38587   1.696   2.239   4.298  0.3246  0.3497 -0.5416
 8984SOL    HW138588   1.675   2.211   4.209 -2.2681  0.3908  0.0554
 8984SOL    HW238589   1.608   2.259   4.331 -0.9287 -1.6446 -2.5679
 8985SOL     OW38590   2.425   1.198   4.196  0.1153 -0.3653  0.2780
 8985SOL    HW138591   2.372   1.122   4.219 -1.6848  0.9456  0.5049
 8985SOL    HW238592   2.362   1.260   4.159  0.4316  0.4356  1.0898
 8986SOL     OW38593   0.990   1.709  15.918 -0.2052 -0.2819 -0.1193
 8986SOL    HW138594   0.910   1.697  15.867 -0.6403 -0.7379  0.6681
 8986SOL    HW238595   0.989   1.805  15.920  1.3878 -0.3299  2.5602
 8987SOL     OW38596   0.755   3.248  12.650  0.3306 -0.4459  0.0705
 8987SOL    HW138597   0.784   3.331  12.688  0.4616 -0.0791 -0.8371
 8987SOL    HW238598   0.808   3.254  12.571 -0.2516  0.2297 -0.2675
 8988SOL     OW38599   2.773   0.309   9.383  0.0660  0.2489  0.0111
 8988SOL    HW138600   2.770   0.271   9.295  1.1145  0.2840 -0.0382
 8988SOL    HW238601   2.695   0.269   9.423  0.5194 -1.0792 -0.4382
 8989SOL     OW38602   3.332   1.093   2.900  1.0143  0.2686  0.1084
 8989SOL    HW138603   3.362   1.159   2.962  0.8865  0.5063 -0.0844
 8989SOL    HW238604   3.407   1.088   2.841 -1.0354  1.3178 -2.5649
 8990SOL     OW38605   0.950   0.723   9.060  0.2963 -0.2173  0.5121
 8990SOL    HW138606   1.030   0.711   9.008  0.7326  0.4170  1.0358
 8990SOL    HW238607   0.918   0.793   9.002 -1.0368 -1.1392  0.1405
 8991SOL     OW38608   1.314   0.471   5.432 -0.0475  0.2650 -0.2227
 8991SOL    HW138609   1.407   0.484   5.418 -0.2970  1.3247 -0.9634
 8991SOL    HW238610   1.289   0.522   5.509 -2.6450 -1.8410  0.3316
 8992SOL     OW38611   2.004   3.662   4.614  0.7206 -0.1373 -0.1281
 8992SOL    HW138612   2.062   3.589   4.633 -1.2149 -1.4475  0.6394
 8992SOL    HW238613   1.915   3.629   4.603 -0.0825  1.4275  1.6895
 8993SOL     OW38614   0.143   0.399  11.085 -0.0198  0.0754 -0.3052
 8993SOL    HW138615   0.185   0.485  11.090 -2.6506  1.2644  1.5021
 8993SOL    HW238616   0.156   0.364  10.997  0.7433  1.7261 -0.8605
 8994SOL     OW38617   0.439   1.462   7.171 -0.5195 -0.0582  0.0284
 8994SOL    HW138618   0.361   1.513   7.194 -2.7320 -3.1912 -0.5837
 8994SOL    HW238619   0.457   1.428   7.259  0.3445 -0.8592 -0.4544
 8995SOL     OW38620   1.766   4.613   5.126 -0.2526  0.7642  0.8292
 8995SOL    HW138621   1.700   4.641   5.063 -1.0004 -1.7755  0.4654
 8995SOL    HW238622   1.718   4.617   5.208 -1.4120 -2.9605  0.3282
 8996SOL     OW38623   3.856   4.659   6.453  0.3917 -0.1861 -0.3711
 8996SOL    HW138624   3.764   4.646   6.430  0.5994  0.1698 -1.4087
 8996SOL    HW238625   3.863   0.004   6.503  1.8820 -0.9031  0.5931
 8997SOL     OW38626   0.557   3.498  15.612 -0.0209 -0.3664  0.9604
 8997SOL    HW138627   0.484   3.485  15.674 -0.1859  0.0856  0.8606
 8997SOL    HW238628   0.626   3.466  15.670  1.1468  0.1277 -0.1783
 8998SOL     OW38629   1.235   1.952   7.153  0.1032  0.4458  0.5034
 8998SOL    HW138630   1.307   2.015   7.158 -2.8083  3.7302  1.5847
 8998SOL    HW238631   1.225   1.940   7.247  0.1044 -0.0931  0.4356
 8999SOL     OW38632   1.094   0.195   4.272 -0.1846  0.1942 -0.3895
 8999SOL    HW138633   1.072   0.252   4.197  0.6437  0.2207 -0.6166
 8999SOL    HW238634   1.024   0.196   4.336 -0.6052 -2.2207 -0.8270
 9000SOL     OW38635   2.663   4.485   3.692  0.0295  0.8126  0.0734
 9000SOL    HW138636   2.723   4.429   3.742 -2.1606 -0.4624  1.3135
 9000SOL    HW238637   2.719   4.511   3.619 -1.0438 -0.6569 -1.2616
 9001SOL     OW38638   1.249   1.524   6.219  0.1576 -0.0663 -0.1897
 9001SOL    HW138639   1.303   1.602   6.205  0.0751  0.3105  1.5581
 9001SOL    HW238640   1.198   1.515   6.138 -1.5699 -0.2498  0.9088
 9002SOL     OW38641   2.678   2.766   9.102  0.4279 -0.1946  0.2630
 9002SOL    HW138642   2.753   2.785   9.046 -0.7207  1.5720 -0.6740
 9002SOL    HW238643   2.620   2.725   9.038  0.7810 -2.0512  1.1066
 9003SOL     OW38644   3.209   3.440   2.607  0.1204  0.3531 -0.4232
 9003SOL    HW138645   3.212   3.518   2.551 -0.5083 -0.4984 -1.6415
 9003SOL    HW238646   3.179   3.471   2.692  1.6429  0.7181 -0.0120
 9004SOL     OW38647   3.042   3.494   7.866  0.1091  0.0249  0.2427
 9004SOL    HW138648   3.102   3.524   7.934 -0.8048  0.8533  0.6900
 9004SOL    HW238649   2.966   3.547   7.890  1.5811  2.0204  0.4907
 9005SOL     OW38650   0.982   0.013   1.681  0.5894  0.2925  1.0906
 9005SOL    HW138651   0.999   4.661   1.713 -2.2606 -0.0097  1.7261
 9005SOL    HW238652   0.912   0.039   1.740 -2.6312 -1.1946 -2.0721
 9006SOL     OW38653   0.874   1.344   4.370  0.2547 -0.1115 -0.2584
 9006SOL    HW138654   0.930   1.272   4.400  1.5637  2.2639  2.9015
 9006SOL    HW238655   0.901   1.360   4.280  1.7820  0.1141  0.2477
 9007SOL     OW38656   2.007   4.217   9.034 -0.1120  0.0401 -0.0208
 9007SOL    HW138657   2.091   4.180   9.009 -0.1076  0.3372 -0.4636
 9007SOL    HW238658   2.008   4.211   9.129 -0.2555  1.0296  0.0485
 9008SOL     OW38659   4.051   0.998   8.951  0.1983  0.2049  0.3089
 9008SOL    HW138660   4.071   1.087   8.923  1.4449  0.5209  2.1654
 9008SOL    HW238661   4.135   0.958   8.974  0.1548  0.1828  0.4315
 9009SOL     OW38662   0.892   2.559   9.393  0.0543  0.4516  0.4492
 9009SOL    HW138663   0.967   2.511   9.428 -1.4503 -1.4003  1.1287
 9009SOL    HW238664   0.927   2.590   9.310 -0.9037 -1.2311 -0.5730
 9010SOL     OW38665   3.979   3.855  11.280  0.0870 -0.2548  0.1091
 9010SOL    HW138666   3.891   3.873  11.248  0.0763 -1.3192 -0.4649
 9010SOL    HW238667   4.025   3.818  11.205 -0.1752 -0.8130  0.2280
 9011SOL     OW38668   3.157   2.989   3.737  0.4393 -0.1400  0.0373
 9011SOL    HW138669   3.109   2.988   3.655 -0.8034  3.0640  0.7191
 9011SOL    HW238670   3.173   3.084   3.737 -0.0778 -0.0564 -0.3153
 9012SOL     OW38671   3.692   0.596   0.746 -0.3759  0.1873 -0.0335
 9012SOL    HW138672   3.743   0.517   0.765 -0.3445 -0.2719 -2.0136
 9012SOL    HW238673   3.650   0.617   0.829 -1.7243 -1.3659 -0.3246
 9013SOL     OW38674   1.480   0.099   0.702 -0.3815 -0.1530 -0.3405
 9013SOL    HW138675   1.555   0.047   0.730 -1.5543 -0.2224  2.6423
 9013SOL    HW238676   1.411   0.033   0.693  0.7810 -1.2212 -1.2895
 9014SOL     OW38677   2.884   0.108   5.425  0.6338  0.3638 -0.2730
 9014SOL    HW138678   2.958   0.057   5.460 -0.8501 -1.7657 -0.2243
 9014SOL    HW238679   2.860   0.155   5.506 -1.0094  4.3885 -3.1095
 9015SOL     OW38680   0.052   1.916   8.537  0.4031  0.2841 -0.0282
 9015SOL    HW138681   4.715   1.858   8.555 -1.3829  1.6157 -3.1444
 9015SOL    HW238682   0.118   1.869   8.588  0.3500 -0.7698 -0.9217
 9016SOL     OW38683   2.930   2.684  10.581  0.2646  0.3088  0.3206
 9016SOL    HW138684   3.021   2.711  10.592  0.8676 -2.6750  2.6432
 9016SOL    HW238685   2.950   2.609  10.526  1.1595  1.5249 -1.0085
 9017SOL     OW38686   4.111   0.219   0.170  1.0554 -0.1315  0.0639
 9017SOL    HW138687   4.192   0.246   0.212  0.4823 -0.0898  1.1350
 9017SOL    HW238688   4.063   0.300   0.184 -0.4536 -0.4945 -3.0679
 9018SOL     OW38689   2.451   0.020   8.233 -0.1806  0.5031  0.1711
 9018SOL    HW138690   2.530   0.024   8.178 -0.9266  0.8895 -0.8797
 9018SOL    HW238691   2.433   4.664   8.247  0.6658  0.2390 -0.5150
 9019SOL     OW38692   2.022   1.966   7.820 -0.1412  0.2472 -0.0301
 9019SOL    HW138693   2.103   1.997   7.779 -1.5225  0.0162 -2.9036
 9019SOL    HW238694   1.961   2.026   7.775  0.1623  1.9138  1.7751
 9020SOL     OW38695   0.982   2.364   5.266 -0.1333  0.0095  0.2780
 9020SOL    HW138696   1.062   2.403   5.300 -0.7345  1.5525 -0.0710
 9020SOL    HW238697   0.940   2.351   5.352 -2.1884  2.9578 -0.3069
 9021SOL     OW38698   3.389   1.495   4.467  0.1916  0.3209 -0.6767
 9021SOL    HW138699   3.337   1.575   4.454 -0.7154  0.0088  1.0831
 9021SOL    HW238700   3.458   1.522   4.527  0.2901  1.2106 -1.1862
 9022SOL     OW38701   4.207   2.354   9.501 -0.4624  0.5474 -0.1497
 9022SOL    HW138702   4.291   2.390   9.528 -0.3196 -0.6210  0.9855
 9022SOL    HW238703   4.199   2.286   9.568 -0.9413 -0.0468 -0.7972
 9023SOL     OW38704   2.995   3.988  15.108 -0.3731  0.5263  0.1688
 9023SOL    HW138705   3.088   3.971  15.122 -0.2595 -1.3646 -2.8716
 9023SOL    HW238706   3.000   4.057  15.042 -0.4998  0.2746 -0.1036
 9024SOL     OW38707   2.614   1.079   2.459  0.0684 -0.2663  0.2148
 9024SOL    HW138708   2.700   1.070   2.418 -0.2807  1.4000 -0.9110
 9024SOL    HW238709   2.632   1.091   2.553  0.7497 -5.1307  0.6862
 9025SOL     OW38710   4.247   4.672   4.416 -0.4329  0.5345 -0.6587
 9025SOL    HW138711   4.188   4.618   4.469  0.6050  1.2668  1.2349
 9025SOL    HW238712   4.179   4.706   4.357 -0.7520 -0.9450 -1.1517
 9026SOL     OW38713   3.270   3.087   3.148  0.7614  0.2640 -0.3471
 9026SOL    HW138714   3.334   3.065   3.081 -0.8884 -1.9265 -1.2392
 9026SOL    HW238715   3.325   3.077   3.225 -3.0425 -1.5303  2.1515
 9027SOL     OW38716   3.945   3.765   8.450 -0.0951  0.4220 -0.3281
 9027SOL    HW138717   3.929   3.678   8.486  1.0132 -0.0270 -0.9388
 9027SOL    HW238718   3.855   3.789   8.427 -0.8968 -1.7645  0.5195
 9028SOL     OW38719   3.876   3.072  11.803  0.4460 -0.1458  0.6987
 9028SOL    HW138720   3.958   3.023  11.810  0.9562  0.6230  0.0919
 9028SOL    HW238721   3.811   3.003  11.790  0.8030 -0.7691  2.2365
 9029SOL     OW38722   3.266   3.908  15.072  0.4895  0.2831 -0.2543
 9029SOL    HW138723   3.338   3.970  15.080  0.2360  0.6304 -0.6835
 9029SOL    HW238724   3.289   3.854  14.997  0.1617 -0.4656  0.1859
 9030SOL     OW38725   1.105   1.225  14.169 -0.4377 -0.1739  0.4249
 9030SOL    HW138726   1.032   1.189  14.118  0.0915 -2.0047  0.9585
 9030SOL    HW238727   1.070   1.244  14.257 -1.1743  0.7128 -0.0616
 9031SOL     OW38728   1.235   3.367   7.843  0.2845  0.2907  0.5805
 9031SOL    HW138729   1.296   3.404   7.779  1.4575  0.0395  1.5446
 9031SOL    HW238730   1.171   3.334   7.781  0.7246  2.0151 -0.7910
 9032SOL     OW38731   1.608   3.684  15.550 -0.2877 -0.0488 -0.1778
 9032SOL    HW138732   1.559   3.631  15.487 -0.2298 -0.3321  0.0167
 9032SOL    HW238733   1.612   3.767  15.502 -1.4563  1.4400  2.3214
 9033SOL     OW38734   3.362   1.870   5.544  0.4578  0.2582  0.5097
 9033SOL    HW138735   3.455   1.872   5.523  0.3942  1.0816  0.3378
 9033SOL    HW238736   3.354   1.775   5.553 -2.1957  0.6128  1.8318
 9034SOL     OW38737   1.644   2.470   9.020  0.1195  0.0178  0.7543
 9034SOL    HW138738   1.711   2.458   9.087 -0.9702 -0.1015  1.8385
 9034SOL    HW238739   1.563   2.487   9.069 -1.7483 -0.9179 -2.0241
 9035SOL     OW38740   2.109   2.740   9.954 -0.2906  0.0259  0.6248
 9035SOL    HW138741   2.130   2.739   9.860 -1.2694  1.8093  0.3888
 9035SOL    HW238742   2.147   2.826   9.972  1.2737 -0.3747 -0.7404
 9036SOL     OW38743   4.330   3.610  16.623 -0.1023 -0.5763 -0.1516
 9036SOL    HW138744   4.351   3.533  16.676  2.8339 -0.6951 -1.4919
 9036SOL    HW238745   4.278   3.571  16.552 -0.7670 -0.0319  0.0279
 9037SOL     OW38746   1.855   1.008  14.613 -0.1834  0.0885  0.0383
 9037SOL    HW138747   1.923   0.942  14.600 -0.3106  0.0435 -0.4080
 9037SOL    HW238748   1.782   0.954  14.641 -0.9888  0.8413 -0.6146
 9038SOL     OW38749   0.648   0.549   8.325  0.7275  0.0033  0.3002
 9038SOL    HW138750   0.717   0.542   8.259  1.5296 -1.0194  1.2627
 9038SOL    HW238751   0.652   0.461   8.361 -0.1372  0.4160  1.3988
 9039SOL     OW38752   3.345   1.548   6.873 -0.3723  0.4828  0.4165
 9039SOL    HW138753   3.399   1.486   6.922 -0.0360  0.1599 -0.3706
 9039SOL    HW238754   3.405   1.620   6.853  0.4133 -0.3875 -0.3518
 9040SOL     OW38755   1.441   0.265  12.447  0.3721  0.4219 -0.2095
 9040SOL    HW138756   1.445   0.337  12.384  2.6188  1.0840  0.7044
 9040SOL    HW238757   1.533   0.244  12.460  0.3486  0.3090 -0.2308
 9041SOL     OW38758   0.876   1.205   5.850  0.2268  0.0230  0.3125
 9041SOL    HW138759   0.894   1.173   5.762 -0.4630  0.4628  0.0115
 9041SOL    HW238760   0.786   1.180   5.870 -0.0006  0.3175 -0.3318
 9042SOL     OW38761   4.122   4.302   7.741 -0.0081 -0.5295 -0.4907
 9042SOL    HW138762   4.085   4.366   7.681 -1.8547 -0.5430  0.6165
 9042SOL    HW238763   4.127   4.354   7.821  1.1525  0.6063 -1.3027
 9043SOL     OW38764   3.438   1.208   6.270 -0.0313 -0.1022  0.2620
 9043SOL    HW138765   3.349   1.210   6.306 -0.2300  0.9708 -0.2855
 9043SOL    HW238766   3.422   1.192   6.177  3.1092  0.3530 -0.3296
 9044SOL     OW38767   1.216   0.387   2.511  0.3064  0.1756  0.3008
 9044SOL    HW138768   1.147   0.326   2.485 -0.1169  1.4127 -1.4279
 9044SOL    HW238769   1.211   0.454   2.443  1.1803  1.4649  1.5029
 9045SOL     OW38770   1.503   3.736   8.128 -0.5693  0.4552  0.1995
 9045SOL    HW138771   1.436   3.675   8.095  0.9267 -1.1752  0.1338
 9045SOL    HW238772   1.496   3.813   8.072 -0.9169  0.7112  0.5917
 9046SOL     OW38773   0.701   1.975   9.075 -0.4264  0.1420  0.0739
 9046SOL    HW138774   0.733   2.023   8.998 -0.0012  1.8115  1.2952
 9046SOL    HW238775   0.621   1.933   9.042  0.7260 -0.2121 -2.2584
 9047SOL     OW38776   3.158   0.127   8.544  0.2476 -0.0306 -0.1620
 9047SOL    HW138777   3.231   0.171   8.586 -0.0625  2.1941 -1.9904
 9047SOL    HW238778   3.198   0.116   8.458 -0.0895 -0.0860 -0.3117
 9048SOL     OW38779   1.110   3.769   5.515 -0.2074  0.0811 -0.2111
 9048SOL    HW138780   1.069   3.776   5.601  0.6333 -0.6532  0.2532
 9048SOL    HW238781   1.186   3.717   5.540  0.8972  1.5901 -0.3786
 9049SOL     OW38782   1.498   3.337   8.903  0.1700  0.0886  0.2599
 9049SOL    HW138783   1.409   3.330   8.938  1.0615 -0.1231  2.4612
 9049SOL    HW238784   1.532   3.257   8.944 -0.3991 -0.0253  0.5197
 9050SOL     OW38785   3.869   2.701   3.205  0.0731  0.0327 -0.0888
 9050SOL    HW138786   3.916   2.653   3.136  0.5785  0.2399  0.1117
 9050SOL    HW238787   3.938   2.740   3.259  0.4380  1.8009 -1.8519
 9051SOL     OW38788   1.525   3.321   8.634  0.2694  0.5832 -0.0311
 9051SOL    HW138789   1.616   3.351   8.632 -0.0464  1.5851  0.7779
 9051SOL    HW238790   1.525   3.305   8.728 -0.4525  1.4609  0.1137
 9052SOL     OW38791   4.513   1.098   3.153  0.3890  0.1147 -0.0430
 9052SOL    HW138792   4.534   1.023   3.097 -3.3151 -1.1962  0.3675
 9052SOL    HW238793   4.584   1.088   3.217  1.2484 -2.3382 -1.3619
 9053SOL     OW38794   0.947   1.048   8.253 -0.0184  0.2251 -0.5018
 9053SOL    HW138795   0.952   1.049   8.158  3.4247 -1.7449 -0.3290
 9053SOL    HW238796   1.010   0.980   8.278 -0.3703  0.3337  0.7190
 9054SOL     OW38797   0.778   4.612   0.859  0.1445  0.4100 -0.2691
 9054SOL    HW138798   0.808   4.703   0.867 -0.4214  0.4989  0.8824
 9054SOL    HW238799   0.696   4.625   0.812 -0.3967 -1.0835  0.2823
 9055SOL     OW38800   1.542   2.486   7.142  0.1748  0.3280  0.4505
 9055SOL    HW138801   1.493   2.564   7.115  0.4203  0.1587 -0.4964
 9055SOL    HW238802   1.600   2.473   7.067 -2.2845  0.5275 -1.4704
 9056SOL     OW38803   3.536   1.442   6.147  0.1748 -0.9116 -0.7313
 9056SOL    HW138804   3.495   1.390   6.216 -1.9093 -1.3610 -2.3091
 9056SOL    HW238805   3.592   1.379   6.101  1.2316  0.3891 -1.2261
 9057SOL     OW38806   1.737   3.194  15.175 -0.1398  0.1341  0.4950
 9057SOL    HW138807   1.830   3.174  15.180 -0.5245 -1.0688  2.7427
 9057SOL    HW238808   1.695   3.108  15.168  1.5023 -0.4428 -2.2628
 9058SOL     OW38809   2.634   4.679   8.032  0.7446  0.4897 -0.5693
 9058SOL    HW138810   2.729   4.669   8.037  0.9076  2.5816  0.7782
 9058SOL    HW238811   2.616   4.605   7.975 -0.2653 -0.5397  1.0793
 9059SOL     OW38812   3.735   0.511   5.545  0.0928 -0.3525 -0.2622
 9059SOL    HW138813   3.779   0.466   5.472  0.0603 -1.0793  0.1722
 9059SOL    HW238814   3.700   0.439   5.596  1.4220 -0.0450  1.0802
 9060SOL     OW38815   2.510   4.148   7.947 -0.0343 -0.0842  0.5189
 9060SOL    HW138816   2.564   4.200   7.888 -1.2379 -1.8060 -2.0632
 9060SOL    HW238817   2.577   4.101   7.998 -0.6878 -2.5839 -0.9471
 9061SOL     OW38818   2.128   3.572  11.131  0.1314 -0.2142 -0.3715
 9061SOL    HW138819   2.165   3.563  11.218  2.6954  0.1969 -1.4127
 9061SOL    HW238820   2.176   3.497  11.096 -1.9613 -0.3051 -3.0927
 9062SOL     OW38821   2.040   3.909   5.892 -0.2579  0.3317 -0.2759
 9062SOL    HW138822   2.039   3.827   5.842 -1.1075  1.3641 -1.9512
 9062SOL    HW238823   2.056   3.861   5.974 -0.5527  1.8277  0.6557
 9063SOL     OW38824   3.201   3.248  12.593  0.0887  0.2316 -0.5206
 9063SOL    HW138825   3.122   3.194  12.596  0.9453 -0.8944  1.5209
 9063SOL    HW238826   3.255   3.187  12.543 -3.0531 -0.2591 -3.3422
 9064SOL     OW38827   2.429   3.428  10.561 -0.6821 -0.6733  0.3749
 9064SOL    HW138828   2.438   3.523  10.564  0.6707 -0.8351  1.5011
 9064SOL    HW238829   2.338   3.409  10.537 -0.5412  1.2521 -1.7345
 9065SOL     OW38830   0.107   0.463   7.260 -0.5899  0.1093 -0.1749
 9065SOL    HW138831   0.134   0.550   7.291  1.7670 -0.7130  0.0870
 9065SOL    HW238832   0.083   0.485   7.170 -0.4349 -0.1966 -0.2905
 9066SOL     OW38833   3.033   1.111   5.950 -0.0606 -0.5423 -0.9162
 9066SOL    HW138834   3.030   1.055   5.872 -3.4808 -0.3144 -0.9467
 9066SOL    HW238835   3.017   1.052   6.024 -0.2016 -0.8258 -1.1705
 9067SOL     OW38836   1.447   3.804  17.109 -0.7445  0.0961  0.3494
 9067SOL    HW138837   1.539   3.781  17.095 -0.9120  0.1176 -0.7851
 9067SOL    HW238838   1.413   3.811  17.020 -1.8977  0.3772  0.8060
 9068SOL     OW38839   1.640   4.623   6.204  0.1737 -0.0271 -0.4490
 9068SOL    HW138840   1.583   4.548   6.223 -0.0852 -0.5842 -3.3145
 9068SOL    HW238841   1.727   4.597   6.235  0.2195  1.0350  0.2975
 9069SOL     OW38842   3.554   3.219   4.095 -0.1224  0.4516  0.4222
 9069SOL    HW138843   3.581   3.156   4.029 -1.2425 -0.4424  0.8035
 9069SOL    HW238844   3.640   3.234   4.133  0.5971 -1.0813 -0.6223
 9070SOL     OW38845   2.222   0.693   4.652  0.6290  0.7238  0.0916
 9070SOL    HW138846   2.312   0.721   4.665  0.9584 -0.4139  0.2812
 9070SOL    HW238847   2.235   0.598   4.651 -2.3517  0.3395 -3.2076
 9071SOL     OW38848   1.428   0.328   7.310  0.3270 -0.5630 -0.0591
 9071SOL    HW138849   1.335   0.350   7.311  0.1889 -1.1858  0.8478
 9071SOL    HW238850   1.436   0.299   7.219  0.6068 -0.9322  0.0848
 9072SOL     OW38851   0.183   3.625   0.068 -0.0184  0.5050 -0.2767
 9072SOL    HW138852   0.183   3.696   0.132  1.1044  1.1564 -1.0023
 9072SOL    HW238853   0.235   3.564   0.119 -1.1056 -1.0919 -1.0795
 9073SOL     OW38854   3.269   2.244  10.434  0.3651  0.0474  1.4810
 9073SOL    HW138855   3.199   2.233  10.369  1.0829  0.1786  0.6913
 9073SOL    HW238856   3.246   2.169  10.490  2.1784 -0.4297  1.5798
 9074SOL     OW38857   2.305   1.390   6.590 -0.3440 -0.1916 -0.2321
 9074SOL    HW138858   2.326   1.480   6.566  0.5390 -0.5979 -0.9716
 9074SOL    HW238859   2.320   1.345   6.507  0.5524  2.5872 -1.5399
 9075SOL     OW38860   1.514   3.878  13.691 -0.2794  0.1654  0.2039
 9075SOL    HW138861   1.438   3.823  13.711 -0.1357 -0.6236 -1.4332
 9075SOL    HW238862   1.500   3.909  13.602 -1.0477  1.3488  0.7332
 9076SOL     OW38863   2.506   3.919   8.300 -0.5314 -0.0546  0.0238
 9076SOL    HW138864   2.513   3.929   8.395 -1.5374  1.5064 -0.0716
 9076SOL    HW238865   2.414   3.942   8.284  0.0968  1.2918 -1.7025
 9077SOL     OW38866   4.487   0.516  12.692 -0.3883 -0.2652 -0.1104
 9077SOL    HW138867   4.528   0.581  12.749  1.3576 -1.2670 -0.2274
 9077SOL    HW238868   4.558   0.469  12.649 -0.7767 -1.1335  0.1992
 9078SOL     OW38869   1.906   4.328   5.399 -0.5353 -0.2901 -0.1351
 9078SOL    HW138870   1.985   4.315   5.347 -0.9429 -1.7379 -0.3697
 9078SOL    HW238871   1.850   4.354   5.325  0.3650 -0.0667 -0.7402
 9079SOL     OW38872   4.187   1.542  17.742  0.2357  0.0845  0.0224
 9079SOL    HW138873   4.105   1.569  17.700 -1.2883 -0.6140  2.5032
 9079SOL    HW238874   4.244   1.611  17.709 -0.4017  0.6506  0.1205
 9080SOL     OW38875   2.948   1.836   2.579  0.6311  0.0120  0.2629
 9080SOL    HW138876   3.015   1.821   2.646 -0.1791  0.8027  1.2559
 9080SOL    HW238877   2.999   1.811   2.502  1.0281  1.1276  0.1623
 9081SOL     OW38878   4.307   2.126  11.007  0.3165 -0.1733  0.4823
 9081SOL    HW138879   4.229   2.098  11.056  0.5391 -1.4277  0.1331
 9081SOL    HW238880   4.310   2.217  11.035 -0.2449 -0.2166  0.6789
 9082SOL     OW38881   3.730   4.650  17.512 -0.0260 -0.3831  0.2097
 9082SOL    HW138882   3.784   4.710  17.460 -0.2512 -0.7367 -0.4279
 9082SOL    HW238883   3.774   4.566  17.527 -0.6277 -0.3278  2.2825
 9083SOL     OW38884   1.643   3.920   3.840  0.0092  0.0225  0.3399
 9083SOL    HW138885   1.576   3.855   3.861  0.5332 -0.7431 -0.3982
 9083SOL    HW238886   1.634   3.987   3.908  0.4393 -0.2795  0.6977
 9084SOL     OW38887   2.183   0.996  12.607 -0.1308 -0.4148  0.0364
 9084SOL    HW138888   2.173   1.063  12.676  0.2900  1.9805 -2.2296
 9084SOL    HW238889   2.216   0.922  12.658  0.2450 -0.7465 -0.6925
 9085SOL     OW38890   2.018   1.045   4.726 -0.0683  0.0565  0.1596
 9085SOL    HW138891   2.092   1.043   4.665  0.4249 -0.4727  0.7771
 9085SOL    HW238892   2.054   1.101   4.795 -2.0307 -0.2208  1.4145
 9086SOL     OW38893   0.309   2.796   9.940 -0.1170  0.0281  0.7831
 9086SOL    HW138894   0.383   2.800  10.001 -1.0753 -0.6552  2.0058
 9086SOL    HW238895   0.332   2.717   9.890  0.3664 -0.2518  1.4328
 9087SOL     OW38896   3.731   0.413   2.389  0.4338  0.4413 -0.8085
 9087SOL    HW138897   3.685   0.390   2.308  0.3575  1.2549 -0.9946
 9087SOL    HW238898   3.819   0.380   2.373  1.0629  1.0203  1.5669
 9088SOL     OW38899   3.525   3.500   3.849  0.0862  0.3453 -0.3142
 9088SOL    HW138900   3.469   3.529   3.921  0.1082  0.0299 -0.1709
 9088SOL    HW238901   3.539   3.406   3.863  0.5665  0.3330 -0.8582
 9089SOL     OW38902   2.313   0.743   8.034  0.2999  0.0381  0.9097
 9089SOL    HW138903   2.234   0.688   8.041 -0.2740  0.9419  1.4551
 9089SOL    HW238904   2.374   0.670   8.022  0.6704  0.7984 -2.0156
 9090SOL     OW38905   1.195   4.704   1.481  0.4531 -0.1307  0.1836
 9090SOL    HW138906   1.125   4.709   1.546  0.3863 -0.4327  0.1343
 9090SOL    HW238907   1.233   0.051   1.508  1.7739 -0.7925  0.4022
 9091SOL     OW38908   0.914   0.657  11.898  0.2026  0.2340 -0.3158
 9091SOL    HW138909   0.968   0.600  11.954  0.1446 -0.1898 -0.6913
 9091SOL    HW238910   0.980   0.698  11.842  0.8827 -1.1223 -0.5099
 9092SOL     OW38911   0.896   0.130   8.625  0.1110 -0.2116  0.0112
 9092SOL    HW138912   0.854   0.045   8.613  1.9423 -1.2369  0.8143
 9092SOL    HW238913   0.971   0.101   8.678  0.1246  1.7330  1.0805
 9093SOL     OW38914   0.116   0.763   9.613  0.2120  0.2939 -0.4152
 9093SOL    HW138915   0.024   0.761   9.586  0.3237  1.3073 -0.8865
 9093SOL    HW238916   0.127   0.856   9.634 -0.0459  0.6958 -2.0618
 9094SOL     OW38917   0.992   1.351  16.495  0.0090 -0.2559 -0.5880
 9094SOL    HW138918   1.018   1.437  16.527  2.1803 -1.8469  1.8934
 9094SOL    HW238919   1.076   1.305  16.497  1.8698  3.2463  1.7481
 9095SOL     OW38920   3.048   2.557   9.073  0.2949 -0.0484  0.0702
 9095SOL    HW138921   3.125   2.566   9.017 -0.7339  0.5226 -1.2577
 9095SOL    HW238922   3.038   2.462   9.062  2.8803 -0.5466  2.1308
 9096SOL     OW38923   1.076   0.683   6.603  0.0473  0.8778  0.0830
 9096SOL    HW138924   1.011   0.721   6.662 -2.4297 -0.0089 -2.0570
 9096SOL    HW238925   1.127   0.636   6.668 -1.1778 -1.1471 -0.4156
 9097SOL     OW38926   2.905   4.539   4.313 -0.2913  0.0612 -0.1014
 9097SOL    HW138927   2.986   4.590   4.306 -0.5460  0.4795 -0.0155
 9097SOL    HW238928   2.846   4.584   4.252 -0.8961 -0.6574 -0.0511
 9098SOL     OW38929   3.025   2.246   0.901  0.4244 -0.5317 -0.0108
 9098SOL    HW138930   3.000   2.302   0.975 -0.8704 -1.3274  0.1401
 9098SOL    HW238931   3.012   2.166   0.952 -0.6352 -0.7888 -0.6827
 9099SOL     OW38932   2.097   0.619  15.385  0.6400  0.7769 -0.1911
 9099SOL    HW138933   2.148   0.617  15.304 -0.1130 -0.9957 -0.6151
 9099SOL    HW238934   2.031   0.680  15.351 -0.9564 -2.2847 -2.5022
 9100SOL     OW38935   1.274   0.295  17.405 -0.0841  0.0022  0.0846
 9100SOL    HW138936   1.204   0.270  17.345 -0.4426 -2.6692  1.6467
 9100SOL    HW238937   1.273   0.389  17.383 -0.4659  0.1346  0.6706
 9101SOL     OW38938   3.227   3.567   8.066 -0.0613  0.1800 -0.5035
 9101SOL    HW138939   3.283   3.641   8.090 -0.2481  0.4839 -0.9888
 9101SOL    HW238940   3.298   3.518   8.026  1.1214  0.9734  0.6237
 9102SOL     OW38941   3.543   0.208   9.601 -0.1110  0.6866 -0.6529
 9102SOL    HW138942   3.593   0.230   9.680 -0.7344 -0.5217  0.0701
 9102SOL    HW238943   3.597   0.141   9.559  0.1848  0.4958  0.0264
 9103SOL     OW38944   3.589   2.484  14.837 -0.6987  0.1243 -0.1868
 9103SOL    HW138945   3.506   2.484  14.884  0.9123 -1.6646  2.5966
 9103SOL    HW238946   3.648   2.496  14.911  0.4396 -1.0294 -0.9029
 9104SOL     OW38947   3.267   4.386   1.814  0.2345 -0.3905  0.1961
 9104SOL    HW138948   3.270   4.291   1.825 -0.1262 -0.5231 -0.8246
 9104SOL    HW238949   3.249   4.390   1.720  2.3670  0.8545 -0.1532
 9105SOL     OW38950   0.074   4.070   1.988 -0.0775 -0.0311 -0.6756
 9105SOL    HW138951   0.044   4.161   1.979 -1.8459 -0.5031  0.3453
 9105SOL    HW238952   0.159   4.081   2.032  0.8743  0.8213 -2.7503
 9106SOL     OW38953   4.053   0.153  17.664 -0.2253  0.0432 -0.9077
 9106SOL    HW138954   4.087   0.179   0.004 -0.5631  0.5759 -0.9376
 9106SOL    HW238955   3.960   0.143  17.683 -0.4461 -0.1989 -2.1456
 9107SOL     OW38956   3.010   1.261  10.359 -0.1529  0.5120  0.0494
 9107SOL    HW138957   3.048   1.176  10.337 -0.8569 -0.1240  1.3341
 9107SOL    HW238958   2.927   1.235  10.398 -0.5758  2.6193  0.5361
 9108SOL     OW38959   0.095   4.337  13.851 -0.2427  0.8448  0.1706
 9108SOL    HW138960   0.004   4.364  13.839 -0.8597 -1.5841 -0.5392
 9108SOL    HW238961   0.136   4.424  13.850 -0.6366  1.0482  2.6462
 9109SOL     OW38962   4.313   3.160   7.976 -0.8272 -0.2596  0.1434
 9109SOL    HW138963   4.405   3.161   8.005 -0.4207  1.5230 -1.2809
 9109SOL    HW238964   4.263   3.160   8.058 -0.0901 -1.5773  0.6033
 9110SOL     OW38965   3.655   0.458   8.745  0.0303  0.2532  0.3124
 9110SOL    HW138966   3.565   0.468   8.776 -0.9019  0.0072 -2.3481
 9110SOL    HW238967   3.676   0.540   8.701 -0.6783 -0.4471 -1.3465
 9111SOL     OW38968   3.568   1.048  16.901 -0.0436 -0.4948  0.3080
 9111SOL    HW138969   3.560   0.957  16.872  2.0712 -0.3963 -0.5823
 9111SOL    HW238970   3.659   1.051  16.932  0.3677 -1.2142 -0.8537
 9112SOL     OW38971   0.268   4.657   2.603 -0.3035 -0.3914 -0.0395
 9112SOL    HW138972   0.174   4.645   2.586 -0.1783  0.0338 -1.0360
 9112SOL    HW238973   0.283   0.004   2.560 -1.5828 -0.2967 -0.3100
 9113SOL     OW38974   1.145   0.597  15.234  0.2025 -0.2981  0.3976
 9113SOL    HW138975   1.163   0.541  15.158  0.2988  1.8270 -1.1573
 9113SOL    HW238976   1.178   0.541  15.305 -2.8318  0.3880  2.3537
 9114SOL     OW38977   3.420   2.125   4.655  0.1387  0.1226  0.7675
 9114SOL    HW138978   3.372   2.088   4.581  3.0389 -2.4703  0.2065
 9114SOL    HW238979   3.361   2.098   4.726  1.4270 -0.3265  1.6757
 9115SOL     OW38980   0.020   3.659  14.253  0.0627 -0.0188 -0.3708
 9115SOL    HW138981   4.668   3.639  14.224 -0.0627  3.5446 -2.3705
 9115SOL    HW238982   0.011   3.716  14.329 -0.0605  1.0049 -1.1583
 9116SOL     OW38983   3.421   4.160  14.896  1.0457 -1.1838  0.1605
 9116SOL    HW138984   3.395   4.247  14.867  0.9626 -0.8763  1.1383
 9116SOL    HW238985   3.433   4.119  14.811 -0.0028 -1.9165  0.3619
 9117SOL     OW38986   2.849   2.085  15.772  0.1677  0.1769 -0.1308
 9117SOL    HW138987   2.918   2.053  15.714 -0.0644 -0.0853 -0.2619
 9117SOL    HW238988   2.817   2.163  15.728 -0.6107  0.6682  1.3000
 9118SOL     OW38989   2.695   4.257  16.171 -0.1594 -0.6859  0.6391
 9118SOL    HW138990   2.768   4.291  16.223 -0.0940  1.0001 -0.5345
 9118SOL    HW238991   2.647   4.207  16.236 -1.0657 -2.1900 -1.1964
 9119SOL     OW38992   2.024   1.483   3.894  0.2431 -0.4085 -0.4043
 9119SOL    HW138993   1.978   1.540   3.833 -2.4415  1.6854  3.5935
 9119SOL    HW238994   1.958   1.473   3.963 -0.4710 -0.4894 -1.0959
 9120SOL     OW38995   1.742   3.374   9.644 -0.6533  0.5428 -0.1770
 9120SOL    HW138996   1.688   3.419   9.709  1.4138 -0.9425  2.5715
 9120SOL    HW238997   1.706   3.398   9.559 -0.0715  1.0661 -0.2826
 9121SOL     OW38998   1.150   1.120   4.650  0.1700  0.0734  0.2839
 9121SOL    HW138999   1.224   1.115   4.589 -0.7226  0.2338 -0.8137
 9121SOL    HW239000   1.199   1.102   4.730 -3.2389  1.6700  2.6826
 9122SOL     OW39001   1.304   3.636  16.649 -0.2283  0.2933 -0.2642
 9122SOL    HW139002   1.245   3.566  16.622  0.1460  0.2292 -0.9047
 9122SOL    HW239003   1.361   3.634  16.572  2.5413  0.5775  1.7671
 9123SOL     OW39004   2.310   2.721   3.482  0.1306  0.4840  0.2456
 9123SOL    HW139005   2.270   2.738   3.568 -1.7127 -0.9548 -0.3256
 9123SOL    HW239006   2.261   2.644   3.454  1.5234 -1.3401  2.7484
 9124SOL     OW39007   2.417   2.014   3.209  0.1525  0.0812  0.4179
 9124SOL    HW139008   2.504   2.052   3.194  0.7576 -0.4576  2.6172
 9124SOL    HW239009   2.433   1.923   3.187 -0.5950 -0.3663  1.7698
 9125SOL     OW39010   1.690   4.097   2.089 -0.5541  0.3251 -0.0974
 9125SOL    HW139011   1.644   4.014   2.082  1.3248 -0.7240  0.0892
 9125SOL    HW239012   1.746   4.068   2.161 -0.3257 -3.2031 -1.7169
 9126SOL     OW39013   0.179   4.026  10.732 -0.0575  0.0418  0.0043
 9126SOL    HW139014   0.252   4.059  10.786 -0.3412 -0.4058  0.6703
 9126SOL    HW239015   0.114   4.090  10.762 -0.1601 -1.0268  2.1303
 9127SOL     OW39016   0.443   2.188  14.275 -0.1165 -0.1893 -0.1648
 9127SOL    HW139017   0.365   2.175  14.221  0.2092 -2.5125 -0.0822
 9127SOL    HW239018   0.486   2.262  14.234  0.1152 -1.5565 -2.3658
 9128SOL     OW39019   1.396   3.607  15.726 -0.3433  0.4071 -0.2958
 9128SOL    HW139020   1.465   3.640  15.669  0.6089 -2.3205 -0.7413
 9128SOL    HW239021   1.459   3.553  15.776 -3.0488 -1.7127  0.8065
 9129SOL     OW39022   2.380   0.272  14.166 -0.6487 -0.0212  0.0441
 9129SOL    HW139023   2.342   0.256  14.080 -1.3476 -2.8732  0.8813
 9129SOL    HW239024   2.339   0.355  14.190  0.3844  0.2302  0.9108
 9130SOL     OW39025   2.449   1.120  15.679 -0.2013 -0.4488 -0.5848
 9130SOL    HW139026   2.509   1.193  15.665  1.4208 -1.7314 -0.2931
 9130SOL    HW239027   2.429   1.125  15.773 -0.5834 -0.7611 -0.6466
 9131SOL     OW39028   2.387   2.057   4.358 -0.0131 -0.1834 -0.0705
 9131SOL    HW139029   2.298   2.024   4.371  0.2855 -0.8699  0.2571
 9131SOL    HW239030   2.403   2.102   4.441  1.6469 -2.7295  0.9791
 9132SOL     OW39031   3.499   4.636   6.232 -0.4969  0.0606 -0.0278
 9132SOL    HW139032   3.521   4.591   6.151  0.9182  0.3510  0.1918
 9132SOL    HW239033   3.537   4.582   6.302  0.8959 -1.8795 -2.2921
 9133SOL     OW39034   1.670   2.725   4.375 -0.5603  0.6729 -0.0282
 9133SOL    HW139035   1.689   2.654   4.313 -0.5900 -1.0551  1.9410
 9133SOL    HW239036   1.579   2.713   4.402  0.2224 -1.0970  1.8134
 9134SOL     OW39037   3.297   4.481  12.034 -0.2979 -0.0240 -0.5725
 9134SOL    HW139038   3.384   4.521  12.044 -1.0071  0.9249  1.8427
 9134SOL    HW239039   3.319   4.388  12.032  0.8202  0.2333 -0.1879
 9135SOL     OW39040   2.241   2.393  10.990 -0.2948 -0.1560  0.2551
 9135SOL    HW139041   2.333   2.386  10.962 -0.5716  2.8964 -1.4709
 9135SOL    HW239042   2.190   2.336  10.933  0.0661  0.3621 -0.5888
 9136SOL     OW39043   0.214   3.901   6.200 -0.2754 -0.1756  0.3482
 9136SOL    HW139044   0.201   3.905   6.106 -0.8518 -1.8213  0.3576
 9136SOL    HW239045   0.160   3.827   6.230 -1.6814  0.8935  0.4186
 9137SOL     OW39046   0.633   3.436  17.074  0.1679 -0.3435 -0.3056
 9137SOL    HW139047   0.593   3.355  17.106  0.8864 -0.5943 -0.0406
 9137SOL    HW239048   0.571   3.495  17.118  3.6163  0.6868  3.1269
 9138SOL     OW39049   4.679   3.329   3.655  0.1799 -0.0948  0.0233
 9138SOL    HW139050   4.662   3.314   3.562  1.6065  1.0507 -0.4216
 9138SOL    HW239051   4.591   3.351   3.686 -0.1982  0.0793 -1.1618
 9139SOL     OW39052   0.462   4.709   2.776 -0.1172  0.3849  0.3530
 9139SOL    HW139053   0.422   0.029   2.842  1.8302  1.6264  0.4818
 9139SOL    HW239054   0.386   4.685   2.724  0.0445 -1.5161  1.0058
 9140SOL     OW39055   0.548   3.724   2.822  1.1827  0.4363  0.1860
 9140SOL    HW139056   0.542   3.633   2.849 -1.1588  0.2755 -0.8576
 9140SOL    HW239057   0.577   3.729   2.731  0.4197  2.6749  0.0721
 9141SOL     OW39058   2.513   0.599  10.395  0.0577 -0.0852 -0.1748
 9141SOL    HW139059   2.482   0.685  10.368  0.2343  0.0294 -0.0139
 9141SOL    HW239060   2.449   0.541  10.354 -0.7076 -0.1826  1.1505
 9142SOL     OW39061   4.530   4.083   9.153  0.2375 -0.3177 -0.4276
 9142SOL    HW139062   4.477   4.087   9.073 -2.5304  1.2095  1.5066
 9142SOL    HW239063   4.460   4.090   9.218 -1.6575 -0.7660 -2.3882
 9143SOL     OW39064   0.860   1.865   7.544 -0.4400 -0.0364 -0.8922
 9143SOL    HW139065   0.948   1.866   7.581 -1.6533 -1.6889  2.1217
 9143SOL    HW239066   0.815   1.922   7.606 -0.3596 -1.2180  0.2742
 9144SOL     OW39067   0.118   4.171   7.116 -0.4422 -0.5471 -0.4989
 9144SOL    HW139068   0.129   4.082   7.083  0.2632 -0.4252 -0.5853
 9144SOL    HW239069   0.113   4.214   7.031  0.2719  0.3552 -0.0906
 9145SOL     OW39070   1.187   2.299  16.689  0.1310 -0.6752  0.3107
 9145SOL    HW139071   1.139   2.219  16.713 -2.0860  0.9383  1.3030
 9145SOL    HW239072   1.208   2.328  16.778 -0.2807 -0.1459  0.2388
 9146SOL     OW39073   1.898   4.140   5.986 -0.2284 -0.5105  0.0223
 9146SOL    HW139074   1.903   4.082   6.062  1.4729 -1.8197 -1.1003
 9146SOL    HW239075   1.964   4.097   5.932  0.2407  2.5557 -1.8468
 9147SOL     OW39076   1.821   1.216  15.708 -0.2697  0.2299 -0.0589
 9147SOL    HW139077   1.738   1.248  15.674 -0.1845 -1.0944 -1.4911
 9147SOL    HW239078   1.882   1.275  15.663  2.2918 -0.7683  2.0709
 9148SOL     OW39079   4.532   0.391   8.504 -0.0694 -0.4257 -0.0143
 9148SOL    HW139080   4.576   0.318   8.461 -1.3680 -3.2272  3.3773
 9148SOL    HW239081   4.577   0.376   8.588  0.4991  0.9312 -0.0911
 9149SOL     OW39082   3.268   2.185   9.598  0.0910 -0.0865  0.1711
 9149SOL    HW139083   3.194   2.197   9.657  0.4918 -3.1058  1.2699
 9149SOL    HW239084   3.324   2.120   9.640  0.0494 -0.0491  0.2842
 9150SOL     OW39085   3.839   3.594   2.960 -0.2068  0.7159 -0.3724
 9150SOL    HW139086   3.797   3.518   2.920 -1.5872  0.0854  2.2658
 9150SOL    HW239087   3.908   3.555   3.013  0.5778  1.4146 -0.8773
 9151SOL     OW39088   3.539   0.610   8.266  0.1505 -0.0822 -0.5168
 9151SOL    HW139089   3.524   0.566   8.350 -1.3637  1.0634 -0.1950
 9151SOL    HW239090   3.626   0.648   8.278  0.6351 -0.5017 -2.6815
 9152SOL     OW39091   1.716   2.595  11.480 -0.1291 -0.2934  0.7725
 9152SOL    HW139092   1.675   2.541  11.547  0.9101  0.2335  1.8251
 9152SOL    HW239093   1.792   2.631  11.526  0.2386 -0.6843  0.4683
 9153SOL     OW39094   0.929   1.758  16.747 -0.1256 -0.0537 -0.0409
 9153SOL    HW139095   0.842   1.785  16.775 -1.0605 -3.3738  0.3431
 9153SOL    HW239096   0.932   1.676  16.797 -0.5156  1.9721  3.2272
 9154SOL     OW39097   2.378   1.558   9.120  0.1999  0.0039 -0.1070
 9154SOL    HW139098   2.441   1.629   9.103  0.1433  0.0663 -0.0565
 9154SOL    HW239099   2.425   1.524   9.196 -0.9514 -1.0467  0.1284
 9155SOL     OW39100   4.583   0.615   4.319 -0.3330 -0.4687 -0.4042
 9155SOL    HW139101   4.530   0.542   4.351  1.3225 -1.3899  0.2832
 9155SOL    HW239102   4.530   0.662   4.256  0.3558  1.5399  0.5219
 9156SOL     OW39103   4.725   3.008  17.133 -0.7465 -0.4417  0.1081
 9156SOL    HW139104   4.665   2.975  17.066  0.2593  1.2131 -1.5755
 9156SOL    HW239105   0.063   2.991  17.076 -0.4747  0.0899  0.3021
 9157SOL     OW39106   1.876   2.640   2.753  0.4028  0.2114  0.1418
 9157SOL    HW139107   1.835   2.555   2.740 -1.7730  1.1933  0.4849
 9157SOL    HW239108   1.914   2.628   2.840 -0.3899  0.7910  0.5677
 9158SOL     OW39109   2.497   1.815   1.768  0.0871 -0.1967 -0.1126
 9158SOL    HW139110   2.518   1.867   1.690 -1.0060  2.0482  1.0698
 9158SOL    HW239111   2.490   1.727   1.733  1.1454 -0.2014 -0.2957
 9159SOL     OW39112   0.311   1.844   3.123  0.4656  0.0240  0.2333
 9159SOL    HW139113   0.350   1.803   3.200 -0.5094 -4.1082 -1.4663
 9159SOL    HW239114   0.217   1.839   3.139  0.6652  1.0927  1.6827
 9160SOL     OW39115   2.351   2.901   9.026  0.3989 -0.7187 -0.5926
 9160SOL    HW139116   2.405   2.827   8.999  1.8083  1.2336 -3.0693
 9160SOL    HW239117   2.269   2.897   8.977  1.3855 -0.2156 -2.2574
 9161SOL     OW39118   0.660   2.513  12.854  0.0924 -0.2761 -0.0347
 9161SOL    HW139119   0.623   2.448  12.794  1.5725  1.1502 -2.4682
 9161SOL    HW239120   0.633   2.598  12.819 -1.0365 -0.5821  0.1140
 9162SOL     OW39121   4.515   2.619   3.902  0.0159 -0.0471  0.2090
 9162SOL    HW139122   4.455   2.658   3.839 -1.4449 -2.6135 -0.0057
 9162SOL    HW239123   4.588   2.680   3.888 -1.0418  0.8255 -1.4793
 9163SOL     OW39124   4.581   0.423   8.769  0.7611 -0.2617 -0.7414
 9163SOL    HW139125   4.541   0.508   8.751  0.0987 -0.0877  1.5013
 9163SOL    HW239126   4.579   0.422   8.865  0.2054  1.9177 -0.7286
 9164SOL     OW39127   2.970   1.724   3.940 -0.5353  0.6477  0.8153
 9164SOL    HW139128   2.890   1.676   3.917  0.4954 -0.9054  0.4186
 9164SOL    HW239129   3.027   1.647   3.946  1.0545  1.4874 -3.3175
 9165SOL     OW39130   3.917   1.445   3.481  0.3490  0.5842 -0.0512
 9165SOL    HW139131   3.866   1.368   3.455  2.9537 -1.2532  0.3505
 9165SOL    HW239132   3.851   1.514   3.471  1.4478  1.5074 -1.0744
 9166SOL     OW39133   1.251   2.390   4.827  0.9964 -0.2314  0.2008
 9166SOL    HW139134   1.177   2.452   4.826 -1.5867 -3.3022 -0.4556
 9166SOL    HW239135   1.224   2.342   4.905 -1.2833  2.2153  0.8898
 9167SOL     OW39136   4.169   4.302   7.095 -0.2333  0.0979 -0.0823
 9167SOL    HW139137   4.191   4.368   7.161  0.2273 -0.9011  0.7676
 9167SOL    HW239138   4.084   4.278   7.133 -1.4667  2.0983 -1.5609
 9168SOL     OW39139   4.262   0.311   8.520  0.3569  0.0239 -0.1101
 9168SOL    HW139140   4.236   0.403   8.524  3.3217  0.7233  3.3275
 9168SOL    HW239141   4.351   0.320   8.488  0.3622  1.4571  0.3005
 9169SOL     OW39142   2.136   4.312   8.678 -0.5746  0.5838 -0.1667
 9169SOL    HW139143   2.058   4.361   8.704  0.3394  0.6150  2.5281
 9169SOL    HW239144   2.097   4.255   8.612  0.9986  0.5808 -1.1029
 9170SOL     OW39145   1.977   1.590  17.258  0.1828  0.2712 -0.2493
 9170SOL    HW139146   1.936   1.620  17.176  1.6433 -2.7160 -2.0543
 9170SOL    HW239147   2.053   1.551  17.215 -0.9235 -3.3874  1.1634
 9171SOL     OW39148   3.294   2.885   6.908 -0.0999  0.0540  0.6174
 9171SOL    HW139149   3.307   2.967   6.861 -0.1178 -0.4471 -0.2690
 9171SOL    HW239150   3.204   2.868   6.879  0.8467 -0.6213 -1.9130
 9172SOL     OW39151   0.372   1.230  11.022  0.5417  0.7356  0.4591
 9172SOL    HW139152   0.449   1.283  11.039 -1.2688  4.2886 -2.4265
 9172SOL    HW239153   0.314   1.263  11.091  0.9854 -0.1666  1.2604
 9173SOL     OW39154   4.648   1.665  15.535  0.1023  0.4276  0.1248
 9173SOL    HW139155   4.674   1.757  15.534  2.5949 -0.2694  0.8994
 9173SOL    HW239156   4.727   1.621  15.567 -0.1903 -0.3208 -0.1893
 9174SOL     OW39157   4.640   3.674   4.873  0.2910  0.5316  0.2922
 9174SOL    HW139158   4.616   3.717   4.791  0.4879 -0.8376 -0.4947
 9174SOL    HW239159   4.572   3.607   4.882  1.0979 -0.6143 -2.1484
 9175SOL     OW39160   3.416   3.466   3.612 -0.0776  0.1905 -0.0665
 9175SOL    HW139161   3.441   3.489   3.701  0.2502 -0.3976 -0.0036
 9175SOL    HW239162   3.474   3.521   3.561 -0.2446  0.9485  0.5716
 9176SOL     OW39163   0.423   1.455   4.727  0.0470  0.3079 -0.8644
 9176SOL    HW139164   0.471   1.532   4.757  0.0365 -0.7866  1.9672
 9176SOL    HW239165   0.491   1.391   4.707  0.2710  0.0084  0.8687
 9177SOL     OW39166   2.928   0.535   6.435  0.0277 -0.2918  0.4981
 9177SOL    HW139167   3.002   0.500   6.387  0.8832  0.2617  1.4103
 9177SOL    HW239168   2.856   0.504   6.380  0.7509 -1.2225  0.0709
 9178SOL     OW39169   1.940   4.171   0.880 -0.5705 -0.0558 -0.5676
 9178SOL    HW139170   1.921   4.086   0.920  0.2612  0.5016  0.9841
 9178SOL    HW239171   1.903   4.172   0.792 -1.6214 -0.4309 -0.1247
 9179SOL     OW39172   1.396   3.806   3.515  0.0476 -0.2965 -0.9336
 9179SOL    HW139173   1.467   3.784   3.455  0.5450  1.6749 -1.0765
 9179SOL    HW239174   1.431   3.889   3.547 -0.3479 -0.7517  0.6868
 9180SOL     OW39175   4.716   0.802   4.435  0.2879 -0.2697 -0.3914
 9180SOL    HW139176   0.072   0.777   4.436  0.6939  1.2573 -0.2149
 9180SOL    HW239177   4.684   0.730   4.381  1.2574 -0.8013 -0.2692
 9181SOL     OW39178   4.637   0.986   7.539  0.2088  0.1567 -0.7093
 9181SOL    HW139179   4.547   0.983   7.506 -0.1239  2.1727  0.0182
 9181SOL    HW239180   4.672   0.910   7.492  1.8716 -0.8646  2.1812
 9182SOL     OW39181   3.321   2.379   4.447  0.4415 -0.1109  0.2270
 9182SOL    HW139182   3.250   2.401   4.387 -1.1257 -2.4794  1.2322
 9182SOL    HW239183   3.368   2.463   4.452 -1.0090  0.8381 -2.4388
 9183SOL     OW39184   3.592   2.390  16.532  0.6882  0.0146 -0.0571
 9183SOL    HW139185   3.588   2.388  16.628  0.0878 -1.4182 -0.1117
 9183SOL    HW239186   3.506   2.356  16.507  0.3884  1.0911 -0.4671
 9184SOL     OW39187   2.247   4.247   5.955  0.2747 -0.0879 -0.1312
 9184SOL    HW139188   2.310   4.176   5.942 -0.8142 -1.1975  0.7018
 9184SOL    HW239189   2.220   4.255   5.863  1.1790 -3.4226 -0.6964
 9185SOL     OW39190   4.046   0.479   7.973  0.1750 -0.0999 -0.2113
 9185SOL    HW139191   4.054   0.475   8.068 -0.7788  1.7082 -0.0542
 9185SOL    HW239192   4.131   0.519   7.954  1.3201 -3.0352 -1.3210
 9186SOL     OW39193   2.360   1.891  15.812 -0.4628 -0.7620 -0.2924
 9186SOL    HW139194   2.327   1.933  15.892  0.5548  0.2434 -0.3988
 9186SOL    HW239195   2.288   1.890  15.749 -0.2145  0.8757 -0.6124
 9187SOL     OW39196   1.685   0.884  16.862  0.0395  0.2804 -0.0913
 9187SOL    HW139197   1.735   0.959  16.894 -0.5657  0.9534 -0.7044
 9187SOL    HW239198   1.747   0.865  16.792  0.5617 -0.6620  0.6311
 9188SOL     OW39199   3.929   1.906   9.506 -0.1989 -0.3456 -0.0252
 9188SOL    HW139200   3.866   1.930   9.574 -1.5312 -3.1716 -0.2661
 9188SOL    HW239201   4.009   1.923   9.555 -1.0687  2.4186  0.3937
 9189SOL     OW39202   2.992   0.786   5.011 -0.4483  0.9419 -0.4155
 9189SOL    HW139203   3.046   0.857   5.044  1.4307 -1.4703  1.6613
 9189SOL    HW239204   3.028   0.781   4.922  0.1216  0.7596 -0.1733
 9190SOL     OW39205   0.212   2.794   5.635  0.3161  0.6836  0.1092
 9190SOL    HW139206   0.176   2.789   5.723  0.8928  1.5241  0.3965
 9190SOL    HW239207   0.199   2.709   5.593  2.2155 -0.0388  1.0035
 9191SOL     OW39208   1.877   1.619   7.442 -0.8009  0.1173  0.4215
 9191SOL    HW139209   1.807   1.659   7.492 -2.1914 -2.1127  0.2490
 9191SOL    HW239210   1.888   1.690   7.379 -2.2589 -0.3757 -0.3921
 9192SOL     OW39211   0.383   4.156   5.289  0.2529 -0.6743 -0.0633
 9192SOL    HW139212   0.306   4.175   5.343  0.1259  1.4787 -1.0036
 9192SOL    HW239213   0.338   4.147   5.205 -0.0516 -1.3131  0.1633
 9193SOL     OW39214   3.125   1.401   7.089 -0.4032 -0.0281 -0.3808
 9193SOL    HW139215   3.124   1.323   7.144  0.4602 -0.0406 -0.3839
 9193SOL    HW239216   3.207   1.396   7.039 -1.2780 -1.6999 -1.6197
 9194SOL     OW39217   0.392   1.529  13.974 -0.5536 -0.1146  0.1506
 9194SOL    HW139218   0.356   1.537  14.062 -1.7855  1.2380 -0.4869
 9194SOL    HW239219   0.403   1.434  13.969 -1.6957 -0.1675 -1.5747
 9195SOL     OW39220   2.727   2.153   9.158 -0.7157  0.3716  0.0664
 9195SOL    HW139221   2.791   2.152   9.228  1.5193  1.1228 -1.9833
 9195SOL    HW239222   2.660   2.105   9.208  1.2926 -0.7111  1.7089
 9196SOL     OW39223   3.310   0.283   6.852 -0.0648  0.7479  0.4224
 9196SOL    HW139224   3.386   0.295   6.909 -0.1804  1.1815  0.4820
 9196SOL    HW239225   3.268   0.369   6.852  1.6219  1.5480 -2.0647
 9197SOL     OW39226   2.865   2.636   9.262  0.0691  0.3812 -0.0476
 9197SOL    HW139227   2.804   2.675   9.199  0.9869  0.2333 -1.0431
 9197SOL    HW239228   2.932   2.605   9.201  0.8451 -0.9535  1.4848
 9198SOL     OW39229   4.107   0.261  10.457  0.2496 -0.6632  0.1726
 9198SOL    HW139230   4.157   0.337  10.487  1.0768 -0.3352 -2.0133
 9198SOL    HW239231   4.062   0.242  10.539 -0.7679  0.5416 -0.1002
 9199SOL     OW39232   2.817   0.988   8.642  0.0380 -0.0625  0.3060
 9199SOL    HW139233   2.723   0.986   8.626  0.2200 -2.6729 -0.4724
 9199SOL    HW239234   2.827   0.906   8.692 -0.9788 -0.7976 -0.6929
 9200SOL     OW39235   4.239   3.918   6.056  0.1347 -0.2849 -0.0781
 9200SOL    HW139236   4.192   3.909   6.138 -1.0259 -1.5141 -0.8809
 9200SOL    HW239237   4.170   3.890   5.995  1.5024  2.1663 -2.7805
 9201SOL     OW39238   4.157   4.092   9.622  0.1239 -0.2673 -0.3927
 9201SOL    HW139239   4.186   4.138   9.700 -0.1286  0.6912 -0.8586
 9201SOL    HW239240   4.096   4.026   9.653 -0.4646  0.2832 -0.3658
 9202SOL     OW39241   1.834   1.282   7.542 -0.1263 -0.3645  0.1446
 9202SOL    HW139242   1.788   1.306   7.623 -0.8847 -0.5617 -0.2396
 9202SOL    HW239243   1.764   1.303   7.482  1.3588 -3.2138 -2.5648
 9203SOL     OW39244   3.665   0.146   8.118  0.6755  0.0191 -0.6437
 9203SOL    HW139245   3.681   0.177   8.207 -1.1935 -1.6342  0.2687
 9203SOL    HW239246   3.652   0.233   8.080 -1.5334  0.6998  1.6845
 9204SOL     OW39247   1.328   2.047   5.272  0.4855 -0.2150  0.5717
 9204SOL    HW139248   1.406   1.997   5.298 -1.4504 -2.2298  2.4055
 9204SOL    HW239249   1.338   2.117   5.337  2.2346 -0.7388  0.8841
 9205SOL     OW39250   0.084   1.879  16.778 -0.6190 -0.2221  0.2919
 9205SOL    HW139251   0.133   1.827  16.714  0.0268 -3.1027  3.1323
 9205SOL    HW239252   0.165   1.923  16.805 -1.4046  1.3700  0.0434
 9206SOL     OW39253   2.328   2.463  16.742  0.6970  0.1054  0.8342
 9206SOL    HW139254   2.250   2.506  16.707 -1.0423 -1.0828  3.2378
 9206SOL    HW239255   2.349   2.409  16.666  0.7535 -1.4312  1.9308
 9207SOL     OW39256   0.533   3.737   3.887 -0.0043 -0.1998 -0.0137
 9207SOL    HW139257   0.557   3.765   3.975  0.0592  0.1910 -0.1594
 9207SOL    HW239258   0.504   3.820   3.849 -0.7118  0.0658  1.1142
 9208SOL     OW39259   1.121   4.456   0.667  0.0422  0.3984  0.1531
 9208SOL    HW139260   1.128   4.362   0.684 -0.6446  0.3503  0.1640
 9208SOL    HW239261   1.034   4.466   0.705 -0.1035 -2.5342  0.6515
 9209SOL     OW39262   1.979   4.388   5.961  0.4467 -0.0256  0.1538
 9209SOL    HW139263   2.070   4.368   5.984 -0.2541  0.0224  2.8685
 9209SOL    HW239264   1.936   4.303   5.971 -2.4100  1.1358 -2.3731
 9210SOL     OW39265   0.920   1.033   2.288 -0.0171 -0.8241  0.4480
 9210SOL    HW139266   0.877   1.089   2.224 -0.8425  0.2835  1.9668
 9210SOL    HW239267   0.997   1.090   2.298 -0.0159 -0.7781  0.1714
 9211SOL     OW39268   2.074   4.103   9.939  0.4149 -0.5087  0.3845
 9211SOL    HW139269   2.065   4.068  10.027 -2.0282  1.2588  0.8058
 9211SOL    HW239270   2.133   4.039   9.898  3.5060  2.2583  0.5833
 9212SOL     OW39271   0.818   3.303   8.328  0.3316 -0.0581  0.3341
 9212SOL    HW139272   0.866   3.294   8.246 -0.8338  3.6824 -0.7948
 9212SOL    HW239273   0.862   3.235   8.379  0.6834 -0.1117 -0.0432
 9213SOL     OW39274   2.916   3.952   5.612  0.3269 -0.1655 -0.5260
 9213SOL    HW139275   2.857   4.020   5.580  0.0335  0.1377  0.6582
 9213SOL    HW239276   2.988   3.969   5.551 -0.1120  2.2340 -0.3810
 9214SOL     OW39277   0.831   2.543  13.693 -0.0240 -1.2474 -0.2321
 9214SOL    HW139278   0.840   2.621  13.638  0.0294 -1.5912 -0.7086
 9214SOL    HW239279   0.739   2.521  13.674 -0.2500  1.5791 -2.5352
 9215SOL     OW39280   2.599   1.131   7.219 -0.1644 -0.4648 -0.4176
 9215SOL    HW139281   2.616   1.037   7.228  0.5412 -0.3507 -0.6340
 9215SOL    HW239282   2.513   1.132   7.176  0.0948  2.9765 -0.8940
 9216SOL     OW39283   2.771   2.956  13.360  0.1171  0.0958 -0.7922
 9216SOL    HW139284   2.861   2.950  13.327  0.1225 -4.9630  0.0905
 9216SOL    HW239285   2.750   2.863  13.364  2.2487 -0.2809  1.8104
 9217SOL     OW39286   1.076   2.861   7.745  0.2498 -0.4085  0.1974
 9217SOL    HW139287   1.095   2.940   7.694 -2.1714  0.4000  0.5177
 9217SOL    HW239288   1.117   2.803   7.681  1.1735  0.5631 -0.0857
 9218SOL     OW39289   4.491   0.354   6.196 -0.1338  0.4925 -0.0546
 9218SOL    HW139290   4.580   0.326   6.173 -0.6142  0.3268 -1.7582
 9218SOL    HW239291   4.443   0.273   6.217  0.8548 -0.2007 -0.4683
 9219SOL     OW39292   4.500   3.075   0.695 -0.4463  0.1277  0.4141
 9219SOL    HW139293   4.510   3.068   0.790 -1.0908  1.6590  0.5962
 9219SOL    HW239294   4.442   3.152   0.690 -0.9405 -0.3146 -0.7033
 9220SOL     OW39295   0.783   1.640   7.223  0.3632  0.0572  0.8620
 9220SOL    HW139296   0.773   1.570   7.287  0.2760 -0.6496  0.0714
 9220SOL    HW239297   0.703   1.691   7.235  0.6805  1.1989 -2.0103
 9221SOL     OW39298   0.879   1.661   1.891  0.2915 -0.6638  0.0924
 9221SOL    HW139299   0.861   1.580   1.938  1.0910 -1.9763 -1.9055
 9221SOL    HW239300   0.795   1.706   1.899  1.0691  0.7479  0.3917
 9222SOL     OW39301   0.885   1.509   4.653 -0.2335  0.5165 -0.2746
 9222SOL    HW139302   0.821   1.538   4.587 -0.0896  0.7874 -0.2934
 9222SOL    HW239303   0.964   1.531   4.605  0.4315 -0.4038  0.4022
 9223SOL     OW39304   3.257   1.995  11.153  0.0057 -0.0190 -0.2442
 9223SOL    HW139305   3.245   2.023  11.244 -2.6923 -1.2925 -0.2053
 9223SOL    HW239306   3.352   1.992  11.138  0.2971  0.1718  1.5760
 9224SOL     OW39307   3.851   2.064   1.428  0.4150  0.2166  0.1537
 9224SOL    HW139308   3.927   2.007   1.437  0.7221  0.7124  0.6954
 9224SOL    HW239309   3.808   2.043   1.345  0.4739 -1.4027  0.5315
 9225SOL     OW39310   1.326   2.839   4.742  0.4162 -0.1103 -0.1538
 9225SOL    HW139311   1.389   2.779   4.780 -0.8220 -1.5514 -0.3402
 9225SOL    HW239312   1.250   2.781   4.738  1.6240 -1.7681  1.2023
 9226SOL     OW39313   2.052   1.851   5.283  0.7652  0.6952  0.2603
 9226SOL    HW139314   2.078   1.812   5.366  0.3411 -0.3684 -0.1084
 9226SOL    HW239315   2.081   1.942   5.295 -1.3498  1.1603  1.7693
 9227SOL     OW39316   2.063   3.952   1.890  0.0650 -0.0272  0.3310
 9227SOL    HW139317   2.052   4.006   1.812  0.3343  0.9707  0.9851
 9227SOL    HW239318   2.101   4.020   1.945 -0.2731  1.3118 -1.0911
 9228SOL     OW39319   1.318   3.451  10.480  0.1691 -0.1387 -0.1632
 9228SOL    HW139320   1.257   3.499  10.535  0.8383  2.5705 -1.7833
 9228SOL    HW239321   1.293   3.359  10.488  0.5041 -0.1843  0.3396
 9229SOL     OW39322   3.828   2.005   9.278 -0.0480  0.2331  1.2088
 9229SOL    HW139323   3.871   1.954   9.347  1.7592  0.6694  0.3972
 9229SOL    HW239324   3.835   1.946   9.203 -1.3103  0.8561  0.6063
 9230SOL     OW39325   0.528   1.826   3.854  0.3675 -0.4290  0.0550
 9230SOL    HW139326   0.437   1.800   3.843 -0.0767 -0.2194  3.0405
 9230SOL    HW239327   0.556   1.752   3.908 -0.2140 -1.1370 -0.6276
 9231SOL     OW39328   2.261   2.390   2.800 -0.5851  0.4583  0.3504
 9231SOL    HW139329   2.339   2.432   2.837 -1.1722  1.0396  0.9266
 9231SOL    HW239330   2.243   2.448   2.727  0.1755 -1.0102 -0.9903
 9232SOL     OW39331   1.651   1.223   5.598  0.1373  0.0694 -0.1740
 9232SOL    HW139332   1.646   1.292   5.664 -0.2469  1.1032 -1.2794
 9232SOL    HW239333   1.633   1.275   5.520  0.2359  0.3814  0.0095
 9233SOL     OW39334   3.118   4.578  12.648 -0.4719  0.0636  0.2254
 9233SOL    HW139335   3.070   4.557  12.728  0.6355 -1.9057  0.3566
 9233SOL    HW239336   3.207   4.590  12.679 -1.2041 -0.5324  2.5720
 9234SOL     OW39337   3.765   0.559   4.876 -0.2762  0.0547 -0.4204
 9234SOL    HW139338   3.692   0.500   4.893  0.3326 -0.3858  0.6743
 9234SOL    HW239339   3.832   0.507   4.832  3.7814  2.2151  3.1572
 9235SOL     OW39340   0.408   1.706   2.900  0.3808 -0.3429 -0.1297
 9235SOL    HW139341   0.386   1.758   2.977 -2.7689 -2.1611  0.1790
 9235SOL    HW239342   0.503   1.706   2.917  0.3696 -0.5177 -0.0666
 9236SOL     OW39343   4.580   0.668   7.836 -0.0754  0.3289 -0.1411
 9236SOL    HW139344   4.540   0.679   7.750  0.2423  1.0583 -0.1958
 9236SOL    HW239345   4.659   0.626   7.802 -1.4057 -1.6121 -0.8334
 9237SOL     OW39346   3.924   4.357  13.427  0.4249  0.3550  0.3407
 9237SOL    HW139347   3.856   4.341  13.493  0.2833  1.2006  0.3975
 9237SOL    HW239348   3.881   4.419  13.368  1.4576 -0.3619 -1.1826
 9238SOL     OW39349   1.475   1.514   1.581  0.3151 -0.1305  0.2814
 9238SOL    HW139350   1.480   1.610   1.581 -1.0326 -0.0692 -0.3022
 9238SOL    HW239351   1.448   1.495   1.671 -0.1725  0.7969  0.3263
 9239SOL     OW39352   0.415   0.731  13.931 -0.0914 -0.2862  0.1150
 9239SOL    HW139353   0.452   0.695  13.850 -2.0038  1.8024 -1.7041
 9239SOL    HW239354   0.491   0.771  13.972  0.0045 -0.0565 -0.2929
 9240SOL     OW39355   1.955   0.660  16.476  0.1506  0.2087 -0.3299
 9240SOL    HW139356   1.907   0.673  16.394  0.3609 -1.5910 -0.7598
 9240SOL    HW239357   1.884   0.697  16.529  0.7508  0.6417  0.1613
 9241SOL     OW39358   3.709   1.409   4.898 -0.3536 -0.1522 -0.2325
 9241SOL    HW139359   3.721   1.504   4.899  2.3281 -0.4646 -3.1091
 9241SOL    HW239360   3.620   1.403   4.864 -0.5050  0.4584  0.0548
 9242SOL     OW39361   3.583   0.234   6.492 -0.6244  0.4779  0.0672
 9242SOL    HW139362   3.675   0.256   6.508 -0.0070 -1.0980 -1.4008
 9242SOL    HW239363   3.578   0.201   6.403  2.3520 -1.9784  0.7780
 9243SOL     OW39364   3.752   0.583  13.948  0.2559 -0.1558 -0.6892
 9243SOL    HW139365   3.705   0.653  13.992  0.3933  0.5814 -1.7037
 9243SOL    HW239366   3.694   0.555  13.876 -0.7818  0.6418 -0.1574
 9244SOL     OW39367   3.755   0.115  17.732 -0.2858  0.6222 -0.1016
 9244SOL    HW139368   3.706   0.146  17.656  1.5905 -3.4569 -2.9475
 9244SOL    HW239369   3.720   0.172   0.055 -1.1878  0.7416 -0.6569
 9245SOL     OW39370   0.981   4.503   6.848 -0.6378  0.5617 -0.6703
 9245SOL    HW139371   1.064   4.507   6.801 -0.7543  0.8805 -0.8505
 9245SOL    HW239372   0.970   4.589   6.890 -0.3323  1.6513 -2.7948
 9246SOL     OW39373   0.960   2.587   3.238 -0.1238 -0.4553 -0.0027
 9246SOL    HW139374   0.965   2.516   3.175 -1.2354  0.9895 -1.7358
 9246SOL    HW239375   1.009   2.552   3.312 -0.5994 -1.5413 -0.2091
 9247SOL     OW39376   2.169   1.768   4.604 -0.2472 -0.0789  0.5516
 9247SOL    HW139377   2.136   1.826   4.535  0.1420  0.2841  0.6681
 9247SOL    HW239378   2.123   1.806   4.679 -1.0124  3.2290 -1.5739
 9248SOL     OW39379   2.933   2.187  16.844 -0.0689 -0.1353  0.7142
 9248SOL    HW139380   2.961   2.153  16.929  1.5477  3.7703  1.7704
 9248SOL    HW239381   2.839   2.172  16.834 -0.1176  0.7030 -0.0593
 9249SOL     OW39382   2.569   3.448  11.849 -0.1963  0.2380 -0.1869
 9249SOL    HW139383   2.614   3.394  11.914 -0.6077 -2.0915 -1.8487
 9249SOL    HW239384   2.524   3.512  11.905  0.7723  1.5716 -0.9171
 9250SOL     OW39385   2.079   0.511   6.685  0.1063 -0.3535  0.5247
 9250SOL    HW139386   2.067   0.593   6.635  1.6996  0.4052  1.4150
 9250SOL    HW239387   2.024   0.455   6.630  0.8186 -0.2936 -0.2511
 9251SOL     OW39388   2.875   0.041  14.714 -0.5759 -0.0895  0.3696
 9251SOL    HW139389   2.819   0.012  14.786  0.1147 -1.3415  0.4131
 9251SOL    HW239390   2.956   0.013  14.757 -0.7089  2.3510  2.1848
 9252SOL     OW39391   1.034   4.609   5.635  0.0871 -0.5054  0.7270
 9252SOL    HW139392   1.040   4.625   5.540  0.4283 -0.0277  0.8254
 9252SOL    HW239393   0.951   4.562   5.643  0.9102 -1.9105  1.0021
 9253SOL     OW39394   0.667   2.063  17.197  0.0663 -0.3925 -0.0113
 9253SOL    HW139395   0.661   2.001  17.270 -2.3991  0.6633  0.6622
 9253SOL    HW239396   0.761   2.068  17.179 -0.0259  1.0876 -0.0296
 9254SOL     OW39397   3.889   0.657   2.620 -0.4727 -0.8449  0.5227
 9254SOL    HW139398   3.794   0.668   2.625 -0.3960 -0.1071  0.2774
 9254SOL    HW239399   3.888   0.563   2.640 -0.3992 -0.4588  2.3299
 9255SOL     OW39400   0.752   1.816   9.636  0.2964  0.7010  0.0217
 9255SOL    HW139401   0.820   1.882   9.629  1.4312 -0.1743  2.7862
 9255SOL    HW239402   0.761   1.781   9.548  0.8402  0.5975  0.1218
 9256SOL     OW39403   3.178   1.240  13.741  0.2028 -0.4633 -0.7771
 9256SOL    HW139404   3.130   1.190  13.806  2.8938  0.4365  1.9194
 9256SOL    HW239405   3.269   1.224  13.768 -0.0818  0.1820  0.5594
 9257SOL     OW39406   4.364   2.141  14.062  0.0233  0.1392  0.2752
 9257SOL    HW139407   4.372   2.128  13.968 -1.3692  0.0795  0.1763
 9257SOL    HW239408   4.364   2.234  14.085 -0.3339  0.0507  0.6250
 9258SOL     OW39409   3.278   3.269   5.871 -0.1084  0.3418  0.0856
 9258SOL    HW139410   3.266   3.179   5.840  0.2361 -0.3384  1.9638
 9258SOL    HW239411   3.260   3.267   5.965  1.8917 -0.5980  0.4601
 9259SOL     OW39412   4.722   4.079   8.227  0.5705 -0.0520 -0.3178
 9259SOL    HW139413   4.646   4.076   8.285 -1.3683  0.9849 -2.7915
 9259SOL    HW239414   0.023   3.991   8.231  1.2714  0.2418 -0.5248
 9260SOL     OW39415   3.269   0.818   2.459  0.3713  0.5231  0.0278
 9260SOL    HW139416   3.239   0.902   2.492 -1.6085 -0.1527 -0.0607
 9260SOL    HW239417   3.315   0.847   2.380  0.9088 -1.0884 -0.2639
 9261SOL     OW39418   2.340   0.245  17.212  0.2664 -0.1983  0.3009
 9261SOL    HW139419   2.394   0.168  17.195 -1.4309 -1.2084 -0.5338
 9261SOL    HW239420   2.401   0.314  17.187 -2.4766  3.1425  2.8247
 9262SOL     OW39421   4.410   3.237  16.685  0.4226 -0.2384  0.3705
 9262SOL    HW139422   4.376   3.290  16.757  1.5797 -0.1196  0.8297
 9262SOL    HW239423   4.356   3.158  16.687  0.2783 -0.1104  1.5266
 9263SOL     OW39424   3.322   3.827  16.468 -0.1666  0.2523 -0.3822
 9263SOL    HW139425   3.252   3.893  16.459 -2.6935 -2.4774 -0.7375
 9263SOL    HW239426   3.398   3.861  16.421 -0.4034  1.2195 -0.0730
 9264SOL     OW39427   3.761   0.121   4.919  0.3627 -0.8496 -0.2983
 9264SOL    HW139428   3.803   0.185   4.861  0.0937  0.3971  0.8688
 9264SOL    HW239429   3.753   0.182   4.993 -1.5683 -1.3359 -0.1186
 9265SOL     OW39430   2.614   1.290   3.033 -0.2455  0.1002  0.3452
 9265SOL    HW139431   2.575   1.205   3.052 -1.1709  0.2908 -0.7212
 9265SOL    HW239432   2.693   1.279   2.981 -0.1143  0.4129  0.4760
 9266SOL     OW39433   3.793   0.314  13.733  0.0395  0.7512  0.1354
 9266SOL    HW139434   3.872   0.364  13.709 -0.6355  1.0239 -1.5750
 9266SOL    HW239435   3.731   0.383  13.758 -2.0927 -1.1734  0.0961
 9267SOL     OW39436   2.364   3.943   5.078  0.2023 -0.1439 -0.3352
 9267SOL    HW139437   2.368   4.018   5.020  1.4274 -1.1903 -1.5939
 9267SOL    HW239438   2.454   3.925   5.103  0.2871 -2.2028 -2.0856
 9268SOL     OW39439   3.342   2.098   3.972 -0.3814 -0.1562 -0.1686
 9268SOL    HW139440   3.406   2.071   4.038 -0.8231  2.0501  1.1789
 9268SOL    HW239441   3.361   2.192   3.975 -0.2552 -0.1747 -0.3689
 9269SOL     OW39442   4.484   1.728   7.732  0.3919  0.2273  0.4634
 9269SOL    HW139443   4.579   1.737   7.721  0.3815  0.4669  0.5743
 9269SOL    HW239444   4.450   1.639   7.721  1.3028 -0.2253  1.2813
 9270SOL     OW39445   0.456   4.335  10.177 -0.7977  0.0807 -0.2665
 9270SOL    HW139446   0.427   4.426  10.169  0.0114  0.2698 -1.0244
 9270SOL    HW239447   0.384   4.278  10.152 -1.2562  0.1922  0.8339
 9271SOL     OW39448   1.889   1.820   0.436  0.3171 -0.1973 -0.0308
 9271SOL    HW139449   1.823   1.887   0.422 -0.6845 -1.0444  0.6017
 9271SOL    HW239450   1.940   1.819   0.355 -0.5269  0.5285 -0.5690
 9272SOL     OW39451   1.833   2.833   3.825  0.6433 -0.5860 -0.8532
 9272SOL    HW139452   1.840   2.760   3.763 -1.1398 -0.7432 -0.8805
 9272SOL    HW239453   1.840   2.902   3.759  1.3278  0.8822  0.7352
 9273SOL     OW39454   4.076   2.050   4.169 -0.6486 -0.3919 -0.5129
 9273SOL    HW139455   4.088   2.142   4.192  1.8041 -1.0183  0.6126
 9273SOL    HW239456   3.980   2.053   4.168 -0.6110  0.8776 -0.4994
 9274SOL     OW39457   1.784   2.053   4.632  0.4569  0.7095 -0.2133
 9274SOL    HW139458   1.730   2.124   4.665 -0.9974  0.0218 -1.0910
 9274SOL    HW239459   1.731   1.981   4.667  0.5754  1.1354  0.8390
 9275SOL     OW39460   2.509   2.829   7.568  0.1083  0.1201 -0.2041
 9275SOL    HW139461   2.540   2.840   7.478 -2.4577 -0.8282 -1.1728
 9275SOL    HW239462   2.524   2.734   7.574 -2.2319 -0.2941 -1.0313
 9276SOL     OW39463   4.627   3.201   9.262 -0.3199  0.0252  0.0742
 9276SOL    HW139464   4.603   3.272   9.322 -0.4242 -0.1044  0.1845
 9276SOL    HW239465   4.561   3.221   9.196 -0.0924 -0.3539 -0.2734
 9277SOL     OW39466   4.224   3.062   9.137 -0.4594 -0.3210  0.2474
 9277SOL    HW139467   4.283   3.125   9.096 -0.4483 -0.9284 -0.6768
 9277SOL    HW239468   4.144   3.077   9.087 -0.6667 -2.6059 -0.0987
 9278SOL     OW39469   0.068   2.432   1.375  0.2254  0.2904 -0.3714
 9278SOL    HW139470   0.141   2.468   1.326  0.4515 -2.3411 -1.9213
 9278SOL    HW239471   4.734   2.468   1.321 -0.7857 -0.6846  0.3087
 9279SOL     OW39472   0.904   0.663  15.524  0.1724 -0.2093  0.3371
 9279SOL    HW139473   0.858   0.744  15.547 -0.4543  0.1805 -2.2241
 9279SOL    HW239474   0.928   0.626  15.609  0.2740 -1.8614 -0.4051
 9280SOL     OW39475   0.331   0.066   5.979  0.2752  0.2549  0.2648
 9280SOL    HW139476   0.422   0.086   6.001  0.4070 -0.6693  0.5619
 9280SOL    HW239477   0.345   4.714   5.945 -2.1395 -0.0134 -0.0262
 9281SOL     OW39478   0.680   4.246   4.170 -0.3228 -0.3470  0.5939
 9281SOL    HW139479   0.655   4.331   4.134  0.4654  0.3374  1.6549
 9281SOL    HW239480   0.690   4.255   4.265 -2.6339  0.1808  0.7755
 9282SOL     OW39481   4.713   4.046   0.633  0.1235 -0.0162 -0.3356
 9282SOL    HW139482   4.713   4.136   0.601 -0.5249  1.2989  3.4480
 9282SOL    HW239483   4.671   4.078   0.713 -0.0805 -1.3562  0.0934
 9283SOL     OW39484   2.689   3.035  11.397 -0.2681 -0.6750  0.1362
 9283SOL    HW139485   2.737   3.089  11.334 -0.5606 -0.7367 -0.1397
 9283SOL    HW239486   2.665   3.102  11.461  2.7020 -0.4814  1.0382
 9284SOL     OW39487   2.987   2.020   8.073 -0.1034  0.0667  0.6397
 9284SOL    HW139488   2.913   2.080   8.071 -1.4377 -1.4726  2.5338
 9284SOL    HW239489   2.955   1.938   8.034  0.4141 -1.7297  3.9319
 9285SOL     OW39490   4.240   1.712   5.575  0.3340  0.2966 -0.1765
 9285SOL    HW139491   4.167   1.669   5.619  1.4510 -1.8753 -0.4321
 9285SOL    HW239492   4.302   1.646   5.607  0.5452  0.4142 -0.3461
 9286SOL     OW39493   3.531   2.282   2.069  0.2521 -0.2681  0.6130
 9286SOL    HW139494   3.623   2.308   2.067 -0.2376  1.4638  0.5843
 9286SOL    HW239495   3.536   2.196   2.025  1.9061  0.9043 -1.5075
 9287SOL     OW39496   1.057   3.081   7.569 -0.9038  0.6036 -0.6601
 9287SOL    HW139497   0.994   3.099   7.499 -2.7242 -1.9331  0.3009
 9287SOL    HW239498   1.081   3.169   7.599 -1.0462 -0.2641  2.0192
 9288SOL     OW39499   2.661   0.638   6.696 -0.2538  0.2712 -0.4043
 9288SOL    HW139500   2.677   0.712   6.755 -2.3585  0.4300 -0.0527
 9288SOL    HW239501   2.636   0.696   6.623  0.7338 -3.8086 -3.9972
 9289SOL     OW39502   0.650   4.612  15.693 -0.1649 -0.0956  0.4526
 9289SOL    HW139503   0.719   4.635  15.631  0.0754 -0.1398  0.7052
 9289SOL    HW239504   0.599   4.549  15.642 -3.0650  1.1333  1.8507
 9290SOL     OW39505   1.498   1.379   6.668 -0.2827 -0.2768  0.8379
 9290SOL    HW139506   1.423   1.364   6.611  0.5529 -0.0198 -0.3371
 9290SOL    HW239507   1.519   1.470   6.642 -0.1638 -0.5554 -0.0652
 9291SOL     OW39508   2.892   2.115  13.988 -0.4324  0.3931  0.2996
 9291SOL    HW139509   2.979   2.135  14.024 -1.4695 -1.1919  3.6938
 9291SOL    HW239510   2.911   2.125  13.895  0.1297  0.5867  0.4331
 9292SOL     OW39511   1.438   4.423  13.123  0.3052 -0.2135 -0.3483
 9292SOL    HW139512   1.513   4.405  13.180 -0.7715  1.6071  1.6288
 9292SOL    HW239513   1.490   4.445  13.045 -0.2092  2.5857  0.1227
 9293SOL     OW39514   1.637   2.802  13.892  0.4399 -0.0997 -0.1499
 9293SOL    HW139515   1.679   2.811  13.978  0.3499  0.5297 -0.1737
 9293SOL    HW239516   1.545   2.801  13.919 -0.1588  2.4233 -2.1309
 9294SOL     OW39517   2.312   3.091  16.114  0.5691 -0.0460  0.0487
 9294SOL    HW139518   2.361   3.089  16.196  0.7780 -1.3083 -0.1103
 9294SOL    HW239519   2.252   3.165  16.126  0.9936 -0.0424  2.0510
 9295SOL     OW39520   2.716   4.300   1.332 -0.1816  0.1660 -0.2659
 9295SOL    HW139521   2.748   4.214   1.360  1.5330  0.5135 -1.1522
 9295SOL    HW239522   2.793   4.348   1.303 -0.5716  1.7487  1.3211
 9296SOL     OW39523   2.041   0.617   8.435  0.0205  0.5562  0.2217
 9296SOL    HW139524   2.063   0.562   8.510 -0.1586 -1.3730 -1.1221
 9296SOL    HW239525   1.992   0.548   8.389 -1.6615  1.5908  0.4650
 9297SOL     OW39526   4.080   3.402   2.779 -0.0787  0.3206  0.1656
 9297SOL    HW139527   4.081   3.480   2.724 -0.7326 -0.6937 -1.2915
 9297SOL    HW239528   4.125   3.439   2.854  2.2264 -0.0314 -1.0473
 9298SOL     OW39529   2.184   2.765   6.343  0.5007 -0.3978 -0.3576
 9298SOL    HW139530   2.270   2.787   6.305  1.4178  0.1026  2.0496
 9298SOL    HW239531   2.154   2.850   6.375  2.7684  0.5304 -0.6801
 9299SOL     OW39532   2.293   1.481  13.411  0.1715 -0.0867 -0.4666
 9299SOL    HW139533   2.328   1.413  13.468  0.9416  0.9367  0.2861
 9299SOL    HW239534   2.238   1.425  13.356 -2.2782  2.8695 -1.0537
 9300SOL     OW39535   1.892   1.861  12.589  0.1789 -0.0688 -0.3970
 9300SOL    HW139536   1.871   1.931  12.527 -1.6838 -0.3822 -0.1115
 9300SOL    HW239537   1.830   1.789  12.577 -0.7791  0.6422  0.2910
 9301SOL     OW39538   1.618   4.083  14.383 -0.0171 -0.0694  0.3507
 9301SOL    HW139539   1.524   4.086  14.365  0.2965  1.2658 -1.0228
 9301SOL    HW239540   1.615   4.072  14.478 -1.7768  0.2414  0.3314
 9302SOL     OW39541   0.938   0.405   1.559  0.1390  0.3503  0.0153
 9302SOL    HW139542   0.964   0.352   1.634 -2.6842 -0.7506  0.2202
 9302SOL    HW239543   0.884   0.475   1.596 -1.3493 -1.4834  1.3160
 9303SOL     OW39544   1.088   4.456   7.837  0.2377 -0.0094 -0.2878
 9303SOL    HW139545   1.126   4.488   7.755  0.0392  0.0570 -0.3537
 9303SOL    HW239546   1.070   4.537   7.885 -1.2013  0.2982 -1.3193
 9304SOL     OW39547   0.729   1.364   5.445 -1.1166 -0.2839  0.3898
 9304SOL    HW139548   0.659   1.428   5.437  2.5625  3.7438 -0.1922
 9304SOL    HW239549   0.804   1.404   5.401 -0.6358 -0.5434  0.9696
 9305SOL     OW39550   2.905   4.414  15.079 -0.2087  0.1285 -0.4806
 9305SOL    HW139551   2.847   4.480  15.114  0.7748  1.5748 -1.5733
 9305SOL    HW239552   2.992   4.451  15.093 -0.2308 -0.4420  1.1112
 9306SOL     OW39553   3.167   1.756   8.473  0.3138 -0.3164 -0.0084
 9306SOL    HW139554   3.247   1.775   8.425  0.3421  0.8907  0.5279
 9306SOL    HW239555   3.167   1.660   8.478  1.6485 -0.3492 -0.8188
 9307SOL     OW39556   3.621   1.848   5.502  0.5363  0.3331 -0.6292
 9307SOL    HW139557   3.671   1.770   5.476 -0.5310 -0.7231  0.4603
 9307SOL    HW239558   3.683   1.917   5.482  0.6964  0.1521 -0.7605
 9308SOL     OW39559   0.761   1.918   5.928  0.5035  0.3777  0.3268
 9308SOL    HW139560   0.838   1.943   5.877 -0.0165 -2.5285 -1.9048
 9308SOL    HW239561   0.800   1.900   6.013 -1.1122  1.1757  1.2237
 9309SOL     OW39562   2.148   0.458  11.397  0.1677  0.1251 -0.0492
 9309SOL    HW139563   2.096   0.386  11.433 -1.7957  1.0744 -0.9927
 9309SOL    HW239564   2.221   0.404  11.366  0.2825  1.7171 -2.5632
 9310SOL     OW39565   3.820   0.434   4.477  0.4688 -0.2740 -0.5558
 9310SOL    HW139566   3.832   0.494   4.404 -2.4264  1.7419  0.6149
 9310SOL    HW239567   3.867   0.359   4.441  1.2188  0.4196 -1.0109
 9311SOL     OW39568   4.673   4.137   4.319  0.1243 -0.1534 -0.3209
 9311SOL    HW139569   0.020   4.108   4.283  0.2160  0.2556 -0.4441
 9311SOL    HW239570   4.644   4.065   4.375  0.7998  1.1371  1.7127
 9312SOL     OW39571   4.317   3.870   2.519 -0.0971  0.1435  0.4809
 9312SOL    HW139572   4.289   3.779   2.527  1.1635 -0.3125 -0.3187
 9312SOL    HW239573   4.396   3.870   2.574  1.8503 -1.5534 -2.3152
 9313SOL     OW39574   3.880   3.877   9.702 -0.2334 -0.2380 -0.4783
 9313SOL    HW139575   3.799   3.826   9.704  1.3397 -2.8714 -4.7471
 9313SOL    HW239576   3.890   3.863   9.797 -0.0888  4.6148  0.2386
 9314SOL     OW39577   2.449   2.531   2.899 -0.0410 -0.3364  0.6780
 9314SOL    HW139578   2.527   2.487   2.867 -0.3957 -0.1878 -0.4055
 9314SOL    HW239579   2.466   2.622   2.874 -2.6196 -0.3474 -1.1147
 9315SOL     OW39580   4.535   3.820   2.702 -0.3916  0.1304  0.0004
 9315SOL    HW139581   4.623   3.821   2.664 -0.4830  2.6121 -0.1488
 9315SOL    HW239582   4.546   3.866   2.785 -0.5578 -0.2718  0.2508
 9316SOL     OW39583   1.114   4.017   3.554 -0.6588  0.7569  0.2071
 9316SOL    HW139584   1.030   4.000   3.511 -0.3323  0.6277 -0.3719
 9316SOL    HW239585   1.109   3.993   3.646 -1.1929  0.5353  0.1230
 9317SOL     OW39586   4.273   0.137  12.198  0.3868 -1.0600 -0.3713
 9317SOL    HW139587   4.326   0.134  12.118  1.2043  0.2424  0.1255
 9317SOL    HW239588   4.234   0.049  12.192  2.2598 -1.9476  0.4743
 9318SOL     OW39589   1.832   3.539   1.613 -0.2148  0.1758  0.1781
 9318SOL    HW139590   1.761   3.479   1.590 -0.5303  0.4942  0.3264
 9318SOL    HW239591   1.866   3.555   1.525  0.1579  2.8607  0.8023
 9319SOL     OW39592   1.551   0.948   7.241  0.1012  0.3693  0.2951
 9319SOL    HW139593   1.565   0.924   7.333  2.1180  0.1443 -0.0682
 9319SOL    HW239594   1.480   1.012   7.248  0.4193  0.7519 -0.0121
 9320SOL     OW39595   2.720   0.929   3.032  0.1565  0.4509  0.2771
 9320SOL    HW139596   2.656   0.989   2.994 -0.0708 -1.6433 -2.6328
 9320SOL    HW239597   2.699   0.852   2.979  0.1676  1.0157 -0.5417
 9321SOL     OW39598   4.196   2.439   8.211  0.4977 -0.1994  0.2526
 9321SOL    HW139599   4.288   2.463   8.212 -0.1609  2.3302  0.9265
 9321SOL    HW239600   4.179   2.455   8.119  0.3025  0.7037  0.4395
 9322SOL     OW39601   3.447   2.840   7.488 -0.5311  0.5754  0.0185
 9322SOL    HW139602   3.482   2.766   7.437 -0.3524  0.2361  0.6356
 9322SOL    HW239603   3.527   2.881   7.521 -0.6863  1.2741 -0.4849
 9323SOL     OW39604   2.143   1.028   7.742  0.6888  0.4260  0.3262
 9323SOL    HW139605   2.136   0.965   7.671  1.8266  0.5593  0.0918
 9323SOL    HW239606   2.156   1.116   7.704  0.8317  0.0579 -0.4806
 9324SOL     OW39607   1.523   4.407  14.357 -0.0284 -0.6185 -0.1659
 9324SOL    HW139608   1.600   4.459  14.334 -2.0925  1.9185 -1.3745
 9324SOL    HW239609   1.563   4.321  14.361 -0.0148 -0.5292  1.4172
 9325SOL     OW39610   0.594   4.530   2.917  0.1562 -0.0374  0.0180
 9325SOL    HW139611   0.618   4.469   2.847 -1.5939 -0.4263 -0.2299
 9325SOL    HW239612   0.542   4.596   2.872  0.4473  0.9065  1.0698
 9326SOL     OW39613   2.652   3.886   7.829  0.3626 -0.2430  0.4553
 9326SOL    HW139614   2.665   3.915   7.919 -0.2173 -2.6483  1.3232
 9326SOL    HW239615   2.719   3.939   7.787 -1.6861  1.7622 -0.2978
 9327SOL     OW39616   3.843   1.748   1.155  0.0687  0.1076  0.1542
 9327SOL    HW139617   3.831   1.794   1.072 -0.7219  0.7623  0.6355
 9327SOL    HW239618   3.802   1.807   1.218 -0.1227 -1.2023  1.2548
 9328SOL     OW39619   0.960   0.111   0.844  0.2045  0.2695 -0.3528
 9328SOL    HW139620   0.954   0.188   0.788 -0.6988  0.0969 -0.4837
 9328SOL    HW239621   1.009   0.145   0.919 -0.4379 -0.9777  0.6232
 9329SOL     OW39622   2.126   3.256  15.448  0.1120  0.3697 -0.6249
 9329SOL    HW139623   2.073   3.261  15.527  2.0642  0.4685  0.6639
 9329SOL    HW239624   2.112   3.345  15.414  0.3213  0.3370 -0.7993
 9330SOL     OW39625   2.364   4.144  14.476 -0.7993  0.9627 -0.2053
 9330SOL    HW139626   2.349   4.202  14.402 -3.9538 -1.8081 -1.7622
 9330SOL    HW239627   2.442   4.100  14.441 -0.3057  1.0971  0.7424
 9331SOL     OW39628   2.012   1.409  11.598 -0.8108  0.2158 -0.0335
 9331SOL    HW139629   2.028   1.378  11.687  1.0086  1.5394  0.1165
 9331SOL    HW239630   2.101   1.399  11.562 -0.7854  3.0801 -0.7664
 9332SOL     OW39631   2.317   2.646   1.853  0.2747  0.3149 -0.5547
 9332SOL    HW139632   2.294   2.555   1.836 -0.0448 -0.1508  2.3923
 9332SOL    HW239633   2.270   2.698   1.787  2.7636  0.8511 -1.8872
 9333SOL     OW39634   3.835   1.644   5.462 -0.1591  0.3247  0.1880
 9333SOL    HW139635   3.811   1.563   5.418 -1.3161  2.1340 -2.5106
 9333SOL    HW239636   3.884   1.686   5.391  1.1652 -2.3250 -0.4559
 9334SOL     OW39637   4.508   4.502   2.919 -0.0333 -0.4730 -0.1432
 9334SOL    HW139638   4.583   4.561   2.914  0.5204 -1.0327  1.4615
 9334SOL    HW239639   4.442   4.571   2.908  0.4373 -0.2554 -1.6121
 9335SOL     OW39640   4.391   2.974  12.035  0.0679  0.1015  0.1072
 9335SOL    HW139641   4.320   3.020  11.990 -0.0785 -2.3729 -2.1991
 9335SOL    HW239642   4.468   3.017  11.996 -0.1545  0.8792  0.5367
 9336SOL     OW39643   3.092   1.184   6.284 -0.0754 -0.3889 -0.6572
 9336SOL    HW139644   3.031   1.225   6.345  1.3330 -0.5317  0.8425
 9336SOL    HW239645   3.126   1.268   6.253  2.3861 -1.1400  0.0214
 9337SOL     OW39646   1.397   3.836  17.374  0.0540  0.2634 -0.1240
 9337SOL    HW139647   1.428   3.835  17.284 -1.1708 -2.6688 -0.5125
 9337SOL    HW239648   1.310   3.861  17.344  1.0122  2.8378 -0.7558
 9338SOL     OW39649   2.744   4.608  15.184  0.2190  0.0965 -0.4076
 9338SOL    HW139650   2.656   4.602  15.221 -0.3462 -2.6104 -2.2040
 9338SOL    HW239651   2.778   4.672  15.247  1.9994 -1.4836  0.2367
 9339SOL     OW39652   0.605   4.054   4.008  0.0710  0.1512  0.4140
 9339SOL    HW139653   0.656   3.979   4.038  0.6271  0.8817  1.2844
 9339SOL    HW239654   0.649   4.119   4.063  1.2687 -1.2284  1.0738
 9340SOL     OW39655   3.194   1.272   6.818 -0.8799  0.1413  0.4679
 9340SOL    HW139656   3.165   1.326   6.744 -0.8166 -3.2109 -1.9771
 9340SOL    HW239657   3.287   1.272   6.794 -0.6526 -2.7945  1.3389
 9341SOL     OW39658   2.044   1.344  13.595 -0.9937  0.2805  0.0520
 9341SOL    HW139659   1.968   1.333  13.652 -0.9445  3.2231  0.6374
 9341SOL    HW239660   2.054   1.439  13.596 -0.7751  0.2339  1.3171
 9342SOL     OW39661   1.212   1.690   4.210  0.1544  0.4800 -0.0985
 9342SOL    HW139662   1.137   1.737   4.174 -1.4906 -0.7583  1.7489
 9342SOL    HW239663   1.264   1.680   4.130  0.2904 -1.0995  0.1849
 9343SOL     OW39664   2.504   3.238   9.714  0.5508 -0.1315 -0.1386
 9343SOL    HW139665   2.472   3.164   9.663 -0.1899  0.3317 -0.3512
 9343SOL    HW239666   2.427   3.293   9.701  0.0473 -0.6186  0.7369
 9344SOL     OW39667   0.237   3.803  12.119 -0.0548  0.4032  0.0649
 9344SOL    HW139668   0.307   3.747  12.153  0.0632 -1.4416 -3.2628
 9344SOL    HW239669   0.281   3.888  12.124  0.3615  0.1125  1.3442
 9345SOL     OW39670   3.939   3.437   8.316  0.8415  0.5467 -0.2907
 9345SOL    HW139671   3.999   3.446   8.242  2.0938  1.6884  0.8857
 9345SOL    HW239672   3.854   3.465   8.281  0.8005  0.8904  0.0848
 9346SOL     OW39673   3.465   3.886   8.669  0.0782  0.1185  0.1777
 9346SOL    HW139674   3.478   3.917   8.580 -1.2010  0.1988  0.0246
 9346SOL    HW239675   3.395   3.943   8.700 -0.0453 -0.4062  0.8566
 9347SOL     OW39676   2.782   0.143  13.401  0.0026 -0.3024 -0.4481
 9347SOL    HW139677   2.773   0.220  13.345 -0.4861 -1.1363 -1.5343
 9347SOL    HW239678   2.844   0.167  13.469 -0.3489  1.8619 -0.8923
 9348SOL     OW39679   0.061   3.707   2.663  0.0665 -0.3133 -0.4384
 9348SOL    HW139680   0.144   3.660   2.650  0.1180 -0.6691  1.2174
 9348SOL    HW239681   0.087   3.797   2.647 -0.8442  0.0302  0.0296
 9349SOL     OW39682   2.985   0.920   0.264  0.2585  0.0643  0.1614
 9349SOL    HW139683   3.020   0.876   0.186 -0.7104  1.0966 -0.8680
 9349SOL    HW239684   2.959   1.002   0.222 -0.0500  0.2782  0.7727
 9350SOL     OW39685   1.279   2.962   8.004  0.4053  0.1946 -0.4480
 9350SOL    HW139686   1.321   2.889   8.050 -0.1986  0.2511  0.1952
 9350SOL    HW239687   1.328   2.978   7.924  0.9188  0.4713 -0.0786
 9351SOL     OW39688   1.785   3.222  14.475 -0.1618 -0.6194 -0.0721
 9351SOL    HW139689   1.763   3.179  14.392 -1.7652  2.8145 -1.4241
 9351SOL    HW239690   1.805   3.312  14.449 -2.7294  0.2433  0.8504
 9352SOL     OW39691   0.875   2.083   6.768 -0.1876 -0.0995  0.0509
 9352SOL    HW139692   0.955   2.087   6.821 -0.1802  2.6180 -0.1529
 9352SOL    HW239693   0.892   2.162   6.716 -1.4748  0.1459  0.0058
 9353SOL     OW39694   0.256   0.611   6.363  0.0715  0.5158 -0.2313
 9353SOL    HW139695   0.350   0.605   6.382 -0.4192  2.1648  2.6960
 9353SOL    HW239696   0.252   0.591   6.270  0.6388  0.6839 -0.2946
 9354SOL     OW39697   3.278   2.230   2.157  0.1388 -0.4049 -0.1293
 9354SOL    HW139698   3.358   2.257   2.112  0.9098 -1.5193  0.5704
 9354SOL    HW239699   3.261   2.160   2.094 -0.5876  0.0557 -0.4497
 9355SOL     OW39700   2.789   2.886  10.306 -0.3326 -0.1882  0.2896
 9355SOL    HW139701   2.768   2.912  10.395 -0.7834 -1.6161  0.5928
 9355SOL    HW239702   2.881   2.863  10.317 -0.0116  0.8197 -0.3105
 9356SOL     OW39703   1.439   2.557   4.238  0.1327 -0.7478  0.3935
 9356SOL    HW139704   1.378   2.628   4.260  1.0957  0.5406 -1.1048
 9356SOL    HW239705   1.387   2.482   4.266 -1.2012 -0.0284 -0.1653
 9357SOL     OW39706   0.048   3.569   7.566 -0.0089  0.0608 -0.0772
 9357SOL    HW139707   0.034   3.498   7.502  1.2275 -0.7003  0.5018
 9357SOL    HW239708   0.108   3.540   7.635 -1.5743  2.7034  2.3823
 9358SOL     OW39709   2.321   2.995  13.192 -0.8004  0.0288 -0.4153
 9358SOL    HW139710   2.367   2.916  13.223 -0.7746  1.2190  2.5646
 9358SOL    HW239711   2.245   2.992  13.251 -0.8484 -0.9548 -0.5185
 9359SOL     OW39712   1.446   4.683   6.736 -0.1243 -0.4203  0.0342
 9359SOL    HW139713   1.460   4.732   6.655 -1.2828  0.0655  0.1299
 9359SOL    HW239714   1.532   4.659   6.772 -0.0965 -0.0416  0.2199
 9360SOL     OW39715   1.833   1.302  14.093  0.0517  0.0291 -0.1588
 9360SOL    HW139716   1.855   1.222  14.045 -0.0565 -0.4936  0.6453
 9360SOL    HW239717   1.760   1.272  14.148 -0.4828  1.4035 -0.1202
 9361SOL     OW39718   4.476   3.990  16.601  0.1740 -0.1045 -0.1475
 9361SOL    HW139719   4.486   3.895  16.606  0.0081 -0.0784  0.6381
 9361SOL    HW239720   4.556   4.023  16.641 -0.6043  0.8014  0.6583
 9362SOL     OW39721   0.730   2.400  16.029  1.1596  0.3045  0.4044
 9362SOL    HW139722   0.721   2.456  16.105  0.0576  2.5396 -1.3699
 9362SOL    HW239723   0.709   2.464  15.961 -1.0376  0.4379  1.2035
 9363SOL     OW39724   0.830   2.972  17.205 -0.1354  0.1275 -0.2140
 9363SOL    HW139725   0.832   3.042  17.270 -1.1993  0.5662 -0.6577
 9363SOL    HW239726   0.740   2.964  17.174 -0.1295  1.2385 -0.5305
 9364SOL     OW39727   4.252   2.948   4.523 -0.3132 -0.1455 -0.3388
 9364SOL    HW139728   4.271   2.936   4.430  0.7741 -2.7753  0.2381
 9364SOL    HW239729   4.163   2.983   4.516 -1.2292 -2.8565 -2.2244
 9365SOL     OW39730   4.299   0.231  13.889  0.0108 -0.2423  0.2016
 9365SOL    HW139731   4.277   0.300  13.952 -2.5275 -0.6045 -0.3110
 9365SOL    HW239732   4.391   0.244  13.866  0.1049  0.1247  0.7845
 9366SOL     OW39733   1.191   2.169   2.223 -0.5723  0.3301  0.6745
 9366SOL    HW139734   1.222   2.235   2.161 -0.9468  1.0425  1.2283
 9366SOL    HW239735   1.276   2.142   2.256  0.2431  2.1676  0.0503
 9367SOL     OW39736   2.764   2.350   2.184 -0.3347  0.4250 -0.3557
 9367SOL    HW139737   2.783   2.299   2.105  1.2248  0.3811  0.0553
 9367SOL    HW239738   2.849   2.388   2.204  0.3831 -1.6673  0.5590
 9368SOL     OW39739   3.543   0.465   7.704  0.0534 -0.2907  0.3997
 9368SOL    HW139740   3.488   0.522   7.759 -1.2146  0.5923 -1.7838
 9368SOL    HW239741   3.496   0.477   7.621 -1.1868 -0.1507  1.1209
 9369SOL     OW39742   4.479   2.415   3.551 -0.5811 -0.4921 -0.0841
 9369SOL    HW139743   4.547   2.349   3.539 -1.3205 -1.7514  2.6800
 9369SOL    HW239744   4.522   2.501   3.553  0.6130 -1.0886 -0.7829
 9370SOL     OW39745   4.400   3.739  17.116 -0.4358 -0.3190 -0.0945
 9370SOL    HW139746   4.490   3.716  17.093 -0.0436  0.9751  0.1269
 9370SOL    HW239747   4.384   3.679  17.189  0.3090  0.7954  0.9850
 9371SOL     OW39748   2.252   4.716   7.377  0.1577 -0.2166 -0.2042
 9371SOL    HW139749   2.293   0.051   7.329  0.2609 -0.1500 -0.0152
 9371SOL    HW239750   2.212   4.681   7.297  0.8088  0.0182 -0.6355
 9372SOL     OW39751   3.943   0.774  10.428 -0.3809 -0.2359  0.0287
 9372SOL    HW139752   3.855   0.747  10.454 -0.5285 -0.4686 -0.6993
 9372SOL    HW239753   3.925   0.836  10.356 -0.5544  1.8709  1.8785
 9373SOL     OW39754   1.777   0.091   0.953  0.0442 -0.1957  0.4078
 9373SOL    HW139755   1.821   0.052   1.029  0.5212 -2.8792 -1.2502
 9373SOL    HW239756   1.698   0.130   0.989 -0.5770 -0.7536 -0.3575
 9374SOL     OW39757   4.276   1.050   8.075  0.2245 -0.0890  0.1131
 9374SOL    HW139758   4.333   1.127   8.075  1.0019 -0.6886 -4.2962
 9374SOL    HW239759   4.335   0.975   8.077  0.5829  0.1679 -0.7106
 9375SOL     OW39760   4.289   2.053  15.623  0.0670  0.1417 -0.1068
 9375SOL    HW139761   4.312   2.137  15.663  0.8233  0.1913 -0.6499
 9375SOL    HW239762   4.311   2.001  15.701 -0.8120 -1.1921 -0.7573
 9376SOL     OW39763   1.041   1.996   4.134 -0.3027  0.4210 -0.5288
 9376SOL    HW139764   1.071   2.019   4.222  0.7341  1.7033 -1.2351
 9376SOL    HW239765   0.948   2.016   4.146  0.1401  2.2413 -0.2898
 9377SOL     OW39766   2.962   0.385   4.701  0.3870  0.1599  0.0877
 9377SOL    HW139767   3.031   0.328   4.668 -0.9299 -2.3925  1.7616
 9377SOL    HW239768   2.910   0.409   4.624  1.5368  1.4861 -0.2662
 9378SOL     OW39769   2.798   0.811  13.436  0.3649 -0.0574  0.3049
 9378SOL    HW139770   2.720   0.783  13.484 -0.4547  0.4740 -0.7102
 9378SOL    HW239771   2.776   0.901  13.414  2.4399  0.6979  1.3235
 9379SOL     OW39772   1.988   1.896  16.182  0.3470  0.1314 -0.1466
 9379SOL    HW139773   1.972   1.978  16.228  3.4103 -0.2028  1.4994
 9379SOL    HW239774   1.954   1.832  16.244 -0.8309  1.1622  0.2731
 9380SOL     OW39775   2.818   0.700   2.160  0.5574  0.5325 -0.2925
 9380SOL    HW139776   2.828   0.654   2.243  1.7901 -0.8897 -1.2264
 9380SOL    HW239777   2.731   0.666   2.139  1.1280 -0.3390 -1.2814
 9381SOL     OW39778   2.205   3.090   1.951 -0.1688 -0.4329 -0.4607
 9381SOL    HW139779   2.120   3.047   1.944 -1.3108  2.0103 -1.4265
 9381SOL    HW239780   2.236   3.031   2.020  1.5254  1.9898  0.8615
 9382SOL     OW39781   3.173   2.734   4.664 -0.3360  0.6082 -0.1554
 9382SOL    HW139782   3.118   2.676   4.613  1.8747 -2.8957  1.4538
 9382SOL    HW239783   3.224   2.770   4.591 -0.4177 -1.1273 -1.0679
 9383SOL     OW39784   0.463   4.595   3.558  0.0872  0.2709 -0.3982
 9383SOL    HW139785   0.468   4.586   3.463  0.9363  0.3051 -0.3520
 9383SOL    HW239786   0.476   4.501   3.570  3.0231  0.8166  0.5270
 9384SOL     OW39787   1.452   3.103   7.805  0.2471 -0.5267 -0.0461
 9384SOL    HW139788   1.506   3.152   7.743 -0.2303  0.4761  0.3216
 9384SOL    HW239789   1.482   3.139   7.888 -3.4558 -0.2419  1.1611
 9385SOL     OW39790   0.837   0.633   8.617  0.3026 -0.2442  0.3180
 9385SOL    HW139791   0.932   0.628   8.623  0.2508 -2.3606 -0.8261
 9385SOL    HW239792   0.809   0.542   8.615  1.2229 -0.5319  0.6979
 9386SOL     OW39793   2.156   1.248  14.092 -0.0814 -0.1729 -0.0756
 9386SOL    HW139794   2.210   1.183  14.138 -0.5807  0.5090  1.4702
 9386SOL    HW239795   2.111   1.280  14.171  1.6218 -0.2464  0.9339
 9387SOL     OW39796   4.207   1.316   9.791  0.0367  0.5446 -0.5017
 9387SOL    HW139797   4.187   1.347   9.703  1.9365  0.3651 -0.9939
 9387SOL    HW239798   4.228   1.223   9.784 -0.7667  0.4047 -1.0434
 9388SOL     OW39799   0.628   2.634   3.238 -0.2285  0.3910 -0.1676
 9388SOL    HW139800   0.698   2.581   3.276 -0.4508  1.6995  2.0554
 9388SOL    HW239801   0.594   2.575   3.171 -3.1838  1.5907  0.2735
 9389SOL     OW39802   2.296   3.559   8.217  0.5103  0.1705 -0.0871
 9389SOL    HW139803   2.349   3.622   8.167  0.0369  2.2488  2.0374
 9389SOL    HW239804   2.329   3.585   8.303  0.4699  2.2565 -0.7019
 9390SOL     OW39805   1.763   1.637   2.196  0.1014  0.1683  0.4502
 9390SOL    HW139806   1.680   1.606   2.233  0.2242 -0.3313  0.3140
 9390SOL    HW239807   1.782   1.586   2.117  1.6272 -1.5849  1.9143
 9391SOL     OW39808   3.775   1.101   7.865  0.7917 -0.3364 -0.3196
 9391SOL    HW139809   3.843   1.035   7.880 -0.0841 -1.6687 -2.2688
 9391SOL    HW239810   3.791   1.128   7.774 -1.9408 -1.0630 -1.0168
 9392SOL     OW39811   2.250   4.639   1.491  0.1204  0.6647  0.1969
 9392SOL    HW139812   2.309   4.628   1.565  0.3170  0.6322  0.0360
 9392SOL    HW239813   2.177   4.581   1.513  0.0500  0.9114  0.6151
 9393SOL     OW39814   0.002   1.122   4.944  0.3213  0.1768 -0.1179
 9393SOL    HW139815   0.032   1.031   4.937 -0.0050 -0.0654  1.5079
 9393SOL    HW239816   4.679   1.115   5.019 -0.6842  0.3455 -0.9029
 9394SOL     OW39817   1.418   4.381   3.308 -0.1531  0.3227  0.1926
 9394SOL    HW139818   1.337   4.431   3.304 -1.1188 -1.1464  1.2060
 9394SOL    HW239819   1.380   4.297   3.336 -2.6499  1.3045 -0.2290
 9395SOL     OW39820   3.215   3.182   5.070 -0.0167 -0.3952 -0.1166
 9395SOL    HW139821   3.202   3.127   5.148  0.8262 -1.6467 -0.8516
 9395SOL    HW239822   3.132   3.176   5.023 -0.4409 -1.3280  0.7485
 9396SOL     OW39823   2.452   4.217   1.966 -0.3675  0.2166  0.3857
 9396SOL    HW139824   2.372   4.194   2.014 -1.0655  1.5131 -0.1408
 9396SOL    HW239825   2.499   4.239   2.047  0.0619  1.4450 -0.2012
 9397SOL     OW39826   3.557   0.325   4.411  0.1723 -0.2053 -0.7020
 9397SOL    HW139827   3.512   0.314   4.495 -1.4712  0.2849 -1.5131
 9397SOL    HW239828   3.637   0.372   4.435 -1.5355  1.2206  2.2567
 9398SOL     OW39829   4.046   3.455   5.507 -0.0521 -0.3635  0.1860
 9398SOL    HW139830   4.064   3.529   5.565  3.6132 -1.3296  0.3077
 9398SOL    HW239831   4.082   3.480   5.422  1.5674 -1.9433  0.3965
 9399SOL     OW39832   0.727   3.307   5.456  0.0727  0.2206  0.5267
 9399SOL    HW139833   0.807   3.282   5.410  0.3111 -1.1037  1.6361
 9399SOL    HW239834   0.725   3.241   5.526 -0.9865  0.3769  0.6390
 9400SOL     OW39835   4.237   0.193   9.210 -0.1588  0.0297 -0.3350
 9400SOL    HW139836   4.242   0.214   9.304  1.7630 -0.0626 -0.4332
 9400SOL    HW239837   4.142   0.181   9.203 -0.5832  2.8328  0.5233
 9401SOL     OW39838   0.083   2.558   9.994 -0.5076 -0.0820  0.2370
 9401SOL    HW139839   0.162   2.601   9.961 -0.8419 -0.0939 -0.5628
 9401SOL    HW239840   0.118   2.499  10.061 -1.2556  0.1756  0.8465
 9402SOL     OW39841   2.913   3.759  11.323 -0.3712  0.0539 -0.0230
 9402SOL    HW139842   2.913   3.845  11.283  1.8837  0.9928  1.9779
 9402SOL    HW239843   2.992   3.752  11.376 -0.0396  2.0150 -0.2745
 9403SOL     OW39844   2.735   4.395  17.523 -0.7635 -0.3907  0.2605
 9403SOL    HW139845   2.715   4.486  17.544 -2.4191 -1.1174  1.8738
 9403SOL    HW239846   2.645   4.364  17.529 -2.5567  4.4387 -1.6793
 9404SOL     OW39847   0.481   3.645  17.220  0.0499  0.0883  0.8006
 9404SOL    HW139848   0.391   3.650  17.252 -0.1313  1.2526  0.1020
 9404SOL    HW239849   0.511   3.736  17.213 -1.0408  0.4096  0.2327
 9405SOL     OW39850   4.419   4.517   4.929 -0.5150 -0.4114 -0.0211
 9405SOL    HW139851   4.355   4.564   4.875 -0.0264  0.0333 -0.2150
 9405SOL    HW239852   4.423   4.579   5.002  1.1902  1.0874 -1.3750
 9406SOL     OW39853   3.677   2.898  11.318 -0.4670  0.2890 -0.4893
 9406SOL    HW139854   3.704   2.965  11.255 -0.8945  0.4569 -0.4954
 9406SOL    HW239855   3.762   2.869  11.350  0.3436 -0.6361 -3.4667
 9407SOL     OW39856   0.737   2.861   6.532 -0.2476  0.4226 -0.7190
 9407SOL    HW139857   0.644   2.876   6.546 -0.3981 -1.3626  0.0935
 9407SOL    HW239858   0.731   2.766   6.536  1.0286  0.4621  1.9137
 9408SOL     OW39859   1.056   4.209  12.986 -0.2921 -0.6642  0.1219
 9408SOL    HW139860   1.078   4.270  12.916 -1.6746 -0.6729 -0.3192
 9408SOL    HW239861   1.137   4.208  13.038  0.6752 -0.0361 -1.3873
 9409SOL     OW39862   2.904   1.476   8.922  0.2788 -0.3326  0.1572
 9409SOL    HW139863   2.931   1.414   8.854 -1.7190  0.6267 -1.4971
 9409SOL    HW239864   2.870   1.546   8.867  0.1143  1.6590  2.7988
 9410SOL     OW39865   2.532   2.207  16.883  0.1074  0.5415  0.1080
 9410SOL    HW139866   2.579   2.193  16.801 -0.7948  1.2817 -0.5310
 9410SOL    HW239867   2.506   2.118  16.908  0.1862 -0.0987 -2.1476
 9411SOL     OW39868   3.134   1.603  13.094 -0.2437 -0.0726 -0.4282
 9411SOL    HW139869   3.061   1.662  13.080 -0.7049 -0.1551  1.6849
 9411SOL    HW239870   3.085   1.527  13.128 -1.2965  0.9050  0.2394
 9412SOL     OW39871   3.251   2.597  16.828 -0.6130 -0.0632 -0.2001
 9412SOL    HW139872   3.190   2.531  16.860  0.8734 -0.7038  1.2412
 9412SOL    HW239873   3.288   2.545  16.757 -0.0519 -0.2853  0.2544
 9413SOL     OW39874   0.602   1.336   9.212  0.5525 -0.2785 -0.1199
 9413SOL    HW139875   0.591   1.414   9.266  1.4036  0.0484 -0.4167
 9413SOL    HW239876   0.623   1.274   9.282  0.0999  1.9034  1.9453
 9414SOL     OW39877   4.701   2.728   6.515  0.0284 -0.2969 -0.3734
 9414SOL    HW139878   0.040   2.779   6.543  0.4705  0.6596 -3.3240
 9414SOL    HW239879   4.701   2.732   6.420  0.9860 -2.5591 -0.4518
 9415SOL     OW39880   2.309   0.604   6.333  0.6185 -0.0311  0.1718
 9415SOL    HW139881   2.246   0.676   6.334  1.1092  0.4558 -2.8870
 9415SOL    HW239882   2.247   0.531   6.326 -0.0398  0.3394  2.2792
 9416SOL     OW39883   0.529   0.869   1.726 -0.1712  0.1376 -0.0791
 9416SOL    HW139884   0.589   0.798   1.751 -1.0141 -0.8884 -0.9702
 9416SOL    HW239885   0.493   0.898   1.809 -0.9363  1.4249 -0.8704
 9417SOL     OW39886   2.951   3.896   4.970 -0.3075 -0.1113  0.2254
 9417SOL    HW139887   2.977   3.810   5.004 -1.4089  0.1542  1.7293
 9417SOL    HW239888   3.038   3.931   4.951 -0.7221 -1.2251 -3.7375
 9418SOL     OW39889   1.430   1.521  10.272  0.6658 -0.2158 -0.0169
 9418SOL    HW139890   1.447   1.525  10.366 -0.6158 -1.8664  0.2887
 9418SOL    HW239891   1.448   1.429  10.253 -1.4765 -0.8213  0.8218
 9419SOL     OW39892   0.973   0.059   9.023 -0.3915  0.1599 -0.4944
 9419SOL    HW139893   0.880   0.053   9.045 -0.2556 -0.6480 -0.0966
 9419SOL    HW239894   0.971   4.736   8.949  2.0050 -0.4998 -0.0472
 9420SOL     OW39895   0.368   2.485   8.702 -0.2651  0.0287 -0.2176
 9420SOL    HW139896   0.369   2.580   8.714  2.0939 -0.1496  1.0285
 9420SOL    HW239897   0.275   2.476   8.682 -0.7055  0.3010  1.6954
 9421SOL     OW39898   0.184   3.609   4.008  0.3687  0.2668 -0.3833
 9421SOL    HW139899   0.143   3.650   4.084 -0.9106  0.1030 -0.9980
 9421SOL    HW239900   0.176   3.688   3.955 -3.8631 -0.7627 -1.2482
 9422SOL     OW39901   2.052   3.124   5.364 -0.3379  0.2549 -0.3266
 9422SOL    HW139902   2.046   3.126   5.460 -0.2147  0.9346 -0.3317
 9422SOL    HW239903   2.075   3.034   5.342  1.2772  0.6554 -0.3005
 9423SOL     OW39904   4.611   2.351  10.131 -0.1003  0.3544  0.9157
 9423SOL    HW139905   4.609   2.261  10.163 -1.6711 -0.2373 -0.8309
 9423SOL    HW239906   4.636   2.392  10.214  0.9099  1.2299  0.1831
 9424SOL     OW39907   1.358   1.317   4.789 -0.5514 -0.1225  0.5417
 9424SOL    HW139908   1.393   1.324   4.700  1.4220  1.7063  1.4582
 9424SOL    HW239909   1.422   1.368   4.838  0.0057 -1.0325  0.7635
 9425SOL     OW39910   4.621   0.392   7.480  0.0572  0.0039  0.2694
 9425SOL    HW139911   4.714   0.410   7.461 -0.2911  0.6867 -0.7911
 9425SOL    HW239912   4.624   0.298   7.498  0.6958 -0.2562 -1.1744
 9426SOL     OW39913   0.817   0.389   7.720  0.3387  0.0256 -0.2776
 9426SOL    HW139914   0.891   0.370   7.662 -1.7305 -2.3888 -2.1371
 9426SOL    HW239915   0.794   0.473   7.680 -0.5919  0.8654  2.0788
 9427SOL     OW39916   4.630   4.457   9.052  0.2540 -0.5136 -0.7050
 9427SOL    HW139917   4.548   4.505   9.043  1.1091  0.7070 -2.0348
 9427SOL    HW239918   4.632   4.394   8.980 -0.1296 -1.4245  0.0856
 9428SOL     OW39919   0.398   3.664   7.345 -0.4368  0.2343  0.0263
 9428SOL    HW139920   0.456   3.622   7.281  2.1899  0.5191  2.2251
 9428SOL    HW239921   0.321   3.650   7.290 -1.1515  1.0816  0.8180
 9429SOL     OW39922   2.553   3.726  10.777 -0.3602  0.5139 -0.3926
 9429SOL    HW139923   2.476   3.755  10.727  0.0182 -1.9241 -2.4055
 9429SOL    HW239924   2.592   3.811  10.758 -0.4329  0.9541  1.4725
 9430SOL     OW39925   2.382   0.106   0.221  0.2668 -0.5723 -0.0169
 9430SOL    HW139926   2.320   0.047   0.177 -0.5597 -0.3807  0.8808
 9430SOL    HW239927   2.344   0.194   0.213 -0.4892 -1.0777 -2.0799
 9431SOL     OW39928   2.027   3.437   9.566 -0.1661  0.3720  0.0906
 9431SOL    HW139929   1.974   3.397   9.634 -0.4966  0.8821  0.1362
 9431SOL    HW239930   1.981   3.521   9.565 -0.7402  0.0064 -3.4064
 9432SOL     OW39931   1.948   0.919   8.480 -0.2758 -0.0062  0.1355
 9432SOL    HW139932   1.871   0.929   8.535  0.3690 -0.5298  1.1228
 9432SOL    HW239933   1.973   0.834   8.517 -0.0478 -0.5119 -1.1848
 9433SOL     OW39934   1.598   3.721   1.271 -0.1600  0.3972  0.2941
 9433SOL    HW139935   1.692   3.699   1.267 -0.4560 -1.1035  1.9698
 9433SOL    HW239936   1.590   3.800   1.324 -0.0441  0.6793 -0.1037
 9434SOL     OW39937   2.155   3.291   5.825  0.2852  0.2120 -0.5787
 9434SOL    HW139938   2.129   3.268   5.736 -4.6324  1.8961  0.4673
 9434SOL    HW239939   2.251   3.290   5.822  0.2644 -0.2555 -1.0201
 9435SOL     OW39940   1.223   4.263   6.697 -0.8466 -0.3043 -0.1809
 9435SOL    HW139941   1.292   4.254   6.631 -0.5159 -1.4300  0.3152
 9435SOL    HW239942   1.204   4.355   6.678  1.3632 -0.0914 -1.3770
 9436SOL     OW39943   1.143   0.957   3.440 -0.0562  0.3453 -1.0236
 9436SOL    HW139944   1.114   0.905   3.365  2.9058  1.4289 -2.9193
 9436SOL    HW239945   1.239   0.962   3.439 -0.0341  0.6191  3.1981
 9437SOL     OW39946   0.508   0.550   0.158  0.7487 -0.6809  0.1298
 9437SOL    HW139947   0.601   0.536   0.140  0.9588  2.0054 -0.9285
 9437SOL    HW239948   0.459   0.567   0.077 -1.8027  0.2214  1.8478
 9438SOL     OW39949   0.397   2.480  16.029  0.2391  0.5461 -0.0537
 9438SOL    HW139950   0.479   2.516  15.995 -0.2374 -0.7441 -2.5637
 9438SOL    HW239951   0.408   2.387  16.010  0.0979  0.7653 -1.1748
 9439SOL     OW39952   3.071   4.232   8.186 -0.4763  0.1490  0.1527
 9439SOL    HW139953   3.036   4.299   8.244 -0.2532  0.9254 -0.6037
 9439SOL    HW239954   3.079   4.276   8.101 -0.8388 -1.5586 -0.7694
 9440SOL     OW39955   2.388   0.314  15.863  0.3575 -0.0765 -0.3121
 9440SOL    HW139956   2.321   0.340  15.800 -1.4481  0.3043  1.7655
 9440SOL    HW239957   2.370   0.221  15.876 -1.1798  0.1310 -0.9802
 9441SOL     OW39958   0.644   3.495   2.244  0.7273  0.2010  1.0407
 9441SOL    HW139959   0.612   3.577   2.282 -1.6098  0.5645 -1.7401
 9441SOL    HW239960   0.606   3.501   2.157 -0.0179  3.2738  1.5909
 9442SOL     OW39961   3.466   3.649  16.223  0.1099 -0.3557 -0.8350
 9442SOL    HW139962   3.463   3.565  16.267  0.2098  0.7501  1.2847
 9442SOL    HW239963   3.374   3.675  16.226 -0.1744 -1.1657 -2.2693
 9443SOL     OW39964   3.460   0.440  14.299  0.1573 -0.1403 -0.1884
 9443SOL    HW139965   3.453   0.512  14.236  1.5793 -0.2729 -0.5106
 9443SOL    HW239966   3.497   0.378  14.236 -0.6620 -0.1627 -0.6374
 9444SOL     OW39967   3.400   1.727   6.421 -0.6628 -0.4001  0.1270
 9444SOL    HW139968   3.436   1.805   6.463  1.6812 -0.2442 -2.1809
 9444SOL    HW239969   3.430   1.737   6.331 -1.3187  1.1522  0.0809
 9445SOL     OW39970   3.402   2.574   4.163  0.2654 -0.3963 -0.0148
 9445SOL    HW139971   3.345   2.650   4.148  0.1964 -0.8545 -1.9752
 9445SOL    HW239972   3.429   2.588   4.254  0.0631 -0.4573  0.0562
 9446SOL     OW39973   0.682   0.615   0.381 -0.0485 -0.1319 -0.0434
 9446SOL    HW139974   0.710   0.678   0.315 -1.0369  0.9651  0.5834
 9446SOL    HW239975   0.590   0.600   0.358  0.2753 -1.3485 -0.5619
 9447SOL     OW39976   1.115   1.439   5.038  0.0942  0.0667 -0.3809
 9447SOL    HW139977   1.034   1.403   5.002 -0.9852  0.9714  1.0949
 9447SOL    HW239978   1.176   1.402   4.974  1.4980  0.2994  0.8250
 9448SOL     OW39979   3.562   3.665   7.340 -0.0252  0.1363 -0.0694
 9448SOL    HW139980   3.512   3.616   7.276 -0.0143  0.5517 -0.3931
 9448SOL    HW239981   3.525   3.613   7.411 -1.6133  0.7438 -0.4694
 9449SOL     OW39982   3.528   2.565   4.435  0.1159  0.3690  0.4392
 9449SOL    HW139983   3.486   2.650   4.451 -0.6363 -0.0777  0.8427
 9449SOL    HW239984   3.572   2.558   4.520 -1.1926 -0.4945  1.0498
 9450SOL     OW39985   3.909   1.489  10.183  0.0242  0.2014  0.3703
 9450SOL    HW139986   3.911   1.580  10.156 -0.7099  0.0814 -0.0731
 9450SOL    HW239987   3.846   1.454  10.121  0.3656 -1.0539  0.7128
 9451SOL     OW39988   1.664   0.442  13.837  0.5395  0.2578 -0.8134
 9451SOL    HW139989   1.584   0.399  13.867  1.3987  0.1670  1.3550
 9451SOL    HW239990   1.683   0.402  13.752 -4.6614 -0.6967 -1.5358
 9452SOL     OW39991   3.583   2.471   1.163 -0.1692  0.1411  0.2676
 9452SOL    HW139992   3.519   2.512   1.221 -0.5745 -0.3157  0.1490
 9452SOL    HW239993   3.530   2.431   1.094 -0.1374  0.3114  0.1461
 9453SOL     OW39994   3.497   3.208   3.746 -0.0696  0.1709 -0.9612
 9453SOL    HW139995   3.530   3.132   3.794 -2.2058 -0.2485 -0.1938
 9453SOL    HW239996   3.404   3.215   3.764  0.2393  3.5270 -0.8160
 9454SOL     OW39997   2.197   4.296   0.949 -0.3855 -0.4539  0.0692
 9454SOL    HW139998   2.124   4.253   0.904 -0.3676  0.3022 -0.6827
 9454SOL    HW239999   2.149   4.364   0.996  0.5390 -1.3627  2.3060
 9455SOL     OW40000   4.198   4.619  12.219 -0.1790 -0.0792  0.0574
 9455SOL    HW140001   4.130   4.574  12.269 -1.3537  0.7235 -0.7939
 9455SOL    HW240002   4.284   4.594  12.252 -0.7975  0.7528  2.2991
 9456SOL     OW40003   0.349   3.287   0.080 -0.2380  0.0936  0.1793
 9456SOL    HW140004   0.437   3.272   0.045  0.6007  0.5340  2.0867
 9456SOL    HW240005   0.373   3.313   0.169 -2.6018  0.9792  0.5499
 9457SOL     OW40006   2.582   1.380   5.109 -0.3511  0.0318 -0.2086
 9457SOL    HW140007   2.569   1.399   5.016 -2.6318 -0.7835 -0.0668
 9457SOL    HW240008   2.569   1.285   5.104 -0.4007 -0.0183  0.8007
 9458SOL     OW40009   1.719   4.372   9.153 -0.3508 -0.0179  0.1246
 9458SOL    HW140010   1.812   4.359   9.174 -0.7132 -0.1791  1.6160
 9458SOL    HW240011   1.677   4.295   9.191 -2.3838  1.6824  1.3094
 9459SOL     OW40012   2.157   2.668   7.524  0.0684  0.1160 -0.3110
 9459SOL    HW140013   2.121   2.756   7.515  1.1612  0.2776 -2.9745
 9459SOL    HW240014   2.216   2.653   7.450  0.7600 -0.9497  0.4569
 9460SOL     OW40015   3.343   4.707  15.234 -0.0149  0.2172 -0.3656
 9460SOL    HW140016   3.325   0.056  15.271  3.2429  1.4104 -1.5700
 9460SOL    HW240017   3.393   4.728  15.155 -1.9669 -0.2718 -1.7249
 9461SOL     OW40018   2.676   3.209   7.107  0.4500 -0.2946 -0.3405
 9461SOL    HW140019   2.662   3.303   7.112 -1.7785 -0.5766 -0.9533
 9461SOL    HW240020   2.766   3.207   7.139  0.0804 -1.3577  0.6798
 9462SOL     OW40021   1.282   1.690   3.934 -0.3240 -0.5088 -0.6138
 9462SOL    HW140022   1.222   1.749   3.889  0.1009  0.9226  0.6917
 9462SOL    HW240023   1.331   1.640   3.868  1.5716  3.4548 -2.1715
 9463SOL     OW40024   3.386   1.715   2.580 -0.2784 -0.1614 -0.1999
 9463SOL    HW140025   3.473   1.747   2.606 -0.9554  1.7451 -0.2901
 9463SOL    HW240026   3.394   1.736   2.487  1.5067 -0.1289 -0.0453
 9464SOL     OW40027   0.367   3.606   1.567 -0.1496  0.6159  0.1081
 9464SOL    HW140028   0.378   3.636   1.658  1.1160  0.6178 -0.0454
 9464SOL    HW240029   0.291   3.548   1.561  1.3568 -1.1754 -1.2769
 9465SOL     OW40030   0.025   0.962   4.155  0.1653  0.6525  0.7506
 9465SOL    HW140031   4.695   1.010   4.203 -0.7005 -0.8409  1.0418
 9465SOL    HW240032   0.103   0.984   4.206 -1.2538 -0.4849  3.3910
 9466SOL     OW40033   1.224   3.129  11.375 -0.9208 -0.2617  0.1566
 9466SOL    HW140034   1.284   3.080  11.319 -1.7221 -1.5228  0.3946
 9466SOL    HW240035   1.200   3.181  11.298  1.4794  0.9932  0.2652
 9467SOL     OW40036   4.638   4.341   0.474  0.0906  0.0556 -0.7358
 9467SOL    HW140037   4.586   4.373   0.400 -2.1556  0.0009  0.8203
 9467SOL    HW240038   4.727   4.359   0.444 -0.1822  0.4502 -1.3252
 9468SOL     OW40039   3.254   0.809  12.529 -0.1400 -0.4987 -0.5435
 9468SOL    HW140040   3.188   0.790  12.596  0.8258  1.0377  0.8322
 9468SOL    HW240041   3.228   0.890  12.485 -2.6519 -0.7024  0.5491
 9469SOL     OW40042   3.023   3.248   8.020 -0.3495 -0.3306 -0.8342
 9469SOL    HW140043   3.074   3.222   8.097 -1.3320  2.5874  0.8007
 9469SOL    HW240044   3.066   3.328   7.991 -1.6953  0.5067 -0.5511
 9470SOL     OW40045   1.760   0.948   3.286  0.3188  0.3831 -0.1371
 9470SOL    HW140046   1.762   1.012   3.357 -3.4940 -0.8563  1.0894
 9470SOL    HW240047   1.800   1.013   3.228 -1.3076  0.5638 -1.0657
 9471SOL     OW40048   3.344   2.536   1.942 -0.2125 -0.1461 -0.1708
 9471SOL    HW140049   3.277   2.468   1.956 -1.8207  1.2482 -1.0729
 9471SOL    HW240050   3.338   2.589   2.022  0.3637 -0.9804  0.4351
 9472SOL     OW40051   2.618   1.107   2.731 -0.1783 -0.4040  1.0840
 9472SOL    HW140052   2.571   1.068   2.805 -1.1841 -0.6925  0.3037
 9472SOL    HW240053   2.563   1.180   2.701 -1.1003 -0.6058  2.2671
 9473SOL     OW40054   0.632   2.408   7.429 -0.2455 -0.0283  0.1310
 9473SOL    HW140055   0.669   2.452   7.353  0.6639  0.7246  1.0022
 9473SOL    HW240056   0.661   2.456   7.507 -1.1791 -1.5993  1.4471
 9474SOL     OW40057   0.674   2.792   0.402 -0.3845  0.3173 -0.6255
 9474SOL    HW140058   0.652   2.858   0.336  0.5502 -1.1958 -2.4438
 9474SOL    HW240059   0.737   2.836   0.459 -1.5520 -0.5337  1.3357
 9475SOL     OW40060   4.556   1.078   2.485 -0.7738  0.5300 -1.0621
 9475SOL    HW140061   4.516   1.161   2.459 -0.0782  1.8162  2.0383
 9475SOL    HW240062   4.517   1.025   2.416  0.7858 -0.7646 -0.9393
 9476SOL     OW40063   1.269   4.415   3.631 -0.0419 -0.0702  0.0486
 9476SOL    HW140064   1.286   4.365   3.551 -1.6145 -0.9332  0.2414
 9476SOL    HW240065   1.217   4.346   3.672 -1.7512  1.2162  0.0325
 9477SOL     OW40066   4.668   1.870  14.501  0.2856 -0.2952  0.3954
 9477SOL    HW140067   4.681   1.958  14.537 -0.0475 -0.1492  0.1518
 9477SOL    HW240068   4.575   1.870  14.478  0.4084  1.3545 -0.1207
 9478SOL     OW40069   3.047   0.756   7.762  0.2255  0.3171  0.0524
 9478SOL    HW140070   3.077   0.816   7.831 -0.0762  0.9272 -0.3430
 9478SOL    HW240071   3.011   0.810   7.691  0.0117 -0.6333 -0.5554
 9479SOL     OW40072   1.694   4.620   7.266 -0.2987  0.0052  0.5030
 9479SOL    HW140073   1.711   4.696   7.322  2.9655 -0.5574  0.2923
 9479SOL    HW240074   1.602   4.646   7.257 -0.1748 -0.3821 -1.8262
 9480SOL     OW40075   3.361   2.380  13.828 -0.1429 -0.0314 -0.2790
 9480SOL    HW140076   3.353   2.301  13.880 -1.6791  2.2422  2.9426
 9480SOL    HW240077   3.455   2.389  13.810  0.4393  1.5978  3.5823
 9481SOL     OW40078   0.832   3.151   7.404 -0.7052 -0.5791  0.4253
 9481SOL    HW140079   0.776   3.146   7.327 -0.3697 -1.0758  0.2116
 9481SOL    HW240080   0.771   3.141   7.477 -0.4356 -2.6446  0.3663
 9482SOL     OW40081   0.948   2.250   9.061 -0.6048 -0.0834 -0.5395
 9482SOL    HW140082   0.878   2.315   9.057 -0.2094  0.3195 -0.9144
 9482SOL    HW240083   0.924   2.191   8.990  0.6070  0.3725 -1.3272
 9483SOL     OW40084   0.286   2.400   5.328  0.0646  0.1921  0.6604
 9483SOL    HW140085   0.329   2.455   5.392  1.4799 -0.5486  0.3418
 9483SOL    HW240086   0.362   2.371   5.278 -0.0517  0.9274  0.0511
 9484SOL     OW40087   1.641   0.386   8.405 -0.0842  0.0831 -0.3884
 9484SOL    HW140088   1.668   0.322   8.470 -2.4116  0.4861  0.9538
 9484SOL    HW240089   1.624   0.463   8.459 -1.6319 -1.2574  1.0511
 9485SOL     OW40090   3.394   2.593   5.554  0.3334  0.4523  0.3164
 9485SOL    HW140091   3.414   2.620   5.464  1.0281  3.3919  1.3652
 9485SOL    HW240092   3.367   2.680   5.583  2.2289  0.7286  1.2533
 9486SOL     OW40093   3.863   0.300   4.751 -0.2583 -0.2762  0.4744
 9486SOL    HW140094   3.815   0.323   4.671  1.8093 -0.8262 -0.9292
 9486SOL    HW240095   3.950   0.327   4.723 -1.0625  0.3656 -1.4036
 9487SOL     OW40096   3.465   0.206   9.927 -0.3105  0.6083 -0.1622
 9487SOL    HW140097   3.413   0.196   9.847 -2.6849  1.9446  1.1860
 9487SOL    HW240098   3.420   0.275   9.977 -3.8703 -1.3393 -0.6408
 9488SOL     OW40099   4.492   0.321   3.597  0.2427 -0.5772  0.4461
 9488SOL    HW140100   4.524   0.405   3.566  0.2046 -0.8124 -0.2272
 9488SOL    HW240101   4.462   0.342   3.686 -0.0356 -2.0899  0.7093
 9489SOL     OW40102   3.876   3.889   9.975  0.3177 -0.1524 -0.1616
 9489SOL    HW140103   3.830   3.824  10.028 -0.1886  1.7625  1.7249
 9489SOL    HW240104   3.828   3.968   9.999  1.1171 -0.1109  1.2813
 9490SOL     OW40105   2.428   4.167  14.791  0.2666  0.2536 -0.2773
 9490SOL    HW140106   2.410   4.162  14.697  0.5421 -1.5036 -0.2372
 9490SOL    HW240107   2.522   4.184  14.797  0.2066  1.3937 -2.6407
 9491SOL     OW40108   1.482   1.796   8.179 -0.1339  0.8264  0.4599
 9491SOL    HW140109   1.566   1.815   8.221 -0.5112 -1.3507  2.2218
 9491SOL    HW240110   1.445   1.884   8.184 -0.7642  0.5298  0.9538
 9492SOL     OW40111   2.436   2.815   6.263  0.4065  0.5544 -0.0564
 9492SOL    HW140112   2.468   2.774   6.182  0.6291 -0.2095  0.4118
 9492SOL    HW240113   2.483   2.769   6.333  1.1662  2.0385  0.3975
 9493SOL     OW40114   4.128   2.908   2.879 -0.4137  0.4687 -0.4270
 9493SOL    HW140115   4.183   2.874   2.950  1.2838  1.6260 -1.1675
 9493SOL    HW240116   4.113   2.826   2.832  0.6088  0.7045 -1.1677
 9494SOL     OW40117   3.664   1.453   8.055 -0.1840 -0.3339 -0.4075
 9494SOL    HW140118   3.708   1.514   7.995  0.0054  0.5425  0.6191
 9494SOL    HW240119   3.628   1.384   8.000 -0.3927 -0.9570  0.5213
 9495SOL     OW40120   4.333   3.462   4.556 -0.2563  0.4614 -0.2016
 9495SOL    HW140121   4.409   3.455   4.613 -1.0254  2.9022  1.1506
 9495SOL    HW240122   4.295   3.549   4.569  0.9033  0.7602  1.2066
 9496SOL     OW40123   1.411   2.881  12.102  0.4438 -0.4628 -0.5011
 9496SOL    HW140124   1.373   2.889  12.015 -1.6351  1.1097  0.5645
 9496SOL    HW240125   1.367   2.951  12.150  2.5336 -0.3858  1.3281
 9497SOL     OW40126   2.520   0.322   2.715  0.2303 -0.0077 -0.0530
 9497SOL    HW140127   2.580   0.266   2.665 -0.4242 -1.3272  0.6254
 9497SOL    HW240128   2.435   0.281   2.699 -0.5771  0.8069  2.1933
 9498SOL     OW40129   2.479   0.714   8.739 -0.4479  0.3706 -0.1315
 9498SOL    HW140130   2.459   0.677   8.653 -0.2242 -1.0852  0.4329
 9498SOL    HW240131   2.427   0.794   8.747 -0.9047 -0.0666  1.3468
 9499SOL     OW40132   2.997   2.846  12.987 -0.2317  0.3714 -0.1958
 9499SOL    HW140133   2.926   2.803  12.940 -1.6816  1.5089  0.9429
 9499SOL    HW240134   3.069   2.786  12.973 -0.0945  0.4588  0.1194
 9500SOL     OW40135   4.725   1.390   1.567  0.4142  0.0242 -0.5336
 9500SOL    HW140136   0.074   1.411   1.603 -0.6439 -0.0403  2.1043
 9500SOL    HW240137   0.004   1.384   1.473  3.3184  0.3638 -0.0481
 9501SOL     OW40138   2.042   0.996   3.291 -0.0920  0.1475  0.7838
 9501SOL    HW140139   2.049   1.043   3.207  1.2997  0.4479  1.0653
 9501SOL    HW240140   2.075   1.070   3.343 -0.3626  1.1367 -0.4480
 9502SOL     OW40141   4.715   4.712   4.960 -0.1789 -0.1246 -0.0755
 9502SOL    HW140142   0.039   4.655   5.007  1.0008  0.7020 -0.5748
 9502SOL    HW240143   4.639   4.654   4.957 -0.0465 -0.4124  2.2568
 9503SOL     OW40144   3.754   2.960   9.563  0.7044  0.2975  0.0148
 9503SOL    HW140145   3.753   2.864   9.560  0.8984  0.3319 -0.9819
 9503SOL    HW240146   3.780   2.980   9.473  0.4291  0.2784 -0.0716
 9504SOL     OW40147   4.481   0.691   8.724  0.4846 -0.1786  0.2207
 9504SOL    HW140148   4.547   0.726   8.665 -0.0319  1.4237  0.6098
 9504SOL    HW240149   4.424   0.767   8.735  0.8897  0.7165 -4.0982
 9505SOL     OW40150   1.151   3.719  14.415 -0.5303 -0.1182  0.5458
 9505SOL    HW140151   1.094   3.750  14.485 -1.0072  1.6988 -0.6420
 9505SOL    HW240152   1.128   3.780  14.344  0.9384 -1.4731 -1.1042
 9506SOL     OW40153   0.667   2.645  11.001  0.2076 -0.1662 -0.3112
 9506SOL    HW140154   0.752   2.686  10.987 -0.5427  1.5316  0.1786
 9506SOL    HW240155   0.667   2.628  11.095  0.4600 -0.0416 -0.2873
 9507SOL     OW40156   2.419   3.595   2.280  0.1774 -0.0917 -0.4339
 9507SOL    HW140157   2.479   3.586   2.206 -2.0665  2.3188 -2.5680
 9507SOL    HW240158   2.475   3.574   2.354  1.1443  0.3102 -1.0485
 9508SOL     OW40159   2.716   2.019  12.796 -0.3222  0.1343 -0.6458
 9508SOL    HW140160   2.693   2.079  12.725 -2.1736  0.9758  0.6737
 9508SOL    HW240161   2.803   1.990  12.768 -0.6464 -0.6579 -0.8223
 9509SOL     OW40162   3.482   1.839  16.717  0.0515  0.2746  0.4732
 9509SOL    HW140163   3.561   1.866  16.670  1.2614  0.1026  2.3866
 9509SOL    HW240164   3.495   1.744  16.720 -2.2527 -0.1088 -2.0259
 9510SOL     OW40165   2.409   1.793   2.800 -0.4483  0.1155  0.5409
 9510SOL    HW140166   2.440   1.702   2.794 -1.6329 -0.3165  0.9411
 9510SOL    HW240167   2.402   1.819   2.708 -0.3612  2.0646  1.0828
 9511SOL     OW40168   2.176   3.252   9.444  0.8567  0.7155  0.3861
 9511SOL    HW140169   2.130   3.318   9.495  1.4599  1.5582 -0.1739
 9511SOL    HW240170   2.117   3.227   9.373  0.7427  3.2356 -0.3966
 9512SOL     OW40171   0.712   4.499   6.393  0.0171 -1.2244 -0.1677
 9512SOL    HW140172   0.796   4.516   6.436  0.0794  4.1335 -2.3700
 9512SOL    HW240173   0.744   4.530   6.308 -1.4150 -1.4130 -0.7867
 9513SOL     OW40174   1.623   2.454   5.788 -0.2530 -0.1111 -0.1816
 9513SOL    HW140175   1.693   2.395   5.760 -0.6590 -0.5462 -0.2820
 9513SOL    HW240176   1.555   2.397   5.822  0.2994 -1.3449 -1.1778
 9514SOL     OW40177   3.698   4.557   0.225  0.1010 -0.0249  0.4781
 9514SOL    HW140178   3.631   4.624   0.219  1.5902  1.4155 -0.0090
 9514SOL    HW240179   3.684   4.527   0.315  0.1378 -1.1670  0.1006
 9515SOL     OW40180   3.828   2.249   2.021  0.2154  0.3669  0.1685
 9515SOL    HW140181   3.897   2.304   2.058 -0.2611  0.4874  0.8768
 9515SOL    HW240182   3.871   2.218   1.942 -1.2549 -0.0766 -0.4564
 9516SOL     OW40183   2.858   4.348   3.307  0.6502  0.5716  0.2813
 9516SOL    HW140184   2.849   4.429   3.355 -0.8920  0.4912  0.1110
 9516SOL    HW240185   2.923   4.301   3.360  1.6106  2.8873  1.1352
 9517SOL     OW40186   3.537   4.402   6.004  0.1774 -0.0575 -0.4560
 9517SOL    HW140187   3.501   4.377   6.089  0.4469 -0.6816 -0.5303
 9517SOL    HW240188   3.491   4.351   5.938  1.9750  0.7846 -2.3534
 9518SOL     OW40189   2.272   2.757   7.997  0.2551  0.3079 -0.4764
 9518SOL    HW140190   2.365   2.758   8.021  1.1571  0.5603 -3.9457
 9518SOL    HW240191   2.276   2.698   7.922 -0.5806 -1.4336  0.8401
 9519SOL     OW40192   1.367   0.490  10.519 -0.2839 -0.4204 -0.0627
 9519SOL    HW140193   1.349   0.416  10.577  0.0306 -1.5517 -1.4247
 9519SOL    HW240194   1.440   0.527  10.569 -0.4693 -2.3858  1.6736
 9520SOL     OW40195   0.226   4.183   7.422 -0.3925  0.4708 -0.0884
 9520SOL    HW140196   0.301   4.136   7.388  0.5650  1.3003  0.8818
 9520SOL    HW240197   0.189   4.197   7.335 -0.7887 -0.3578 -0.0595
 9521SOL     OW40198   1.734   4.101   5.334 -0.2162 -0.6594  0.0031
 9521SOL    HW140199   1.687   4.174   5.374  0.3359  0.1093 -0.7577
 9521SOL    HW240200   1.821   4.117   5.370  0.0153 -1.0041 -0.4081
 9522SOL     OW40201   2.921   1.540   3.245 -0.1075 -0.0712 -0.1155
 9522SOL    HW140202   2.939   1.632   3.223 -1.8272 -0.2335 -2.2669
 9522SOL    HW240203   2.842   1.540   3.300 -0.5670  1.4413 -0.7668
 9523SOL     OW40204   0.644   0.621  16.644 -0.0452 -0.7748 -0.2100
 9523SOL    HW140205   0.552   0.623  16.672  0.1917 -1.4591  0.6116
 9523SOL    HW240206   0.629   0.586  16.556 -1.4483  0.8752 -0.6200
 9524SOL     OW40207   2.833   1.206   5.434 -0.5954 -0.2323 -0.6653
 9524SOL    HW140208   2.760   1.192   5.494  0.7642 -0.6953  0.8799
 9524SOL    HW240209   2.886   1.127   5.442 -0.5985 -0.2663 -1.0017
 9525SOL     OW40210   1.824   3.785   9.767 -0.4586  0.2060 -0.3182
 9525SOL    HW140211   1.841   3.876   9.744  0.8819  0.1917  0.6316
 9525SOL    HW240212   1.731   3.795   9.787 -0.4820 -1.2387  0.3505
 9526SOL     OW40213   0.337   3.889   2.883 -0.1917  0.1839  0.2332
 9526SOL    HW140214   0.424   3.853   2.866 -0.6950 -0.8784 -0.0691
 9526SOL    HW240215   0.361   3.982   2.875 -1.9826  0.7084  0.8875
 9527SOL     OW40216   2.875   3.584   9.475 -0.5966  0.3296  0.1307
 9527SOL    HW140217   2.798   3.618   9.428 -0.6459 -0.7760 -0.6024
 9527SOL    HW240218   2.862   3.489   9.475 -0.6721  0.3442  1.7495
 9528SOL     OW40219   1.337   4.600   0.672  0.2467  0.0815  0.2680
 9528SOL    HW140220   1.258   4.546   0.676  2.3020 -3.0083 -1.4372
 9528SOL    HW240221   1.367   4.574   0.585  0.6875 -1.0631  0.7520
 9529SOL     OW40222   4.008   4.701   4.253 -0.5870 -0.6400 -0.3706
 9529SOL    HW140223   3.919   4.723   4.280 -0.5498 -2.1005  0.9742
 9529SOL    HW240224   4.022   0.031   4.187 -1.5936  1.4855  1.5918
 9530SOL     OW40225   1.476   1.864   7.364  0.1628  0.4531 -0.0381
 9530SOL    HW140226   1.403   1.919   7.392 -0.8531  0.2858 -2.3522
 9530SOL    HW240227   1.512   1.839   7.449 -0.5730 -0.7548 -0.0917
 9531SOL     OW40228   2.018   3.889  15.477  0.3758 -0.0533  0.2019
 9531SOL    HW140229   2.078   3.876  15.403 -2.0180  0.7141 -1.8692
 9531SOL    HW240230   1.963   3.811  15.470  0.3574 -0.1622  1.5951
 9532SOL     OW40231   4.405   2.673   4.143  0.5338 -0.2188  0.5722
 9532SOL    HW140232   4.393   2.624   4.062 -1.5514  1.3938 -0.1069
 9532SOL    HW240233   4.493   2.639   4.156  0.6791 -0.3771 -0.7870
 9533SOL     OW40234   0.346   0.987  12.454 -0.1520 -0.2248 -0.0685
 9533SOL    HW140235   0.334   0.908  12.402 -0.6322 -0.3264  0.1918
 9533SOL    HW240236   0.440   1.004  12.458  0.3495 -2.7764 -1.0057
 9534SOL     OW40237   1.981   4.431   0.033 -0.1800  0.1194  0.2744
 9534SOL    HW140238   1.998   4.526   0.031  0.7722 -0.1036 -2.6389
 9534SOL    HW240239   1.886   4.428   0.045  0.2427  2.1734  3.9975
 9535SOL     OW40240   3.291   1.997   7.284  0.1521  0.6111 -0.3260
 9535SOL    HW140241   3.316   2.076   7.333  2.0265  0.6029 -1.2293
 9535SOL    HW240242   3.381   1.966   7.272  0.8308  2.4882 -0.2462
 9536SOL     OW40243   2.741   3.909   6.900 -0.3904 -0.9736  0.0636
 9536SOL    HW140244   2.794   3.846   6.949 -1.0538 -1.9150 -0.4179
 9536SOL    HW240245   2.771   3.988   6.944  1.8399 -1.5667 -0.4100
 9537SOL     OW40246   1.491   1.529   4.373  0.4023 -0.4123 -0.0475
 9537SOL    HW140247   1.397   1.516   4.364  0.2136  0.3372  0.8314
 9537SOL    HW240248   1.492   1.624   4.379 -0.4454 -0.2722 -2.4882
 9538SOL     OW40249   4.260   1.156  10.787 -0.4404 -0.1535 -0.2303
 9538SOL    HW140250   4.265   1.234  10.843  2.5241  0.5087 -1.4205
 9538SOL    HW240251   4.170   1.130  10.806  0.3215 -3.5765 -1.4387
 9539SOL     OW40252   3.520   3.891   5.015 -0.7074  0.8041 -0.0377
 9539SOL    HW140253   3.501   3.985   5.021  0.0286  1.0592 -1.7205
 9539SOL    HW240254   3.431   3.857   5.009  0.0257 -1.1689  0.1889
 9540SOL     OW40255   3.501   3.365  11.667  0.8526  0.5579 -0.3661
 9540SOL    HW140256   3.554   3.442  11.687 -0.0079  1.7460 -2.7289
 9540SOL    HW240257   3.459   3.354  11.753 -0.2435  0.2323 -0.9459
 9541SOL     OW40258   4.026   3.054   2.655  0.1604  1.2116  0.2597
 9541SOL    HW140259   3.960   3.085   2.717 -0.3771 -0.3026  0.4582
 9541SOL    HW240260   4.081   3.001   2.713 -0.9967 -1.3724 -0.9843
 9542SOL     OW40261   1.089   3.573   2.252  0.0985 -0.3689 -0.0059
 9542SOL    HW140262   1.158   3.594   2.190  0.8426  0.8240  1.2409
 9542SOL    HW240263   1.128   3.551   2.336  3.3412 -1.6612 -1.8635
 9543SOL     OW40264   4.089   4.198  10.975  0.0658 -0.2304 -0.2249
 9543SOL    HW140265   4.002   4.159  10.970  0.5958 -1.3113 -0.9363
 9543SOL    HW240266   4.073   4.277  11.027  1.4023  0.8522 -1.4596
 9544SOL     OW40267   3.453   0.043   8.740 -0.2901  0.0735  0.2091
 9544SOL    HW140268   3.482   0.045   8.649 -0.1229  0.7403  0.2784
 9544SOL    HW240269   3.538   0.049   8.783  0.4649 -0.1932 -1.2544
 9545SOL     OW40270   3.369   1.452   7.410  0.2731  0.1265 -0.1673
 9545SOL    HW140271   3.439   1.388   7.398 -0.6643 -0.9479  0.1202
 9545SOL    HW240272   3.294   1.393   7.397 -1.1207  1.2978  2.6035
 9546SOL     OW40273   1.463   4.385   6.570  0.3938 -0.2273 -0.1811
 9546SOL    HW140274   1.404   4.459   6.584  1.6437  0.9464 -1.1315
 9546SOL    HW240275   1.534   4.430   6.524  1.2820 -1.1797  0.2473
 9547SOL     OW40276   4.291   2.121   8.066 -0.3278  0.2179  0.0812
 9547SOL    HW140277   4.309   2.054   8.000 -1.1244  0.2055 -0.1164
 9547SOL    HW240278   4.312   2.200   8.016 -0.6111  0.5443  0.4781
 9548SOL     OW40279   0.577   1.319  14.370 -0.1690  0.1953  0.2945
 9548SOL    HW140280   0.610   1.359  14.289  2.0286  0.7816  1.4773
 9548SOL    HW240281   0.519   1.255  14.328  1.1292 -0.6655 -0.1840
 9549SOL     OW40282   0.612   1.428  16.109  0.0453 -0.1208 -0.8474
 9549SOL    HW140283   0.683   1.382  16.154  0.0179 -0.0564 -0.7385
 9549SOL    HW240284   0.542   1.433  16.173  0.2086  0.1748 -0.6911
 9550SOL     OW40285   2.739   2.994  14.590 -0.0490 -0.0193  0.1774
 9550SOL    HW140286   2.803   3.065  14.598  0.8128 -0.4339 -3.3650
 9550SOL    HW240287   2.805   2.932  14.559 -0.1127 -0.4741  0.9549
 9551SOL     OW40288   1.997   3.704   2.007  0.1449  0.3466  0.0931
 9551SOL    HW140289   2.001   3.793   1.972  0.9684  0.0778 -0.5101
 9551SOL    HW240290   1.906   3.675   2.003 -0.8039  3.3423 -0.4740
 9552SOL     OW40291   2.574   3.382   4.592  0.6637  0.2014 -0.7636
 9552SOL    HW140292   2.641   3.399   4.525  1.0278 -0.6222 -0.6117
 9552SOL    HW240293   2.531   3.467   4.584 -2.2359 -1.2132 -0.1463
 9553SOL     OW40294   1.074   4.144   6.888 -0.4500 -0.2547 -0.1383
 9553SOL    HW140295   1.114   4.183   6.810 -0.5476 -0.7797 -0.4514
 9553SOL    HW240296   1.003   4.091   6.851 -0.8838 -0.9600  1.7273
 9554SOL     OW40297   4.441   1.863  13.393 -0.2963  0.5130  0.6353
 9554SOL    HW140298   4.481   1.908  13.318 -0.9932  1.3763  0.7706
 9554SOL    HW240299   4.494   1.784  13.404  0.8006  1.0437 -0.8794
 9555SOL     OW40300   3.079   1.524   4.632  0.0039 -0.2892 -0.5770
 9555SOL    HW140301   3.153   1.492   4.581  0.8210 -2.0574  1.7446
 9555SOL    HW240302   3.009   1.538   4.568  0.8224  1.1486 -1.1720
 9556SOL     OW40303   0.923   1.964   5.647 -0.2587  0.1438 -0.7119
 9556SOL    HW140304   0.829   1.979   5.636 -0.7224 -1.7711  0.6627
 9556SOL    HW240305   0.936   1.884   5.596  0.2864 -0.9672  1.1658
 9557SOL     OW40306   2.044   2.120  11.183  0.2462  0.1241 -0.0795
 9557SOL    HW140307   1.977   2.055  11.166 -2.4818  2.8755  0.2592
 9557SOL    HW240308   2.102   2.088  11.114  0.4758 -0.3033  0.3053
 9558SOL     OW40309   0.983   1.807   3.430  0.5079 -0.3605 -0.8027
 9558SOL    HW140310   0.981   1.816   3.525  2.0671 -1.4443 -0.6787
 9558SOL    HW240311   1.046   1.735   3.427  1.1904  0.2120  0.0034
 9559SOL     OW40312   0.033   3.928  14.885 -0.7307 -0.0876 -0.0427
 9559SOL    HW140313   0.037   3.833  14.895 -2.2787 -0.1365  0.1701
 9559SOL    HW240314   0.064   3.940  14.796  0.8529  2.4827  0.8378
 9560SOL     OW40315   4.491   0.596   8.318 -0.1319  0.0065 -0.6861
 9560SOL    HW140316   4.500   0.539   8.394  0.2727 -0.1141 -0.8257
 9560SOL    HW240317   4.578   0.636   8.326  0.9718 -2.7544  0.9201
 9561SOL     OW40318   3.244   2.253  14.808  0.1521 -0.3546 -0.0383
 9561SOL    HW140319   3.314   2.309  14.842  0.5008 -0.8882  0.1146
 9561SOL    HW240320   3.175   2.320  14.806  0.1327 -0.4717 -2.4843
 9562SOL     OW40321   0.981   4.496  14.115 -0.5752 -0.1007  0.0598
 9562SOL    HW140322   1.063   4.495  14.066 -0.3819  2.3783  0.3029
 9562SOL    HW240323   1.000   4.557  14.186 -0.6879  0.0351 -0.0253
 9563SOL     OW40324   1.961   3.385   5.553  0.0939  0.0893  0.3598
 9563SOL    HW140325   1.954   3.298   5.592 -2.3923 -0.6897 -1.8540
 9563SOL    HW240326   2.055   3.386   5.534 -0.1353 -0.4381 -0.8179
 9564SOL     OW40327   3.493   1.387   3.432  0.0922 -0.1499  0.0107
 9564SOL    HW140328   3.497   1.456   3.366  0.2269  0.3101  0.5022
 9564SOL    HW240329   3.400   1.365   3.435  0.1012 -0.3229 -0.9009
 9565SOL     OW40330   1.902   3.269   6.880 -0.2478 -0.3847 -0.1359
 9565SOL    HW140331   1.888   3.267   6.975  1.4375 -0.5885  0.0941
 9565SOL    HW240332   1.821   3.227   6.850  0.0290 -0.8647 -0.2091
 9566SOL     OW40333   3.742   0.744   1.852  0.0221  0.0515 -0.8517
 9566SOL    HW140334   3.791   0.818   1.817  0.4916  0.1712  0.0760
 9566SOL    HW240335   3.758   0.684   1.779 -1.0661 -1.8506  0.4835
 9567SOL     OW40336   3.534   2.742  11.129 -0.8756 -0.0204  0.6208
 9567SOL    HW140337   3.583   2.795  11.191 -2.1546  0.5138  1.1762
 9567SOL    HW240338   3.464   2.806  11.119 -0.3442  0.3911 -0.4807
 9568SOL     OW40339   4.645   2.333   9.881  0.4276 -0.8073 -0.1691
 9568SOL    HW140340   4.634   2.330   9.976 -0.9086 -0.3999 -0.3064
 9568SOL    HW240341   4.693   2.416   9.882 -2.0851  0.6442 -0.1381
 9569SOL     OW40342   2.808   1.070   8.003 -0.3430 -0.4668 -0.2719
 9569SOL    HW140343   2.740   1.134   7.984  0.2451  0.0619 -0.5779
 9569SOL    HW240344   2.829   1.040   7.915  0.5198  0.6853 -0.4520
   4.73682   4.73682  17.74567
