Membrane in water
40344
    1TMC1    C1    1   0.186   1.836  11.108 -0.0191  1.2262 -0.6350
    1TMC1    C2    2   0.310   1.779  11.106 -0.3223  0.2933 -0.5354
    1TMC1    C3    3   0.418   1.865  11.084  0.1749 -0.1270  0.0787
    1TMC1    C4    4   0.164   1.966  11.084 -0.0291 -0.7074  0.5296
    1TMC1    C5    5   0.275   2.050  11.055  0.4906 -0.5562  0.2584
    1TMC1    C6    6   0.403   2.000  11.067 -0.4120  0.1454 -0.6925
    1TMC1     C    7   0.075   1.756  11.153 -0.0931  0.5737  0.6929
    1TMC1     O    8   4.722   1.822  11.201 -0.1140 -0.3250  0.0565
    1TMC1     H    9   0.335   1.680  11.144  1.0609 -0.3549 -3.1301
    1TMC1    H1   10   0.059   1.993  11.098  0.5136  1.8002 -0.2004
    1TMC1    H2   11   0.491   2.050  11.028  0.9098  0.4462  2.7122
    1TMC1    C7   12   0.240   2.189  11.021  0.1451  0.3507 -0.1128
    1TMC1    C8   13   0.544   1.796  11.067 -0.0362  0.1911  0.4131
    1TMC1    O1   14   0.124   2.231  11.005 -0.1129  0.2773  0.4078
    1TMC1    O2   15   0.554   1.702  10.989 -0.0213 -0.4339 -0.4498
    1TMC1    O3   16   0.366   2.246  11.006 -0.4423 -0.0384 -0.1246
    1TMC1    H3   17   0.354   2.342  10.990  2.5660  0.3446 -0.0740
    1TMC1    O5   18   0.644   1.874  11.104  0.7585  0.5850  0.4982
    1TMC1    H5   19   0.611   1.940  11.168 -2.0724  0.0594 -0.4284
    2MPD2     C   20   4.590   1.305  11.159 -0.0254  0.0653  0.2655
    2MPD2    C1   21   4.542   1.424  11.209 -0.1201 -0.0200 -0.2184
    2MPD2    C2   22   4.622   1.535  11.184 -0.0121  0.1426  0.0766
    2MPD2    C3   23   0.004   1.527  11.115  0.3060  0.1266 -0.5077
    2MPD2    C4   24   0.048   1.409  11.061 -0.0453  0.7561  0.4683
    2MPD2    C5   25   4.711   1.300  11.091  0.8052  0.3522 -0.7738
    2MPD2     H   26   4.591   1.626  11.235 -0.5458  0.5114 -0.8894
    2MPD2    H1   27   0.141   1.414  11.007 -0.2141 -1.3930 -0.0173
    2MPD2    H2   28   4.534   1.215  11.181 -1.2460  0.6491 -0.4774
    2MPD2    H3   29   0.008   1.204  11.054  0.6984  0.1187 -0.2633
    2MPD2     N   30   0.094   1.629  11.102  0.6697 -0.0912 -0.5662
    2MPD2    H5   31   0.180   1.611  11.051  0.8076  0.2769 -0.4585
    2MPD2    N1   32   4.414   1.443  11.278 -0.2331  0.0764  0.7067
    2MPD2    H7   33   4.383   1.539  11.288  0.5700  0.5468 -1.3667
    3TMC1    C1   34   3.316   2.256  11.299 -0.1013  0.1125 -0.8787
    3TMC1    C2   35   3.349   2.342  11.190  0.5441 -0.3784 -0.0317
    3TMC1    C3   36   3.463   2.316  11.128 -0.2264 -0.0588  0.0287
    3TMC1    C4   37   3.396   2.151  11.329 -0.0480 -0.7172 -0.5563
    3TMC1    C5   38   3.504   2.120  11.244  0.9664  0.0250  0.1045
    3TMC1    C6   39   3.540   2.208  11.152 -0.5157  0.7624 -0.1331
    3TMC1     C   40   3.229   2.313  11.399  0.1471  0.6254 -0.4330
    3TMC1     O   41   3.178   2.241  11.480  0.2718 -0.3772 -0.3159
    3TMC1     H   42   3.288   2.427  11.162  1.0894 -0.5271 -1.6343
    3TMC1    H1   43   3.369   2.083  11.409 -1.1226 -1.4467 -1.5466
    3TMC1    H2   44   3.625   2.198  11.085  0.5705  1.2049  1.1923
    3TMC1    C7   45   3.587   2.006  11.278  0.8971 -0.4705 -0.3995
    3TMC1    C8   46   3.508   2.394  11.018  0.1623  0.1317  0.3973
    3TMC1    O1   47   3.565   1.953  11.387  0.2183  0.7050  0.1022
    3TMC1    O2   48   3.512   2.516  11.008  0.2921  0.4086  0.3146
    3TMC1    O3   49   3.610   1.925  11.162  0.6395  0.3347  0.4370
    3TMC1    H3   50   3.627   1.981  11.083  0.2505  0.3994  0.3958
    3TMC1    O5   51   3.485   2.314  10.911 -0.0420  0.0111 -0.1434
    3TMC1    H5   52   3.462   2.222  10.936  1.8592 -0.4658 -0.1450
    4MPD2     C   53   2.987   2.745  11.527 -0.2769  1.0434 -0.5717
    4MPD2    C1   54   3.118   2.778  11.489  0.6239 -0.5740 -0.3672
    4MPD2    C2   55   3.206   2.679  11.453  0.3664 -0.1800 -0.2688
    4MPD2    C3   56   3.165   2.547  11.453 -0.0499  0.1179 -0.2314
    4MPD2    C4   57   3.045   2.512  11.497 -0.0828  0.4437  0.0075
    4MPD2    C5   58   2.957   2.609  11.540  0.2212  0.1352 -0.2769
    4MPD2     H   59   3.307   2.704  11.422  0.1037 -0.4326 -1.3089
    4MPD2    H1   60   3.014   2.410  11.514  2.0704 -0.3932 -1.1103
    4MPD2    H2   61   2.912   2.817  11.555 -2.4127 -0.9870 -1.0702
    4MPD2    H3   62   2.861   2.579  11.582  0.2516 -0.0901 -0.3679
    4MPD2     N   63   3.251   2.447  11.404  0.3473  0.2736  0.0045
    4MPD2    H5   64   3.339   2.474  11.363 -0.7246 -1.2284 -3.2797
    4MPD2    N1   65   3.165   2.909  11.493  0.6407  0.6778 -0.4893
    4MPD2    H7   66   3.266   2.912  11.497  0.4429  1.7966  4.0894
    5TCq1    O1   67   0.002   4.227  11.969  0.1999 -0.3625  0.1578
    5TCq1    C1   68   4.738   4.221  11.831 -0.3288 -0.0018  0.1782
    5TCq1    O2   69   0.097   4.234  11.759  0.1565  0.0892 -0.0904
    5TCq1    C2   70   4.602   4.255  11.781  0.6687  0.3450 -0.2635
    5TCq1    C3   71   4.492   4.237  11.863 -0.7221 -0.5712  0.1701
    5TCq1    C4   72   4.371   4.247  11.809 -0.5633  0.1550 -0.3593
    5TCq1    C5   73   4.348   4.277  11.674 -0.8685 -0.5072  0.6037
    5TCq1    C6   74   4.462   4.289  11.600  0.1071 -1.6208  0.1677
    5TCq1    C7   75   4.588   4.281  11.648 -0.2784  0.2824  0.7769
    5TCq1    C8   76   4.462   4.239  11.462  0.6450 -0.0794 -1.1115
    5TCq1    O4   77   4.566   4.241  11.391 -0.2089 -0.3974 -0.6831
    5TCq1    C9   78   4.252   4.230  11.891 -0.6751 -0.4309  0.6537
    5TCq1    O5   79   4.136   4.234  11.838 -0.1660 -0.2791 -0.1324
    5TCq1    O6   80   4.265   4.208  12.013  0.5349  0.3231  0.2006
    5TCq1    H1   81   4.653   4.246  12.010  1.1076  1.7142  1.1746
    5TCq1    H2   82   4.504   4.217  11.969 -0.0223 -0.9355  0.0223
    5TCq1    H3   83   4.252   4.298  11.627  0.1025  1.4301 -0.4947
    5TCq1    H4   84   4.673   4.261  11.583  1.1029  0.7674  2.4320
    6MPD2     C   85   4.169   4.078  11.308 -0.4298  0.5861 -0.0182
    6MPD2    C1   86   4.294   4.124  11.312 -0.1338  0.2091 -0.2413
    6MPD2    C2   87   4.383   4.079  11.211  0.3193  0.4926  0.1166
    6MPD2    C3   88   4.336   4.002  11.105  0.3651  0.4659 -0.7833
    6MPD2    C4   89   4.205   3.959  11.105 -0.0006  0.1960  0.5850
    6MPD2    C5   90   4.123   3.997  11.212 -0.0818 -0.3663 -0.2999
    6MPD2     H   91   4.486   4.113  11.214  0.4340  0.1436  0.0451
    6MPD2    H1   92   4.157   3.896  11.030  1.1158 -0.0041  0.0479
    6MPD2    H2   93   4.096   4.096  11.387  0.4345 -1.2024  1.1923
    6MPD2    H3   94   4.025   3.951  11.220  0.2053 -0.7246  1.0723
    6MPD2     N   95   4.426   3.978  10.995  0.7130  0.0701 -0.0833
    6MPD2    H5   96   4.524   3.997  11.014  0.9037  0.2671 -1.2405
    6MPD2    N1   97   4.336   4.190  11.434 -0.7020 -0.4012 -0.1289
    6MPD2    H7   98   4.269   4.201  11.509  1.7071 -0.9450  2.1445
    7TCq1    O1   99   1.517   4.627  13.267 -0.5706 -0.1605  0.7758
    7TCq1    C1  100   1.630   4.558  13.291 -0.3155  0.6142  0.3121
    7TCq1    O2  101   1.744   4.599  13.284 -0.0789 -0.2744 -0.4487
    7TCq1    C2  102   1.616   4.418  13.256 -0.2968 -0.3234 -0.1835
    7TCq1    C3  103   1.510   4.375  13.181  0.3657  0.0745  0.2507
    7TCq1    C4  104   1.486   4.243  13.174 -0.0090  0.4506 -0.9337
    7TCq1    C5  105   1.559   4.147  13.237 -0.4837  0.4159  0.0534
    7TCq1    C6  106   1.670   4.190  13.306 -0.4285  1.1566 -0.2272
    7TCq1    C7  107   1.691   4.324  13.332 -0.2459 -0.3571  0.2529
    7TCq1    C8  108   1.751   4.094  13.372 -0.5805  0.8053 -0.0200
    7TCq1    O4  109   1.728   3.973  13.351 -0.4321 -0.5930  0.3564
    7TCq1    C9  110   1.389   4.205  13.077  0.1415  0.2125 -0.6145
    7TCq1    O5  111   1.387   4.093  13.029 -0.0496  0.2913 -0.3669
    7TCq1    O6  112   1.332   4.299  13.013  0.5005 -0.1018 -0.2086
    7TCq1    H1  113   1.431   4.582  13.280 -0.1673 -0.7123  1.5552
    7TCq1    H2  114   1.455   4.442  13.117 -0.5489 -1.4394 -0.5498
    7TCq1    H3  115   1.539   4.042  13.220 -0.1436  0.3232  0.2153
    7TCq1    H4  116   1.753   4.370  13.408 -3.1225  0.7811  1.9008
    8MPD2     C  117   2.076   3.939  13.726  0.7265 -0.0797 -0.2469
    8MPD2    C1  118   1.976   3.873  13.669  0.2576  0.1337  0.4811
    8MPD2    C2  119   1.882   3.945  13.592  0.3976 -0.2163  0.7002
    8MPD2    C3  120   1.915   4.076  13.558  0.2859  0.2861 -0.1534
    8MPD2    C4  121   2.019   4.142  13.618 -0.9026  0.4783  0.0914
    8MPD2    C5  122   2.100   4.070  13.698 -0.4072  0.2887 -0.0174
    8MPD2     H  123   1.797   3.893  13.548 -0.2316  0.1179  1.5293
    8MPD2    H1  124   2.053   4.240  13.585 -2.6721  1.1071  0.1540
    8MPD2    H2  125   2.138   3.892  13.801  1.2389  1.5386  0.3362
    8MPD2    H3  126   2.185   4.114  13.750  1.3400 -1.4769 -1.4169
    8MPD2     N  127   1.841   4.146  13.459  0.3198  0.3334 -0.0966
    8MPD2    H5  128   1.854   4.246  13.454  1.1500  0.2200 -0.3166
    8MPD2    N1  129   1.962   3.740  13.705 -0.3095  0.0029 -0.2654
    8MPD2    H7  130   2.022   3.708  13.780  0.3780 -0.2293 -0.9136
    9TMC1    C1  131   0.580   1.935  11.525  0.1292  0.0456  0.2338
    9TMC1    C2  132   0.541   1.933  11.658 -0.0032  0.2301  0.3606
    9TMC1    C3  133   0.627   1.877  11.746  0.5630  0.5055 -0.1831
    9TMC1    C4  134   0.695   1.874  11.480 -0.1232 -0.0145  0.2830
    9TMC1    C5  135   0.780   1.816  11.573 -0.4274 -0.2475 -0.4999
    9TMC1    C6  136   0.746   1.811  11.707  0.1242 -0.0511  0.4798
    9TMC1     C  137   0.513   2.016  11.431  0.6790 -0.2994  0.4438
    9TMC1     O  138   0.561   2.037  11.321  0.5740  0.0639  0.1102
    9TMC1     H  139   0.455   1.987  11.697  0.1667  0.0077  1.0424
    9TMC1    H1  140   0.717   1.861  11.374  1.1943 -1.0681  0.6778
    9TMC1    H2  141   0.823   1.777  11.776 -0.8508 -1.8259  0.6957
    9TMC1    C7  142   0.841   1.702  11.512 -0.0750 -0.1099 -0.4207
    9TMC1    C8  143   0.613   1.903  11.888 -0.5930  0.1710  0.1839
    9TMC1    O1  144   0.794   1.641  11.420 -0.0770  0.0373  0.8300
    9TMC1    O2  145   0.702   1.924  11.967  0.2002 -0.2675 -0.3853
    9TMC1    O3  146   0.966   1.700  11.560  0.2047 -0.1755  0.2175
    9TMC1    H3  147   0.989   1.776  11.618 -0.5073  1.0954 -1.1780
    9TMC1    O5  148   0.492   1.856  11.923  0.1892 -0.6091  0.0012
    9TMC1    H5  149   0.430   1.831  11.850  2.5334 -2.2909 -1.4304
   10MPD2     C  150   0.388   2.277  11.353  0.2685 -0.3726  0.4679
   10MPD2    C1  151   0.326   2.181  11.432 -0.7856 -0.1826  0.2665
   10MPD2    C2  152   0.208   2.212  11.485  0.6637  0.6854  0.1563
   10MPD2    C3  153   0.141   2.328  11.455  0.6380  0.2003  0.3777
   10MPD2    C4  154   0.204   2.419  11.371  0.5661  0.0546  1.1039
   10MPD2    C5  155   0.327   2.392  11.318  0.6719  0.4649 -0.0068
   10MPD2     H  156   0.163   2.144  11.555  0.9105 -0.1623 -0.5012
   10MPD2    H1  157   0.145   2.502  11.335  0.5642  0.1582  1.3404
   10MPD2    H2  158   0.485   2.255  11.309  0.0572  1.1670 -0.7638
   10MPD2    H3  159   0.378   2.461  11.253 -2.5480  1.7268 -1.1960
   10MPD2     N  160   0.020   2.367  11.519 -0.1463  0.3395 -0.1360
   10MPD2    H5  161   4.730   2.464  11.512  0.2199  0.4613  0.0373
   10MPD2    N1  162   0.383   2.058  11.470  0.2667  0.0556 -0.8733
   10MPD2    H7  163   0.348   2.014  11.554 -0.5643 -1.2235 -1.8823
   11TCq1    O1  164   4.738   3.354  14.074 -0.7703  0.1045  0.1687
   11TCq1    C1  165   4.657   3.331  13.974  0.4247  0.4140 -0.0502
   11TCq1    O2  166   4.574   3.405  13.921  0.1164  0.2463 -0.0138
   11TCq1    C2  167   4.665   3.199  13.930  0.0493 -0.2614  0.9060
   11TCq1    C3  168   4.681   3.187  13.789  0.6166 -0.5645  1.2383
   11TCq1    C4  169   4.642   3.075  13.727 -0.1084  0.0251  0.4106
   11TCq1    C5  170   4.575   2.979  13.794  0.0348 -0.0260  0.8603
   11TCq1    C6  171   4.541   2.995  13.928  0.3763  0.0717  0.4172
   11TCq1    C7  172   4.586   3.105  13.992  0.1741  0.1900  0.1835
   11TCq1    C8  173   4.491   2.878  14.000 -0.7953  0.4420 -0.0166
   11TCq1    O4  174   4.495   2.880  14.123 -0.3348 -0.2072  0.0956
   11TCq1    C9  175   4.680   3.048  13.595  0.3397  0.1978  0.2616
   11TCq1    O5  176   4.660   2.936  13.544 -0.5325 -0.0029 -0.5567
   11TCq1    O6  177   4.738   3.148  13.542  0.0051  0.2448 -0.1869
   11TCq1    H1  178   0.047   3.277  14.112 -2.9458 -0.5640  1.5605
   11TCq1    H2  179   4.732   3.270  13.742 -2.0609  1.6920  2.2800
   11TCq1    H3  180   4.537   2.900  13.730 -0.4280  2.7373 -2.2379
   11TCq1    H4  181   4.568   3.112  14.099 -3.2812 -0.1840 -0.3669
   12MPD2     C  182   4.430   2.609  14.106  0.6009 -0.0347  0.3365
   12MPD2    C1  183   4.445   2.637  13.973 -0.6196  0.2148  0.2629
   12MPD2    C2  184   4.439   2.531  13.886 -0.3571  0.5959  0.2603
   12MPD2    C3  185   4.415   2.394  13.925  0.1993 -0.1110  1.0608
   12MPD2    C4  186   4.398   2.368  14.059 -0.4593 -0.2916 -0.6627
   12MPD2    C5  187   4.408   2.481  14.145  1.0115  0.1751  0.0370
   12MPD2     H  188   4.462   2.543  13.780 -2.5198  0.6028 -0.1974
   12MPD2    H1  189   4.365   2.272  14.098 -0.2596 -1.2865 -2.9272
   12MPD2    H2  190   4.437   2.676  14.190 -0.6554 -1.7337  1.7937
   12MPD2    H3  191   4.407   2.468  14.252  0.9896 -1.4556 -0.1608
   12MPD2     N  192   4.393   2.294  13.831 -0.1867  0.5012 -0.1143
   12MPD2    H5  193   4.382   2.198  13.862  0.2981  0.8795  1.2251
   12MPD2    N1  194   4.477   2.765  13.919 -0.1889 -0.0707 -0.2125
   12MPD2    H7  195   4.481   2.781  13.819 -1.3048  1.8037  0.0620
   13TCq1    O1  196   0.296   2.707  10.932  0.5800  0.2607  0.0194
   13TCq1    C1  197   0.269   2.577  10.920 -0.5277 -0.1976  1.0288
   13TCq1    O2  198   0.307   2.492  10.998 -0.0739  0.6377 -0.4973
   13TCq1    C2  199   0.126   2.564  10.880 -0.2286  0.1773  0.4314
   13TCq1    C3  200   0.081   2.649  10.781  0.2274 -0.6816 -0.0297
   13TCq1    C4  201   4.687   2.668  10.768 -1.0234 -0.0345  0.0405
   13TCq1    C5  202   4.600   2.604  10.858  0.1928  0.8663 -0.2684
   13TCq1    C6  203   4.651   2.527  10.957  0.2153 -0.0302 -0.6850
   13TCq1    C7  204   0.045   2.500  10.972 -0.2513  0.0407 -0.4462
   13TCq1    C8  205   4.562   2.460  11.061  0.3906  0.3885  0.0099
   13TCq1    O4  206   4.442   2.481  11.047  1.1365 -0.4917 -0.9185
   13TCq1    C9  207   4.643   2.761  10.668  0.1173  0.2692  0.0258
   13TCq1    O5  208   4.523   2.736  10.626 -0.1559  1.1444  0.2120
   13TCq1    O6  209   4.729   2.851  10.630 -0.2500  0.1909 -0.3663
   13TCq1    H1  210   0.230   2.766  10.890 -0.8507 -0.6947  0.9726
   13TCq1    H2  211   0.144   2.705  10.713 -0.0577  0.4757  0.6682
   13TCq1    H3  212   4.493   2.618  10.851  0.2408  0.9943 -0.7724
   13TCq1    H4  213   0.092   2.468  11.064 -0.5964  0.4530 -0.1296
   14MPD2     C  214   4.610   2.162  11.257  0.4308 -0.4004 -0.8152
   14MPD2    C1  215   4.554   2.285  11.231 -0.1363 -0.8692 -0.0974
   14MPD2    C2  216   4.444   2.322  11.293  0.1743  0.3777 -0.4096
   14MPD2    C3  217   4.375   2.236  11.378 -0.2401  0.2863  0.5905
   14MPD2    C4  218   4.428   2.108  11.392 -0.0670 -0.2531  0.1775
   14MPD2    C5  219   4.544   2.077  11.338  0.0857  0.2859 -0.2936
   14MPD2     H  220   4.400   2.420  11.278 -2.3859 -0.4961  1.2619
   14MPD2    H1  221   4.373   2.030  11.444 -0.5626 -0.4494 -0.6451
   14MPD2    H2  222   4.706   2.129  11.220  0.7827 -0.4160  0.1125
   14MPD2    H3  223   4.591   1.980  11.348 -0.5206  0.3180  3.0515
   14MPD2     N  224   4.270   2.282  11.452 -0.3668  0.6195  0.0179
   14MPD2    H5  225   4.252   2.381  11.437 -0.4937  0.3599 -1.5106
   14MPD2    N1  226   4.620   2.357  11.131  0.2254 -0.0232  0.6296
   14MPD2    H7  227   4.714   2.337  11.100  0.4617  0.1258  1.2540
   15TCq1    O1  228   1.801   2.124   1.953  0.2273 -0.1491 -0.2969
   15TCq1    C1  229   1.761   2.029   1.861 -0.4072 -0.4288 -0.1516
   15TCq1    O2  230   1.651   2.010   1.821  0.0739 -0.2299  0.0804
   15TCq1    C2  231   1.881   1.960   1.808 -0.2560 -0.5208  0.4461
   15TCq1    C3  232   1.985   1.943   1.895 -0.1188  0.3178  0.3728
   15TCq1    C4  233   2.087   1.864   1.863  0.6031  0.2219  0.3950
   15TCq1    C5  234   2.091   1.810   1.737  0.6045  0.0445  0.2120
   15TCq1    C6  235   1.986   1.828   1.656 -0.1088  0.8607 -0.4810
   15TCq1    C7  236   1.872   1.901   1.691 -0.2599  0.0617 -0.1754
   15TCq1    C8  237   1.977   1.744   1.541 -0.5475  0.0894  0.6498
   15TCq1    O4  238   2.084   1.696   1.500  0.4723  0.1039  0.3999
   15TCq1    C9  239   2.212   1.859   1.942 -0.0851  0.3651 -0.0059
   15TCq1    O5  240   2.312   1.812   1.885 -0.2035 -0.6432 -0.4458
   15TCq1    O6  241   2.213   1.930   2.044 -0.1037 -0.2143 -0.2794
   15TCq1    H1  242   1.899   2.133   1.954  0.2297 -0.1769 -0.2956
   15TCq1    H2  243   1.982   1.995   1.991 -0.9357  0.2947  0.3624
   15TCq1    H3  244   2.178   1.755   1.704  0.4933 -1.3556  2.2277
   15TCq1    H4  245   1.787   1.926   1.628  0.5340 -0.0784 -1.2857
   16MPD2     C  246   1.680   1.681   1.335  0.5344 -0.3494 -0.0346
   16MPD2    C1  247   1.812   1.669   1.376 -0.3284 -0.3402 -0.7268
   16MPD2    C2  248   1.901   1.598   1.295  0.3110  0.5013  0.2500
   16MPD2    C3  249   1.857   1.538   1.178  0.2820 -0.3820  0.0986
   16MPD2    C4  250   1.720   1.542   1.145 -0.1456 -0.0816 -0.4057
   16MPD2    C5  251   1.632   1.625   1.216 -0.0816  0.5735  0.2402
   16MPD2     H  252   2.008   1.595   1.314  0.0970  0.8419  1.5471
   16MPD2    H1  253   1.682   1.485   1.061 -0.5229 -1.3376  0.6278
   16MPD2    H2  254   1.610   1.734   1.399  0.8603  0.4210 -0.3234
   16MPD2    H3  255   1.532   1.639   1.178 -0.9242 -0.4723  2.1099
   16MPD2     N  256   1.943   1.461   1.090 -0.0955 -0.4475 -0.2380
   16MPD2    H5  257   2.033   1.429   1.125 -0.0437  0.9089  0.8416
   16MPD2    N1  258   1.847   1.727   1.497 -0.1759 -0.0557  0.0094
   16MPD2    H7  259   1.771   1.770   1.549 -0.5077 -2.0286  1.1629
   17TMC1    C1  260   3.807   1.442  10.733 -0.7059  0.3573 -0.0986
   17TMC1    C2  261   3.852   1.361  10.832 -0.1400 -0.0803 -0.6984
   17TMC1    C3  262   3.777   1.359  10.947 -0.2673 -0.1488  0.0744
   17TMC1    C4  263   3.692   1.515  10.740 -0.0598  0.1988  0.0385
   17TMC1    C5  264   3.615   1.499  10.853 -0.1277  0.2838 -0.1225
   17TMC1    C6  265   3.662   1.423  10.957  0.2718  0.2342  0.0546
   17TMC1     C  266   3.899   1.489  10.628  0.0621 -0.5981 -0.8344
   17TMC1     O  267   3.847   1.538  10.527  0.5793  0.2586  0.2658
   17TMC1     H  268   3.923   1.285  10.799  1.1712 -0.2375  2.4360
   17TMC1    H1  269   3.667   1.581  10.658 -0.4508 -1.6412 -1.3104
   17TMC1    H2  270   3.613   1.411  11.053 -1.5247  1.2221 -0.7231
   17TMC1    C7  271   3.528   1.602  10.895  0.4126 -0.2864 -0.4167
   17TMC1    C8  272   3.842   1.315  11.077  0.0051  0.2680 -0.3215
   17TMC1    O1  273   3.561   1.649  10.998 -0.0553 -0.1475  0.3807
   17TMC1    O2  274   3.771   1.278  11.167  1.0480 -0.6568  0.0659
   17TMC1    O3  275   3.497   1.671  10.781  0.3617  0.5974  0.4899
   17TMC1    H3  276   3.471   1.612  10.707  0.0425 -0.3444  1.3606
   17TMC1    O5  277   3.970   1.301  11.067 -0.1727  0.1951 -0.1761
   17TMC1    H5  278   4.024   1.331  10.991 -0.3016 -1.0478 -0.7631
   18MPD2     C  279   4.136   1.581  10.466 -0.1260  0.1434 -0.5912
   18MPD2    C1  280   4.139   1.477  10.562  0.2741  1.2139  0.3903
   18MPD2    C2  281   4.256   1.409  10.591 -0.1998 -0.0249  0.2364
   18MPD2    C3  282   4.375   1.443  10.533 -0.7397  0.0603 -0.0019
   18MPD2    C4  283   4.378   1.543  10.433 -0.2267 -0.0636  0.0618
   18MPD2    C5  284   4.259   1.600  10.403  0.6006  0.6080 -0.5051
   18MPD2     H  285   4.254   1.325  10.660  0.9025 -0.2111  0.0474
   18MPD2    H1  286   4.465   1.569  10.373  0.6118 -1.7028  0.5579
   18MPD2    H2  287   4.048   1.638  10.441 -1.2584 -1.9728 -1.4606
   18MPD2    H3  288   4.262   1.667  10.318  0.0950 -1.6469 -2.3255
   18MPD2     N  289   4.499   1.383  10.579  0.0766 -0.0292  0.1410
   18MPD2    H5  290   4.583   1.417  10.532  0.4159  0.7323  1.2963
   18MPD2    N1  291   4.026   1.448  10.646 -1.4041 -0.0735  0.1542
   18MPD2    H7  292   4.049   1.388  10.724 -0.6685  0.0930  0.0632
   19TMC2    C1  293   0.881   2.642  14.380 -0.4027  0.5588 -0.6892
   19TMC2    C2  294   0.777   2.723  14.412  0.3561 -0.3454  0.1038
   19TMC2    C3  295   0.651   2.691  14.380  0.3417 -0.1736 -0.2221
   19TMC2    C4  296   0.862   2.528  14.312 -0.0125 -0.4484 -0.2742
   19TMC2    C5  297   0.732   2.505  14.274 -0.0057 -0.4985 -0.6416
   19TMC2    C6  298   0.628   2.587  14.293  0.6822 -0.4088  0.6858
   19TMC2     C  299   0.986   2.714  14.330 -0.3213  0.3764 -0.2852
   19TMC2     O  300   0.975   2.836  14.309 -0.1082  0.0777 -0.3845
   19TMC2     H  301   0.799   2.821  14.451  0.5220 -0.5543  0.5370
   19TMC2    H1  302   0.937   2.455  14.283  1.4024  0.5439  0.8874
   19TMC2    H2  303   0.529   2.560  14.258  0.9685 -0.2123 -0.2622
   19TMC2    C7  304   0.704   2.401  14.172  0.3673  0.6697 -0.3052
   19TMC2    C8  305   0.540   2.775  14.431 -0.0734  0.1676  0.0271
   19TMC2    O1  306   0.752   2.286  14.197 -0.3240 -0.0272  0.4613
   19TMC2    O2  307   0.566   2.868  14.504  0.0256  0.2853  0.3256
   19TMC2    O5  308   0.443   2.681  14.444  0.2788 -0.1043  0.1009
   19TMC2    H5  309   0.364   2.720  14.487  1.2170  2.4701 -0.5344
   20MPD2     C  310   1.248   2.779  14.195  0.0571  0.2428 -0.6415
   20MPD2    C1  311   1.220   2.655  14.248  0.6348  0.0400  0.0534
   20MPD2    C2  312   1.320   2.553  14.242 -0.3573 -0.8815 -0.0420
   20MPD2    C3  313   1.439   2.570  14.173 -0.1251  0.5226  0.7545
   20MPD2    C4  314   1.463   2.699  14.125 -0.5472 -0.1724 -0.3048
   20MPD2    C5  315   1.368   2.795  14.131  0.3351 -0.2556  0.9639
   20MPD2     H  316   1.290   2.457  14.283  0.8893 -0.9532  0.6727
   20MPD2    H1  317   1.557   2.719  14.075 -1.6250 -1.5846 -2.8807
   20MPD2    H2  318   1.172   2.856  14.187  0.3086  0.4598 -0.9692
   20MPD2    H3  319   1.394   2.894  14.094 -0.6712 -0.6908 -0.8884
   20MPD2     N  320   1.544   2.482  14.174  0.4677 -0.1799  1.0130
   20MPD2    H5  321   1.637   2.516  14.151  0.8727 -2.1602 -0.2133
   20MPD2    N1  322   1.094   2.628  14.311  0.4373  0.1685 -0.7005
   20MPD2    H7  323   1.095   2.536  14.352 -1.8530 -0.0694 -1.2228
   21TMC2    C1  324   3.406   3.092  14.625 -0.3652  0.2993  0.5233
   21TMC2    C2  325   3.330   3.082  14.507 -0.6645  0.7433  0.0823
   21TMC2    C3  326   3.201   3.140  14.519 -0.3464  0.0752 -0.4710
   21TMC2    C4  327   3.360   3.146  14.740  0.0576 -0.9943  0.1210
   21TMC2    C5  328   3.238   3.206  14.736 -0.6002 -0.6560  0.2851
   21TMC2    C6  329   3.156   3.212  14.625 -0.0074 -0.6792 -0.1634
   21TMC2     C  330   3.526   3.012  14.631  0.0462 -0.0298 -0.1861
   21TMC2     O  331   3.571   2.984  14.742 -0.4347 -0.2832  0.4787
   21TMC2     H  332   3.360   3.034  14.414  0.8198  0.4117  0.7309
   21TMC2    H1  333   3.410   3.136  14.835 -0.1123  0.2549  0.3507
   21TMC2    H2  334   3.074   3.282  14.615  0.0793 -0.5266  0.1938
   21TMC2    C7  335   3.202   3.278  14.852 -0.3032 -0.5135  0.4736
   21TMC2    C8  336   3.121   3.139  14.397  0.0434  0.6158 -1.0748
   21TMC2    O1  337   3.285   3.290  14.940 -0.4855  0.2689  0.2015
   21TMC2    O2  338   3.176   3.086  14.300 -0.4538  0.3809  0.2308
   21TMC2    O5  339   2.987   3.135  14.426  0.0094 -0.5808  0.0347
   21TMC2    H5  340   2.966   3.144  14.522  1.5842 -0.6484  0.3807
   22MPD2     C  341   3.910   2.765  14.404 -0.5070  0.4872  0.0627
   22MPD2    C1  342   3.849   2.734  14.524  0.2371  0.0962 -0.0680
   22MPD2    C2  343   3.734   2.810  14.552  0.3835 -0.3696 -0.3988
   22MPD2    C3  344   3.688   2.917  14.475  0.9289  0.1456  0.3941
   22MPD2    C4  345   3.752   2.939  14.357 -0.3858  0.9635 -0.5257
   22MPD2    C5  346   3.855   2.855  14.313 -0.0221 -0.2529 -0.9921
   22MPD2     H  347   3.686   2.796  14.648 -1.4230  1.4199 -1.0398
   22MPD2    H1  348   3.725   3.023  14.294  0.4466 -0.3047 -2.5816
   22MPD2    H2  349   3.996   2.711  14.367 -0.9917 -0.5411  0.4320
   22MPD2    H3  350   3.899   2.872  14.215  2.7293  0.6043  0.4071
   22MPD2     N  351   3.584   3.003  14.508  0.4968  0.3677  0.0561
   22MPD2    H5  352   3.548   3.061  14.433 -0.9351 -0.0268  0.4383
   22MPD2    N1  353   3.878   2.633  14.613 -0.3552  0.2157 -0.0272
   22MPD2    H7  354   3.837   2.640  14.705 -0.3475  0.8138 -0.0651
   23TMC2    C1  355   0.661   3.991  14.764  0.6424  0.1446  0.1196
   23TMC2    C2  356   0.736   4.063  14.674 -0.6619 -0.9292  0.2106
   23TMC2    C3  357   0.687   4.058  14.543 -0.6571  0.5374 -0.1513
   23TMC2    C4  358   0.548   3.911  14.732 -0.4275 -0.5765  0.1577
   23TMC2    C5  359   0.511   3.911  14.603 -0.2889  0.1401 -0.4509
   23TMC2    C6  360   0.588   3.975  14.507  0.4183 -0.3650  0.2369
   23TMC2     C  361   0.696   3.990  14.901 -0.3577 -0.0328 -0.1930
   23TMC2     O  362   0.653   3.900  14.971  0.6079 -0.6755  0.2140
   23TMC2     H  363   0.818   4.130  14.696  0.6258 -2.0281 -1.2109
   23TMC2    H1  364   0.494   3.845  14.799 -1.8432 -1.1501 -1.5733
   23TMC2    H2  365   0.551   3.972  14.405  1.0556  0.4448 -0.0166
   23TMC2    C7  366   0.407   3.826  14.547  0.6333 -0.8508  0.8967
   23TMC2    C8  367   0.771   4.121  14.447  0.2082 -0.3481  0.6177
   23TMC2    O1  368   0.413   3.801  14.425 -0.0548 -0.3407 -0.1233
   23TMC2    O2  369   0.876   4.174  14.479 -0.5764 -0.7567  0.1756
   23TMC2    O5  370   0.687   4.181  14.363  1.1456  0.0281 -0.4014
   23TMC2    H5  371   0.595   4.157  14.386  0.4049  1.9327 -1.4078
   24MPD2     C  372   0.940   4.244  15.297 -0.4281 -0.1547  0.4565
   24MPD2    C1  373   0.881   4.117  15.298 -1.1457 -0.1857 -0.3878
   24MPD2    C2  374   0.817   4.068  15.185  0.5308  0.3832  0.2459
   24MPD2    C3  375   0.830   4.138  15.062 -0.1284 -0.4093  0.0261
   24MPD2    C4  376   0.889   4.261  15.069  0.4016  0.0626  0.3258
   24MPD2    C5  377   0.941   4.308  15.182  0.2239  0.1626  0.2669
   24MPD2     H  378   0.788   3.963  15.184 -0.9490  0.8299 -2.2123
   24MPD2    H1  379   0.897   4.316  14.975  2.5918  1.2928  1.2292
   24MPD2    H2  380   0.996   4.291  15.377  3.3529  0.0515 -2.2710
   24MPD2    H3  381   0.990   4.404  15.171  0.2580  0.0971 -0.1727
   24MPD2     N  382   0.774   4.102  14.934  0.0737 -0.1992 -0.6559
   24MPD2    H5  383   0.788   4.174  14.864  0.4731 -0.7271 -1.1183
   24MPD2    N1  384   0.868   4.038  15.410  0.6035 -0.5564 -0.5436
   24MPD2    H7  385   0.815   3.952  15.401 -2.9115  1.6110 -0.6756
   25TMC2    C1  386   3.521   1.403  12.296 -0.1925 -1.0035  0.4617
   25TMC2    C2  387   3.545   1.531  12.341  0.8561  0.4969  0.5045
   25TMC2    C3  388   3.455   1.584  12.433 -0.6432 -0.1716 -0.7815
   25TMC2    C4  389   3.414   1.326  12.335 -0.2737 -0.0864 -0.1903
   25TMC2    C5  390   3.341   1.381  12.441  0.3946  0.4842 -0.4139
   25TMC2    C6  391   3.353   1.507  12.481  0.2788  0.8821  0.5384
   25TMC2     C  392   3.612   1.358  12.191  0.2370  0.0296  0.7552
   25TMC2     O  393   3.701   1.435  12.160  0.3180 -0.0732  0.5167
   25TMC2     H  394   3.627   1.596  12.313  2.2895 -0.1922  3.0660
   25TMC2    H1  395   3.413   1.220  12.311  0.7062 -0.4838  1.5350
   25TMC2    H2  396   3.292   1.551  12.560 -0.6616  1.4387 -0.4985
   25TMC2    C7  397   3.289   1.289  12.542  0.2358 -0.9305 -0.5835
   25TMC2    C8  398   3.467   1.720  12.474  0.3861  0.0471 -0.5627
   25TMC2    O1  399   3.348   1.188  12.564 -0.8954  0.2086  0.5041
   25TMC2    O2  400   3.574   1.777  12.478  0.2583  0.1707  0.8383
   25TMC2    O5  401   3.347   1.770  12.462 -0.1690 -0.0854  0.8820
   25TMC2    H5  402   3.334   1.866  12.477 -2.5238 -0.8716  3.8813
   26MPD2     C  403   3.640   1.097  11.751  0.4359  0.4388  0.4527
   26MPD2    C1  404   3.544   1.038  11.828 -0.4525 -0.2350 -0.0643
   26MPD2    C2  405   3.516   1.092  11.948 -0.3349 -0.2292  0.3028
   26MPD2    C3  406   3.583   1.207  11.991  0.3426 -0.6233 -0.1932
   26MPD2    C4  407   3.676   1.267  11.907 -0.4490 -0.1737  0.2111
   26MPD2    C5  408   3.705   1.210  11.796  0.3629 -0.0398  0.0610
   26MPD2     H  409   3.433   1.062  12.011 -1.8722  1.4825 -0.8692
   26MPD2    H1  410   3.735   1.356  11.924  1.3255 -1.1988 -0.6229
   26MPD2    H2  411   3.653   1.076  11.646  1.6272  1.4201  0.3971
   26MPD2    H3  412   3.769   1.266  11.728 -1.3233 -0.2520 -1.6976
   26MPD2     N  413   3.560   1.253  12.117 -0.5564 -0.6548  0.0224
   26MPD2    H5  414   3.483   1.202  12.158 -0.5853  0.4698  1.3815
   26MPD2    N1  415   3.474   0.923  11.779 -0.3648  0.7698 -0.2330
   26MPD2    H7  416   3.482   0.897  11.682  1.9943 -0.6416  0.3246
   27TMC2    C1  417   2.843   3.140  12.318  0.0027  0.9252 -0.0946
   27TMC2    C2  418   2.743   3.231  12.296  0.2215  0.1795  0.9686
   27TMC2    C3  419   2.771   3.358  12.260  0.1855  0.1014  0.3137
   27TMC2    C4  420   2.971   3.172  12.302  0.0431 -0.1756  1.2676
   27TMC2    C5  421   2.999   3.299  12.274 -0.0837 -0.5848  0.0967
   27TMC2    C6  422   2.904   3.394  12.263 -0.2518  0.4840  1.0603
   27TMC2     C  423   2.823   3.049  12.423 -0.1721 -0.2676 -0.3383
   27TMC2     O  424   2.910   2.963  12.443  0.3783  0.1336 -0.0978
   27TMC2     H  425   2.639   3.202  12.294  0.7122 -1.4419 -1.1395
   27TMC2    H1  426   3.044   3.092  12.310 -0.6093 -0.8157  0.7544
   27TMC2    H2  427   2.930   3.493  12.227 -0.4918  0.1294 -0.0785
   27TMC2    C7  428   3.119   3.340  12.345 -0.7015 -0.3037  0.1121
   27TMC2    C8  429   2.660   3.449  12.229  1.3677 -0.5457 -0.3267
   27TMC2    O1  430   3.178   3.247  12.404  0.1905  0.3474 -0.3732
   27TMC2    O2  431   2.543   3.414  12.202 -0.0671  0.1163  0.2679
   27TMC2    O5  432   2.694   3.567  12.283  0.3720 -0.0496  0.3804
   27TMC2    H5  433   2.780   3.555  12.330  1.0366  0.9332 -0.5802
   28MPD2     C  434   2.572   2.968  12.869  0.1881  0.1040  0.2164
   28MPD2    C1  435   2.527   3.083  12.811 -0.7055  0.1710 -0.5660
   28MPD2    C2  436   2.581   3.124  12.690 -0.0344 -0.1319 -0.3716
   28MPD2    C3  437   2.681   3.053  12.632 -0.6995 -0.3848  0.5695
   28MPD2    C4  438   2.714   2.930  12.686  0.0765 -0.3624 -0.0213
   28MPD2    C5  439   2.666   2.890  12.803 -0.6390  0.0107 -0.3964
   28MPD2     H  440   2.547   3.211  12.635  1.6494  1.6541  1.4134
   28MPD2    H1  441   2.796   2.871  12.647 -0.0166 -2.0016  2.2896
   28MPD2    H2  442   2.543   2.943  12.970 -1.5083  0.5174 -0.1616
   28MPD2    H3  443   2.719   2.805  12.845  2.3205  1.8627 -0.3945
   28MPD2     N  444   2.722   3.100  12.505 -0.1361  0.0066  0.3631
   28MPD2    H5  445   2.676   3.184  12.472 -3.5952 -0.8107  3.0851
   28MPD2    N1  446   2.450   3.169  12.886 -0.3671  0.4759  0.7707
   28MPD2    H7  447   2.416   3.131  12.973 -0.0299  0.7534  1.0203
   29TMC2    C1  448   2.582   1.252  14.750  0.6882 -0.0938 -0.2940
   29TMC2    C2  449   2.630   1.223  14.876 -0.7131  0.6161 -0.6189
   29TMC2    C3  450   2.692   1.323  14.946  0.1477  0.3480  0.0133
   29TMC2    C4  451   2.592   1.380  14.696  0.0557  0.3066  1.0587
   29TMC2    C5  452   2.653   1.472  14.770  0.0720 -0.1729  0.3491
   29TMC2    C6  453   2.700   1.450  14.899 -0.0337  0.0529  0.4730
   29TMC2     C  454   2.597   1.146  14.657 -0.1393  0.3610 -0.9766
   29TMC2     O  455   2.663   1.047  14.680  0.0401 -0.2889 -0.4280
   29TMC2     H  456   2.628   1.121  14.912 -1.4791  1.3201  1.3009
   29TMC2    H1  457   2.558   1.400  14.595 -1.4426  0.0300  1.5005
   29TMC2    H2  458   2.749   1.521  14.965  1.0052 -0.8399  0.6638
   29TMC2    C7  459   2.648   1.608  14.728  0.2097 -0.0534 -0.5441
   29TMC2    C8  460   2.763   1.295  15.071 -0.2157  0.4144  0.2897
   29TMC2    O1  461   2.571   1.629  14.634 -0.2928  0.2380  0.2703
   29TMC2    O2  462   2.854   1.366  15.111 -0.1193 -0.1421 -0.3976
   29TMC2    O5  463   2.695   1.207  15.136 -0.3183  0.1001 -0.0714
   29TMC2    H5  464   2.632   1.160  15.077 -1.4691  0.5248  0.8124
   30MPD2     C  465   2.525   0.934  14.195 -0.5065 -0.3879  0.3178
   30MPD2    C1  466   2.617   0.901  14.292  0.3479  0.0334  0.1094
   30MPD2    C2  467   2.633   0.984  14.400 -0.6234  0.1857  0.3008
   30MPD2    C3  468   2.548   1.097  14.422  0.0599  0.0270 -0.8896
   30MPD2    C4  469   2.454   1.122  14.327 -0.1662 -0.4251  0.0899
   30MPD2    C5  470   2.440   1.041  14.214 -0.3909  0.3241  0.5352
   30MPD2     H  471   2.717   0.958  14.464 -0.7609  1.5398  1.0447
   30MPD2    H1  472   2.375   1.196  14.338  0.8397  0.4518  1.4941
   30MPD2    H2  473   2.514   0.877  14.104 -0.6058 -1.2138  0.8399
   30MPD2    H3  474   2.359   1.062  14.146  1.0828  2.3177 -0.5834
   30MPD2     N  475   2.539   1.171  14.535 -0.4009 -0.2551  0.1138
   30MPD2    H5  476   2.475   1.249  14.538  0.9883  0.9338 -0.8911
   30MPD2    N1  477   2.690   0.779  14.304 -0.1622 -0.1891 -0.3119
   30MPD2    H7  478   2.754   0.772  14.383  1.9670  2.0501 -1.8277
   31TMC2    C1  479   0.457   4.625  14.998 -0.4206  0.5902  0.3753
   31TMC2    C2  480   0.321   4.644  15.004  0.1316  0.1458  0.1976
   31TMC2    C3  481   0.250   4.576  15.105  0.2428  0.6800 -0.3834
   31TMC2    C4  482   0.524   4.538  15.078 -0.8831  0.1522  0.0014
   31TMC2    C5  483   0.453   4.466  15.169  0.4501 -0.3684  0.0618
   31TMC2    C6  484   0.316   4.478  15.181  0.1854 -0.2823  0.3032
   31TMC2     C  485   0.504   4.658  14.865  0.0306  0.3683 -0.1206
   31TMC2     O  486   0.421   4.683  14.780  0.0778 -0.2000  0.0198
   31TMC2     H  487   0.269   4.728  14.958 -0.1430  0.4406  1.0408
   31TMC2    H1  488   0.630   4.523  15.063 -0.7507 -0.0290  1.1510
   31TMC2    H2  489   0.269   4.415  15.255  1.2118 -0.9987  0.3423
   31TMC2    C7  490   0.522   4.417  15.295 -0.0499 -0.2343 -0.7003
   31TMC2    C8  491   0.116   4.629  15.151 -0.1899  0.2797  0.6135
   31TMC2    O1  492   0.462   4.322  15.344  0.0944 -0.4406  0.1746
   31TMC2    O2  493   0.055   4.710  15.085 -0.7632 -0.4929  0.0138
   31TMC2    O5  494   0.118   4.622  15.285 -0.1554  0.6298 -0.0166
   31TMC2    H5  495   0.196   4.582  15.329  0.2473  0.9310 -0.4564
   32MPD2     C  496   0.894   4.733  14.553  0.2386  1.0386  0.6218
   32MPD2    C1  497   0.760   0.017  14.528  0.6983  0.1719  0.2484
   32MPD2    C2  498   0.674   4.722  14.632 -0.9087  0.1459  0.0509
   32MPD2    C3  499   0.718   4.677  14.757  0.0265 -0.4122  0.0575
   32MPD2    C4  500   0.856   4.669  14.777 -1.3609  0.1073 -0.1477
   32MPD2    C5  501   0.939   4.690  14.675 -0.9517  0.2999  0.5506
   32MPD2     H  502   0.570   0.002  14.608 -0.7407 -2.9544 -3.1728
   32MPD2    H1  503   0.892   4.640  14.875 -0.5095  1.7536  0.0319
   32MPD2    H2  504   0.964   0.012  14.472  1.0673  1.8377  1.5119
   32MPD2    H3  505   1.045   4.696  14.698 -0.6632  2.2036 -1.3532
   32MPD2     N  506   0.636   4.656  14.862  0.2525  0.3337  0.1389
   32MPD2    H5  507   0.680   4.641  14.953  2.7397  1.7106 -0.8446
   32MPD2    N1  508   0.725   0.057  14.400 -0.4359 -0.5010 -0.2399
   32MPD2    H7  509   0.803   0.086  14.341 -2.0279  1.8646 -1.1827
   33TMC2    C1  510   0.061   2.365  10.536  0.2277 -0.1609 -0.2455
   33TMC2    C2  511   4.681   2.351  10.610  0.3602 -0.2215 -0.1405
   33TMC2    C3  512   4.575   2.413  10.556  0.1348  0.2653  0.5306
   33TMC2    C4  513   0.076   2.461  10.439  0.6855 -0.6625 -0.7641
   33TMC2    C5  514   4.705   2.533  10.399  0.0226  0.0680  0.5260
   33TMC2    C6  515   4.582   2.503  10.449 -0.2131 -0.0035 -0.6506
   33TMC2     C  516   0.173   2.283  10.572 -0.2698  0.4953  0.0072
   33TMC2     O  517   0.284   2.329  10.556 -0.0876  0.7084  0.3720
   33TMC2     H  518   4.667   2.290  10.698 -0.8461  0.5982  0.2352
   33TMC2    H1  519   0.170   2.476  10.388  0.7181 -0.5672 -0.6756
   33TMC2    H2  520   4.503   2.576  10.436 -0.0781  0.2078 -0.2954
   33TMC2    C7  521   4.729   2.645  10.309 -0.1894 -0.0464  0.6182
   33TMC2    C8  522   4.448   2.386  10.609  0.1542  0.8109  0.0879
   33TMC2    O1  523   0.097   2.639  10.248 -0.0785  0.2473  0.3081
   33TMC2    O2  524   4.417   2.270  10.633  0.1683  0.1893  0.5156
   33TMC2    O5  525   4.400   2.499  10.658  0.1774 -0.2094 -0.2571
   33TMC2    H5  526   4.456   2.579  10.645  0.7383 -0.0891  2.7828
   34MPD2     C  527   0.374   1.840  10.749 -0.5614 -0.3955 -0.0587
   34MPD2    C1  528   0.235   1.824  10.751  0.1871  0.0877  0.4610
   34MPD2    C2  529   0.158   1.932  10.715  0.4106  0.1897  0.0045
   34MPD2    C3  530   0.219   2.057  10.679 -0.3442  0.4848  0.9215
   34MPD2    C4  531   0.353   2.061  10.692  0.0233  0.5042 -0.6421
   34MPD2    C5  532   0.428   1.960  10.731  0.4765 -0.0831  0.0302
   34MPD2     H  533   0.050   1.918  10.714  0.3921  0.2444  1.3150
   34MPD2    H1  534   0.411   2.152  10.683  0.1505  0.3486 -1.4264
   34MPD2    H2  535   0.431   1.752  10.777  1.5453  1.1277  0.4376
   34MPD2    H3  536   0.536   1.959  10.741  0.4874  2.7105  0.3685
   34MPD2     N  537   0.134   2.167  10.636  0.1601 -0.5908  0.5324
   34MPD2    H5  538   0.035   2.147  10.642  0.0116  1.2483  4.0605
   34MPD2    N1  539   0.193   1.692  10.765 -0.1155  0.6915  0.4430
   34MPD2    H7  540   0.264   1.631  10.804 -2.4782 -1.4207  1.4259
   35TMC2    C1  541   1.249   3.408  11.393 -0.3831  0.4303 -0.3290
   35TMC2    C2  542   1.190   3.460  11.281  0.0210 -0.2525 -1.2376
   35TMC2    C3  543   1.058   3.416  11.264 -0.4841 -0.1745  0.2590
   35TMC2    C4  544   1.179   3.343  11.489  0.3779 -0.0625 -0.9442
   35TMC2    C5  545   1.048   3.303  11.469 -0.1239 -0.5494 -0.3512
   35TMC2    C6  546   0.987   3.340  11.354 -1.0472  0.3225  0.1757
   35TMC2     C  547   1.383   3.460  11.422  0.3134 -0.1141 -0.2751
   35TMC2     O  548   1.443   3.519  11.329 -0.0726 -0.3729 -0.2728
   35TMC2     H  549   1.248   3.509  11.203  1.8767  0.2557  0.4578
   35TMC2    H1  550   1.214   3.325  11.590  0.0123 -1.7137 -1.1033
   35TMC2    H2  551   0.884   3.310  11.337 -0.4089 -1.1038 -1.1078
   35TMC2    C7  552   0.987   3.199  11.548 -1.3168 -0.1884 -0.0300
   35TMC2    C8  553   0.983   3.447  11.149  0.7315 -0.4868  0.5241
   35TMC2    O1  554   0.881   3.159  11.507  0.0790 -0.1122 -0.5069
   35TMC2    O2  555   0.867   3.409  11.132  0.2284  0.2570 -0.1144
   35TMC2    O5  556   1.010   3.577  11.112  0.6305  0.1683  0.3100
   35TMC2    H5  557   1.100   3.610  11.129 -0.2621  3.0249 -0.4657
   36MPD2     C  558   1.686   3.688  11.765 -0.6686  0.0569 -0.0382
   36MPD2    C1  559   1.628   3.583  11.830 -0.2493 -0.3430 -0.2916
   36MPD2    C2  560   1.540   3.505  11.761 -0.0073 -1.1755 -0.1163
   36MPD2    C3  561   1.525   3.521  11.625 -0.3139 -0.1658  0.1947
   36MPD2    C4  562   1.597   3.618  11.558  0.2069 -0.5447  0.9699
   36MPD2    C5  563   1.663   3.706  11.628 -0.6578  0.2372  0.2241
   36MPD2     H  564   1.476   3.432  11.809 -1.0299 -0.4243 -0.3190
   36MPD2    H1  565   1.588   3.628  11.450  0.6268 -0.1099  0.9769
   36MPD2    H2  566   1.748   3.761  11.815 -1.3568 -0.6078  1.7914
   36MPD2    H3  567   1.722   3.783  11.580  1.5054 -1.9442 -0.6210
   36MPD2     N  568   1.426   3.444  11.556  0.0299  0.4934  0.2132
   36MPD2    H5  569   1.375   3.376  11.610 -1.9369 -0.0634 -2.3406
   36MPD2    N1  570   1.663   3.569  11.966 -0.0763  0.2179 -0.1413
   36MPD2    H7  571   1.715   3.645  12.009  1.5121 -0.0157 -1.6700
   37TMC2    C1  572   3.593   3.387  12.217  0.7718 -0.0265  0.1104
   37TMC2    C2  573   3.468   3.399  12.166 -0.6055 -0.5383  0.6200
   37TMC2    C3  574   3.455   3.403  12.030  0.3644 -0.5949  0.5375
   37TMC2    C4  575   3.703   3.368  12.138 -0.0331  0.3310  0.8397
   37TMC2    C5  576   3.683   3.377  12.002 -0.9968 -0.0463  0.3700
   37TMC2    C6  577   3.561   3.407  11.946 -1.1816 -0.3083  0.2736
   37TMC2     C  578   3.617   3.404  12.358  0.1143  0.3818 -0.7804
   37TMC2     O  579   3.521   3.394  12.437 -0.3581 -0.5761  0.2107
   37TMC2     H  580   3.384   3.418  12.231 -0.7408 -0.3065  0.3793
   37TMC2    H1  581   3.802   3.347  12.177  0.0993  0.8927  0.7996
   37TMC2    H2  582   3.542   3.439  11.844  1.1898 -0.4848 -0.2288
   37TMC2    C7  583   3.807   3.391  11.924 -0.3254  0.3589 -0.4674
   37TMC2    C8  584   3.325   3.439  11.976 -0.0250 -0.2971 -0.0425
   37TMC2    O1  585   3.911   3.401  11.991 -0.4529  0.6353 -0.0251
   37TMC2    O2  586   3.244   3.507  12.034  0.4021  0.1633 -0.2153
   37TMC2    O5  587   3.303   3.361  11.870  0.5286 -0.3204 -0.2005
   37TMC2    H5  588   3.353   3.277  11.886  2.4398  0.6291 -1.2405
   38MPD2     C  589   3.877   3.502  12.797  0.1440  0.5442  0.2587
   38MPD2    C1  590   3.969   3.472  12.694 -0.3870 -0.0158 -0.6757
   38MPD2    C2  591   3.929   3.450  12.566  0.6173 -0.2270  0.8664
   38MPD2    C3  592   3.792   3.456  12.530  0.8858 -0.2361 -0.8441
   38MPD2    C4  593   3.706   3.489  12.630  0.0616  1.0154  0.7691
   38MPD2    C5  594   3.747   3.507  12.761 -0.3377 -0.6506 -0.1515
   38MPD2     H  595   4.002   3.433  12.488 -1.0604  0.9121 -0.9408
   38MPD2    H1  596   3.602   3.515  12.614  0.1333  0.7659 -0.0918
   38MPD2    H2  597   3.901   3.512  12.903 -1.3295 -0.6532  0.7111
   38MPD2    H3  598   3.664   3.528  12.828 -0.7378 -0.7443 -0.6127
   38MPD2     N  599   3.750   3.434  12.396  0.1949  0.6740 -0.3104
   38MPD2    H5  600   3.823   3.444  12.326  2.7528 -2.4584  1.9204
   38MPD2    N1  601   4.109   3.480  12.718 -0.2881 -0.3002  0.2112
   38MPD2    H7  602   4.174   3.453  12.645 -0.1511  2.1766 -0.6045
   39TMC2    C1  603   2.427   0.360   1.153 -0.0111  0.0833 -0.0177
   39TMC2    C2  604   2.429   0.267   1.053 -0.1139  0.0995  0.5889
   39TMC2    C3  605   2.548   0.227   1.008  0.0804  0.5112  0.1841
   39TMC2    C4  606   2.538   0.427   1.201 -0.4137 -0.2396 -0.1586
   39TMC2    C5  607   2.652   0.374   1.157 -0.5451  0.5461  0.2739
   39TMC2    C6  608   2.660   0.280   1.060  0.5252  0.2121  0.0686
   39TMC2     C  609   2.315   0.387   1.226 -0.0137 -0.8216 -0.3704
   39TMC2     O  610   2.294   0.504   1.246  0.0419 -0.9065 -0.4438
   39TMC2     H  611   2.339   0.226   1.009  0.5048  1.1895 -1.7068
   39TMC2    H1  612   2.535   0.499   1.282 -0.1274  0.1599 -0.4992
   39TMC2    H2  613   2.760   0.253   1.028  0.6489  2.6489 -1.5766
   39TMC2    C7  614   2.778   0.424   1.210 -0.0305 -0.3825  0.0972
   39TMC2    C8  615   2.572   0.124   0.911 -0.0336 -1.2617  0.0198
   39TMC2    O1  616   2.866   0.342   1.230  0.5972 -0.3582 -0.2982
   39TMC2    O2  617   2.683   0.115   0.858  0.1896 -0.5132  0.0715
   39TMC2    O5  618   2.510   0.016   0.966  0.6461  0.2403 -0.3003
   39TMC2    H5  619   2.434   0.036   1.025 -0.3000 -0.1038 -1.4055
   40MPD2     C  620   2.058   0.126   1.278 -0.3320  0.3081  0.5192
   40MPD2    C1  621   2.111   0.252   1.272  0.9032 -0.0657  0.0285
   40MPD2    C2  622   2.031   0.358   1.275  0.7732 -0.6560 -0.1058
   40MPD2    C3  623   1.888   0.349   1.276 -0.5576 -1.0525  0.2464
   40MPD2    C4  624   1.836   0.222   1.280 -0.7679 -0.3491 -0.2616
   40MPD2    C5  625   1.923   0.113   1.301  0.1552 -0.1731 -0.2995
   40MPD2     H  626   2.078   0.455   1.278  2.5450 -1.5164 -0.3452
   40MPD2    H1  627   1.730   0.208   1.295 -0.9755  2.1743  0.5920
   40MPD2    H2  628   2.126   0.041   1.280 -0.7360 -0.0812 -1.8251
   40MPD2    H3  629   1.885   0.013   1.315  0.8327 -0.3145  0.5272
   40MPD2     N  630   1.800   0.462   1.255  0.4430 -0.3466  0.7702
   40MPD2    H5  631   1.701   0.440   1.247  1.0794 -2.0218 -2.0838
   40MPD2    N1  632   2.252   0.269   1.257 -0.3782  0.2729  0.0935
   40MPD2    H7  633   2.307   0.184   1.258 -0.7974  0.0082  1.0398
   41TMC2    C1  634   0.713   3.880  13.684  0.2304  0.5340  0.7180
   41TMC2    C2  635   0.714   4.001  13.757 -0.7732  0.1248 -0.0571
   41TMC2    C3  636   0.694   4.119  13.700 -0.0002  0.0718 -0.2469
   41TMC2    C4  637   0.685   3.886  13.547 -0.5325  0.9732 -0.0928
   41TMC2    C5  638   0.665   4.009  13.492 -0.4730 -0.7489 -0.7022
   41TMC2    C6  639   0.659   4.126  13.568  0.2895 -0.4527 -0.1733
   41TMC2     C  640   0.741   3.750  13.741  0.0151 -0.2745  0.7293
   41TMC2     O  641   0.760   3.657  13.664 -0.1428  0.4248 -0.2911
   41TMC2     H  642   0.735   4.003  13.863 -1.1764  0.9137  0.0072
   41TMC2    H1  643   0.687   3.799  13.482  0.7988  0.8884  0.0743
   41TMC2    H2  644   0.657   4.217  13.509 -1.4674 -0.1192  0.4106
   41TMC2    C7  645   0.622   4.024  13.356  0.0074  0.3728 -0.0901
   41TMC2    C8  646   0.716   4.236  13.777  0.0286  0.4107  0.3161
   41TMC2    O1  647   0.525   4.097  13.333 -0.5164  0.4941 -0.6523
   41TMC2    O2  648   0.776   4.229  13.885 -0.3003 -0.3444 -0.7007
   41TMC2    O5  649   0.641   4.331  13.732  0.0013  0.1025 -0.0223
   41TMC2    H5  650   0.595   4.326  13.645  0.1698  1.0643 -0.1698
   42MPD2     C  651   0.766   3.512  13.916  0.0294 -0.2273  0.3262
   42MPD2    C1  652   0.762   3.639  13.961 -0.0128 -0.2342  0.7051
   42MPD2    C2  653   0.798   3.663  14.095 -0.2206 -0.1438  0.0780
   42MPD2    C3  654   0.820   3.564  14.190  0.6717 -1.1147  0.5436
   42MPD2    C4  655   0.806   3.431  14.148  0.1383 -0.1193 -0.3146
   42MPD2    C5  656   0.781   3.413  14.008  0.6823  0.4572 -0.4472
   42MPD2     H  657   0.798   3.769  14.115 -0.4973 -0.1123 -0.0870
   42MPD2    H1  658   0.828   3.340  14.204  1.6003 -0.4611 -1.4447
   42MPD2    H2  659   0.767   3.480  13.812  0.7098  1.9883 -0.3557
   42MPD2    H3  660   0.781   3.310  13.976 -0.3488  0.1782  0.4434
   42MPD2     N  661   0.859   3.595  14.320 -0.6020  0.2838  0.0564
   42MPD2    H5  662   0.870   3.519  14.386  0.0115  1.1950  0.9940
   42MPD2    N1  663   0.743   3.753  13.880  0.5014 -0.4865  0.8407
   42MPD2    H7  664   0.721   3.845  13.916  1.8946  0.3431 -0.4548
   43TMC2    C1  665   2.133   2.312   1.028 -0.0760  0.5549  1.0880
   43TMC2    C2  666   2.023   2.350   1.091  0.2478 -0.4798 -0.1892
   43TMC2    C3  667   2.033   2.444   1.194 -0.9878  0.4392 -0.3888
   43TMC2    C4  668   2.258   2.367   1.049 -0.6479  0.2529 -0.3942
   43TMC2    C5  669   2.270   2.455   1.159 -0.1022 -0.5743  0.2027
   43TMC2    C6  670   2.154   2.495   1.233  0.9547  0.5288 -0.0473
   43TMC2     C  671   2.122   2.235   0.902  0.8111  0.5201 -0.6798
   43TMC2     O  672   2.234   2.217   0.847 -0.7456  0.1895  0.3065
   43TMC2     H  673   1.923   2.316   1.066  1.0446 -2.8961 -0.0776
   43TMC2    H1  674   2.346   2.337   0.994 -1.0345  3.4818 -2.7878
   43TMC2    H2  675   2.148   2.572   1.310  0.1699  0.1527  0.2741
   43TMC2    C7  676   2.401   2.474   1.220  0.3207 -0.1145  1.0164
   43TMC2    C8  677   1.917   2.487   1.267  0.5052 -0.6543  0.6056
   43TMC2    O1  678   2.492   2.477   1.138 -0.0220 -0.0252 -0.1602
   43TMC2    O2  679   1.918   2.560   1.361 -0.5063  0.2685 -0.4650
   43TMC2    O5  680   1.807   2.444   1.204  0.0780  0.5522 -0.0299
   43TMC2    H5  681   1.734   2.460   1.267 -0.2051 -1.1814  0.0777
   44MPD2     C  682   1.862   1.988   0.515 -0.2811  0.6498 -0.0615
   44MPD2    C1  683   1.994   2.017   0.521  0.3825  0.5780 -0.2490
   44MPD2    C2  684   2.044   2.082   0.635  0.9734  0.1072 -0.0174
   44MPD2    C3  685   1.961   2.120   0.741  0.2231 -0.6717  0.0399
   44MPD2    C4  686   1.830   2.088   0.728 -0.0229  0.6426  0.4180
   44MPD2    C5  687   1.782   2.019   0.619 -0.4029 -0.0921  0.2967
   44MPD2     H  688   2.148   2.112   0.629  0.9308  0.0428 -1.0298
   44MPD2    H1  689   1.762   2.124   0.806 -1.0259  0.7451 -0.5051
   44MPD2    H2  690   1.821   1.929   0.434  1.8039  2.1584 -2.2025
   44MPD2    H3  691   1.674   2.006   0.620 -0.3427 -0.6084 -0.2244
   44MPD2     N  692   1.995   2.197   0.858  0.0652  0.4463 -0.1007
   44MPD2    H5  693   1.921   2.210   0.927 -1.3144 -0.8008 -1.3395
   44MPD2    N1  694   2.086   1.975   0.424 -0.0895  0.0569  0.5822
   44MPD2    H7  695   2.186   1.993   0.436 -0.4215  1.6002  0.9563
   45TMC2    C1  696   2.518   4.440  10.221  0.1180 -0.2434  0.4519
   45TMC2    C2  697   2.466   4.445  10.092  0.3339  0.0439  0.3328
   45TMC2    C3  698   2.472   4.563  10.019 -0.0470 -0.3610 -0.7341
   45TMC2    C4  699   2.575   4.551  10.277 -0.5458  0.2524 -0.5354
   45TMC2    C5  700   2.571   4.669  10.209 -0.0866  0.4878 -0.1839
   45TMC2    C6  701   2.526   4.670  10.081 -0.0978 -0.4487 -0.1253
   45TMC2     C  702   2.579   4.323  10.282  0.2834  0.2576 -0.2923
   45TMC2     O  703   2.626   4.329  10.392 -0.1983 -0.4779 -0.1534
   45TMC2     H  704   2.432   4.353  10.047  0.9416  0.5864 -1.2337
   45TMC2    H1  705   2.613   4.546  10.378  0.5501  2.4127 -0.8559
   45TMC2    H2  706   2.502   0.026  10.033 -0.4390 -0.2392  0.4647
   45TMC2    C7  707   2.647   0.040  10.264  0.2668 -1.0318 -1.1665
   45TMC2    C8  708   2.383   4.588   9.908  0.6355  1.0153 -1.1166
   45TMC2    O1  709   2.731   0.008  10.348  0.3660 -0.5027 -0.2101
   45TMC2    O2  710   2.281   4.654   9.922  0.3993  0.1868  0.8813
   45TMC2    O5  711   2.387   4.478   9.834 -0.3908  0.5767  0.1278
   45TMC2    H5  712   2.478   4.447   9.816 -0.2718  0.2188  1.3560
   46MPD2     C  713   2.733   4.076  10.302  0.5074  0.2385 -0.4299
   46MPD2    C1  714   2.614   4.082  10.233 -0.3580 -0.2314 -1.3554
   46MPD2    C2  715   2.562   3.973  10.158 -0.6025 -0.5931 -0.1021
   46MPD2    C3  716   2.620   3.852  10.171  0.3141  0.2036 -0.3869
   46MPD2    C4  717   2.745   3.846  10.233  0.7379 -0.2724 -0.2156
   46MPD2    C5  718   2.795   3.957  10.290  0.6641  0.0502 -0.1201
   46MPD2     H  719   2.472   3.989  10.099 -0.3499  0.9936 -0.0763
   46MPD2    H1  720   2.808   3.758  10.241 -3.2411 -3.0339  0.8297
   46MPD2    H2  721   2.790   4.151  10.356  0.4784 -1.7518  2.3851
   46MPD2    H3  722   2.895   3.954  10.333  1.0491 -1.9651 -1.1341
   46MPD2     N  723   2.562   3.742  10.111  0.3270  0.1409  0.4602
   46MPD2    H5  724   2.491   3.766  10.043  0.4110 -0.7509  0.0608
   46MPD2    N1  725   2.549   4.204  10.215 -0.1399 -0.2610  0.1119
   46MPD2    H7  726   2.474   4.198  10.148 -0.0733 -2.1842  0.2011
   47TMC2    C1  727   4.296   4.539   9.320  0.1837 -0.0119  0.0763
   47TMC2    C2  728   4.288   4.637   9.414  0.0735 -0.0127 -0.5638
   47TMC2    C3  729   4.198   4.630   9.512  0.4005 -0.2387  0.2196
   47TMC2    C4  730   4.228   4.422   9.326  0.8757 -0.4878  0.4526
   47TMC2    C5  731   4.137   4.418   9.430  0.5127 -0.3963 -0.4401
   47TMC2    C6  732   4.117   4.521   9.523 -0.2908 -0.2259  0.7430
   47TMC2     C  733   4.407   4.563   9.220 -0.0459  0.6641  0.1615
   47TMC2     O  734   4.442   4.676   9.217  0.3788  0.3009  0.5487
   47TMC2     H  735   4.355   4.721   9.409 -0.0348  0.0741 -0.5611
   47TMC2    H1  736   4.246   4.347   9.250  1.7216 -0.3056  0.4772
   47TMC2    H2  737   4.057   4.509   9.613 -0.5282 -1.5730  0.4141
   47TMC2    C7  738   4.084   4.289   9.473 -0.1099 -0.5517 -0.1421
   47TMC2    C8  739   4.149   0.008   9.578  0.5073  0.9459 -0.0509
   47TMC2    O1  740   4.016   4.286   9.576  0.5768  0.1791 -0.1565
   47TMC2    O2  741   4.031   0.042   9.569 -0.1536  0.3825 -0.0239
   47TMC2    O5  742   4.252   0.092   9.582  0.5642  0.0300 -0.3026
   47TMC2    H5  743   4.337   0.043   9.576 -0.5457 -1.6377 -2.4775
   48MPD2     C  744   4.597   4.572   8.991  0.7066  0.3960 -0.1512
   48MPD2    C1  745   4.575   4.461   9.074  0.0820 -0.3141 -0.2447
   48MPD2    C2  746   4.653   4.351   9.063 -0.6778  0.0727 -0.3870
   48MPD2    C3  747   0.023   4.347   8.980  0.1981 -0.3489 -0.2454
   48MPD2    C4  748   0.046   4.455   8.892  0.3806  0.4861  0.0821
   48MPD2    C5  749   4.694   4.562   8.895  0.4317  0.1217  0.7802
   48MPD2     H  750   4.628   4.266   9.125 -0.2847  0.5501  0.4347
   48MPD2    H1  751   0.111   4.443   8.806 -1.5321 -2.4280 -0.9558
   48MPD2    H2  752   4.541   4.665   8.992 -1.0500 -0.6937  3.2562
   48MPD2    H3  753   4.705   4.652   8.834  1.2637  0.2295  1.0801
   48MPD2     N  754   0.098   4.231   8.980 -0.3974  0.2908 -0.5886
   48MPD2    H5  755   0.064   4.156   9.040  2.8223 -0.1747  0.6413
   48MPD2    N1  756   4.471   4.452   9.173  0.0076 -0.2630  0.9805
   48MPD2    H7  757   4.433   4.364   9.206  2.0835 -1.5118  0.0284
   49TMC2    C1  758   3.724   2.020  10.209  0.3175 -0.3211 -0.4174
   49TMC2    C2  759   3.670   2.051  10.083  0.4799 -0.1003  0.0247
   49TMC2    C3  760   3.532   2.049  10.071  0.3000  0.1645  0.2388
   49TMC2    C4  761   3.637   1.984  10.313 -0.7030 -0.4862 -0.0704
   49TMC2    C5  762   3.508   1.954  10.284 -0.2373  0.7142 -0.2468
   49TMC2    C6  763   3.453   1.999  10.170 -0.1673 -0.5190  0.2546
   49TMC2     C  764   3.863   2.019  10.236 -0.2193  0.6252  0.5176
   49TMC2     O  765   3.944   2.013  10.142  0.1957 -0.2894  0.0032
   49TMC2     H  766   3.737   2.088  10.006  0.7831  3.4256  1.9503
   49TMC2    H1  767   3.673   1.955  10.411 -0.9545 -1.0110 -0.1299
   49TMC2    H2  768   3.348   2.000  10.144  0.1736 -0.4112 -1.1029
   49TMC2    C7  769   3.431   1.929  10.399 -0.3721  0.0755  0.0085
   49TMC2    C8  770   3.471   2.091   9.945  0.3066  0.0754 -0.5402
   49TMC2    O1  771   3.487   1.941  10.507 -0.0748 -0.2455 -0.2140
   49TMC2    O2  772   3.349   2.101   9.930  0.3690  0.1191 -0.6978
   49TMC2    O5  773   3.545   2.034   9.849 -0.3103 -0.2152  0.2551
   49TMC2    H5  774   3.641   2.030   9.869 -0.6224  1.1590  2.0031
   50MPD2     C  775   4.136   1.968  10.355  0.1584 -1.3151  0.5270
   50MPD2    C1  776   4.028   2.013  10.426 -0.3835 -0.0350  1.0565
   50MPD2    C2  777   4.040   2.023  10.566  0.9478 -0.4313 -0.0104
   50MPD2    C3  778   4.158   1.999  10.631  0.0322 -0.1207  0.3680
   50MPD2    C4  779   4.263   1.952  10.561 -0.1733  0.4466 -0.1142
   50MPD2    C5  780   4.249   1.945  10.424 -0.0015  0.5591 -0.0603
   50MPD2     H  781   3.950   2.054  10.618  1.9956  3.1856 -0.2888
   50MPD2    H1  782   4.363   1.939  10.600  0.9026 -0.0839 -3.0451
   50MPD2    H2  783   4.139   1.957  10.247 -1.2233  0.9728  0.2395
   50MPD2    H3  784   4.337   1.905  10.377 -0.3128 -0.1752 -0.0193
   50MPD2     N  785   4.180   2.022  10.766 -0.1856  0.0260  0.5749
   50MPD2    H5  786   4.271   1.998  10.803 -0.1154  0.2635  0.5534
   50MPD2    N1  787   3.893   2.029  10.368  0.1109  0.7060 -0.4851
   50MPD2    H7  788   3.816   2.060  10.426 -0.1064 -0.9186  0.0788
   51TMC2    C1  789   0.664   4.395   2.002 -0.1058  0.0157 -0.2346
   51TMC2    C2  790   0.731   4.299   1.935 -0.1508 -0.4226  0.8262
   51TMC2    C3  791   0.864   4.283   1.971  0.2956 -0.7633  0.5972
   51TMC2    C4  792   0.718   4.469   2.099  0.0235 -0.0157  1.1776
   51TMC2    C5  793   0.851   4.463   2.122 -0.5390 -0.2898 -0.2032
   51TMC2    C6  794   0.923   4.366   2.060  0.1702  1.1588  0.8458
   51TMC2     C  795   0.544   4.447   1.928 -0.1194 -0.2697 -0.0712
   51TMC2     O  796   0.527   4.400   1.819 -0.3670  0.1643 -0.4607
   51TMC2     H  797   0.684   4.248   1.852  1.1438 -0.7440  0.2892
   51TMC2    H1  798   0.654   4.542   2.148 -1.3163 -1.2299  1.2412
   51TMC2    H2  799   1.026   4.348   2.091  1.3055  3.5012 -1.6520
   51TMC2    C7  800   0.896   4.555   2.228 -0.3806 -0.3599  0.1707
   51TMC2    C8  801   0.950   4.205   1.887 -1.0206  0.2755 -0.4665
   51TMC2    O1  802   0.815   4.643   2.267  0.2003 -0.6648 -0.5938
   51TMC2    O2  803   1.071   4.233   1.876 -0.2831  0.1818  0.3435
   51TMC2    O5  804   0.877   4.109   1.829  0.0605 -0.8093  0.0443
   51TMC2    H5  805   0.792   4.084   1.871 -1.2742  1.9233 -0.9979
   52MPD2     C  806   0.244   0.111   1.840  0.8426 -0.6035 -0.6994
   52MPD2    C1  807   0.289   0.006   1.758  0.2416  0.1635 -0.9861
   52MPD2    C2  808   0.355   4.640   1.809 -0.0456  0.0383 -0.3559
   52MPD2    C3  809   0.385   4.638   1.939 -0.8453 -0.3529  0.4104
   52MPD2    C4  810   0.325   4.731   2.027  0.5062  0.3049  0.7463
   52MPD2    C5  811   0.267   0.104   1.973 -0.5692  0.2781 -0.1333
   52MPD2     H  812   0.392   4.559   1.748 -2.2314 -1.7231  0.6381
   52MPD2    H1  813   0.348   4.738   2.133  1.2036  0.4582  0.5818
   52MPD2    H2  814   0.199   0.201   1.800  1.6949  0.5190  0.8416
   52MPD2    H3  815   0.240   0.184   2.042 -1.8614 -0.9190  0.7552
   52MPD2     N  816   0.483   4.556   1.991 -0.0369  0.1833  0.2774
   52MPD2    H5  817   0.501   4.571   2.090  1.2696  0.8307 -0.0627
   52MPD2    N1  818   0.266   0.013   1.618  0.1732  0.4777  0.3172
   52MPD2    H7  819   0.297   4.672   1.562  0.6097 -0.9581  2.5893
   53TMC2    C1  820   4.463   3.482  11.674  0.9007 -0.3948 -0.5158
   53TMC2    C2  821   4.586   3.425  11.669 -0.3462 -0.1730 -0.1155
   53TMC2    C3  822   4.661   3.421  11.787  0.4982 -0.7650  0.1955
   53TMC2    C4  823   4.426   3.544  11.792  0.7416 -0.7096 -0.2290
   53TMC2    C5  824   4.502   3.545  11.907 -0.1872 -0.4517  0.3402
   53TMC2    C6  825   4.621   3.482  11.900 -0.0832 -0.8902 -0.1155
   53TMC2     C  826   4.353   3.443  11.588 -0.1221 -0.1868  0.5722
   53TMC2     O  827   4.366   3.442  11.468 -0.1439  0.5045 -0.6350
   53TMC2     H  828   4.610   3.380  11.573 -1.7298  0.0145 -0.5428
   53TMC2    H1  829   4.351   3.623  11.794  1.6082  0.0810  1.0678
   53TMC2    H2  830   4.684   3.468  11.987 -3.2451 -1.7728  2.0177
   53TMC2    C7  831   4.438   3.581  12.030 -0.6418  0.2456  0.2004
   53TMC2    C8  832   0.034   3.322  11.801  0.7369  0.3368  0.0586
   53TMC2    O1  833   4.317   3.587  12.016 -0.4727 -0.3584 -0.0294
   53TMC2    O2  834   0.120   3.333  11.886 -0.4577  0.8912  0.2398
   53TMC2    O5  835   4.714   3.201  11.764 -0.3448 -0.5341  0.4146
   53TMC2    H5  836   4.632   3.206  11.710  0.0437 -1.8770 -0.3033
   54MPD2     C  837   4.073   3.412  11.488 -0.2199  0.1319 -0.3307
   54MPD2    C1  838   4.107   3.424  11.623 -0.1014 -0.2017  0.0477
   54MPD2    C2  839   4.013   3.411  11.721 -0.0818 -0.0877 -0.5225
   54MPD2    C3  840   3.877   3.404  11.683  0.3293 -0.3135  0.1968
   54MPD2    C4  841   3.843   3.405  11.546 -0.1540 -0.7225 -0.2102
   54MPD2    C5  842   3.938   3.410  11.451 -0.5521 -0.4890 -0.3089
   54MPD2     H  843   4.054   3.402  11.820 -1.2738 -1.2388 -0.1284
   54MPD2    H1  844   3.741   3.419  11.512  0.2196 -0.0824 -1.0741
   54MPD2    H2  845   4.150   3.418  11.412 -0.3802  0.7297 -0.4527
   54MPD2    H3  846   3.909   3.421  11.347  1.2775 -0.2127 -0.7822
   54MPD2     N  847   3.782   3.400  11.786  0.9869 -0.9577 -0.2750
   54MPD2    H5  848   3.687   3.384  11.753  1.5000 -2.4940 -0.9863
   54MPD2    N1  849   4.242   3.437  11.666  0.0687 -0.1308  0.0320
   54MPD2    H7  850   4.259   3.434  11.766  1.4384 -2.3631 -0.2594
   55TMC2    C1  851   0.310   2.020   0.369  0.4132 -0.1722 -0.1744
   55TMC2    C2  852   0.386   2.003   0.258  0.1222  0.5533 -0.4353
   55TMC2    C3  853   0.442   1.886   0.242  0.2809 -0.0269 -0.0226
   55TMC2    C4  854   0.287   1.922   0.467  0.4927 -0.1268 -0.6794
   55TMC2    C5  855   0.359   1.808   0.447  0.4444 -0.4205  0.6997
   55TMC2    C6  856   0.431   1.784   0.332 -0.1328 -0.0797 -0.2779
   55TMC2     C  857   0.250   2.147   0.395 -0.5740  0.2490  0.4150
   55TMC2     O  858   0.178   2.163   0.493 -0.2315 -0.3592 -0.6192
   55TMC2     H  859   0.399   2.077   0.180 -4.7812 -0.2999 -2.0949
   55TMC2    H1  860   0.227   1.939   0.556 -1.5251  1.0892 -2.2746
   55TMC2    H2  861   0.480   1.689   0.314  0.2999  0.2937 -1.1134
   55TMC2    C7  862   0.375   1.708   0.550  0.7074  0.2121  0.5173
   55TMC2    C8  863   0.529   1.860   0.131  0.5529  0.0812  0.3254
   55TMC2    O1  864   0.436   1.607   0.516 -0.0938  0.2638  0.1453
   55TMC2    O2  865   0.633   1.797   0.147  1.0200 -0.1682  0.3660
   55TMC2    O5  866   0.505   1.950   0.031  0.2092  0.0176  0.2367
   55TMC2    H5  867   0.411   1.979   0.035  0.9520  2.2839  1.3875
   56MPD2     C  868   0.269   2.445   0.190  0.2742 -0.1992 -0.3196
   56MPD2    C1  869   0.228   2.373   0.299  0.4002 -0.4088  0.5300
   56MPD2    C2  870   0.164   2.438   0.404 -0.3994 -0.7094  0.1830
   56MPD2    C3  871   0.144   2.570   0.400  1.1282  0.7145  0.8927
   56MPD2    C4  872   0.174   2.641   0.290 -0.0489 -0.3878  0.1723
   56MPD2    C5  873   0.241   2.581   0.188  0.8239  0.2639  0.5333
   56MPD2     H  874   0.136   2.376   0.489  0.0828 -1.3148 -0.0996
   56MPD2    H1  875   0.145   2.745   0.279 -1.6057 -1.1227 -2.5440
   56MPD2    H2  876   0.309   2.394   0.103 -1.2191 -0.5851 -0.7818
   56MPD2    H3  877   0.283   2.636   0.105  0.4889  1.3607  1.0903
   56MPD2     N  878   0.091   2.638   0.505 -0.1259 -0.4022 -0.3706
   56MPD2    H5  879   0.042   2.722   0.476 -1.3912 -0.3009  2.0767
   56MPD2    N1  880   0.265   2.240   0.292  0.1004  0.3682 -0.1935
   56MPD2    H7  881   0.319   2.210   0.211 -1.0430 -2.0720 -0.0553
   57TMC2    C1  882   3.921   2.520  13.499  0.1709 -0.1243 -0.0833
   57TMC2    C2  883   3.859   2.405  13.501 -0.1514  0.5865 -0.6786
   57TMC2    C3  884   3.889   2.319  13.402 -0.3225 -0.5470  1.1147
   57TMC2    C4  885   4.011   2.560  13.403 -0.4195  0.2583  0.1953
   57TMC2    C5  886   4.034   2.465  13.308  1.0066  0.0310  0.6920
   57TMC2    C6  887   3.974   2.346  13.301  0.0073 -0.7846 -0.3343
   57TMC2     C  888   3.861   2.629  13.556  0.5900  0.0828  0.1130
   57TMC2     O  889   3.855   2.728  13.489 -0.0397  0.3941 -0.1152
   57TMC2     H  890   3.779   2.380  13.570  0.2310 -0.0954 -0.4887
   57TMC2    H1  891   4.058   2.658  13.405 -1.8705  0.9360  0.6459
   57TMC2    H2  892   3.991   2.278  13.219  0.2753  0.5179 -1.3574
   57TMC2    C7  893   4.153   2.491  13.232 -0.1379  0.9206 -0.2686
   57TMC2    C8  894   3.811   2.199  13.406  0.3846 -0.8032  0.5805
   57TMC2    O1  895   4.229   2.576  13.279  0.3351  0.4198  0.2506
   57TMC2    O2  896   3.710   2.188  13.479 -0.1158 -0.8699  0.1615
   57TMC2    O5  897   3.885   2.099  13.352 -0.7093 -0.5252 -0.5748
   57TMC2    H5  898   3.968   2.136  13.314  1.7846 -2.5139  2.9980
   58MPD2     C  899   3.727   2.868  13.991  0.7653 -0.3622 -0.7041
   58MPD2    C1  900   3.736   2.918  13.862  0.6448 -0.3122 -0.4391
   58MPD2    C2  901   3.760   2.836  13.756 -0.1926 -0.5510  0.3833
   58MPD2    C3  902   3.779   2.698  13.781 -0.0144 -0.1700  0.4535
   58MPD2    C4  903   3.758   2.653  13.909 -0.4328  0.5697  0.3243
   58MPD2    C5  904   3.731   2.740  14.014  0.9900 -0.4387 -0.0868
   58MPD2     H  905   3.773   2.872  13.654  1.9105 -3.1353 -0.2404
   58MPD2    H1  906   3.770   2.547  13.929  3.4575  0.9091 -0.0768
   58MPD2    H2  907   3.708   2.928  14.079  0.8302  0.5896 -1.3344
   58MPD2    H3  908   3.741   2.709  14.117  2.5626  0.8452  0.1273
   58MPD2     N  909   3.816   2.601  13.682 -0.0233 -0.2644  0.2487
   58MPD2    H5  910   3.848   2.509  13.710 -0.7351 -0.6765 -0.2824
   58MPD2    N1  911   3.722   3.054  13.829 -0.4548  0.5262  0.0943
   58MPD2    H7  912   3.709   3.068  13.729  1.2365  0.2837 -0.1598
   59TMC2    C1  913   2.183   2.826  13.216 -1.2120  0.0719  0.1380
   59TMC2    C2  914   2.051   2.811  13.257  0.0491 -0.0377 -0.5889
   59TMC2    C3  915   1.950   2.844  13.173 -0.7417  0.4586 -0.7489
   59TMC2    C4  916   2.209   2.875  13.095  0.2846 -0.6113  0.9571
   59TMC2    C5  917   2.108   2.903  13.007  0.1121  0.2157 -0.3567
   59TMC2    C6  918   1.978   2.884  13.044 -0.8314  0.4504  0.3476
   59TMC2     C  919   2.284   2.830  13.319  0.3172  0.0823  0.2076
   59TMC2     O  920   2.376   2.900  13.285 -0.5221  0.5535 -0.2852
   59TMC2     H  921   2.023   2.763  13.350  1.0155 -0.2384 -0.4002
   59TMC2    H1  922   2.310   2.909  13.076  0.4428 -2.2590 -1.1307
   59TMC2    H2  923   1.902   2.871  12.968 -1.6165 -1.6409  1.4760
   59TMC2    C7  924   2.147   2.946  12.879 -0.3740 -0.2775  0.3986
   59TMC2    C8  925   1.812   2.820  13.222 -0.3665 -0.2866 -0.3421
   59TMC2    O1  926   2.264   2.935  12.844 -0.1305  0.3783  0.0744
   59TMC2    O2  927   1.790   2.762  13.328 -0.6615  0.0184 -0.0575
   59TMC2    O5  928   1.722   2.883  13.142 -0.8117 -0.0116 -0.1384
   59TMC2    H5  929   1.763   2.945  13.078 -1.0510 -1.2921 -1.5212
   60MPD2     C  930   2.274   2.675  13.650 -0.2228 -0.0498 -0.3679
   60MPD2    C1  931   2.306   2.767  13.555 -0.3105 -0.0515 -0.5941
   60MPD2    C2  932   2.389   2.879  13.590 -0.0128 -0.2657  0.8862
   60MPD2    C3  933   2.442   2.897  13.719 -0.6731  0.0847  0.6725
   60MPD2    C4  934   2.398   2.807  13.810 -0.0942  0.2409  0.3522
   60MPD2    C5  935   2.325   2.696  13.780  0.1209 -0.0206 -0.2275
   60MPD2     H  936   2.410   2.960  13.522 -2.5479 -2.2305 -2.2148
   60MPD2    H1  937   2.441   2.816  13.908 -1.1742  1.2508  0.7317
   60MPD2    H2  938   2.199   2.596  13.639 -0.7974  0.4678 -0.1472
   60MPD2    H3  939   2.300   2.628  13.861 -1.4328 -0.5174 -1.1222
   60MPD2     N  940   2.518   3.009  13.761  0.0754 -0.2338 -0.2362
   60MPD2    H5  941   2.537   3.016  13.861  0.3517  0.8700 -0.3650
   60MPD2    N1  942   2.248   2.758  13.431 -1.0833  0.2888 -0.2637
   60MPD2    H7  943   2.172   2.692  13.419 -0.7664  0.0062 -0.7396
   61TMC2    C1  944   1.459   3.991  14.961 -0.4130 -0.0129  0.4917
   61TMC2    C2  945   1.334   3.959  15.013 -0.2475 -0.6847  0.0800
   61TMC2    C3  946   1.267   4.052  15.089  0.0538  0.3099  0.6576
   61TMC2    C4  947   1.510   4.118  14.979 -0.2037  0.1354  0.4126
   61TMC2    C5  948   1.450   4.205  15.062 -0.1892  0.1942  0.2591
   61TMC2    C6  949   1.323   4.176  15.114 -0.4209  0.4973  0.4580
   61TMC2     C  950   1.482   3.936  14.830 -0.5572 -0.3481  0.0911
   61TMC2     O  951   1.442   3.823  14.810  0.0365  0.0397 -0.2801
   61TMC2     H  952   1.299   3.856  15.017 -1.8362 -0.1664 -0.3631
   61TMC2    H1  953   1.611   4.139  14.944 -0.7165 -0.4161 -1.3538
   61TMC2    H2  954   1.267   4.249  15.171 -2.2463 -0.6540  0.1180
   61TMC2    C7  955   1.496   4.338  15.082 -0.2561  0.8050 -0.0011
   61TMC2    C8  956   1.182   3.998  15.192 -0.0921  0.1045 -0.6871
   61TMC2    O1  957   1.541   4.390  14.980 -0.0979 -0.0172  0.1991
   61TMC2    O2  958   1.235   3.966  15.299  0.7148 -0.6398  0.4079
   61TMC2    O5  959   1.090   3.920  15.132  0.3573 -0.1876 -0.0915
   61TMC2    H5  960   1.073   3.959  15.043  0.7163  0.0007 -0.0775
   62MPD2     C  961   1.506   3.913  14.530  0.3358 -0.2610 -0.4559
   62MPD2    C1  962   1.543   4.025  14.605 -0.9284  0.2498  0.2107
   62MPD2    C2  963   1.602   4.133  14.552 -0.3541 -0.2094 -0.3368
   62MPD2    C3  964   1.603   4.138  14.412 -0.1937 -0.1600 -1.0164
   62MPD2    C4  965   1.573   4.028  14.337  0.0341 -0.7902  0.2103
   62MPD2    C5  966   1.518   3.914  14.390  0.0475 -0.0922  0.1834
   62MPD2     H  967   1.641   4.215  14.611 -0.6081  0.5848 -1.2852
   62MPD2    H1  968   1.597   4.030  14.231  0.3178 -1.1156  0.2649
   62MPD2    H2  969   1.469   3.826  14.582 -0.6509 -0.4272 -1.4521
   62MPD2    H3  970   1.499   3.819  14.343 -2.7548  1.9612 -2.8214
   62MPD2     N  971   1.663   4.241  14.339 -0.9594  0.1707 -0.2860
   62MPD2    H5  972   1.667   4.247  14.237  0.9070 -0.0537 -0.2325
   62MPD2    N1  973   1.520   4.033  14.741 -0.9204 -0.6084  0.5491
   62MPD2    H7  974   1.541   4.122  14.784 -1.0598 -0.3728  0.1340
   63TMC2    C1  975   0.710   4.015  10.473  0.2084 -0.3209  0.1902
   63TMC2    C2  976   0.805   4.025  10.566 -0.5140 -0.2427 -0.8486
   63TMC2    C3  977   0.923   4.083  10.515  0.2282  0.0229  0.5506
   63TMC2    C4  978   0.715   4.081  10.349 -0.5464  0.3311  0.4138
   63TMC2    C5  979   0.836   4.134  10.301  0.1421 -0.2519 -0.1477
   63TMC2    C6  980   0.942   4.130  10.384  0.0178 -0.0342 -0.4460
   63TMC2     C  981   0.586   3.931  10.498  0.4420  0.4777  0.3819
   63TMC2     O  982   0.480   3.966  10.439 -0.1102 -0.3644  0.5714
   63TMC2     H  983   0.783   3.993  10.667 -0.7637  3.6515  0.3634
   63TMC2    H1  984   0.633   4.066  10.281 -0.3083 -0.3693  0.2720
   63TMC2    H2  985   1.034   4.179  10.356 -0.4103  1.3245  0.5279
   63TMC2    C7  986   0.846   4.213  10.180 -0.7885  0.4454  1.2613
   63TMC2    C8  987   1.032   4.098  10.618 -0.4097 -0.7731 -0.1469
   63TMC2    O1  988   0.767   4.189  10.090 -0.0712  0.1143 -0.0880
   63TMC2    O2  989   1.144   4.137  10.595  0.3878 -0.0835 -0.2942
   63TMC2    O5  990   0.999   4.026  10.726 -0.6258  0.0053 -0.1843
   63TMC2    H5  991   1.056   4.047  10.803  0.6224  0.4986 -1.2331
   64MPD2     C  992   0.360   3.544  10.715 -0.2962  0.0776  0.4961
   64MPD2    C1  993   0.497   3.536  10.737  0.3749 -0.7560  0.7559
   64MPD2    C2  994   0.577   3.625  10.672 -0.5326 -0.4435 -0.4635
   64MPD2    C3  995   0.524   3.732  10.615  0.1558  0.2734  1.0499
   64MPD2    C4  996   0.388   3.744  10.590  0.4290  0.6843  0.8251
   64MPD2    C5  997   0.304   3.647  10.642 -0.7038  0.4521  0.2825
   64MPD2     H  998   0.684   3.606  10.676  0.1052  3.2419 -0.3249
   64MPD2    H1  999   0.345   3.821  10.528 -0.5748 -1.2148 -0.8400
   64MPD2    H2 1000   0.294   3.463  10.746  1.4662 -1.5902 -0.0782
   64MPD2    H3 1001   0.197   3.645  10.625 -0.7795 -0.7038  0.9604
   64MPD2     N 1002   0.614   3.829  10.579 -0.4844  0.5770 -0.1182
   64MPD2    H5 1003   0.714   3.822  10.595 -0.1399 -0.3106 -2.5571
   64MPD2    N1 1004   0.561   3.423  10.806 -0.1887 -0.2288 -0.6952
   64MPD2    H7 1005   0.500   3.342  10.814  1.6026 -1.8460 -3.0782
   65TMC2    C1 1006   2.226   3.963  15.861  0.0958  0.0608 -0.2951
   65TMC2    C2 1007   2.333   3.926  15.790 -0.0219 -0.0275  0.1521
   65TMC2    C3 1008   2.370   4.000  15.679 -0.5636  0.5078  0.4968
   65TMC2    C4 1009   2.148   4.067  15.819  0.0150  0.5289 -0.2771
   65TMC2    C5 1010   2.186   4.144  15.711 -1.3305  0.1262 -0.0184
   65TMC2    C6 1011   2.295   4.104  15.638 -0.1091  0.2982 -0.4630
   65TMC2     C 1012   2.145   3.863  15.924  0.5555  0.1000  0.2801
   65TMC2     O 1013   2.051   3.890  16.000 -0.3368  0.5728 -0.7453
   65TMC2     H 1014   2.393   3.841  15.819  0.7698  1.4336  2.7781
   65TMC2    H1 1015   2.055   4.076  15.875 -0.4396 -1.2975 -0.7091
   65TMC2    H2 1016   2.309   4.136  15.536 -2.0411  1.2179 -0.4366
   65TMC2    C7 1017   2.087   4.215  15.639  0.2896 -0.1312 -0.3426
   65TMC2    C8 1018   2.438   3.925  15.572 -0.3825  0.7223 -0.1464
   65TMC2    O1 1019   2.104   4.245  15.521  0.4248 -0.4188  0.0163
   65TMC2    O2 1020   2.440   3.801  15.557 -0.2472 -0.3091 -0.4011
   65TMC2    O5 1021   2.502   4.007  15.497 -0.2191 -0.5860  0.1442
   65TMC2    H5 1022   2.509   4.096  15.537 -3.3286 -1.4397  2.5905
   66MPD2     C 1023   2.076   3.607  16.049  0.0164 -0.5453 -0.0694
   66MPD2    C1 1024   2.129   3.615  15.923  0.0266  0.1768 -0.0897
   66MPD2    C2 1025   2.137   3.511  15.839  0.3256  0.1775  0.2141
   66MPD2    C3 1026   2.106   3.382  15.881 -0.3232 -0.4018 -0.4004
   66MPD2    C4 1027   2.062   3.377  16.012  0.3905 -0.2378 -0.3151
   66MPD2    C5 1028   2.049   3.483  16.091  0.3582 -0.7629  0.2639
   66MPD2     H 1029   2.165   3.510  15.734  1.6683  1.1042  0.5543
   66MPD2    H1 1030   2.039   3.277  16.049 -1.0199  0.9803  2.1081
   66MPD2    H2 1031   2.048   3.688  16.115 -1.2917 -3.0288  2.4625
   66MPD2    H3 1032   2.004   3.479  16.189 -0.5718  0.9250 -0.0817
   66MPD2     N 1033   2.099   3.263  15.802  0.0583 -0.5424  0.2246
   66MPD2    H5 1034   2.063   3.183  15.854  0.6323 -0.5612  0.5936
   66MPD2    N1 1035   2.171   3.737  15.867  0.1913  0.7130  0.0288
   66MPD2    H7 1036   2.218   3.724  15.778  0.2579  1.2588 -0.0171
   67TMC2    C1 1037   1.890   3.166  14.655 -0.3249 -0.2656  0.1261
   67TMC2    C2 1038   1.815   3.204  14.763  0.6442  0.1310 -0.2659
   67TMC2    C3 1039   1.870   3.203  14.886 -0.2490 -0.4812  1.0372
   67TMC2    C4 1040   2.011   3.111  14.670 -0.3538  0.1093 -0.1488
   67TMC2    C5 1041   2.059   3.103  14.797  0.0556 -0.3581  0.5601
   67TMC2    C6 1042   1.997   3.161  14.902  0.1518  0.0240 -0.1616
   67TMC2     C 1043   1.834   3.146  14.524 -0.1988 -0.4341 -0.2246
   67TMC2     O 1044   1.901   3.087  14.443  0.4214 -0.2594 -1.0138
   67TMC2     H 1045   1.716   3.248  14.748  0.6978  1.5169  3.4900
   67TMC2    H1 1046   2.070   3.077  14.585 -0.0112 -0.8004  0.4502
   67TMC2    H2 1047   2.028   3.143  15.005 -0.0581  1.8921  0.2203
   67TMC2    C7 1048   2.204   3.092  14.808 -0.7940  0.0172  0.0990
   67TMC2    C8 1049   1.782   3.219  15.008 -0.4968  0.4857 -0.0337
   67TMC2    O1 1050   2.267   3.031  14.723 -0.5022 -0.2040  0.4948
   67TMC2    O2 1051   1.833   3.227  15.117  0.3507 -0.2934 -0.0425
   67TMC2    O5 1052   1.655   3.196  14.982  0.0885  0.0877 -0.0395
   67TMC2    H5 1053   1.636   3.160  14.892  0.4537 -0.8889  0.2753
   68MPD2     C 1054   1.642   3.091  14.304 -0.0007 -0.1522 -0.7245
   68MPD2    C1 1055   1.639   3.207  14.386  0.0014 -0.4033 -0.4164
   68MPD2    C2 1056   1.551   3.312  14.362  0.3784  0.0769  0.1309
   68MPD2    C3 1057   1.469   3.306  14.248 -0.2960  0.4649 -0.5523
   68MPD2    C4 1058   1.472   3.197  14.166  0.0588  0.1868  0.0828
   68MPD2    C5 1059   1.550   3.092  14.195 -0.7309 -0.4938 -0.2143
   68MPD2     H 1060   1.551   3.395  14.432 -1.9632 -0.6694  1.0244
   68MPD2    H1 1061   1.414   3.188  14.074 -3.0704  2.3491  1.8283
   68MPD2    H2 1062   1.704   3.002  14.308 -0.3182 -0.5094 -3.7486
   68MPD2    H3 1063   1.551   3.005  14.130  1.7992 -0.0929 -0.7322
   68MPD2     N 1064   1.383   3.413  14.209 -0.2017 -0.3956 -0.6719
   68MPD2    H5 1065   1.336   3.405  14.119 -1.5162  0.3921 -0.0493
   68MPD2    N1 1066   1.716   3.216  14.506 -0.0083 -0.1380  0.2982
   68MPD2    H7 1067   1.695   3.294  14.568 -2.5051 -0.2802 -0.3897
   69TMC2    C1 1068   4.444   4.077  12.466 -0.2671 -0.0425  0.4549
   69TMC2    C2 1069   4.309   4.083  12.449 -0.7491 -0.1231 -0.2956
   69TMC2    C3 1070   4.260   4.054  12.325  0.2297 -0.8751  0.6222
   69TMC2    C4 1071   4.531   4.046  12.362 -0.7913  0.1126  0.5917
   69TMC2    C5 1072   4.474   4.002  12.242  0.1113  0.2590  0.8127
   69TMC2    C6 1073   4.336   4.012  12.216 -0.3719  0.0169 -0.3305
   69TMC2     C 1074   4.504   4.083  12.597 -0.1871 -0.3117 -0.1195
   69TMC2     O 1075   4.624   4.101  12.603  0.0233 -0.0850  0.6144
   69TMC2     H 1076   4.245   4.107  12.533 -0.1752  1.5842 -0.3479
   69TMC2    H1 1077   4.635   4.020  12.380 -0.5976 -0.1072 -0.8504
   69TMC2    H2 1078   4.288   3.998  12.120 -2.1188  1.4320  0.3413
   69TMC2    C7 1079   4.568   3.958  12.142  0.6646  0.2053 -0.3498
   69TMC2    C8 1080   4.126   4.107  12.310 -1.0164 -0.4238  0.1051
   69TMC2    O1 1081   4.691   3.949  12.160  0.0349 -0.8575  0.6914
   69TMC2    O2 1082   4.050   4.102  12.399 -0.3505  1.0816 -0.7118
   69TMC2    O5 1083   4.096   4.121  12.181  0.2192  0.2965  0.4508
   69TMC2    H5 1084   4.165   4.133  12.112  0.8552 -1.0458  0.8726
   70MPD2     C 1085   4.570   4.039  12.884 -0.4972  0.4860 -0.6805
   70MPD2    C1 1086   4.447   4.005  12.826 -0.0996 -0.8367 -0.1811
   70MPD2    C2 1087   4.348   3.937  12.899 -0.1501  0.5300 -0.1216
   70MPD2    C3 1088   4.387   3.885  13.023 -0.1108  0.1303  0.2348
   70MPD2    C4 1089   4.514   3.909  13.071  0.5823 -0.8942 -0.3440
   70MPD2    C5 1090   4.601   3.981  13.003 -0.2446 -0.0616 -0.2855
   70MPD2     H 1091   4.253   3.911  12.854 -0.8548  2.0408  0.4849
   70MPD2    H1 1092   4.544   3.869  13.167  0.9792  0.1391 -0.0356
   70MPD2    H2 1093   4.630   4.109  12.828  0.0946  0.4726 -0.0536
   70MPD2    H3 1094   4.688   4.017  13.056  0.0209  0.5635 -1.1343
   70MPD2     N 1095   4.306   3.804  13.104 -0.0855 -0.3442 -0.6871
   70MPD2    H5 1096   4.368   3.749  13.163 -2.1930 -0.0502  1.7882
   70MPD2    N1 1097   4.417   4.039  12.692  0.6550 -0.0318 -0.1195
   70MPD2    H7 1098   4.323   4.015  12.661  1.3417 -2.2247 -0.5278
   71TMC2    C1 1099   1.605   4.605   1.406 -0.2965  0.2511  0.1076
   71TMC2    C2 1100   1.734   4.569   1.410 -0.5640  0.4825  0.0246
   71TMC2    C3 1101   1.789   4.558   1.532  0.4970 -0.0155  0.7292
   71TMC2    C4 1102   1.531   4.626   1.512 -0.3634  0.0477  0.1509
   71TMC2    C5 1103   1.586   4.604   1.634  0.2824  0.2901 -0.8142
   71TMC2    C6 1104   1.717   4.577   1.650  0.3064  0.1352  0.7217
   71TMC2     C 1105   1.558   4.663   1.275 -0.1512  0.2523  0.8855
   71TMC2     O 1106   1.631   4.729   1.205 -0.1609  0.2757  0.4045
   71TMC2     H 1107   1.789   4.569   1.317  0.6342 -1.6380  0.7417
   71TMC2    H1 1108   1.433   4.671   1.505 -1.1806 -1.9246 -1.3158
   71TMC2    H2 1109   1.759   4.592   1.749 -0.2759  1.1118  0.8173
   71TMC2    C7 1110   1.526   4.662   1.751 -0.0418 -0.7769  0.5576
   71TMC2    C8 1111   1.932   4.576   1.528  0.5543 -0.3420 -0.0691
   71TMC2    O1 1112   1.593   4.735   1.818  0.0123  0.0223 -0.1181
   71TMC2    O2 1113   2.009   4.529   1.442  0.4516  0.4337  0.4480
   71TMC2    O5 1114   1.944   4.682   1.613  0.2598  0.6355  0.1030
   71TMC2    H5 1115   1.868   4.722   1.661 -1.0339  0.4524 -1.8001
   72MPD2     C 1116   1.202   4.724   0.922  0.6085 -0.7349 -0.1416
   72MPD2    C1 1117   1.325   0.048   0.937  0.3853 -0.0054  0.1964
   72MPD2    C2 1118   1.401   0.019   1.044 -0.3632  0.0654 -0.0072
   72MPD2    C3 1119   1.355   4.668   1.137 -0.4865 -0.2386  0.3100
   72MPD2    C4 1120   1.234   4.600   1.122 -0.2648  0.1431  0.5042
   72MPD2    C5 1121   1.159   4.622   1.011 -0.1948  0.7061 -1.1294
   72MPD2     H 1122   1.490   0.080   1.049 -1.4821  1.7850 -0.6853
   72MPD2    H1 1123   1.204   4.522   1.191  0.3688 -0.0675  0.5417
   72MPD2    H2 1124   1.140   0.005   0.835 -0.7160 -0.8496  0.7889
   72MPD2    H3 1125   1.067   4.569   0.990  0.5587 -1.2118  0.4339
   72MPD2     N 1126   1.428   4.638   1.251 -0.3564  0.1718  0.6037
   72MPD2    H5 1127   1.387   4.574   1.319 -0.3007 -1.1498 -0.6170
   72MPD2    N1 1128   1.367   0.155   0.850 -0.1599  0.1365  0.5056
   72MPD2    H7 1129   1.459   0.198   0.860  0.0194 -0.3902  1.1441
   73TMC2    C1 1130   1.012   1.557  13.576  0.7159 -0.0301 -0.4544
   73TMC2    C2 1131   0.912   1.611  13.647  0.0033  0.6392 -0.3844
   73TMC2    C3 1132   0.881   1.739  13.617 -0.2324 -0.1470 -0.2039
   73TMC2    C4 1133   1.094   1.625  13.498 -0.0799 -0.5528 -0.1324
   73TMC2    C5 1134   1.057   1.756  13.468  0.2389 -0.0796  0.8317
   73TMC2    C6 1135   0.945   1.812  13.522  0.7392  0.1158 -1.0539
   73TMC2     C 1136   1.027   1.411  13.581  0.0847 -1.1104 -0.5713
   73TMC2     O 1137   1.002   1.354  13.690  0.3504 -1.1888 -0.1311
   73TMC2     H 1138   0.858   1.541  13.709  0.2491  0.9819  0.2169
   73TMC2    H1 1139   1.193   1.590  13.471 -1.5215 -3.4100 -1.6447
   73TMC2    H2 1140   0.937   1.920  13.520 -0.5785  0.0338 -0.0603
   73TMC2    C7 1141   1.133   1.832  13.373  0.8038 -0.6613 -0.3466
   73TMC2    C8 1142   0.748   1.775  13.639 -1.3392  0.6112 -0.2330
   73TMC2    O1 1143   1.127   1.955  13.376  0.3238  0.0181  0.1174
   73TMC2    O2 1144   0.674   1.684  13.670 -0.3153 -0.1961  0.4161
   73TMC2    O5 1145   0.706   1.888  13.573  0.3969  0.0225 -0.3264
   73TMC2    H5 1146   0.766   1.958  13.604 -0.8510  0.7434  0.4500
   74MPD2     C 1147   1.301   1.013  13.390 -0.2690  0.3586 -0.5680
   74MPD2    C1 1148   1.314   1.125  13.311  0.1671  0.1579 -0.3087
   74MPD2    C2 1149   1.235   1.237  13.333 -0.3497  0.3384 -0.4325
   74MPD2    C3 1150   1.165   1.245  13.448  0.1595  0.5081 -0.6132
   74MPD2    C4 1151   1.162   1.135  13.533  0.7072 -0.0684  0.1589
   74MPD2    C5 1152   1.223   1.018  13.502 -0.0695  0.6909  0.5495
   74MPD2     H 1153   1.245   1.323  13.268  0.1373 -0.8607 -1.9687
   74MPD2    H1 1154   1.095   1.136  13.619  0.9502 -0.3744  0.3494
   74MPD2    H2 1155   1.340   0.916  13.361 -1.7932  0.2228 -2.2142
   74MPD2    H3 1156   1.209   0.926  13.557 -2.9430  0.5120 -0.4760
   74MPD2     N 1157   1.087   1.368  13.465  0.4436 -0.2053  0.1903
   74MPD2    H5 1158   1.081   1.432  13.387 -0.1106 -1.4879 -0.8163
   74MPD2    N1 1159   1.406   1.120  13.206 -0.2639  0.1704  0.4569
   74MPD2    H7 1160   1.461   1.035  13.205  1.5525  1.3576 -0.1002
   75TMC2    C1 1161   1.296   3.630  14.211 -0.0359  0.3271  0.4893
   75TMC2    C2 1162   1.261   3.740  14.277 -0.1512 -0.6573  0.0442
   75TMC2    C3 1163   1.225   3.847  14.207  0.1106  0.7794  0.2199
   75TMC2    C4 1164   1.288   3.632  14.073  0.7924  0.3536  0.6709
   75TMC2    C5 1165   1.244   3.740  14.003 -0.1263 -0.4395  0.1819
   75TMC2    C6 1166   1.211   3.847  14.072  0.0189 -0.3392  0.1247
   75TMC2     C 1167   1.355   3.524  14.283 -0.0362  0.5384  0.3637
   75TMC2     O 1168   1.387   3.546  14.397  0.3821  0.0474 -0.1719
   75TMC2     H 1169   1.258   3.739  14.385  0.4612 -4.3474  0.0090
   75TMC2    H1 1170   1.305   3.536  14.024 -0.3486 -0.1149  1.1992
   75TMC2    H2 1171   1.160   3.931  14.027 -2.3152 -1.6709  0.2689
   75TMC2    C7 1172   1.211   3.720  13.861  0.1638 -0.4692 -0.6938
   75TMC2    C8 1173   1.212   3.970  14.278 -0.3354  0.2345  0.1892
   75TMC2    O1 1174   1.239   3.604  13.825  0.5592  0.4852 -0.4128
   75TMC2    O2 1175   1.182   3.976  14.398 -0.4547  0.0423  0.1290
   75TMC2    O5 1176   1.268   4.060  14.200  0.2592  0.3560  0.0698
   75TMC2    H5 1177   1.324   4.025  14.127 -0.1421 -0.5898  0.2196
   76TMC2    C1 1178   0.980   3.098  12.075  0.1629 -0.3740  0.1545
   76TMC2    C2 1179   0.897   2.987  12.084 -0.4125 -0.7532 -0.1172
   76TMC2    C3 1180   0.920   2.898  12.190 -0.1097  0.0895 -0.5190
   76TMC2    C4 1181   1.084   3.114  12.160 -0.0253  0.2725 -0.1944
   76TMC2    C5 1182   1.104   3.027  12.263  0.1867  0.1320 -0.2399
   76TMC2    C6 1183   1.024   2.913  12.278  0.1532 -0.5069  0.4071
   76TMC2     C 1184   0.936   3.205  11.982 -0.2795 -0.5202  0.3685
   76TMC2     O 1185   0.823   3.202  11.943 -0.3963 -0.0395 -0.3286
   76TMC2     H 1186   0.823   2.983  12.005 -1.3884  0.5643  0.7466
   76TMC2    H1 1187   1.145   3.204  12.157 -1.2649  1.0545 -1.7458
   76TMC2    H2 1188   1.050   2.839  12.353  3.6109 -1.6957 -1.9486
   76TMC2    C7 1189   1.208   3.051  12.364  0.0447 -0.0497  0.0950
   76TMC2    C8 1190   0.873   2.762  12.182 -0.5285 -0.0914 -0.0018
   76TMC2    O1 1191   1.278   2.957  12.400 -0.3144  0.1979  0.6651
   76TMC2    O2 1192   0.944   2.671  12.220 -0.2701  0.1123 -0.2708
   76TMC2    O5 1193   0.776   2.763  12.090  0.2866  0.0682  0.4739
   76TMC2    H5 1194   0.728   2.848  12.078  0.3507  0.4094  2.6401
   77MPD2     C 1195   1.022   3.654  11.761 -0.3524  0.0338  0.3941
   77MPD2    C1 1196   0.904   3.586  11.768  0.3735  0.2084 -0.1553
   77MPD2    C2 1197   0.906   3.461  11.827 -0.3480 -0.2133  0.1091
   77MPD2    C3 1198   1.028   3.412  11.875 -0.0723  0.2157  0.0829
   77MPD2    C4 1199   1.150   3.471  11.851 -0.2493  0.3524 -0.3357
   77MPD2    C5 1200   1.146   3.602  11.801  0.5802 -0.5530 -0.2342
   77MPD2     H 1201   0.819   3.398  11.839 -0.4011 -0.0332  0.6641
   77MPD2    H1 1202   1.246   3.436  11.886  0.2313  1.8682 -0.1810
   77MPD2    H2 1203   1.023   3.756  11.725 -1.9632  0.0820  0.4920
   77MPD2    H3 1204   1.232   3.667  11.788  1.7913 -1.6917  1.8932
   77MPD2     N 1205   1.033   3.294  11.952  0.1284  0.6362 -0.1999
   77MPD2    H5 1206   1.123   3.269  11.991 -0.1742  0.3085  0.2824
   77MPD2    N1 1207   0.793   3.658  11.730 -0.2306  0.4225  1.0849
   77MPD2    H7 1208   0.813   3.749  11.689 -2.3328 -0.4614 -1.8934
   78TMC2    C1 1209   1.079   4.417   0.599 -0.7911  0.3910 -0.4717
   78TMC2    C2 1210   1.057   4.518   0.504 -0.5435 -0.0852  0.5784
   78TMC2    C3 1211   1.165   4.595   0.474  0.1302  0.0145 -0.0685
   78TMC2    C4 1212   1.186   4.422   0.682 -1.6170  0.2689 -0.6254
   78TMC2    C5 1213   1.296   4.488   0.636 -0.1787  0.1565  0.2420
   78TMC2    C6 1214   1.288   4.574   0.526  0.2918 -0.6589 -0.2684
   78TMC2     C 1215   0.961   4.338   0.636 -0.3740  0.6154  0.0120
   78TMC2     O 1216   0.845   4.380   0.610 -0.6454 -0.9586  0.5246
   78TMC2     H 1217   0.965   4.513   0.446  0.4526 -1.3767 -0.9103
   78TMC2    H1 1218   1.196   4.347   0.760  1.3815  0.4243 -0.8643
   78TMC2    H2 1219   1.368   4.636   0.488  0.9462 -1.1114  0.3636
   78TMC2    C7 1220   1.423   4.499   0.708  0.1977  0.2401 -0.0686
   78TMC2    C8 1221   1.150   4.666   0.351  0.5685 -0.6565  0.1258
   78TMC2    O1 1222   1.511   4.565   0.650  0.5731 -0.1987  0.4972
   78TMC2    O2 1223   1.207   0.031   0.329  0.0596 -0.1976  0.6617
   78TMC2    O5 1224   1.134   4.570   0.257  0.1408  0.3459 -0.1752
   78TMC2    H5 1225   1.118   4.478   0.288 -1.3464  0.8328  0.5248
   79MPD1     C 1226   0.743   3.900   0.794 -0.4597 -0.2615 -0.7353
   79MPD1    C1 1227   0.696   4.002   0.714  0.6246  0.2047 -0.5746
   79MPD1    C2 1228   0.773   4.112   0.684 -0.0275 -0.4059  0.6303
   79MPD1    C3 1229   0.898   4.120   0.735 -0.0715 -0.1120 -0.5823
   79MPD1    C4 1230   0.949   4.017   0.808  0.3040  0.0872  0.1364
   79MPD1    C5 1231   0.869   3.911   0.843  0.1446  0.0352 -0.1528
   79MPD1     H 1232   0.731   4.195   0.628  0.2415 -0.5280  0.2502
   79MPD1    H1 1233   1.046   4.019   0.856 -0.2539  0.6072  1.2444
   79MPD1    H2 1234   0.685   3.816   0.833  1.1152 -0.9279  0.1672
   79MPD1    H3 1235   0.912   3.836   0.908  0.9152  0.2827 -0.3731
   79MPD1     N 1236   0.979   4.237   0.728  0.4342 -0.3022  0.5618
   79MPD1    H5 1237   1.074   4.230   0.765  0.2005 -0.8804  1.0375
   79MPD1    N1 1238   0.557   4.000   0.682  0.3116 -0.2032  0.8905
   79MPD1    H6 1239   0.507   3.913   0.697  1.2896 -0.4516  2.7608
   79MPD1    H7 1240   0.551   4.025   0.584  0.5480  0.8149  1.1250
   80TMC2    C1 1241   4.086   3.085  11.893  0.2770 -0.6508 -0.3936
   80TMC2    C2 1242   4.047   3.094  11.766 -0.2590 -0.1035 -0.1874
   80TMC2    C3 1243   3.925   3.070  11.728  0.1874 -0.5433 -0.6913
   80TMC2    C4 1244   3.997   3.064  11.992 -0.0688  0.3622 -0.2817
   80TMC2    C5 1245   3.869   3.032  11.948 -0.4297  0.0354 -0.5212
   80TMC2    C6 1246   3.833   3.033  11.817  0.1111 -0.1510 -0.2161
   80TMC2     C 1247   4.217   3.144  11.920 -0.5812 -0.1092  0.3101
   80TMC2     O 1248   4.291   3.172  11.827 -0.3425 -0.3555 -0.1683
   80TMC2     H 1249   4.118   3.117  11.687  0.9820  2.0155  1.5338
   80TMC2    H1 1250   4.020   3.065  12.098 -0.3876 -2.4208 -0.1891
   80TMC2    H2 1251   3.728   3.025  11.793  0.5436  0.2694 -2.2936
   80TMC2    C7 1252   3.757   3.011  12.045 -0.4551  0.1336  0.2555
   80TMC2    C8 1253   3.897   3.075  11.586  0.7207  0.2102  0.2762
   80TMC2    O1 1254   3.652   3.069  12.022  0.3656 -0.0560 -0.0866
   80TMC2    O2 1255   3.986   3.068  11.503 -0.5623  0.2866  0.1269
   80TMC2    O5 1256   3.764   3.086  11.558  0.0019 -0.2726 -0.4863
   80TMC2    H5 1257   3.708   3.125  11.629 -2.7077  1.2594 -3.4525
   81MPD2     C 1258   4.465   3.153  12.053 -0.0269  0.1604  0.1972
   81MPD2    C1 1259   4.348   3.200  12.119  0.2837  0.2137  0.6882
   81MPD2    C2 1260   4.350   3.257  12.246  0.0767 -0.4278 -0.6713
   81MPD2    C3 1261   4.476   3.263  12.308 -0.0430 -0.0452  0.3709
   81MPD2    C4 1262   4.586   3.214  12.245 -0.1267  0.3140 -0.3651
   81MPD2    C5 1263   4.585   3.166  12.117 -0.7639 -0.7606  0.1332
   81MPD2     H 1264   4.260   3.293  12.294 -0.8048 -3.4993 -0.0475
   81MPD2    H1 1265   4.681   3.226  12.297 -0.2423 -2.3040  0.4712
   81MPD2    H2 1266   4.464   3.116  11.951 -2.4344 -1.1124  0.6893
   81MPD2    H3 1267   4.682   3.132  12.083 -0.6705 -0.5250  0.1679
   81MPD2     N 1268   4.490   3.301  12.444  0.0289 -1.2290  0.7962
   81MPD2    H5 1269   4.586   3.300  12.476 -0.1844 -0.5750  1.4645
   81MPD2    N1 1270   4.227   3.175  12.055 -0.3056  0.1760 -0.5439
   81MPD2    H7 1271   4.143   3.185  12.110 -0.1757  1.2580 -0.5427
   82TMC2    C1 1272   2.160   2.739  11.396 -1.1565  0.6035 -0.1278
   82TMC2    C2 1273   2.221   2.807  11.503 -1.0718 -0.0928  0.7121
   82TMC2    C3 1274   2.286   2.726  11.590  0.7738 -0.5926  0.3292
   82TMC2    C4 1275   2.154   2.604  11.383  0.2429 -0.3093  0.2950
   82TMC2    C5 1276   2.216   2.531  11.474 -0.0011 -0.4939  0.0459
   82TMC2    C6 1277   2.277   2.593  11.577 -0.0275  0.1013  0.5235
   82TMC2     C 1278   2.097   2.811  11.284  0.0313  0.1187 -0.1858
   82TMC2     O 1279   1.991   2.764  11.235 -0.2976  0.2572  0.5859
   82TMC2     H 1280   2.210   2.915  11.513 -1.9473 -0.0997 -0.2512
   82TMC2    H1 1281   2.117   2.560  11.291 -3.3114  3.2914  0.0238
   82TMC2    H2 1282   2.330   2.532  11.649  1.3463  2.0387  1.1597
   82TMC2    C7 1283   2.180   2.394  11.497  0.1032 -0.6127 -0.8529
   82TMC2    C8 1284   2.337   2.781  11.710 -0.3431  0.3495  0.3760
   82TMC2    O1 1285   2.194   2.345  11.608 -0.2198 -0.4323  1.1280
   82TMC2    O2 1286   2.329   2.732  11.822 -0.6504 -0.1039  0.6391
   82TMC2    O5 1287   2.399   2.897  11.666  0.5398  0.1791  0.2282
   82TMC2    H5 1288   2.389   2.904  11.569 -0.5822 -0.0445  0.3230
   83MPD2     C 1289   1.988   3.255  11.049 -0.3288 -0.7533  0.3124
   83MPD2    C1 1290   1.931   3.126  11.035 -0.7711  0.3410 -0.2720
   83MPD2    C2 1291   2.000   3.012  11.087 -0.3941 -0.2151  0.0603
   83MPD2    C3 1292   2.099   3.037  11.178 -0.0217  0.8382  0.1299
   83MPD2    C4 1293   2.148   3.168  11.202 -0.1787 -0.3002  0.1093
   83MPD2    C5 1294   2.087   3.272  11.139  0.6992 -0.6118  0.1673
   83MPD2     H 1295   1.966   2.912  11.064  0.5963 -0.4156 -0.4866
   83MPD2    H1 1296   2.226   3.185  11.275 -0.8331  0.2642  0.6794
   83MPD2    H2 1297   1.947   3.331  10.984 -0.6077  0.1665  1.5773
   83MPD2    H3 1298   2.128   3.371  11.156  0.6999 -0.7701  1.0654
   83MPD2     N 1299   2.150   2.933  11.266  0.9116 -0.2185  0.1729
   83MPD2    H5 1300   2.229   2.948  11.328  1.5833  1.7931 -1.1760
   83MPD2    N1 1301   1.822   3.122  10.943  0.1707  0.1784  0.2123
   83MPD2    H7 1302   1.804   3.211  10.896  1.0880  1.1567  1.7001
   84TMC2    C1 1303   4.054   2.065  11.225 -0.4563 -0.3687  0.5894
   84TMC2    C2 1304   4.148   1.979  11.265 -0.4486  0.0766  0.4603
   84TMC2    C3 1305   4.222   1.924  11.164  0.3626 -0.5204  0.4052
   84TMC2    C4 1306   4.038   2.097  11.092 -0.9154  0.2730 -0.3209
   84TMC2    C5 1307   4.121   2.047  10.994  0.0821  0.7939  0.3440
   84TMC2    C6 1308   4.212   1.957  11.028 -0.5577 -1.0188 -0.3882
   84TMC2     C 1309   3.949   2.105  11.311 -0.0766 -0.6303  0.2061
   84TMC2     O 1310   3.876   2.199  11.279  0.4476  0.2026 -0.0492
   84TMC2     H 1311   4.173   1.966  11.369  2.0172  0.2818 -0.0896
   84TMC2    H1 1312   3.943   2.140  11.064 -1.1837 -1.1250 -1.5318
   84TMC2    H2 1313   4.286   1.917  10.959  0.7374  2.2245 -0.9256
   84TMC2    C7 1314   4.082   2.061  10.854 -0.8293 -0.2763 -0.6447
   84TMC2    C8 1315   4.341   1.849  11.205  0.6024  0.2228 -0.0442
   84TMC2    O1 1316   3.964   2.101  10.837 -0.2787 -0.2614 -0.3693
   84TMC2    O2 1317   4.444   1.829  11.143 -0.1405 -0.0912  0.3507
   84TMC2    O5 1318   4.276   1.755  11.280 -0.0749 -0.0078  0.2621
   84TMC2    H5 1319   4.194   1.787  11.325  1.4428 -0.3688  3.2909
   85TMC2    C1 1320   4.353   0.765  16.379 -0.4957  0.6874  0.2955
   85TMC2    C2 1321   4.351   0.904  16.397  0.2991 -0.2480  0.2635
   85TMC2    C3 1322   4.453   0.967  16.333 -0.0946 -0.1556 -0.2708
   85TMC2    C4 1323   4.451   0.690  16.322 -0.2510 -0.1304 -0.8271
   85TMC2    C5 1324   4.545   0.760  16.259  0.5945  0.9361  0.4703
   85TMC2    C6 1325   4.541   0.897  16.254 -0.3328  0.5218  0.3345
   85TMC2     C 1326   4.246   0.702  16.456 -0.4011 -0.3478  0.0447
   85TMC2     O 1327   4.210   0.773  16.548  0.1721 -0.3519 -0.0548
   85TMC2     H 1328   4.276   0.969  16.440  0.4192 -0.5624  0.9417
   85TMC2    H1 1329   4.470   0.584  16.331 -0.5541 -0.1148 -0.0146
   85TMC2    H2 1330   4.597   0.951  16.179 -0.7075 -0.8738 -0.9545
   85TMC2    C7 1331   4.682   0.700  16.244  0.2620  0.1106 -0.8197
   85TMC2    C8 1332   4.418   1.101  16.283  0.8034 -0.0905 -0.1626
   85TMC2    O1 1333   4.687   0.586  16.286 -0.5915 -0.4210  0.7534
   85TMC2    O2 1334   4.303   1.147  16.303  0.0921  0.2968  0.5160
   85TMC2    O5 1335   4.526   1.172  16.328  1.2196  0.0589 -0.3753
   85TMC2    H5 1336   4.606   1.120  16.350  1.6534  1.4750  1.3771
   86MPD2     C 1337   3.895   0.356  16.598 -0.5589  0.0448 -0.2676
   86MPD2    C1 1338   3.977   0.298  16.509  0.6639 -0.1146  0.6080
   86MPD2    C2 1339   4.088   0.364  16.454  0.2715 -0.2470  0.2600
   86MPD2    C3 1340   4.117   0.497  16.496  0.4095 -0.4384 -0.5487
   86MPD2    C4 1341   4.035   0.548  16.598  0.2244  0.7590  0.1472
   86MPD2    C5 1342   3.927   0.480  16.642  0.5424  0.0549  0.7153
   86MPD2     H 1343   4.159   0.307  16.395 -0.9068 -0.3457 -1.0448
   86MPD2    H1 1344   4.062   0.647  16.633 -1.2374 -0.0194  3.4020
   86MPD2    H2 1345   3.805   0.311  16.640 -2.3965  3.0774 -1.0051
   86MPD2    H3 1346   3.870   0.527  16.722 -1.2384 -0.0915 -0.4480
   86MPD2     N 1347   4.223   0.571  16.433 -0.3900  0.7081  0.1122
   86MPD2    H5 1348   4.278   0.524  16.362  0.0294  2.2140 -0.5737
   86MPD2    N1 1349   3.960   0.164  16.466 -0.3479  0.2465 -0.2788
   86MPD2    H7 1350   4.020   0.122  16.395 -0.4329  1.1756 -0.9096
   87TMC2    C1 1351   1.805   2.872   1.193  0.1506  0.8659  0.3469
   87TMC2    C2 1352   1.901   2.963   1.228  0.2430 -0.0070 -0.1794
   87TMC2    C3 1353   1.863   3.057   1.320  0.4239  0.1977 -0.1759
   87TMC2    C4 1354   1.675   2.879   1.238 -0.7206  0.1449 -0.7773
   87TMC2    C5 1355   1.645   2.973   1.326  0.0417 -0.9474 -0.1916
   87TMC2    C6 1356   1.739   3.073   1.367 -0.1362 -0.5414  0.4601
   87TMC2     C 1357   1.835   2.782   1.080  0.3254 -0.6442 -0.0161
   87TMC2     O 1358   1.737   2.731   1.028 -0.6732  0.0483  0.2615
   87TMC2     H 1359   2.000   2.978   1.186 -0.6975  0.2075 -2.3621
   87TMC2    H1 1360   1.605   2.798   1.220 -0.9181  0.3701 -1.0178
   87TMC2    H2 1361   1.719   3.160   1.428 -0.0996 -1.2216  1.4337
   87TMC2    C7 1362   1.506   2.981   1.369 -0.1739  0.7209 -0.0887
   87TMC2    C8 1363   1.957   3.163   1.352  0.0555 -0.1811  0.3924
   87TMC2    O1 1364   1.424   2.890   1.360  0.2545  0.4986 -0.2528
   87TMC2    O2 1365   2.058   3.184   1.286 -0.5979 -0.1365 -0.2282
   87TMC2    O5 1366   1.959   3.185   1.487  0.7490 -0.5246 -0.3141
   87TMC2    H5 1367   1.883   3.144   1.534  0.2742 -0.4403 -1.0156
   88MPD2     C 1368   1.260   3.103   1.493  0.2228  0.0420 -0.6869
   88MPD2    C1 1369   1.366   3.171   1.435 -0.5522 -0.2541  0.0149
   88MPD2    C2 1370   1.368   3.305   1.433 -0.3920 -0.1464 -0.6063
   88MPD2    C3 1371   1.261   3.380   1.484 -0.2445 -0.0849  0.5402
   88MPD2    C4 1372   1.151   3.316   1.535 -0.0043 -0.5480 -0.2018
   88MPD2    C5 1373   1.156   3.180   1.542  0.0813 -0.6747 -1.3364
   88MPD2     H 1374   1.460   3.353   1.401 -1.1320  1.0979 -0.8823
   88MPD2    H1 1375   1.058   3.365   1.562  1.4619  1.3193  1.4328
   88MPD2    H2 1376   1.257   2.994   1.499  1.8307 -0.1488 -3.2882
   88MPD2    H3 1377   1.070   3.127   1.581 -0.2141  2.2077  1.9740
   88MPD2     N 1378   1.249   3.524   1.468 -0.4548 -0.2909 -0.5095
   88MPD2    H5 1379   1.169   3.573   1.507  1.8831  3.3118 -0.2527
   88MPD2    N1 1380   1.486   3.113   1.384 -0.4127 -0.1184 -0.6581
   88MPD2    H7 1381   1.565   3.172   1.361  1.4306 -1.4839  2.1941
   89TMC2    C1 1382   2.859   1.151   1.637 -0.4051  0.7970  0.0447
   89TMC2    C2 1383   2.915   1.241   1.723 -0.2575  0.0880 -0.1714
   89TMC2    C3 1384   2.850   1.356   1.750  0.3259  0.2826 -0.6206
   89TMC2    C4 1385   2.743   1.176   1.565 -0.5902  0.3774 -0.5279
   89TMC2    C5 1386   2.690   1.301   1.586  0.1013 -0.0940 -0.2742
   89TMC2    C6 1387   2.733   1.380   1.684  0.2041 -0.3574 -0.4100
   89TMC2     C 1388   2.942   1.041   1.588  0.7012 -0.6080 -0.3435
   89TMC2     O 1389   3.055   1.036   1.628  0.2012  0.4008 -0.2617
   89TMC2     H 1390   3.003   1.208   1.777  0.2511  0.9498 -0.4726
   89TMC2    H1 1391   2.712   1.129   1.473  1.9506 -0.2172 -1.0976
   89TMC2    H2 1392   2.673   1.466   1.711 -1.1074 -1.6589  0.8808
   89TMC2    C7 1393   2.590   1.360   1.505 -0.0909 -0.1393 -0.2166
   89TMC2    C8 1394   2.912   1.448   1.842 -0.9623  0.2612  0.6202
   89TMC2    O1 1395   2.506   1.286   1.458 -0.4478 -0.6655  0.8204
   89TMC2    O2 1396   3.035   1.455   1.851  0.3503 -0.2788  0.6976
   89TMC2    O5 1397   2.825   1.550   1.878  0.8210  0.2705  0.7559
   89TMC2    H5 1398   2.728   1.538   1.876  0.9819 -0.8833  0.1430
   90MPD2     C 1399   2.990   0.586   1.354  0.4760  0.2655 -0.1865
   90MPD2    C1 1400   2.861   0.622   1.339  0.1180  0.5188  0.9800
   90MPD2    C2 1401   2.818   0.743   1.396 -0.0198 -0.6280  0.0616
   90MPD2    C3 1402   2.913   0.824   1.464  0.4622 -0.2539  0.8922
   90MPD2    C4 1403   3.042   0.780   1.476 -0.1173  0.3912 -0.1187
   90MPD2    C5 1404   3.085   0.663   1.421 -0.0042 -0.1264  0.3912
   90MPD2     H 1405   2.716   0.779   1.393  0.1767 -0.0182  0.7004
   90MPD2    H1 1406   3.121   0.826   1.533  0.7106  0.6351 -1.4683
   90MPD2    H2 1407   3.031   0.498   1.305 -0.8331 -0.4414 -0.0161
   90MPD2    H3 1408   3.186   0.625   1.431 -0.3365 -2.1119 -3.5991
   90MPD2     N 1409   2.865   0.946   1.529 -0.1151  0.2583 -0.6867
   90MPD2    H5 1410   2.766   0.968   1.539 -0.1065 -0.7350  1.7513
   90MPD2    N1 1411   2.774   0.554   1.262 -0.8125  0.1860  0.4930
   90MPD2    H7 1412   2.681   0.590   1.244  0.1685  2.6579  0.3947
   91TMC2    C1 1413   4.393   1.807  16.572 -0.1566 -0.4194  0.6271
   91TMC2    C2 1414   4.412   1.898  16.667 -0.1562  0.2999  0.8252
   91TMC2    C3 1415   4.299   1.931  16.739  0.2979  0.5443  0.1314
   91TMC2    C4 1416   4.283   1.733  16.559  0.0788 -0.1949  0.2578
   91TMC2    C5 1417   4.177   1.759  16.640  0.3597 -0.7198 -0.1015
   91TMC2    C6 1418   4.179   1.870  16.725  0.0462  0.5469 -0.2105
   91TMC2     C 1419   4.514   1.740  16.536 -0.1449 -0.2442  0.2939
   91TMC2     O 1420   4.517   1.681  16.429 -0.5889 -0.3359 -0.9704
   91TMC2     H 1421   4.507   1.945  16.691 -0.6207  1.3972  0.4696
   91TMC2    H1 1422   4.294   1.648  16.493 -0.4292 -1.3577  1.7003
   91TMC2    H2 1423   4.100   1.896  16.794 -0.3683  0.3616 -0.6164
   91TMC2    C7 1424   4.054   1.693  16.625 -0.2920 -0.0342 -0.0303
   91TMC2    C8 1425   4.314   2.051  16.810 -0.0161 -0.0528 -0.4072
   91TMC2    O1 1426   3.966   1.722  16.707 -0.3865 -0.6872 -0.1707
   91TMC2    O2 1427   4.242   2.083  16.908  0.1231  0.2481 -0.2205
   91TMC2    O5 1428   4.383   2.140  16.736  0.3192 -0.2198  0.1962
   91TMC2    H5 1429   4.398   2.120  16.641  1.1128  1.3698 -0.0174
   92MPD2     C 1430   0.067   1.682  16.494 -0.5710 -0.0963  0.2991
   92MPD2    C1 1431   4.735   1.670  16.613 -0.5049 -0.0886  0.0396
   92MPD2    C2 1432   0.076   1.628  16.724 -0.4838  0.1622 -0.1560
   92MPD2    C3 1433   0.208   1.600  16.718  0.3375 -0.0731 -0.4639
   92MPD2    C4 1434   0.270   1.616  16.597 -0.1679 -0.1516 -0.0550
   92MPD2    C5 1435   0.203   1.654  16.488 -0.3685 -0.7486  0.7015
   92MPD2     H 1436   0.028   1.624  16.821  0.4242 -3.2095  0.1504
   92MPD2    H1 1437   0.378   1.614  16.591 -0.1350  1.0718  0.1925
   92MPD2    H2 1438   0.021   1.723  16.405 -0.1205 -1.6897 -0.6834
   92MPD2    H3 1439   0.259   1.669  16.397 -2.4855 -0.7400 -0.5790
   92MPD2     N 1440   0.266   1.561  16.840  0.3943  0.0233 -0.1963
   92MPD2    H5 1441   0.199   1.563  16.916  0.1831 -0.0002 -0.3799
   92MPD2    N1 1442   4.603   1.723  16.633 -0.2020 -1.2591 -0.8478
   92MPD2    H7 1443   4.567   1.748  16.724 -1.5116 -0.9559 -1.4452
   93TMC2    C1 1444   1.705   1.461  14.289  0.1616 -0.1763 -0.3757
   93TMC2    C2 1445   1.674   1.379  14.395 -0.5836  0.1638 -0.3791
   93TMC2    C3 1446   1.777   1.324  14.459 -0.3895  0.5042  0.6847
   93TMC2    C4 1447   1.834   1.471  14.237  0.5012 -0.2981  0.3133
   93TMC2    C5 1448   1.931   1.403  14.303  0.6002 -0.4411 -0.9276
   93TMC2    C6 1449   1.909   1.339  14.423  0.1018  0.0699 -0.0264
   93TMC2     C 1450   1.607   1.511  14.194 -0.8556 -0.2479  0.4994
   93TMC2     O 1451   1.640   1.612  14.135  0.2613  0.0833  0.1867
   93TMC2     H 1452   1.575   1.375  14.439 -0.9996  0.1372 -1.3203
   93TMC2    H1 1453   1.861   1.532  14.152 -1.8127  1.4745  0.8452
   93TMC2    H2 1454   1.983   1.299  14.491 -0.7946  0.0848  0.9692
   93TMC2    C7 1455   2.070   1.404  14.255 -0.2566 -0.1782  0.1433
   93TMC2    C8 1456   1.755   1.283  14.598  0.6499  0.6186 -0.4533
   93TMC2    O1 1457   2.148   1.355  14.336  0.1546  0.3286 -0.0982
   93TMC2    O2 1458   1.833   1.291  14.693  0.7509  0.1021  0.2213
   93TMC2    O5 1459   1.657   1.194  14.596  0.1092 -0.4935 -0.0701
   93TMC2    H5 1460   1.629   1.169  14.505 -1.0731 -1.2198  0.4938
   94MPD2     C 1461   1.373   1.588  14.038 -0.0371 -0.4581 -0.2882
   94MPD2    C1 1462   1.382   1.463  14.100 -0.2721  0.5592  0.7889
   94MPD2    C2 1463   1.279   1.367  14.082  0.0997 -0.1178 -0.0824
   94MPD2    C3 1464   1.170   1.395  13.994  0.3707 -0.1234  0.6227
   94MPD2    C4 1465   1.165   1.521  13.937 -0.1272  0.3120  1.1382
   94MPD2    C5 1466   1.264   1.612  13.954 -0.3085 -0.2707 -0.5937
   94MPD2     H 1467   1.304   1.270  14.123  1.5063 -0.9603 -2.9204
   94MPD2    H1 1468   1.075   1.553  13.886  1.1365  2.4059  0.2423
   94MPD2    H2 1469   1.452   1.663  14.044 -0.3453 -0.0185 -1.8309
   94MPD2    H3 1470   1.250   1.702  13.896  1.6349  0.1964 -0.3269
   94MPD2     N 1471   1.064   1.304  13.975  0.7716 -0.1142  0.7965
   94MPD2    H5 1472   0.993   1.323  13.906  1.9612  2.1343  0.1884
   94MPD2    N1 1473   1.494   1.438  14.182 -1.0498 -0.0837  0.3740
   94MPD2    H7 1474   1.500   1.352  14.235 -0.6294 -1.1634 -1.4272
   95TMC2    C1 1475   1.233   2.734  15.993 -0.1532 -0.1166 -0.2943
   95TMC2    C2 1476   1.137   2.644  15.957 -0.1901  0.1609  0.2981
   95TMC2    C3 1477   1.056   2.591  16.054 -0.5212  0.0892 -0.6701
   95TMC2    C4 1478   1.262   2.753  16.126  0.6870 -0.2719  0.2369
   95TMC2    C5 1479   1.183   2.691  16.220  1.0052  0.2420 -0.5070
   95TMC2    C6 1480   1.070   2.618  16.187 -0.2248 -0.7614  0.6391
   95TMC2     C 1481   1.315   2.797  15.896  0.0143 -0.0830 -0.7984
   95TMC2     O 1482   1.403   2.872  15.933 -0.4346  0.3632  0.0340
   95TMC2     H 1483   1.127   2.603  15.857  1.4601 -0.1276  0.2469
   95TMC2    H1 1484   1.345   2.817  16.156 -0.0087  1.4202 -1.5005
   95TMC2    H2 1485   1.001   2.594  16.267 -0.5202  0.3979  0.7384
   95TMC2    C7 1486   1.228   2.709  16.362  0.3428 -0.3667  0.0139
   95TMC2    C8 1487   0.947   2.510  16.010  0.1599  0.2931  0.3346
   95TMC2    O1 1488   1.317   2.790  16.382  0.0036 -0.0648  0.5504
   95TMC2    O2 1489   0.906   2.527  15.894  0.5091 -0.3993 -0.0833
   95TMC2    O5 1490   0.885   2.440  16.110  0.2503  0.0657 -0.1059
   95TMC2    H5 1491   0.941   2.434  16.191  1.7079  0.4655 -1.0711
   96MPD2     C 1492   1.503   2.817  15.415 -0.6283  0.2967  0.2257
   96MPD2    C1 1493   1.558   2.859  15.532 -0.7452  0.5660 -0.1785
   96MPD2    C2 1494   1.492   2.840  15.654 -0.0537  0.2586 -0.0377
   96MPD2    C3 1495   1.360   2.786  15.656  0.1513 -0.4034  0.0564
   96MPD2    C4 1496   1.305   2.759  15.534 -0.8843 -0.0552  0.0808
   96MPD2    C5 1497   1.378   2.757  15.419  0.5361 -0.2362  0.3796
   96MPD2     H 1498   1.539   2.859  15.750  0.1078  1.1720 -0.2939
   96MPD2    H1 1499   1.201   2.728  15.529 -0.7955 -0.5515  1.2410
   96MPD2    H2 1500   1.562   2.812  15.324  2.0208 -2.8224  2.1135
   96MPD2    H3 1501   1.328   2.715  15.332  1.8287  1.2910 -1.1262
   96MPD2     N 1502   1.277   2.774  15.767 -0.1408  0.3746 -0.0122
   96MPD2    H5 1503   1.187   2.731  15.748 -0.5035  1.3377 -0.4582
   96MPD2    N1 1504   1.689   2.905  15.525  0.3807  0.2495  0.3699
   96MPD2    H7 1505   1.720   2.915  15.429 -0.7652  3.0834  0.2757
   97TMC2    C1 1506   3.973   1.116  17.720 -0.2186 -0.0512  0.5401
   97TMC2    C2 1507   3.872   1.068  17.647 -0.5652  0.1550 -0.5715
   97TMC2    C3 1508   3.782   1.161  17.594 -0.4948  0.8748 -0.6945
   97TMC2    C4 1509   3.986   1.249   0.000 -0.7348 -0.0713 -0.3700
   97TMC2    C5 1510   3.888   1.339  17.715  0.2589  0.4207  0.2425
   97TMC2    C6 1511   3.794   1.296  17.630  0.3814 -0.2768  0.3561
   97TMC2     C 1512   4.083   1.025   0.001  0.2118 -0.1111  0.3974
   97TMC2     O 1513   4.109   0.940  17.669 -0.2077 -0.3281  0.2817
   97TMC2     H 1514   3.869   0.961  17.631 -0.6058 -0.2070  1.8295
   97TMC2    H1 1515   4.060   1.288   0.069 -0.4508  0.4143 -0.9459
   97TMC2    H2 1516   3.728   1.361  17.573  1.3077  0.2360 -0.1244
   97TMC2    C7 1517   3.874   1.464   0.032  0.0774 -0.4214 -0.3341
   97TMC2    C8 1518   3.691   1.130  17.491 -0.0150  0.5186 -1.3474
   97TMC2    O1 1519   3.970   1.532   0.063  0.4859 -0.4297  0.3278
   97TMC2    O2 1520   3.602   1.201  17.455  0.9115  0.4422 -0.0851
   97TMC2    O5 1521   3.737   1.028  17.416 -0.1850 -0.2250  0.6776
   97TMC2    H5 1522   3.820   0.979  17.434 -0.5654 -0.2709  2.2434
   98MPD2     C 1523   4.033   1.209   0.481 -0.3673  0.3043  0.4473
   98MPD2    C1 1524   3.938   1.188   0.384 -0.6171  0.6239  0.3621
   98MPD2    C2 1525   3.977   1.131   0.266 -0.9124  0.6096 -0.4510
   98MPD2    C3 1526   4.113   1.106   0.237 -0.4088 -0.2056  0.0826
   98MPD2    C4 1527   4.209   1.149   0.330 -0.6152  0.1466 -0.7713
   98MPD2    C5 1528   4.164   1.199   0.451 -0.3264  0.5518 -0.1256
   98MPD2     H 1529   3.894   1.116   0.199 -0.9441 -1.6937  0.1084
   98MPD2    H1 1530   4.316   1.130   0.322 -0.7257 -1.1203  0.9199
   98MPD2    H2 1531   3.998   1.256   0.572  1.0480  0.7077  0.7758
   98MPD2    H3 1532   4.240   1.242   0.516 -0.3844 -0.0948  0.3639
   98MPD2     N 1533   4.159   1.051   0.119  0.4105 -0.3281  0.0482
   98MPD2    H5 1534   4.256   1.023   0.110  0.6575  0.9213 -1.1113
   98MPD2    N1 1535   3.805   1.242   0.405  0.0429  0.2649  0.5504
   98MPD2    H7 1536   3.788   1.292   0.491 -0.9064  1.3171 -0.2486
   99TMC2    C1 1537   2.612   2.858   1.936  0.0176  0.5778  0.0518
   99TMC2    C2 1538   2.653   2.990   1.959 -0.5322  0.2115  0.2017
   99TMC2    C3 1539   2.598   3.053   2.061  0.4488  0.0456 -0.0545
   99TMC2    C4 1540   2.500   2.804   1.992 -0.1525 -0.1760  0.0161
   99TMC2    C5 1541   2.445   2.877   2.093 -0.3730  0.3793 -0.4645
   99TMC2    C6 1542   2.491   3.002   2.126  0.2002  0.0842  0.0030
   99TMC2     C 1543   2.666   2.803   1.812  0.7674 -0.3552  0.6437
   99TMC2     O 1544   2.780   2.843   1.781 -0.0150  0.9132 -0.1203
   99TMC2     H 1545   2.730   3.038   1.899  0.8712  2.6826  3.9856
   99TMC2    H1 1546   2.480   2.697   1.991  2.1464 -0.5916 -1.1280
   99TMC2    H2 1547   2.432   3.059   2.196 -2.4925 -1.6982 -0.8305
   99TMC2    C7 1548   2.328   2.831   2.170  0.1169 -1.1839  0.2607
   99TMC2    C8 1549   2.640   3.192   2.070  0.3284  0.1450 -0.0013
   99TMC2    O1 1550   2.313   2.890   2.276  0.0594 -0.5998  0.0712
   99TMC2    O2 1551   2.565   3.276   2.122  0.2889 -0.5380 -0.6793
   99TMC2    O5 1552   2.776   3.191   2.097  0.9247  0.1662  0.1603
   99TMC2    H5 1553   2.810   3.103   2.069 -4.3351 -0.9459 -2.7440
  100MPD2     C 1554   2.727   2.657   1.571 -0.2018  0.0647  0.6673
  100MPD2    C1 1555   2.601   2.666   1.619  1.0653  0.0541 -0.1753
  100MPD2    C2 1556   2.496   2.601   1.557  0.2155  0.5792  0.5193
  100MPD2    C3 1557   2.509   2.566   1.424  1.0390  0.1770 -0.6659
  100MPD2    C4 1558   2.630   2.573   1.369  0.9946  0.1523  0.6496
  100MPD2    C5 1559   2.741   2.609   1.442 -0.5581 -0.7580 -0.2694
  100MPD2     H 1560   2.395   2.607   1.597  0.4516  4.5756  0.4831
  100MPD2    H1 1561   2.651   2.541   1.267 -1.0458 -2.0614  0.9449
  100MPD2    H2 1562   2.812   2.694   1.627 -0.7081 -1.2260  2.2577
  100MPD2    H3 1563   2.842   2.597   1.404 -1.3825 -2.2148 -1.9599
  100MPD2     N 1564   2.401   2.512   1.356  0.2337 -0.0835 -0.1300
  100MPD2    H5 1565   2.312   2.505   1.405  0.5274 -0.2033  0.3789
  100MPD2    N1 1566   2.577   2.721   1.746 -0.3941 -0.3335 -0.2299
  100MPD2    H7 1567   2.484   2.713   1.786  0.9806  2.9567  3.6610
  101TMC2    C1 1568   3.081   4.000  13.394  0.1268 -0.6831 -0.1347
  101TMC2    C2 1569   2.970   4.046  13.325  0.3584 -1.2467  0.2306
  101TMC2    C3 1570   2.994   4.111  13.206 -0.5430 -0.0781 -0.7921
  101TMC2    C4 1571   3.201   3.981  13.336  0.1106  0.5838 -0.7133
  101TMC2    C5 1572   3.221   4.028  13.214  0.5276  0.3793 -0.6138
  101TMC2    C6 1573   3.121   4.104  13.153 -0.4315 -0.3297  0.1328
  101TMC2     C 1574   3.054   3.906  13.498  0.2247 -0.0951 -0.3564
  101TMC2     O 1575   2.938   3.857  13.498 -0.0869 -0.1995  0.3338
  101TMC2     H 1576   2.876   4.064  13.376  0.9524 -1.5410  1.4279
  101TMC2    H1 1577   3.282   3.924  13.379  0.2858 -0.3043 -2.2486
  101TMC2    H2 1578   3.154   4.154  13.063 -1.5853  0.7200  0.2863
  101TMC2    C7 1579   3.356   4.017  13.144  0.3813 -0.2517 -0.2076
  101TMC2    C8 1580   2.892   4.194  13.140  0.4833  0.3118  0.2022
  101TMC2    O1 1581   3.376   4.092  13.056  0.6106 -0.3647  0.4860
  101TMC2    O2 1582   2.927   4.300  13.094  0.3442 -0.1848 -0.8380
  101TMC2    O5 1583   2.796   4.115  13.096 -0.4120  0.2188 -0.3407
  101TMC2    H5 1584   2.808   4.022  13.123 -0.8521 -0.3045 -1.9462
  102MPD2     C 1585   3.224   3.849  13.816  0.8322  0.6667  0.2728
  102MPD2    C1 1586   3.140   3.811  13.712  1.3531  0.0451  0.2783
  102MPD2    C2 1587   3.053   3.708  13.716  0.6301 -0.4832  0.4431
  102MPD2    C3 1588   3.071   3.621  13.821 -0.0468 -0.2151  0.0761
  102MPD2    C4 1589   3.155   3.649  13.923 -0.1101 -0.2104  0.9191
  102MPD2    C5 1590   3.238   3.756  13.912 -0.0533 -0.0079  0.2664
  102MPD2     H 1591   2.971   3.699  13.645  0.1624 -1.1661  1.0638
  102MPD2    H1 1592   3.145   3.577  14.004  0.8111 -3.0589 -1.5106
  102MPD2    H2 1593   3.287   3.936  13.799  1.6592  0.3429  1.6898
  102MPD2    H3 1594   3.306   3.773  13.995 -1.1086  1.0970  0.8853
  102MPD2     N 1595   2.979   3.513  13.834  0.7196 -0.5022  0.0948
  102MPD2    H5 1596   2.982   3.473  13.927 -0.3926 -0.8849 -0.0293
  102MPD2    N1 1597   3.151   3.898  13.599  0.2215 -0.6373 -0.5043
  102MPD2    H7 1598   3.217   3.975  13.601 -0.5672  0.0400 -0.7068
  103TMC2    C1 1599   1.285   3.816  12.578  0.3071  0.1629 -0.6214
  103TMC2    C2 1600   1.278   3.909  12.481  0.7998 -0.0457 -0.2158
  103TMC2    C3 1601   1.210   4.026  12.505  0.4650 -0.4110  0.4023
  103TMC2    C4 1602   1.208   3.821  12.687  0.3004 -0.4455 -0.1526
  103TMC2    C5 1603   1.128   3.928  12.704 -0.1517  0.6809  0.0897
  103TMC2    C6 1604   1.127   4.035  12.614  0.0754 -0.6687  0.5640
  103TMC2     C 1605   1.299   3.684  12.525 -0.0237 -0.6770  0.6231
  103TMC2     O 1606   1.284   3.671  12.400  0.4010  0.0556  0.2540
  103TMC2     H 1607   1.347   3.914  12.397  1.8540  0.7810  0.7026
  103TMC2    H1 1608   1.198   3.736  12.753  0.7145  0.3505  0.9252
  103TMC2    H2 1609   1.065   4.121  12.636  2.4665  0.3874  3.1801
  103TMC2    C7 1610   1.050   3.930  12.828 -0.4585  0.0201 -0.0055
  103TMC2    C8 1611   1.176   4.099  12.387 -0.5847  0.6054 -0.7867
  103TMC2    O1 1612   1.094   3.882  12.931 -0.1305 -0.5996  0.5975
  103TMC2    O2 1613   1.163   4.045  12.277 -0.8119 -0.4909  0.2332
  103TMC2    O5 1614   1.145   4.226  12.418 -0.3214  0.7664 -0.8762
  103TMC2    H5 1615   1.176   4.263  12.503 -0.8751 -1.0939  0.1560
  104MPD2     C 1616   1.428   3.372  12.692 -0.6989  0.2300  0.1297
  104MPD2    C1 1617   1.359   3.448  12.601 -0.1632  0.1417 -0.4175
  104MPD2    C2 1618   1.290   3.391  12.495  0.0134 -0.3522  0.2578
  104MPD2    C3 1619   1.283   3.250  12.490 -0.4273 -0.0093 -0.2329
  104MPD2    C4 1620   1.341   3.174  12.590  0.5266 -0.0447 -0.2376
  104MPD2    C5 1621   1.404   3.238  12.695 -0.4241  0.0214 -0.0722
  104MPD2     H 1622   1.247   3.448  12.413  1.4318 -1.8573 -1.5355
  104MPD2    H1 1623   1.330   3.066  12.595  0.1259 -0.1379 -3.2839
  104MPD2    H2 1624   1.475   3.423  12.775 -0.8306  2.0820 -0.9433
  104MPD2    H3 1625   1.444   3.176  12.774  1.3922  1.9506  0.4952
  104MPD2     N 1626   1.211   3.191  12.386 -0.8765  0.1752 -0.1638
  104MPD2    H5 1627   1.157   3.256  12.329 -1.0164 -1.6198 -2.0846
  104MPD2    N1 1628   1.343   3.591  12.621 -0.8047  0.2371 -0.6485
  104MPD2    H7 1629   1.383   3.630  12.705 -0.8639  0.4058 -0.6974
  105TMC2    C1 1630   1.824   2.281   0.239  0.3406 -0.2422 -0.1630
  105TMC2    C2 1631   1.716   2.217   0.290  0.3262  0.2424  0.7125
  105TMC2    C3 1632   1.673   2.240   0.415 -0.3349  0.5495 -0.1375
  105TMC2    C4 1633   1.890   2.370   0.315 -0.1513  0.3610  0.4111
  105TMC2    C5 1634   1.854   2.384   0.449 -0.0396  0.9380  0.3579
  105TMC2    C6 1635   1.743   2.329   0.498  0.6846 -1.3218  0.4680
  105TMC2     C 1636   1.878   2.234   0.116 -0.0000 -0.0755 -0.9013
  105TMC2     O 1637   1.864   2.119   0.087  0.3971 -0.0371 -0.3613
  105TMC2     H 1638   1.677   2.125   0.248  1.3626 -0.2395  0.8126
  105TMC2    H1 1639   1.982   2.419   0.287 -0.0725  0.1640  0.3237
  105TMC2    H2 1640   1.715   2.343   0.602 -1.1416 -0.2798 -0.1549
  105TMC2    C7 1641   1.961   2.426   0.541  0.9273  0.2562 -0.5574
  105TMC2    C8 1642   1.534   2.221   0.445 -0.3839 -0.8724  0.5881
  105TMC2    O1 1643   2.075   2.410   0.503 -0.4311 -0.3618 -0.4472
  105TMC2    O2 1644   1.489   2.252   0.556  0.2282  0.6518  1.0152
  105TMC2    O5 1645   1.468   2.189   0.328 -0.3410  0.0811  0.1431
  105TMC2    H5 1646   1.521   2.197   0.247 -1.6566  0.0909 -0.7149
  106MPD2     C 1647   2.219   2.275  17.484 -0.3710 -0.0772 -0.8810
  106MPD2    C1 1648   2.188   2.402  17.518  0.2030  0.8813  0.4317
  106MPD2    C2 1649   2.107   2.424  17.627  0.0517 -0.0437 -0.0333
  106MPD2    C3 1650   2.041   2.315  17.692  0.1253  0.6322 -0.2351
  106MPD2    C4 1651   2.063   2.188  17.641  0.0812  0.3059 -0.4401
  106MPD2    C5 1652   2.160   2.170  17.543 -0.5337  0.1397  0.0462
  106MPD2     H 1653   2.085   2.523  17.665  2.8394  0.8002 -0.5771
  106MPD2    H1 1654   2.021   2.098  17.684  2.4375  0.0923  1.4057
  106MPD2    H2 1655   2.289   2.250  17.405  0.3376 -2.6946  0.5766
  106MPD2    H3 1656   2.187   2.071  17.506  0.6725  0.1067  0.9973
  106MPD2     N 1657   1.957   2.334   0.055  0.5829 -0.0901 -0.0660
  106MPD2    H5 1658   1.942   2.428   0.091 -2.5422 -0.4547 -0.3836
  106MPD2    N1 1659   2.245   2.513  17.447 -0.0186 -0.2203 -0.7087
  106MPD2    H7 1660   2.209   2.604  17.475  0.7512 -0.3140  0.5957
  107TMC2    C1 1661   3.243   2.537  11.860 -1.0961  0.3348  0.9990
  107TMC2    C2 1662   3.266   2.661  11.804  0.3982  0.1217  0.2748
  107TMC2    C3 1663   3.392   2.670  11.743 -0.1087 -0.2130  0.4675
  107TMC2    C4 1664   3.325   2.428  11.838  0.1298 -1.0037 -0.0099
  107TMC2    C5 1665   3.445   2.437  11.766  0.1205  0.2697 -0.0736
  107TMC2    C6 1666   3.479   2.561  11.726 -0.2286 -0.2831 -0.0804
  107TMC2     C 1667   3.132   2.523  11.944  0.4627 -0.4592  0.1917
  107TMC2     O 1668   3.139   2.426  12.017  0.3210 -0.1515  0.3102
  107TMC2     H 1669   3.203   2.748  11.816  0.9208  0.7391 -1.5450
  107TMC2    H1 1670   3.298   2.336  11.887 -0.2972 -0.4499  0.8078
  107TMC2    H2 1671   3.559   2.568  11.652 -0.6419 -0.8243 -0.5800
  107TMC2    C7 1672   3.543   2.328  11.782 -0.0787  0.3397 -1.1903
  107TMC2    C8 1673   3.441   2.803  11.709 -0.7564 -0.2293  0.1212
  107TMC2    O1 1674   3.539   2.270  11.890  0.5066  0.4845  0.0864
  107TMC2    O2 1675   3.373   2.900  11.698  0.0515  0.3444  0.0877
  107TMC2    O5 1676   3.577   2.812  11.730 -0.1603 -0.1023 -0.4668
  107TMC2    H5 1677   3.625   2.732  11.763 -1.7550 -1.5553 -1.6552
  108MPD2     C 1678   2.797   2.677  11.902  0.1291 -0.0033 -0.2100
  108MPD2    C1 1679   2.890   2.595  11.961 -0.1841  0.1403  0.8794
  108MPD2    C2 1680   2.841   2.502  12.059  0.0395  0.5836  0.4984
  108MPD2    C3 1681   2.707   2.519  12.101 -0.5023 -0.3038  0.3424
  108MPD2    C4 1682   2.617   2.603  12.035 -0.2308  0.5115  0.1077
  108MPD2    C5 1683   2.669   2.681  11.940 -0.4457  0.2993  0.1003
  108MPD2     H 1684   2.907   2.430  12.106 -0.9618 -1.3448 -1.0292
  108MPD2    H1 1685   2.509   2.597  12.045 -0.1338  0.8709  1.3658
  108MPD2    H2 1686   2.831   2.744  11.823  0.4802 -1.3761 -1.2276
  108MPD2    H3 1687   2.597   2.741  11.884  0.0690 -0.8474 -1.8035
  108MPD2     N 1688   2.647   2.448  12.206  0.2427 -0.1518 -0.1620
  108MPD2    H5 1689   2.547   2.458  12.214  0.2954 -1.0406  1.6547
  108MPD2    N1 1690   3.025   2.602  11.912 -0.1096 -0.1905 -0.3118
  108MPD2    H7 1691   3.044   2.674  11.844  2.7504 -0.9035 -0.3013
  109TMC2    C1 1692   2.675   0.583   0.314 -0.2128 -0.7315 -0.3368
  109TMC2    C2 1693   2.754   0.484   0.274  0.1887 -0.0302 -0.2459
  109TMC2    C3 1694   2.858   0.508   0.182 -1.2528  0.5675  0.0694
  109TMC2    C4 1695   2.702   0.711   0.274  0.9222 -0.5151 -0.5983
  109TMC2    C5 1696   2.797   0.732   0.181 -0.2124  0.6275  0.4913
  109TMC2    C6 1697   2.878   0.633   0.134  0.6115 -0.0113 -0.5833
  109TMC2     C 1698   2.589   0.574   0.435 -0.2244  0.7577 -0.1229
  109TMC2     O 1699   2.582   0.682   0.493 -0.5715 -0.1711 -0.3219
  109TMC2     H 1700   2.760   0.389   0.325  0.1549 -0.1792 -0.5171
  109TMC2    H1 1701   2.631   0.787   0.304  0.0641 -1.6350  0.2011
  109TMC2    H2 1702   2.955   0.662   0.064 -0.2405 -0.4530 -1.6983
  109TMC2    C7 1703   2.870   0.850   0.205 -0.3850 -0.8473 -0.0904
  109TMC2    C8 1704   2.973   0.424   0.191 -0.2772  0.0734 -0.0899
  109TMC2    O1 1705   2.993   0.842   0.193 -0.3437  0.3312  0.2150
  109TMC2    O2 1706   3.008   0.354   0.284  0.7709  0.0633 -0.9254
  109TMC2    O5 1707   3.023   0.421   0.070  0.0220  0.6678 -0.3963
  109TMC2    H5 1708   2.944   0.437   0.013  0.0212  0.5938 -0.4153
  110MPD2     C 1709   2.245   0.355   0.732  0.2347  0.0375 -0.0648
  110MPD2    C1 1710   2.309   0.250   0.661  0.1432 -0.7825 -0.2197
  110MPD2    C2 1711   2.421   0.285   0.592 -0.5691  0.2395 -0.5847
  110MPD2    C3 1712   2.447   0.419   0.565 -0.4358  0.0291  0.0175
  110MPD2    C4 1713   2.373   0.515   0.630 -0.1287  0.0470 -0.1018
  110MPD2    C5 1714   2.288   0.485   0.731  0.0819 -0.4084  0.1991
  110MPD2     H 1715   2.479   0.217   0.530  0.9744  2.2915 -1.4121
  110MPD2    H1 1716   2.404   0.618   0.619 -1.2621  0.4974  0.9631
  110MPD2    H2 1717   2.156   0.331   0.789  0.7001  1.9252  1.4362
  110MPD2    H3 1718   2.234   0.565   0.780 -2.7604 -1.9192 -0.4850
  110MPD2     N 1719   2.550   0.446   0.466 -0.6776  0.3061  0.8406
  110MPD2    H5 1720   2.582   0.370   0.407 -0.8925  1.8884 -1.3128
  110MPD2    N1 1721   2.271   0.114   0.689 -0.2671  0.6727 -0.0555
  110MPD2    H7 1722   2.189   0.097   0.747 -0.4292 -1.0038 -0.8010
  111TMC2    C1 1723   2.994   3.895  11.793 -0.1795  0.0991 -0.4359
  111TMC2    C2 1724   2.910   3.786  11.822 -0.1596  0.1053  0.8356
  111TMC2    C3 1725   2.972   3.662  11.832  0.2347 -0.1650  0.4927
  111TMC2    C4 1726   3.134   3.881  11.803 -0.2394 -0.1598  0.0547
  111TMC2    C5 1727   3.187   3.756  11.809 -0.3315 -0.2177  0.2615
  111TMC2    C6 1728   3.105   3.647  11.801 -0.1982 -0.5030 -0.7596
  111TMC2     C 1729   2.944   4.020  11.757  0.1867 -0.1949  0.0442
  111TMC2     O 1730   3.020   4.093  11.690  0.7239  0.2206 -0.3487
  111TMC2     H 1731   2.801   3.789  11.823 -0.1221  1.0500  1.5629
  111TMC2    H1 1732   3.191   3.972  11.818 -1.9563  0.7935  0.7809
  111TMC2    H2 1733   3.146   3.547  11.801 -0.9849 -0.8246 -0.4545
  111TMC2    C7 1734   3.327   3.732  11.777 -0.0192 -0.3731  0.0334
  111TMC2    C8 1735   2.896   3.552  11.876 -0.7960 -0.0078  0.5598
  111TMC2    O1 1736   3.353   3.645  11.693 -0.0763 -0.5511 -0.3166
  111TMC2    O2 1737   2.772   3.557  11.881 -0.0191  0.2821 -0.2274
  111TMC2    O5 1738   2.969   3.476  11.963 -0.8016 -0.0093  0.0117
  111TMC2    H5 1739   3.060   3.510  11.980 -0.7303  0.8309 -1.9957
  112MPD2     C 1740   2.572   4.369  11.670  0.2895  1.0579  0.3308
  112MPD2    C1 1741   2.683   4.331  11.591 -0.1532  0.0222 -0.2833
  112MPD2    C2 1742   2.766   4.235  11.642 -0.0986  0.1966 -0.7645
  112MPD2    C3 1743   2.732   4.148  11.745  0.1715  0.1363  0.1468
  112MPD2    C4 1744   2.614   4.176  11.805 -0.2436  0.6434 -0.0923
  112MPD2    C5 1745   2.543   4.298  11.780  0.0763 -0.4234 -0.0988
  112MPD2     H 1746   2.849   4.219  11.575 -1.0149  1.8585 -2.3048
  112MPD2    H1 1747   2.588   4.122  11.895 -0.5831  1.6334  0.4091
  112MPD2    H2 1748   2.504   4.449  11.644 -0.3553 -0.1747 -1.7324
  112MPD2    H3 1749   2.468   4.328  11.852  1.5274  0.2025  1.1745
  112MPD2     N 1750   2.809   4.041  11.788  0.1620  1.0665 -0.0657
  112MPD2    H5 1751   2.761   3.971  11.844  0.0686 -0.3553 -1.9367
  112MPD2    N1 1752   2.713   4.386  11.467  0.1436  0.1292 -0.5113
  112MPD2    H7 1753   2.787   4.342  11.413 -0.3550  1.2022 -2.0509
  113TMC2    C1 1754   0.786   2.371   1.021  0.4144 -0.3327 -0.1993
  113TMC2    C2 1755   0.678   2.454   1.050  0.3766 -0.5082 -0.1144
  113TMC2    C3 1756   0.547   2.411   1.036 -0.4471  0.0060  0.8764
  113TMC2    C4 1757   0.752   2.236   0.999  0.8145 -0.0632 -0.0740
  113TMC2    C5 1758   0.625   2.193   1.003  0.1364 -0.3844  0.0570
  113TMC2    C6 1759   0.516   2.279   1.016  0.0697  0.4415  0.2172
  113TMC2     C 1760   0.916   2.414   1.063 -0.2160  0.0333 -0.3579
  113TMC2     O 1761   0.912   2.515   1.130  0.1941 -0.2495 -0.0693
  113TMC2     H 1762   0.699   2.560   1.050 -0.1843 -0.3988  1.2140
  113TMC2    H1 1763   0.835   2.167   0.986  1.4745  0.8767 -0.7750
  113TMC2    H2 1764   0.416   2.240   1.033  0.6340 -0.4355  1.4780
  113TMC2    C7 1765   0.594   2.053   1.012  0.3856  0.2358 -0.3079
  113TMC2    C8 1766   0.447   2.505   1.078 -0.1865  0.4457  0.2078
  113TMC2    O1 1767   0.482   2.022   0.970  0.6213  0.4684  0.6743
  113TMC2    O2 1768   0.465   2.607   1.135  1.0732  0.0489  0.2534
  113TMC2    O5 1769   0.332   2.439   1.093 -0.1539  0.2350  0.1335
  113TMC2    H5 1770   0.325   2.395   1.006 -0.9695 -0.3413  0.4907
  114MPD2     C 1771   1.415   2.314   1.175  0.4664 -0.5533 -0.4026
  114MPD2    C1 1772   1.323   2.400   1.233 -0.4634  0.3695 -0.4344
  114MPD2    C2 1773   1.193   2.408   1.188 -0.6097 -0.3816  0.0015
  114MPD2    C3 1774   1.148   2.320   1.088  0.4684 -0.3324  1.1698
  114MPD2    C4 1775   1.239   2.232   1.029 -0.2235  0.8708  0.4842
  114MPD2    C5 1776   1.364   2.223   1.086 -0.0903 -0.0372  0.4196
  114MPD2     H 1777   1.128   2.484   1.227 -1.7763 -1.6993  0.6178
  114MPD2    H1 1778   1.210   2.169   0.945 -0.9720  1.9057 -0.0266
  114MPD2    H2 1779   1.518   2.310   1.208  0.2615 -0.2008  0.2820
  114MPD2    H3 1780   1.434   2.153   1.040  0.5660 -0.0398  1.4291
  114MPD2     N 1781   1.017   2.324   1.035 -0.1067  1.0003 -0.3640
  114MPD2    H5 1782   1.000   2.264   0.955 -0.9964 -2.0532  2.1138
  114MPD2    N1 1783   1.359   2.489   1.332 -0.7855 -0.7892  0.5397
  114MPD2    H7 1784   1.287   2.558   1.351 -2.0474 -1.8591 -0.3798
  115TMC2    C1 1785   1.980   4.657  17.672  0.5123  0.6573  0.1117
  115TMC2    C2 1786   2.028   4.630  17.547  0.0866 -0.3602  0.0643
  115TMC2    C3 1787   2.060   0.011  17.488 -0.4853 -0.0951 -0.5422
  115TMC2    C4 1788   1.971   0.036  17.735  0.1384  0.5596 -0.6130
  115TMC2    C5 1789   2.020   0.150  17.671  0.2086  0.2692 -0.4926
  115TMC2    C6 1790   2.057   0.138  17.541  0.2705 -0.2281 -0.2854
  115TMC2     C 1791   1.880   4.561  17.716  0.1908  1.1884 -0.7243
  115TMC2     O 1792   1.893   4.441  17.689  0.7087  0.0664 -0.1247
  115TMC2     H 1793   2.004   4.533  17.504  0.6261  0.1805 -1.4590
  115TMC2    H1 1794   1.951   0.049   0.088  2.0036 -1.4417 -0.0172
  115TMC2    H2 1795   2.077   0.225  17.480  1.0834 -0.8252 -0.8831
  115TMC2    C7 1796   2.031   0.276  17.744  0.8192  0.3224 -0.6345
  115TMC2    C8 1797   2.060   0.006  17.341 -0.0521  0.6375  0.8440
  115TMC2    O1 1798   1.960   0.290   0.088  0.5927  0.1876 -0.3230
  115TMC2    O2 1799   2.017   0.107  17.285  0.5498 -0.2168  0.3320
  115TMC2    O5 1800   2.097   4.630  17.294  0.4006 -0.1809  0.7343
  115TMC2    H5 1801   2.146   4.579  17.361  1.9147  0.3741  0.0416
  116MPD2     C 1802   1.377   4.462   0.017 -0.7586 -0.2916  0.1629
  116MPD2    C1 1803   1.484   4.378  17.747 -0.0601 -0.0832  0.5932
  116MPD2    C2 1804   1.613   4.433   0.003 -0.4584  0.1920 -0.4773
  116MPD2    C3 1805   1.638   4.568   0.026  0.0594  0.0272 -0.7394
  116MPD2    C4 1806   1.536   4.638   0.060  0.1833 -0.3676 -0.0809
  116MPD2    C5 1807   1.408   4.593   0.037 -0.0484  0.4152 -0.2016
  116MPD2     H 1808   1.693   4.369  17.721  0.4247  0.6611  0.6645
  116MPD2    H1 1809   1.547   0.004   0.085 -0.6034  0.1459 -1.9130
  116MPD2    H2 1810   1.273   4.430   0.010 -0.8163 -0.2943  1.0583
  116MPD2    H3 1811   1.321   4.658   0.051 -1.1190 -0.5261 -2.4503
  116MPD2     N 1812   1.768   4.626   0.015 -0.3111  0.1511 -0.1008
  116MPD2    H5 1813   1.771   4.727   0.026 -1.9936  0.3227 -1.3272
  116MPD2    N1 1814   1.458   4.244  17.707 -0.0632  0.3671  1.1429
  116MPD2    H7 1815   1.365   4.217  17.676  0.7256 -1.4823  0.3996
  117TMC2    C1 1816   0.453   1.576  13.863  0.6725  0.2939  0.3468
  117TMC2    C2 1817   0.546   1.494  13.911 -1.2867 -0.2753  0.0510
  117TMC2    C3 1818   0.644   1.536  13.992  0.1037  0.3551 -0.3675
  117TMC2    C4 1819   0.454   1.711  13.890 -0.0225 -0.2116 -0.0683
  117TMC2    C5 1820   0.563   1.749  13.973  0.0846  0.6247  0.3730
  117TMC2    C6 1821   0.659   1.661  14.020 -0.1155 -0.3016  0.6991
  117TMC2     C 1822   0.374   1.531  13.750  0.8234 -0.1094  0.0100
  117TMC2     O 1823   0.399   1.425  13.700 -0.5672 -0.0139 -0.6583
  117TMC2     H 1824   0.544   1.389  13.884  0.9260 -0.1245 -0.6967
  117TMC2    H1 1825   0.376   1.780  13.859  0.1117 -0.0005  0.0564
  117TMC2    H2 1826   0.738   1.695  14.086  0.2917 -0.5177  0.3240
  117TMC2    C7 1827   0.598   1.884  13.987 -0.1485  0.9580  0.1458
  117TMC2    C8 1828   0.764   1.452  13.971  0.6733 -0.0976 -0.6646
  117TMC2    O1 1829   0.670   1.910  14.080 -0.1807 -0.6122  0.4866
  117TMC2    O2 1830   0.771   1.361  13.889 -0.0017 -0.1662 -0.4593
  117TMC2    O5 1831   0.868   1.507  14.040  0.5716 -0.2993 -1.2786
  117TMC2    H5 1832   0.862   1.572  14.113 -1.8426 -2.6696  0.6615
  118MPD2     C 1833   0.491   2.170  13.771  0.1190 -0.4600  0.1022
  118MPD2    C1 1834   0.547   2.107  13.881 -0.2669  0.6267 -0.4541
  118MPD2    C2 1835   0.590   2.191  13.985 -0.5005  0.3956 -0.2105
  118MPD2    C3 1836   0.591   2.329  13.968 -0.3726  0.4201  0.0306
  118MPD2    C4 1837   0.534   2.386  13.858 -0.3011 -0.3145 -0.0526
  118MPD2    C5 1838   0.490   2.312  13.756 -0.5348 -0.5832 -0.2282
  118MPD2     H 1839   0.636   2.142  14.070  0.9941  1.6305 -0.3159
  118MPD2    H1 1840   0.520   2.492  13.848 -1.3006 -0.2668  1.7959
  118MPD2    H2 1841   0.439   2.113  13.695  0.9217 -2.9640  1.4510
  118MPD2    H3 1842   0.444   2.356  13.668 -0.0490  1.1421  0.3808
  118MPD2     N 1843   0.632   2.428  14.060  0.0838 -0.2991  0.4923
  118MPD2    H5 1844   0.614   2.526  14.040 -0.4668 -0.5226 -0.0868
  118MPD2    N1 1845   0.556   1.968  13.882  0.6090  0.4155  0.2573
  118MPD2    H7 1846   0.504   1.919  13.809  3.3756 -1.3122 -0.5460
  119TMC2    C1 1847   3.433   2.906  13.111  0.4912 -0.6043 -0.3176
  119TMC2    C2 1848   3.459   2.861  12.982  0.5023 -0.1953 -0.6910
  119TMC2    C3 1849   3.411   2.740  12.944 -0.7903  0.7163  0.0858
  119TMC2    C4 1850   3.363   2.826  13.195  0.1877 -0.0679  0.1993
  119TMC2    C5 1851   3.305   2.709  13.149  0.1626  0.0298  0.3647
  119TMC2    C6 1852   3.328   2.665  13.020  0.0104  0.1561 -0.1326
  119TMC2     C 1853   3.490   3.026  13.171 -0.9601  0.2369 -0.2896
  119TMC2     O 1854   3.475   3.022  13.294 -0.5108  0.1503  0.2464
  119TMC2     H 1855   3.507   2.919  12.904 -1.4405  1.2444 -0.8024
  119TMC2    H1 1856   3.326   2.864  13.290  0.4358  0.5347  0.0587
  119TMC2    H2 1857   3.276   2.580  12.978  0.2637  0.5537 -1.2718
  119TMC2    C7 1858   3.221   2.629  13.237 -0.7142  0.4027  0.3906
  119TMC2    C8 1859   3.454   2.681  12.822  0.0924 -0.6731  0.1984
  119TMC2    O1 1860   3.156   2.549  13.170  0.1171 -0.2660  0.0164
  119TMC2    O2 1861   3.401   2.591  12.767 -0.0167  0.0565 -0.2573
  119TMC2    O5 1862   3.580   2.719  12.810 -0.0045 -0.0903  0.0993
  119TMC2    H5 1863   3.610   2.784  12.877  2.3494  0.5030 -1.5446
  120MPD2     C 1864   3.842   3.380  13.237 -0.4688  0.4018  0.2346
  120MPD2    C1 1865   3.728   3.350  13.307  0.1578  0.2293 -0.0026
  120MPD2    C2 1866   3.636   3.254  13.260 -0.5534 -0.2501 -0.1344
  120MPD2    C3 1867   3.671   3.187  13.147  0.3381  0.0284  0.1339
  120MPD2    C4 1868   3.788   3.215  13.076 -0.4998 -0.3623  0.0954
  120MPD2    C5 1869   3.870   3.318  13.123  0.4476  0.2454  0.0935
  120MPD2     H 1870   3.543   3.242  13.313 -0.1109 -1.7715  0.3029
  120MPD2    H1 1871   3.813   3.170  12.980 -0.2712  1.4961 -0.7256
  120MPD2    H2 1872   3.918   3.446  13.279 -1.1435  2.5393 -1.8884
  120MPD2    H3 1873   3.961   3.345  13.071  0.0432  1.2451 -0.0795
  120MPD2     N 1874   3.587   3.086  13.094 -0.1700 -0.3178  0.1288
  120MPD2    H5 1875   3.605   3.051  13.001 -0.3109  1.2233 -0.4650
  120MPD2    N1 1876   3.724   3.397  13.441  0.4561 -0.2039 -0.5593
  120MPD2    H7 1877   3.810   3.426  13.486  0.5882 -1.3447 -0.0879
  121TMC2    C1 1878   0.563   4.463  14.093  0.1046 -0.3716  0.3486
  121TMC2    C2 1879   0.511   4.468  14.224  0.4089 -0.2748 -0.3820
  121TMC2    C3 1880   0.382   4.510  14.232 -0.1613 -0.1693 -0.1258
  121TMC2    C4 1881   0.492   4.497  13.979  1.1853  0.1570 -0.1929
  121TMC2    C5 1882   0.362   4.542  14.003 -0.5973  0.0915  0.2390
  121TMC2    C6 1883   0.317   4.561  14.129  0.1478 -0.3278  0.2861
  121TMC2     C 1884   0.705   4.500  14.087  0.7863  0.2422 -0.2819
  121TMC2     O 1885   0.770   4.482  14.186 -0.0838  0.2624 -0.0166
  121TMC2     H 1886   0.565   4.425  14.307 -0.6313  0.2237  0.5448
  121TMC2    H1 1887   0.534   4.493  13.879  2.7195 -0.3459  0.4620
  121TMC2    H2 1888   0.219   4.601  14.153 -0.1041 -0.4261 -0.5857
  121TMC2    C7 1889   0.301   4.621  13.899 -0.2899 -0.5768 -0.9796
  121TMC2    C8 1890   0.309   4.483  14.354  0.5047 -0.4955 -0.3894
  121TMC2    O1 1891   0.367   4.649  13.798 -0.0847 -0.4015 -0.8379
  121TMC2    O2 1892   0.190   4.485  14.362 -0.1295 -0.4163 -0.2962
  121TMC2    O5 1893   0.398   4.517  14.449 -0.0429 -0.2519 -0.2927
  121TMC2    H5 1894   0.492   4.522  14.422  0.0200 -0.4949 -0.1163
  122MPD2     C 1895   0.961   4.654  14.023 -0.2916  0.5341  0.3870
  122MPD2    C1 1896   0.854   4.632  13.941 -0.0072  0.6217 -1.0316
  122MPD2    C2 1897   0.841   4.715  13.833  0.1589 -0.1445  0.2772
  122MPD2    C3 1898   0.941   0.066  13.791 -0.7033 -0.0098  0.2646
  122MPD2    C4 1899   1.038   0.103  13.881  0.1116  0.2628 -0.9503
  122MPD2    C5 1900   1.047   0.025  13.995 -0.2870 -0.3044  0.5345
  122MPD2     H 1901   0.759   4.688  13.768  1.1061 -1.9375 -0.1867
  122MPD2    H1 1902   1.083   0.201  13.892 -3.1779  1.4802  1.6532
  122MPD2    H2 1903   0.974   4.604  14.118  1.1235  1.3911  0.6379
  122MPD2    H3 1904   1.129   0.048  14.063 -2.1336  3.5615  1.4173
  122MPD2     N 1905   0.921   0.131  13.662 -0.0742  0.0205 -0.9132
  122MPD2    H5 1906   0.993   0.197  13.633  0.0701  0.0756 -0.4240
  122MPD2    N1 1907   0.731   4.569  13.974 -0.3373  0.6086  0.3663
  122MPD2    H7 1908   0.661   4.568  13.901 -0.5552  1.0619  0.5669
  123TMC2    C1 1909   4.041   3.446  10.897  0.2514 -0.2023 -0.2177
  123TMC2    C2 1910   4.162   3.490  10.943 -0.6033  0.2341  0.5185
  123TMC2    C3 1911   4.262   3.514  10.854  0.1300 -0.5106 -0.2836
  123TMC2    C4 1912   4.029   3.395  10.768  0.2915  0.7430  0.3774
  123TMC2    C5 1913   4.130   3.425  10.674  0.2560  0.3535  0.5773
  123TMC2    C6 1914   4.249   3.485  10.714 -0.2762  0.2086  0.3739
  123TMC2     C 1915   3.948   3.411  11.006 -0.3211  0.1889  0.3291
  123TMC2     O 1916   3.957   3.479  11.108 -0.1303  0.3013 -0.1119
  123TMC2     H 1917   4.176   3.482  11.050 -1.0628  3.4586  0.7944
  123TMC2    H1 1918   3.939   3.348  10.731  1.0746 -0.4687  0.0064
  123TMC2    H2 1919   4.332   3.488  10.644 -1.0656  2.4028 -0.4706
  123TMC2    C7 1920   4.136   3.341  10.552 -0.1050 -0.1681 -0.1576
  123TMC2    C8 1921   4.386   3.563  10.906  0.7224  0.9730  0.3444
  123TMC2    O1 1922   4.071   3.238  10.554 -0.1641 -0.7183 -0.0161
  123TMC2    O2 1923   4.492   3.554  10.846  0.0495  0.5928 -0.1087
  123TMC2    O5 1924   4.368   3.612  11.028  0.5223 -0.0193 -0.4390
  123TMC2    H5 1925   4.274   3.624  11.052  0.0917 -0.1410 -2.0654
  124MPD2     C 1926   3.508   3.191  11.168 -0.3157 -0.4131 -0.3464
  124MPD2    C1 1927   3.542   3.140  11.049  0.2352 -0.3090 -0.0410
  124MPD2    C2 1928   3.661   3.178  10.991  0.4625 -0.3912  0.0502
  124MPD2    C3 1929   3.742   3.280  11.046  0.4383  0.3069  0.1429
  124MPD2    C4 1930   3.703   3.336  11.169  0.2215  0.7370  0.3922
  124MPD2    C5 1931   3.599   3.272  11.238  0.0847 -0.0339  0.0224
  124MPD2     H 1932   3.684   3.132  10.896  1.3028 -1.8809  0.9769
  124MPD2    H1 1933   3.749   3.419  11.220  1.1169  0.3826  0.1504
  124MPD2    H2 1934   3.430   3.146  11.228 -0.8137  0.4804 -0.3239
  124MPD2    H3 1935   3.573   3.306  11.337 -3.0385  0.9931 -1.1484
  124MPD2     N 1936   3.848   3.325  10.965  0.3149  0.1310  0.3317
  124MPD2    H5 1937   3.869   3.263  10.888  0.6815 -0.9398  1.2886
  124MPD2    N1 1938   3.451   3.047  10.986 -0.1627  0.2593 -0.4329
  124MPD2    H7 1939   3.377   3.009  11.045 -0.0500  0.7412  0.0188
  125TMC2    C1 1940   3.680   3.788  10.016  0.2705 -0.5228 -0.2568
  125TMC2    C2 1941   3.602   3.679  10.030  0.0913 -0.0708 -0.4535
  125TMC2    C3 1942   3.610   3.579   9.926 -0.7944  0.0081 -0.7503
  125TMC2    C4 1943   3.756   3.809   9.902 -0.2140  0.6627 -0.9171
  125TMC2    C5 1944   3.745   3.722   9.787  0.3917 -0.2836  0.1735
  125TMC2    C6 1945   3.672   3.606   9.804  0.2157  0.1704  0.7464
  125TMC2     C 1946   3.700   3.884  10.120 -0.2442 -0.5521 -0.5438
  125TMC2     O 1947   3.769   3.979  10.088 -0.0292 -0.6826  0.5016
  125TMC2     H 1948   3.543   3.660  10.119  0.4798 -3.5208 -0.9454
  125TMC2    H1 1949   3.829   3.889   9.900  1.2085 -0.6074 -0.2510
  125TMC2    H2 1950   3.667   3.528   9.730 -1.5455  2.5359 -1.6351
  125TMC2    C7 1951   3.843   3.714   9.679 -0.5172  0.4586 -0.9417
  125TMC2    C8 1952   3.543   3.457   9.949 -0.2225  0.4272  0.4851
  125TMC2    O1 1953   3.873   3.609   9.629 -0.0866 -0.0582 -0.1268
  125TMC2    O2 1954   3.479   3.447  10.054  0.0966 -0.2171 -0.3676
  125TMC2    O5 1955   3.642   3.365   9.928  0.4863 -0.1804 -0.1030
  125TMC2    H5 1956   3.707   3.372   9.854 -0.4029  0.3600 -0.8278
  126MPD1     C 1957   3.721   4.049  10.613  0.0477 -0.2545  0.0164
  126MPD1    C1 1958   3.639   3.941  10.607  0.4335 -0.4176 -0.2185
  126MPD1    C2 1959   3.629   3.876  10.480  0.7906 -0.2806  0.7913
  126MPD1    C3 1960   3.682   3.923  10.363 -0.3963  0.5938  0.0621
  126MPD1    C4 1961   3.762   4.034  10.375 -0.6640  0.5847 -0.3328
  126MPD1    C5 1962   3.782   4.096  10.499  0.4681 -0.0535 -0.1606
  126MPD1     H 1963   3.571   3.785  10.473 -0.9159  0.9412 -0.8242
  126MPD1    H1 1964   3.802   4.079  10.285 -0.7786  0.0850 -0.6363
  126MPD1    H2 1965   3.741   4.091  10.711 -0.0048  0.3261 -0.2221
  126MPD1    H3 1966   3.842   4.186  10.492  1.9608 -1.0581 -0.4160
  126MPD1     N 1967   3.645   3.851  10.242  0.8004 -0.0650  0.3466
  126MPD1    H5 1968   3.592   3.764  10.248  1.7581 -0.5148  2.3144
  126MPD1    N1 1969   3.586   3.893  10.732 -0.2838  0.2899  0.2100
  126MPD1    H6 1970   3.490   3.862  10.720  0.8783 -3.2149  0.0006
  126MPD1    H7 1971   3.580   3.965  10.804 -1.5770  0.4150 -0.0270
  127TMC2    C1 1972   0.218   3.125   9.509 -0.2268  0.1027 -0.0156
  127TMC2    C2 1973   0.336   3.134   9.574  0.3673  0.4571 -0.5832
  127TMC2    C3 1974   0.343   3.126   9.710  0.9201  0.8181  0.1978
  127TMC2    C4 1975   0.100   3.094   9.578 -0.5068  0.2661  0.2257
  127TMC2    C5 1976   0.114   3.082   9.713  0.0417  0.3108  0.0346
  127TMC2    C6 1977   0.230   3.094   9.779  0.5901  0.1190 -0.4331
  127TMC2     C 1978   0.208   3.230   9.406 -0.1625 -0.0667 -0.4056
  127TMC2     O 1979   0.294   3.319   9.411  0.1561 -0.1270 -0.3138
  127TMC2     H 1980   0.424   3.171   9.523  0.0837  0.4853 -1.0520
  127TMC2    H1 1981   4.738   3.096   9.536  0.0279 -2.1086 -1.2048
  127TMC2    H2 1982   0.234   3.109   9.887  0.5841  0.8057 -0.5249
  127TMC2    C7 1983   4.739   3.060   9.793 -0.3947  0.7009 -0.3090
  127TMC2    C8 1984   0.473   3.114   9.776  0.0381  0.0100 -0.8746
  127TMC2    O1 1985   4.633   3.105   9.749  0.0415 -0.3676  0.0129
  127TMC2    O2 1986   0.576   3.152   9.720 -0.0299  0.0914 -0.4071
  127TMC2    O5 1987   0.468   3.014   9.868 -0.0325  0.3427 -0.2786
  127TMC2    H5 1988   0.379   2.994   9.904 -0.3095 -2.7058 -2.6434
  128MPD2     C 1989   4.661   3.297   9.190 -0.1937  0.0555 -0.6236
  128MPD2    C1 1990   0.044   3.322   9.249  0.0344  0.3863  1.0080
  128MPD2    C2 1991   0.118   3.432   9.210  0.5185  0.2842 -0.0060
  128MPD2    C3 1992   0.070   3.518   9.112  0.2443  1.1825 -0.4320
  128MPD2    C4 1993   4.685   3.488   9.050 -0.2766  0.2415 -0.2291
  128MPD2    C5 1994   4.618   3.380   9.094  0.3655  0.7929  0.4358
  128MPD2     H 1995   0.206   3.462   9.266 -0.4380  0.7644  1.2630
  128MPD2    H1 1996   4.639   3.562   8.986 -1.1895  0.7693  1.0326
  128MPD2    H2 1997   4.601   3.213   9.222  1.3366 -0.3881  1.0478
  128MPD2    H3 1998   4.514   3.373   9.065  0.2549  0.1308  0.9925
  128MPD2     N 1999   0.148   3.629   9.085  0.0682  0.0649  0.3981
  128MPD2    H5 2000   0.248   3.626   9.101  0.2936 -0.3952 -1.0878
  128MPD2    N1 2001   0.084   3.225   9.344  0.3135  0.4648 -0.6159
  128MPD2    H7 2002   0.029   3.140   9.351  1.1643 -0.1352 -1.2742
  129TMC2    C1 2003   4.183   4.041   1.442  0.2718 -1.0212 -0.5409
  129TMC2    C2 2004   4.087   4.146   1.448  0.0207 -0.2029  0.4397
  129TMC2    C3 2005   3.968   4.123   1.505 -0.2686 -0.2026 -0.4505
  129TMC2    C4 2006   4.138   3.908   1.463 -0.2370  0.4617  0.6198
  129TMC2    C5 2007   4.008   3.887   1.502 -0.1563 -0.2873  0.3848
  129TMC2    C6 2008   3.922   3.996   1.533 -0.2027 -0.2726  0.1258
  129TMC2     C 2009   4.294   4.054   1.336  0.1392  0.1475 -0.0884
  129TMC2     O 2010   4.321   3.962   1.268  0.2461 -0.4393  0.3643
  129TMC2     H 2011   4.109   4.249   1.423 -1.1784 -0.2045 -0.6094
  129TMC2    H1 2012   4.208   3.836   1.425 -0.2264  0.0042  1.5003
  129TMC2    H2 2013   3.826   3.965   1.573 -0.8870  2.2899  0.4394
  129TMC2    C7 2014   3.953   3.748   1.511 -0.0963 -0.1165 -0.4819
  129TMC2    C8 2015   3.889   4.238   1.550  0.0974 -0.3019 -0.4723
  129TMC2    O1 2016   3.832   3.741   1.506  0.8044  0.0901 -0.1080
  129TMC2    O2 2017   3.939   4.336   1.598 -0.2307 -0.6436 -0.6209
  129TMC2    O5 2018   3.761   4.220   1.509  0.3640 -0.0817  0.2914
  129TMC2    H5 2019   3.736   4.126   1.497 -0.2824  0.4074 -2.2083
  130MPD2     C 2020   4.503   4.162   1.155  0.3689 -0.3489 -0.0656
  130MPD2    C1 2021   4.453   4.240   1.263  0.3708  0.0312  0.0086
  130MPD2    C2 2022   4.504   4.372   1.277  0.2462 -0.7623 -0.1567
  130MPD2    C3 2023   4.609   4.417   1.199  1.1758  0.0007  0.1021
  130MPD2    C4 2024   4.650   4.343   1.088  0.3895 -0.4806 -0.2793
  130MPD2    C5 2025   4.601   4.214   1.076 -0.5488 -0.6577 -0.3131
  130MPD2     H 2026   4.477   4.431   1.364  1.1696  0.0042 -0.3910
  130MPD2    H1 2027   4.736   4.364   1.025  1.3501  0.3299  1.2837
  130MPD2    H2 2028   4.466   4.062   1.135 -0.8798  0.0330  0.3255
  130MPD2    H3 2029   4.646   4.149   1.001  1.1642  0.2416 -0.0688
  130MPD2     N 2030   4.675   4.541   1.236  0.2925 -0.3672  0.2330
  130MPD2    H5 2031   4.635   4.579   1.322 -2.5267 -1.7157 -0.4747
  130MPD2    N1 2032   4.346   4.185   1.340 -0.6828  0.3247  0.2409
  130MPD2    H7 2033   4.302   4.254   1.401 -0.8464  0.3409  0.1049
  131TMC2    C1 2034   3.256   3.131   9.869 -0.0690  0.4563  0.3439
  131TMC2    C2 2035   3.324   3.073   9.765 -0.4987 -0.0009  0.2264
  131TMC2    C3 2036   3.362   3.148   9.658 -0.5976  0.1520 -0.0436
  131TMC2    C4 2037   3.207   3.263   9.857  0.3112 -0.5831 -0.3046
  131TMC2    C5 2038   3.254   3.339   9.751  0.4657 -0.7599  0.0400
  131TMC2    C6 2039   3.334   3.281   9.657  0.4570 -0.1973  0.1450
  131TMC2     C 2040   3.217   3.066   9.993 -0.1641  1.7975 -0.6168
  131TMC2     O 2041   3.302   2.988  10.032  0.3475  0.3841 -0.0254
  131TMC2     H 2042   3.353   2.969   9.766 -2.1498 -0.4625 -1.6046
  131TMC2    H1 2043   3.147   3.306   9.937  0.2750 -2.9925  0.9736
  131TMC2    H2 2044   3.378   3.343   9.580 -1.9496  1.0446 -0.2479
  131TMC2    C7 2045   3.252   3.486   9.765  0.0988  0.6010  0.1525
  131TMC2    C8 2046   3.450   3.094   9.557 -0.8925 -0.1208 -0.3123
  131TMC2    O1 2047   3.289   3.547   9.668 -0.7906 -0.2611  0.0367
  131TMC2    O2 2048   3.516   3.163   9.485 -0.2747  0.5376 -0.2973
  131TMC2    O5 2049   3.427   2.967   9.542 -0.3911 -0.2414  0.2438
  131TMC2    H5 2050   3.349   2.933   9.590 -0.0048  0.0062  1.0540
  132MPD2     C 2051   2.894   3.104  10.187 -0.0123 -0.0847 -0.1515
  132MPD2    C1 2052   3.026   3.072  10.163 -0.1459  0.5846  0.2308
  132MPD2    C2 2053   3.096   3.013  10.267  0.3313  0.4048  0.0463
  132MPD2    C3 2054   3.023   2.982  10.380  0.6060 -0.2630  0.6397
  132MPD2    C4 2055   2.891   2.997  10.391 -0.1740  0.7532  0.5658
  132MPD2    C5 2056   2.821   3.062  10.291  0.3751 -0.2296  0.4280
  132MPD2     H 2057   3.203   2.998  10.259  0.0503 -1.2450 -0.5058
  132MPD2    H1 2058   2.837   2.946  10.470  0.4492  0.3497  0.7247
  132MPD2    H2 2059   2.833   3.153  10.112 -0.2496  0.8584  0.6569
  132MPD2    H3 2060   2.715   3.085  10.297  0.1490 -1.6744  1.7933
  132MPD2     N 2061   3.101   2.919  10.482  0.0786 -0.0783  0.2306
  132MPD2    H5 2062   3.200   2.941  10.474 -0.1676  0.8257 -0.3236
  132MPD2    N1 2063   3.092   3.101  10.039  0.6629 -0.3421  0.3942
  132MPD2    H7 2064   3.043   3.161   9.975 -2.1871 -1.1082  1.8731
  133TMC2    C1 2065   3.006   2.695  10.066  0.0807 -0.3186  0.2863
  133TMC2    C2 2066   3.085   2.694   9.950  0.0598 -0.4282 -0.2576
  133TMC2    C3 2067   3.219   2.668   9.966  0.9197  0.5485 -1.0040
  133TMC2    C4 2068   3.048   2.667  10.194 -0.1379  0.1503 -0.3231
  133TMC2    C5 2069   3.181   2.645  10.202 -0.5842 -0.7558 -0.5967
  133TMC2    C6 2070   3.270   2.653  10.097 -0.7209 -0.3683  0.2330
  133TMC2     C 2071   2.873   2.737  10.052  0.0825 -0.5361  0.5595
  133TMC2     O 2072   2.849   2.785   9.942  0.5167  0.0976  0.2168
  133TMC2     H 2073   3.047   2.709   9.849  0.1545 -0.8418 -0.3514
  133TMC2    H1 2074   2.992   2.666  10.287  1.0453 -1.0555  0.3896
  133TMC2    H2 2075   3.375   2.624  10.098 -0.7866 -0.5289  1.7990
  133TMC2    C7 2076   3.240   2.644  10.334  0.1552 -0.3498 -0.5193
  133TMC2    C8 2077   3.302   2.625   9.851  0.3515  0.1596 -0.2384
  133TMC2    O1 2078   3.161   2.612  10.422  0.0448 -0.2940  0.0799
  133TMC2    O2 2079   3.423   2.622   9.852  0.5638 -0.0855 -0.3303
  133TMC2    O5 2080   3.217   2.568   9.759  0.1849  0.2399 -0.5887
  133TMC2    H5 2081   3.122   2.554   9.777  0.1672  0.0080 -0.8691
  134MPD2     C 2082   2.559   2.689  10.229  1.1146 -0.1126  0.0199
  134MPD2    C1 2083   2.656   2.758  10.164 -0.3027  0.4874  0.7262
  134MPD2    C2 2084   2.618   2.878  10.102  0.0850 -0.6501 -0.5542
  134MPD2    C3 2085   2.494   2.922  10.119  0.5638  0.3557  0.7909
  134MPD2    C4 2086   2.396   2.849  10.183  0.1209  0.1036 -0.1981
  134MPD2    C5 2087   2.430   2.726  10.230 -0.2879  0.1103 -0.4322
  134MPD2     H 2088   2.697   2.924  10.043  0.3749 -0.2710  0.1242
  134MPD2    H1 2089   2.293   2.882  10.199  0.2117 -0.0963  0.7913
  134MPD2    H2 2090   2.587   2.598  10.281  0.9466  0.8904  1.8477
  134MPD2    H3 2091   2.356   2.676  10.291  1.0063  1.3439  2.1390
  134MPD2     N 2092   2.464   3.049  10.078 -1.0758 -0.0186 -0.0686
  134MPD2    H5 2093   2.371   3.073  10.112 -0.9716  0.1418  0.1042
  134MPD2    N1 2094   2.783   2.704  10.152 -0.3523 -0.2740 -0.1387
  134MPD2    H7 2095   2.828   2.655  10.230 -0.2924  1.3584  0.8597
  135TMC2    C1 2096   4.430   4.664  10.302  0.0246 -0.1387 -0.2446
  135TMC2    C2 2097   4.442   4.569  10.211 -0.4937 -0.2460  0.0243
  135TMC2    C3 2098   4.429   4.442  10.244 -0.5920  0.7097  0.2021
  135TMC2    C4 2099   4.407   4.637  10.434 -0.2191 -0.4711  0.0020
  135TMC2    C5 2100   4.391   4.502  10.468 -0.4137  0.2713 -0.0570
  135TMC2    C6 2101   4.403   4.405  10.373 -0.0785 -0.0851  0.3196
  135TMC2     C 2102   4.413   0.059  10.254  0.1096  0.3964 -0.5711
  135TMC2     O 2103   4.372   0.149  10.327  0.7004 -0.0012  0.1160
  135TMC2     H 2104   4.450   4.583  10.103  2.5520  0.6524  0.3620
  135TMC2    H1 2105   4.388   4.718  10.505  2.3614 -2.7882  3.3445
  135TMC2    H2 2106   4.395   4.299  10.396 -1.1635 -0.0032  0.3198
  135TMC2    C7 2107   4.319   4.475  10.588  0.6049  0.3451  0.0033
  135TMC2    C8 2108   4.468   4.345  10.144 -0.6975  0.6179  0.8506
  135TMC2    O1 2109   4.301   4.571  10.663 -0.2649 -0.2706  0.6162
  135TMC2    O2 2110   4.410   4.238  10.136 -0.2345 -0.0111  0.3166
  135TMC2    O5 2111   4.591   4.371  10.095 -0.3565  0.2275  0.2676
  135TMC2    H5 2112   4.632   4.455  10.126 -0.6299  0.0118  1.2199
  136MPD2     C 2113   4.367   0.294  10.071 -0.3724 -0.4201 -0.1645
  136MPD2    C1 2114   4.449   0.190  10.043  0.1667  0.7131 -0.0175
  136MPD2    C2 2115   4.531   0.196   9.929 -0.3818 -1.2764  0.6927
  136MPD2    C3 2116   4.517   0.303   9.846 -0.2141 -0.1295 -0.2057
  136MPD2    C4 2117   4.433   0.408   9.878  0.1064 -0.1918 -0.1437
  136MPD2    C5 2118   4.357   0.404   9.994 -0.0659 -0.0591  0.6096
  136MPD2     H 2119   4.590   0.110   9.900  2.2565  1.8894 -3.1781
  136MPD2    H1 2120   4.427   0.494   9.811 -1.3763  0.7059  1.1260
  136MPD2    H2 2121   4.311   0.296  10.164  1.6012 -0.3213  1.0058
  136MPD2    H3 2122   4.278   0.474  10.019 -1.0838 -0.1342 -2.3345
  136MPD2     N 2123   4.589   0.321   9.731  0.1440 -0.0433 -0.5637
  136MPD2    H5 2124   4.573   0.407   9.679 -0.9605 -0.3895 -0.7772
  136MPD2    N1 2125   4.462   0.077  10.128  0.0719 -0.3887  0.3875
  136MPD2    H7 2126   4.523   0.009  10.083  0.4487  0.5985 -0.5806
  137TMC2    C1 2127   3.937   4.561  10.528 -0.7349  0.8016  1.3006
  137TMC2    C2 2128   4.017   4.664  10.578 -0.0936  0.0475  0.2229
  137TMC2    C3 2129   4.005   4.695  10.712  0.1396 -0.0958 -0.2987
  137TMC2    C4 2130   3.844   4.493  10.601  0.4250 -0.2412  0.1564
  137TMC2    C5 2131   3.832   4.538  10.730 -0.2084  1.0447  0.2848
  137TMC2    C6 2132   3.906   4.645  10.781  0.2046  0.1347  0.2060
  137TMC2     C 2133   3.957   4.517  10.397  0.7057 -0.1193 -0.0150
  137TMC2     O 2134   3.941   4.395  10.376 -0.0692 -0.6219  0.1960
  137TMC2     H 2135   4.087   4.718  10.515  0.6083 -1.7548 -0.5246
  137TMC2    H1 2136   3.785   4.413  10.558  0.3296  1.1986 -2.4208
  137TMC2    H2 2137   3.888   4.678  10.883 -0.9536 -0.5923  0.2451
  137TMC2    C7 2138   3.738   4.483  10.823  0.4180 -0.0356 -0.1289
  137TMC2    C8 2139   4.075   0.070  10.768 -0.2780 -0.6099 -0.2470
  137TMC2    O1 2140   3.775   4.480  10.940  0.4699  0.7704  0.1114
  137TMC2    O2 2141   4.019   0.156  10.836 -0.3187 -0.7671 -0.2749
  137TMC2    O5 2142   4.207   0.044  10.769 -0.0824 -0.1122  0.5232
  137TMC2    H5 2143   4.229   4.705  10.713 -2.2464 -0.1602 -0.2672
  138MPD2     C 2144   4.089   4.720  10.126  0.4034  0.7713 -0.1754
  138MPD2    C1 2145   4.064   4.597  10.189  0.9176  0.7188 -0.0432
  138MPD2    C2 2146   4.088   4.476  10.123 -0.3096  0.1134  0.3823
  138MPD2    C3 2147   4.141   4.481  10.003 -0.4564 -0.3761  0.0124
  138MPD2    C4 2148   4.149   4.600   9.929  0.3604  0.9927 -0.1538
  138MPD2    C5 2149   4.131   4.717   9.995  0.1338  0.2641  0.7347
  138MPD2     H 2150   4.060   4.382  10.168 -1.0519 -0.0749 -0.4787
  138MPD2    H1 2151   4.170   4.593   9.823  0.0512 -3.5484  0.0559
  138MPD2    H2 2152   4.062   0.076  10.170 -0.7199 -0.8338  2.5923
  138MPD2    H3 2153   4.132   0.078   9.952  0.7265  0.3763  1.0159
  138MPD2     N 2154   4.177   4.364   9.940  0.6935 -0.0378  0.0027
  138MPD2    H5 2155   4.176   4.278   9.993 -1.6008  1.0372  1.7026
  138MPD2    N1 2156   4.010   4.616  10.318 -0.7684 -0.8451 -0.1155
  138MPD2    H7 2157   4.009   4.713  10.348 -1.5458 -1.6518  2.4018
  139TMC2    C1 2158   4.593   2.603  13.361  0.4596 -0.4596  0.7346
  139TMC2    C2 2159   4.636   2.700  13.274  0.7761 -0.3142 -0.3025
  139TMC2    C3 2160   4.561   2.813  13.259  0.7859  0.5330 -0.1437
  139TMC2    C4 2161   4.482   2.623  13.435 -0.2567  0.3621 -0.6061
  139TMC2    C5 2162   4.421   2.748  13.428  0.8013  0.2819  0.5954
  139TMC2    C6 2163   4.462   2.845  13.342 -0.2768 -0.4884  0.4124
  139TMC2     C 2164   4.670   2.482  13.378  0.1687  0.3588  0.4660
  139TMC2     O 2165   4.714   2.418  13.284  0.2579  0.1076 -0.4711
  139TMC2     H 2166   4.721   2.688  13.208  0.5837 -3.9936  0.0991
  139TMC2    H1 2167   4.467   2.571  13.529 -0.2214  1.3624 -0.0460
  139TMC2    H2 2168   4.420   2.945  13.344 -1.1872 -0.8908  1.3000
  139TMC2    C7 2169   4.343   2.796  13.532 -0.3901  0.1058 -0.8237
  139TMC2    C8 2170   4.623   2.925  13.190  0.1422 -0.3145  0.8426
  139TMC2    O1 2171   4.317   2.918  13.538  0.0417 -0.6573 -0.0911
  139TMC2    O2 2172   4.670   2.906  13.077  0.4185 -0.6297 -0.0544
  139TMC2    O5 2173   4.691   2.990  13.282  0.1639 -0.3777  0.6202
  139TMC2    H5 2174   4.667   2.962  13.373  2.1410 -1.4483  0.8100
  140MPD2     C 2175   0.003   2.323  13.706  0.2383 -0.6065  0.7074
  140MPD2    C1 2176   4.735   2.346  13.569 -0.0761 -0.0755  0.4371
  140MPD2    C2 2177   0.067   2.251  13.497 -0.0847 -0.3001  0.7839
  140MPD2    C3 2178   0.146   2.157  13.560  0.1677 -0.5260 -0.4197
  140MPD2    C4 2179   0.145   2.145  13.693  1.0929 -0.1141  0.0907
  140MPD2    C5 2180   0.076   2.229  13.772  0.4667  0.0401  0.5182
  140MPD2     H 2181   0.072   2.264  13.390  1.4300 -1.9196  0.6645
  140MPD2    H1 2182   0.210   2.070  13.738  2.2226  0.9763  0.2730
  140MPD2    H2 2183   4.691   2.392  13.772 -0.4478  0.2717 -0.7443
  140MPD2    H3 2184   0.074   2.218  13.880 -0.6325 -0.1666  0.4805
  140MPD2     N 2185   0.218   2.061  13.477  0.1446  0.4942  0.2289
  140MPD2    H5 2186   0.197   2.065  13.378 -0.2836 -0.0252  0.2908
  140MPD2    N1 2187   4.674   2.457  13.513 -0.4779  0.0868  0.0483
  140MPD2    H7 2188   4.640   2.529  13.575 -0.1011  0.7526 -0.5234
  141TMC2    C1 2189   0.921   3.707  14.515 -0.5428  0.5949  0.6911
  141TMC2    C2 2190   0.897   3.597  14.590  0.1235  0.0090  0.5221
  141TMC2    C3 2191   0.954   3.598  14.714  0.7510 -0.1918 -0.1101
  141TMC2    C4 2192   0.987   3.821  14.559 -0.0545  0.0152 -0.7130
  141TMC2    C5 2193   1.043   3.809  14.679 -0.2755  0.2223 -0.3787
  141TMC2    C6 2194   1.024   3.702  14.758 -0.7275  0.0190 -0.4350
  141TMC2     C 2195   0.885   3.717  14.377 -0.0573  0.0066  0.0439
  141TMC2     O 2196   0.855   3.830  14.332  0.6127  0.5745 -0.6150
  141TMC2     H 2197   0.841   3.508  14.567 -0.0103  0.9567 -2.7651
  141TMC2    H1 2198   0.981   3.916  14.507 -0.8555  0.1063 -0.4647
  141TMC2    H2 2199   1.061   3.708  14.860 -0.3063 -1.7619 -0.4776
  141TMC2    C7 2200   1.076   3.934  14.752 -0.2068  0.3904 -0.3932
  141TMC2    C8 2201   0.946   3.479  14.789  0.1651  0.3826  0.1917
  141TMC2    O1 2202   1.041   3.939  14.870  0.0841  0.5567 -0.4231
  141TMC2    O2 2203   0.958   3.480  14.909  0.7324  0.2917  0.0622
  141TMC2    O5 2204   0.967   3.374  14.715 -0.3499 -0.1313 -0.1292
  141TMC2    H5 2205   0.973   3.392  14.619  2.0561 -0.7708 -0.0882
  142TMC2    C1 2206   3.819   2.711  10.085  0.0222 -0.0955  0.1689
  142TMC2    C2 2207   3.765   2.734   9.957  0.2655  0.3700  0.7701
  142TMC2    C3 2208   3.797   2.855   9.903  0.0614 -0.4859  0.0020
  142TMC2    C4 2209   3.904   2.801  10.146  0.1062  0.8461 -0.3603
  142TMC2    C5 2210   3.946   2.906  10.073 -0.3002  0.1067  0.2132
  142TMC2    C6 2211   3.890   2.938   9.954  0.4275 -0.0956 -0.2774
  142TMC2     C 2212   3.765   2.593  10.160 -0.5699 -0.3669 -0.6518
  142TMC2     O 2213   3.676   2.528  10.113 -0.3325  0.1902 -0.3389
  142TMC2     H 2214   3.715   2.658   9.898 -1.1510 -0.1089  2.5684
  142TMC2    H1 2215   3.933   2.792  10.250  0.4061  2.8589 -0.2749
  142TMC2    H2 2216   3.908   3.033   9.904  3.0322 -0.8920 -0.8691
  142TMC2    C7 2217   4.013   3.001  10.158  0.3694  0.3468 -0.1473
  142TMC2    C8 2218   3.691   2.908   9.815 -0.7784 -0.4531 -0.2654
  142TMC2    O1 2219   4.029   2.981  10.276 -0.5165  0.2170 -0.3311
  142TMC2    O2 2220   3.721   2.992   9.732  0.2574 -0.1273  0.1757
  142TMC2    O5 2221   3.569   2.871   9.858  0.3504 -0.2498 -0.3093
  142TMC2    H5 2222   3.565   2.813   9.938 -2.0368  1.3037  0.6767
  143MPD2     C 2223   3.801   2.274  10.573 -0.2787 -0.4192 -0.3658
  143MPD2    C1 2224   3.692   2.316  10.498  0.2646 -0.1706 -0.3935
  143MPD2    C2 2225   3.709   2.401  10.389 -0.4875 -0.3596  0.3200
  143MPD2    C3 2226   3.832   2.458  10.363  0.1417  0.2138  0.1314
  143MPD2    C4 2227   3.937   2.422  10.447  0.0464  0.2797  0.4321
  143MPD2    C5 2228   3.928   2.328  10.544  0.8006  0.2738  0.3922
  143MPD2     H 2229   3.621   2.438  10.337  0.4173  2.7345  0.9733
  143MPD2    H1 2230   4.039   2.457  10.439 -0.3777  1.7218  1.4175
  143MPD2    H2 2231   3.799   2.208  10.659  1.0970  2.5178  1.8999
  143MPD2    H3 2232   4.012   2.298  10.605  0.2957 -1.2905  0.3344
  143MPD2     N 2233   3.854   2.556  10.264  0.2680  0.6629  0.6082
  143MPD2    H5 2234   3.949   2.591  10.258  0.3121  0.4773  0.2097
  143MPD2    N1 2235   3.567   2.268  10.538  0.4135 -0.0951 -0.1846
  143MPD2    H7 2236   3.565   2.219  10.627  0.9018  0.5043  0.1537
  144TMC2    C1 2237   1.715   1.755   0.825 -0.3755 -0.2412 -0.2379
  144TMC2    C2 2238   1.760   1.707   0.705 -0.2956 -0.7995  0.4558
  144TMC2    C3 2239   1.896   1.694   0.690  0.4115  0.5016  0.1917
  144TMC2    C4 2240   1.806   1.788   0.927  0.1893 -0.3937  0.1390
  144TMC2    C5 2241   1.940   1.781   0.897  0.8681 -0.9272 -0.3576
  144TMC2    C6 2242   1.987   1.749   0.772 -0.5004  0.3234  0.7338
  144TMC2     C 2243   1.575   1.802   0.820  0.6124  0.3792  0.0505
  144TMC2     O 2244   1.517   1.787   0.714 -0.1816  0.7934  0.4850
  144TMC2     H 2245   1.695   1.669   0.627 -0.0973  0.1759 -0.1914
  144TMC2    H1 2246   1.778   1.798   1.032 -1.0564 -1.4397 -0.0909
  144TMC2    H2 2247   2.094   1.738   0.752 -0.8913 -1.7462 -0.2857
  144TMC2    C7 2248   2.032   1.841   0.987  0.0615  0.5970 -0.1690
  144TMC2    C8 2249   1.944   1.617   0.574 -0.0296  0.2251  0.2195
  144TMC2    O1 2250   2.151   1.816   0.978  0.3037  0.6049  0.2074
  144TMC2    O2 2251   2.062   1.616   0.546 -0.1572  0.2865 -0.1056
  144TMC2    O5 2252   1.851   1.541   0.518 -0.0037 -0.1343 -0.3833
  144TMC2    H5 2253   1.768   1.529   0.569  0.3532  0.3406  0.3136
  145MPD2     C 2254   1.130   1.871   1.036 -0.0442  0.0959 -0.4340
  145MPD2    C1 2255   1.162   1.843   0.899 -0.2414  0.1801  0.0908
  145MPD2    C2 2256   1.296   1.850   0.875 -0.2027  0.5810  0.6182
  145MPD2    C3 2257   1.394   1.865   0.969  0.0731 -0.0722  0.0622
  145MPD2    C4 2258   1.364   1.876   1.097  0.3093  0.5572  0.6548
  145MPD2    C5 2259   1.230   1.889   1.130  0.0763 -0.3520  0.1533
  145MPD2     H 2260   1.314   1.829   0.771  0.5763  2.0379  0.4531
  145MPD2    H1 2261   1.441   1.884   1.173  0.0260  0.7893  0.9188
  145MPD2    H2 2262   1.034   1.862   1.085 -0.3070 -0.2674 -1.0190
  145MPD2    H3 2263   1.206   1.906   1.235  0.2855  0.5918  0.0400
  145MPD2     N 2264   1.527   1.831   0.943  0.3939 -0.4630  0.4132
  145MPD2    H5 2265   1.595   1.835   1.018  1.6790 -1.1950 -0.7119
  145MPD2    N1 2266   1.072   1.802   0.801 -0.0004  0.3496  0.2276
  145MPD2    H7 2267   1.100   1.756   0.714  0.6834  1.1855  0.0027
  146TMC2    C1 2268   2.674   0.309  13.078  0.4752  0.1314  0.2178
  146TMC2    C2 2269   2.572   0.361  13.006 -0.4065 -0.2574 -0.1440
  146TMC2    C3 2270   2.559   0.330  12.878  0.1279 -0.7802 -0.6238
  146TMC2    C4 2271   2.773   0.232  13.022 -1.0202 -0.1230 -0.8728
  146TMC2    C5 2272   2.754   0.202  12.890  0.4161 -0.1234 -0.6338
  146TMC2    C6 2273   2.651   0.254  12.814  0.3165 -0.4202  0.3581
  146TMC2     C 2274   2.711   0.380  13.194 -0.6564  0.7905  0.4620
  146TMC2     O 2275   2.666   0.493  13.214  1.5362  0.4784 -0.2011
  146TMC2     H 2276   2.505   0.429  13.056  0.7632  0.2749  0.7089
  146TMC2    H1 2277   2.865   0.210  13.074 -0.7611  0.1302 -1.2242
  146TMC2    H2 2278   2.647   0.242  12.707  0.9983 -0.6064  0.3495
  146TMC2    C7 2279   2.832   0.093  12.833  0.0298 -0.0226 -0.2189
  146TMC2    C8 2280   2.450   0.377  12.796  0.0850 -0.3781 -0.3386
  146TMC2    O1 2281   2.818   0.080  12.708 -0.1908 -0.1549  0.3364
  146TMC2    O2 2282   2.410   0.491  12.788 -0.2009  0.0771  0.0700
  146TMC2    O5 2283   2.395   0.266  12.741 -0.4049  0.1183  0.4787
  146TMC2    H5 2284   2.441   0.183  12.768 -2.8446 -1.5037 -0.3980
  147MPD2     C 2285   3.216   4.494  12.822 -0.4666 -0.1517 -0.3789
  147MPD2    C1 2286   3.203   4.529  12.956  0.4061  0.0103  0.0859
  147MPD2    C2 2287   3.100   4.621  12.988 -0.4703 -0.5613  0.0080
  147MPD2    C3 2288   3.011   4.668  12.892  0.1835  0.6779 -0.0754
  147MPD2    C4 2289   3.037   4.633  12.761  0.0511  0.1031  0.5028
  147MPD2    C5 2290   3.137   4.551  12.725 -0.5320 -0.3987 -0.1123
  147MPD2     H 2291   3.084   4.671  13.083  0.6392 -2.7459  1.3527
  147MPD2    H1 2292   2.984   4.681  12.680  2.7655  1.7034 -0.3494
  147MPD2    H2 2293   3.282   4.417  12.782  0.9419 -0.4416  2.5346
  147MPD2    H3 2294   3.137   4.520  12.621 -0.5671  0.0973 -0.2599
  147MPD2     N 2295   2.907   0.024  12.919 -0.4485 -0.4768  0.2341
  147MPD2    H5 2296   2.902   0.056  13.015  0.7390  0.0400  0.1248
  147MPD2    N1 2297   3.288   4.475  13.045 -0.4101 -0.4456  0.2982
  147MPD2    H7 2298   3.363   4.421  13.001  1.9532  0.2011  3.5376
  148TMC2    C1 2299   2.650   3.959  11.001 -0.8219  0.2437  0.5186
  148TMC2    C2 2300   2.729   4.070  10.995  1.0536 -0.3704  0.6882
  148TMC2    C3 2301   2.859   4.047  11.034 -0.2564  0.2149  0.0573
  148TMC2    C4 2302   2.682   3.834  11.052 -0.6189 -0.8253  0.2493
  148TMC2    C5 2303   2.811   3.821  11.095  1.0880 -0.5929 -0.4530
  148TMC2    C6 2304   2.906   3.922  11.075  0.2267 -0.0698 -0.0270
  148TMC2     C 2305   2.515   3.987  10.958  0.2713  0.0958 -0.3225
  148TMC2     O 2306   2.479   4.101  10.952  0.1853 -0.0304 -0.3120
  148TMC2     H 2307   2.695   4.161  10.948 -0.3125 -1.4395 -0.3964
  148TMC2    H1 2308   2.617   3.748  11.051 -1.2452 -0.3858  2.1411
  148TMC2    H2 2309   3.010   3.915  11.102  0.4541  0.3995 -0.8100
  148TMC2    C7 2310   2.850   3.679  11.114 -0.2844 -0.2662 -0.3124
  148TMC2    C8 2311   2.949   4.154  11.046 -1.4943 -0.3323 -0.1531
  148TMC2    O1 2312   2.762   3.591  11.101 -0.8797  0.0222  0.3600
  148TMC2    O2 2313   3.072   4.140  11.033  0.3417  0.7475  0.5043
  148TMC2    O5 2314   2.898   4.229  11.142 -0.0941  0.0964 -0.2599
  148TMC2    H5 2315   2.808   4.189  11.146 -0.1619  0.2865  0.0871
  149MPD2     C 2316   2.246   3.971  10.841 -0.0117  0.2286  0.0493
  149MPD2    C1 2317   2.327   3.862  10.873  0.2806 -0.0944  0.1942
  149MPD2    C2 2318   2.277   3.739  10.858 -0.4488 -0.1787 -1.2573
  149MPD2    C3 2319   2.151   3.713  10.809 -0.0543 -1.1087 -0.1915
  149MPD2    C4 2320   2.073   3.817  10.764  0.1368 -0.3179  0.0919
  149MPD2    C5 2321   2.120   3.945  10.789  0.1678 -0.9714 -0.0163
  149MPD2     H 2322   2.353   3.665  10.879  0.2851  0.6679 -0.8906
  149MPD2    H1 2323   1.971   3.807  10.728 -0.1131 -2.3502  1.3797
  149MPD2    H2 2324   2.279   4.073  10.853  2.2039 -0.6749  1.7440
  149MPD2    H3 2325   2.053   4.024  10.757  1.8346  0.6812  0.5036
  149MPD2     N 2326   2.106   3.582  10.790  0.6337  0.2046 -0.2011
  149MPD2    H5 2327   2.031   3.574  10.722  1.7851 -1.0303 -1.3267
  149MPD2    N1 2328   2.457   3.875  10.916 -0.0166 -0.4019  0.2889
  149MPD2    H7 2329   2.513   3.791  10.911 -0.4511 -0.5874 -1.3892
  150TMC2    C1 2330   0.357   3.139  12.185  0.3807  0.1599  0.8026
  150TMC2    C2 2331   0.349   3.163  12.054 -0.0449  0.1096 -0.2553
  150TMC2    C3 2332   0.463   3.213  12.004  0.9922  0.4841 -0.0597
  150TMC2    C4 2333   0.462   3.158  12.266  0.5157 -0.7217  0.4097
  150TMC2    C5 2334   0.571   3.218  12.215 -0.4312  0.3129  0.6338
  150TMC2    C6 2335   0.568   3.254  12.081 -0.3640  0.7277  0.1133
  150TMC2     C 2336   0.239   3.074  12.246  0.2737  0.4068  0.0436
  150TMC2     O 2337   0.222   3.102  12.365  0.0394 -0.1947 -0.1258
  150TMC2     H 2338   0.262   3.138  11.994 -0.7184 -0.2700  0.8991
  150TMC2    H1 2339   0.452   3.131  12.371 -0.7051  0.1313  0.5070
  150TMC2    H2 2340   0.662   3.297  12.048  0.2715 -0.5578  0.2312
  150TMC2    C7 2341   0.693   3.214  12.280  0.2486 -0.5374  0.9468
  150TMC2    C8 2342   0.461   3.217  11.860 -0.0068 -0.4178  0.4343
  150TMC2    O1 2343   0.779   3.299  12.248 -0.6756  0.0721 -0.0188
  150TMC2    O2 2344   0.365   3.193  11.788  0.4224  0.1184  0.2185
  150TMC2    O5 2345   0.590   3.227  11.813 -0.2275 -0.0664  0.4944
  150TMC2    H5 2346   0.663   3.227  11.879 -0.8940  1.5650  1.2315
  151MPD2     C 2347   4.602   2.728  12.271  0.1179  0.9276 -0.1594
  151MPD2    C1 2348   4.683   2.693  12.163  0.6604  0.1019 -0.4501
  151MPD2    C2 2349   0.050   2.781  12.125 -0.0733 -0.3830  0.2844
  151MPD2    C3 2350   0.078   2.889  12.208 -0.5212 -0.3626  0.4041
  151MPD2    C4 2351   0.006   2.904  12.328 -0.5269 -0.2933  0.5605
  151MPD2    C5 2352   4.636   2.824  12.359  0.4096  0.8094 -0.1746
  151MPD2     H 2353   0.112   2.776  12.037  0.3980 -0.3837  0.6127
  151MPD2    H1 2354   0.019   2.983  12.401 -0.2581  0.3384 -0.1760
  151MPD2    H2 2355   4.517   2.666  12.298  1.0581 -0.6178 -0.7456
  151MPD2    H3 2356   4.587   2.836  12.455  0.6087 -0.8356  0.1290
  151MPD2     N 2357   0.179   2.978  12.171 -0.9396  0.0769 -0.1138
  151MPD2    H5 2358   0.220   2.972  12.079  1.5387 -1.7435  1.1135
  151MPD2    N1 2359   4.621   2.596  12.072 -0.2300  0.2866 -0.4485
  151MPD2    H7 2360   4.527   2.574  12.101  0.5884  1.6297  3.1554
  152TMC2    C1 2361   0.215   2.687  12.548  0.1148 -0.1592 -0.5060
  152TMC2    C2 2362   0.269   2.700  12.419 -0.5607  0.4181 -0.2083
  152TMC2    C3 2363   0.390   2.767  12.432 -0.2872  0.5707  0.6483
  152TMC2    C4 2364   0.264   2.718  12.670 -0.3626 -0.0812 -0.6692
  152TMC2    C5 2365   0.380   2.786  12.671  0.2582  0.2633 -0.2688
  152TMC2    C6 2366   0.442   2.817  12.546 -0.1001  0.9392 -0.3732
  152TMC2     C 2367   0.085   2.620  12.563  0.7106 -0.1336 -0.2764
  152TMC2     O 2368   0.003   2.662  12.644 -0.6092 -0.2962  0.3755
  152TMC2     H 2369   0.208   2.678  12.332  1.4772 -1.5289 -1.1782
  152TMC2    H1 2370   0.210   2.693  12.760  1.2952 -0.4611  0.2180
  152TMC2    H2 2371   0.531   2.879  12.545  0.4703  0.1677  1.6019
  152TMC2    C7 2372   0.478   2.724  12.759 -0.1642  0.2536  0.5992
  152TMC2    C8 2373   0.463   2.813  12.312 -0.4214 -0.4239 -0.0276
  152TMC2    O1 2374   0.457   2.616  12.809  0.1096 -0.2281  0.0244
  152TMC2    O2 2375   0.560   2.887  12.308 -0.0942  0.0046  0.3878
  152TMC2    O5 2376   0.445   2.711  12.232 -0.0207  0.0792  0.0058
  152TMC2    H5 2377   0.367   2.651  12.241  1.0630 -1.4167 -0.4912
  153MPD2     C 2378   4.711   2.353  12.337  0.0971  0.2498  0.1436
  153MPD2    C1 2379   4.702   2.438  12.448  0.1222  0.1104  0.1722
  153MPD2    C2 2380   4.582   2.461  12.506  0.2172 -0.0260  0.3117
  153MPD2    C3 2381   4.469   2.387  12.478 -0.5557  0.4049 -0.2135
  153MPD2    C4 2382   4.482   2.287  12.375 -0.7809 -0.5350 -0.7467
  153MPD2    C5 2383   4.599   2.280  12.301 -0.7984 -0.6475  0.3453
  153MPD2     H 2384   4.575   2.544  12.575 -0.6785 -1.1312  1.5604
  153MPD2    H1 2385   4.397   2.247  12.322 -1.2107 -0.0305 -0.4437
  153MPD2    H2 2386   0.061   2.353  12.275 -0.2412 -0.6796 -0.3416
  153MPD2    H3 2387   4.601   2.223  12.209 -0.3730 -2.0487  1.2195
  153MPD2     N 2388   4.347   2.413  12.549 -0.6825  0.5881  0.6561
  153MPD2    H5 2389   4.340   2.484  12.621  0.7446  2.6454 -1.2352
  153MPD2    N1 2390   0.071   2.528  12.465  0.0200 -0.1586  0.8175
  153MPD2    H7 2391   0.153   2.506  12.409 -0.6922  1.2093 -0.7867
  154TMC2    C1 2392   1.041   2.418   0.497  0.7120  0.7325 -0.2945
  154TMC2    C2 2393   1.016   2.345   0.386  0.2171  0.2306  0.5657
  154TMC2    C3 2394   1.096   2.349   0.278  0.7228 -0.5461  0.1950
  154TMC2    C4 2395   1.159   2.490   0.505 -0.2158  1.1210 -0.2243
  154TMC2    C5 2396   1.236   2.495   0.393  0.0753  0.0620 -0.3617
  154TMC2    C6 2397   1.213   2.420   0.281 -0.5313 -0.5126 -0.9342
  154TMC2     C 2398   0.938   2.443   0.594 -0.1203  0.0807  0.0201
  154TMC2     O 2399   0.978   2.477   0.706  0.2375  0.0856  0.0622
  154TMC2     H 2400   0.926   2.285   0.371 -0.3429  1.4506 -0.9580
  154TMC2    H1 2401   1.179   2.543   0.598 -1.1755 -0.5884  0.9541
  154TMC2    H2 2402   1.278   2.412   0.195  2.2435  0.3736  1.0663
  154TMC2    C7 2403   1.370   2.563   0.408 -0.3099 -0.2999 -0.2272
  154TMC2    C8 2404   1.101   2.224   0.204  0.9849  0.0617 -0.0593
  154TMC2    O1 2405   1.401   2.602   0.519 -0.3665  0.2445 -1.1242
  154TMC2    O2 2406   1.076   2.124   0.272  0.2227  0.0456  0.4637
  154TMC2    O5 2407   1.182   2.233   0.096 -0.1446  0.2220  0.1079
  154TMC2    H5 2408   1.179   2.324   0.060  1.2519  1.3847  2.8658
  155MPD2     C 2409   0.573   2.515   0.523 -0.4118  0.5638  0.1280
  155MPD2    C1 2410   0.693   2.514   0.594 -0.5295  0.5164  0.6889
  155MPD2    C2 2411   0.693   2.580   0.718  0.6938 -0.3147  0.2013
  155MPD2    C3 2412   0.590   2.662   0.759 -0.0859  0.0022 -0.5477
  155MPD2    C4 2413   0.472   2.657   0.692  0.1301 -0.7427 -0.0125
  155MPD2    C5 2414   0.462   2.574   0.583  0.0849  0.2322 -0.1969
  155MPD2     H 2415   0.787   2.582   0.773  0.2261  1.4884  0.9408
  155MPD2    H1 2416   0.383   2.703   0.734 -0.2137 -1.7893  0.3992
  155MPD2    H2 2417   0.570   2.453   0.434  0.6286  1.3349 -0.4444
  155MPD2    H3 2418   0.369   2.566   0.528 -1.3317 -0.6082  2.3229
  155MPD2     N 2419   0.617   2.747   0.873  0.7810 -0.0856  0.3898
  155MPD2    H5 2420   0.706   2.738   0.921  0.9134  3.4164  0.8255
  155MPD2    N1 2421   0.810   2.452   0.542 -0.2643  0.5296 -0.4916
  155MPD2    H7 2422   0.804   2.417   0.447  0.2351  1.0307 -0.7101
  156TMC2    C1 2423   0.220   4.494  11.534  0.1481  0.3706  0.2307
  156TMC2    C2 2424   0.225   4.358  11.518 -0.2870  0.1213 -0.1370
  156TMC2    C3 2425   0.166   4.299  11.411 -0.4565 -0.4212 -0.1005
  156TMC2    C4 2426   0.165   4.571  11.440  0.3326 -0.2292 -0.5105
  156TMC2    C5 2427   0.098   4.507  11.339 -0.4207 -0.0323 -0.6013
  156TMC2    C6 2428   0.088   4.371  11.331 -0.4252 -0.5280  0.6610
  156TMC2     C 2429   0.266   4.566  11.656 -0.1469  0.5348  0.1906
  156TMC2     O 2430   0.297   4.684  11.661  1.0670 -0.0836  0.1357
  156TMC2     H 2431   0.302   4.306  11.573  0.0094  0.6439 -0.0585
  156TMC2    H1 2432   0.155   4.679  11.452 -0.2096 -0.2219 -1.0107
  156TMC2    H2 2433   0.032   4.319  11.254  0.3377 -0.5286  0.1072
  156TMC2    C7 2434   4.729   4.588  11.282  0.2534 -0.3593 -0.9688
  156TMC2    C8 2435   0.151   4.155  11.411 -0.3583  0.5774 -0.2541
  156TMC2    O1 2436   4.736   4.709  11.292 -0.1205  0.3759 -0.2712
  156TMC2    O2 2437   0.106   4.092  11.316  0.2844  0.6967  0.2380
  156TMC2    O5 2438   0.134   4.121  11.539  0.0866  0.0483  0.1164
  156TMC2    H5 2439   0.131   4.198  11.600 -1.0457 -0.4162  0.6506
  157MPD2     C 2440   0.275   4.421  11.989  0.0804  0.2998 -0.1324
  157MPD2    C1 2441   0.302   4.515  11.893 -0.8857  0.0679  0.2117
  157MPD2    C2 2442   0.376   4.621  11.934 -0.4985  0.2280 -0.1855
  157MPD2    C3 2443   0.405   4.641  12.069 -0.7704  0.3064  0.5267
  157MPD2    C4 2444   0.355   4.557  12.165  0.6783 -0.2575  0.2062
  157MPD2    C5 2445   0.300   4.445  12.124 -0.5608 -0.6743 -0.0061
  157MPD2     H 2446   0.410   4.692  11.860  1.6356  1.1763  1.6924
  157MPD2    H1 2447   0.367   4.569  12.272 -2.5616  1.7373  0.3658
  157MPD2    H2 2448   0.223   4.334  11.950 -0.7297  1.7879 -2.3566
  157MPD2    H3 2449   0.262   4.372  12.195  0.8295 -1.0280  0.3748
  157MPD2     N 2450   0.472   0.017  12.106 -0.4598 -0.0542  0.1403
  157MPD2    H5 2451   0.499   0.077  12.028  0.9655  1.0776  1.5142
  157MPD2    N1 2452   0.270   4.478  11.762 -0.0319 -0.0288  0.2521
  157MPD2    H7 2453   0.233   4.384  11.749 -0.9045  0.3566 -0.0625
  158TMC2    C1 2454   0.201   4.017  13.604  0.6618  0.8051  0.7956
  158TMC2    C2 2455   0.232   4.081  13.488 -0.0673  0.8602 -0.3289
  158TMC2    C3 2456   0.133   4.085  13.392 -0.0324 -0.0864  0.2661
  158TMC2    C4 2457   0.075   3.965  13.627  0.1469 -0.0063 -0.8078
  158TMC2    C5 2458   4.725   3.978  13.526 -0.1024  0.1176 -0.0508
  158TMC2    C6 2459   0.013   4.025  13.401  0.0603 -0.4284  0.4182
  158TMC2     C 2460   0.308   4.006  13.707 -0.6979 -0.0778  0.1782
  158TMC2     O 2461   0.403   4.077  13.693  0.3887 -0.0516 -1.0103
  158TMC2     H 2462   0.322   4.142  13.485  1.8177 -1.8192  0.8340
  158TMC2    H1 2463   0.042   3.949  13.729  0.8224 -0.7106 -0.6950
  158TMC2    H2 2464   4.685   4.030  13.316  0.1711  0.0828  0.3621
  158TMC2    C7 2465   4.585   3.971  13.553  0.0098 -0.5988  0.8254
  158TMC2    C8 2466   0.154   4.167  13.264 -0.1754  0.3300 -0.3917
  158TMC2    O1 2467   4.512   4.013  13.465  0.0243  0.6435 -0.0017
  158TMC2    O2 2468   0.073   4.188  13.177  0.0199  0.3373 -0.0471
  158TMC2    O5 2469   0.284   4.132  13.229  0.6556 -0.1028  0.8538
  158TMC2    H5 2470   0.345   4.133  13.305 -0.1303 -1.3737  1.4943
  159MPD2     C 2471   0.528   3.855  14.124 -0.0455 -0.4033  0.0945
  159MPD2    C1 2472   0.456   3.742  14.078  0.4128  0.7331  0.5567
  159MPD2    C2 2473   0.370   3.753  13.969 -0.0532 -0.2790 -0.4810
  159MPD2    C3 2474   0.368   3.879  13.904 -0.1692  0.1469 -0.3608
  159MPD2    C4 2475   0.446   3.981  13.950 -0.2204  1.0557 -0.2375
  159MPD2    C5 2476   0.522   3.970  14.057  0.3572 -0.5531  0.3230
  159MPD2     H 2477   0.327   3.664  13.924 -0.0643 -0.7744  0.5139
  159MPD2    H1 2478   0.454   4.080  13.905  0.6842  1.1885  0.2073
  159MPD2    H2 2479   0.606   3.847  14.199 -0.2405 -0.7774  0.2580
  159MPD2    H3 2480   0.577   4.055  14.095 -2.8449  0.6746  2.1993
  159MPD2     N 2481   0.286   3.900  13.792  0.0024  0.0441  0.0724
  159MPD2    H5 2482   0.209   3.835  13.777 -1.7033  1.8650  0.8310
  159MPD2    N1 2483   0.461   3.625  14.167 -0.0711  0.5302  0.4814
  159MPD2    H7 2484   0.524   3.631  14.246  0.9888 -1.9266 -0.1777
  160TMC2    C1 2485   4.521   2.002   1.825 -1.0098 -0.4903  0.3103
  160TMC2    C2 2486   4.457   1.888   1.861 -0.4743  0.1437  0.3400
  160TMC2    C3 2487   4.503   1.765   1.819 -0.1140 -0.9294  0.1530
  160TMC2    C4 2488   4.635   1.997   1.751  0.0324 -0.7687 -0.0371
  160TMC2    C5 2489   4.687   1.877   1.716  0.5779 -1.1168 -0.1444
  160TMC2    C6 2490   4.622   1.756   1.750  0.2996 -1.0446  1.1308
  160TMC2     C 2491   4.465   2.131   1.837  0.4144  0.2942 -0.0801
  160TMC2     O 2492   4.419   2.153   1.948 -0.3128 -0.0858  0.6572
  160TMC2     H 2493   4.363   1.888   1.915 -0.7249  0.4992 -0.1025
  160TMC2    H1 2494   4.671   2.093   1.715 -0.4736 -1.0453 -1.2857
  160TMC2    H2 2495   4.656   1.664   1.704 -0.6306 -0.4201 -0.8137
  160TMC2    C7 2496   0.062   1.867   1.623  0.0016  0.0529 -0.6073
  160TMC2    C8 2497   4.397   1.673   1.788 -0.0313 -0.4152  0.0107
  160TMC2    O1 2498   0.104   1.761   1.586 -0.8467  0.2970  0.1893
  160TMC2    O2 2499   4.308   1.720   1.718  0.7078 -0.4719  0.5850
  160TMC2    O5 2500   4.455   1.547   1.774 -0.2008 -0.2332  0.5577
  160TMC2    H5 2501   4.530   1.545   1.838 -1.5579 -1.3922  2.1340
  161MPD2     C 2502   4.365   2.403   1.806 -0.0777  0.2056 -0.2747
  161MPD2    C1 2503   4.400   2.321   1.705  0.0200 -0.1668  0.0927
  161MPD2    C2 2504   4.375   2.361   1.572 -0.5809 -0.0315  0.1653
  161MPD2    C3 2505   4.308   2.471   1.542  0.6299 -0.6246  0.4173
  161MPD2    C4 2506   4.260   2.551   1.643  0.1734  0.3459 -0.3483
  161MPD2    C5 2507   4.301   2.521   1.774 -0.1981  0.2588 -0.1386
  161MPD2     H 2508   4.416   2.300   1.492 -0.0000 -0.5625  0.8649
  161MPD2    H1 2509   4.209   2.646   1.631 -2.5568 -1.1627 -0.5811
  161MPD2    H2 2510   4.376   2.380   1.911  0.6780  4.4844  0.6025
  161MPD2    H3 2511   4.267   2.581   1.858  0.9662  1.5619 -0.5920
  161MPD2     N 2512   4.284   2.518   1.411 -0.4839 -0.0290 -0.3828
  161MPD2    H5 2513   4.256   2.612   1.387  2.0611  0.7000 -0.5060
  161MPD2    N1 2514   4.465   2.199   1.720 -0.0958  0.3468 -0.1593
  161MPD2    H7 2515   4.495   2.150   1.636  2.3036 -0.7466  1.3469
  162TMC2    C1 2516   2.798   3.949   1.368  0.1647  0.0823 -0.5408
  162TMC2    C2 2517   2.675   3.991   1.393  0.0661 -0.1537  0.3925
  162TMC2    C3 2518   2.637   3.983   1.526 -0.8263  1.2389  0.3401
  162TMC2    C4 2519   2.882   3.882   1.457  0.2483 -0.1522 -0.5078
  162TMC2    C5 2520   2.836   3.864   1.583 -0.4796  0.0595 -0.6547
  162TMC2    C6 2521   2.716   3.916   1.616  0.5229 -0.3672  1.0993
  162TMC2     C 2522   2.841   3.978   1.235 -0.2323 -0.5064  0.5118
  162TMC2     O 2523   2.763   3.982   1.141  0.6868  0.0200  0.1780
  162TMC2     H 2524   2.626   4.056   1.322  0.0564 -0.2580  0.3048
  162TMC2    H1 2525   2.980   3.853   1.421  1.4240  3.5370 -0.3193
  162TMC2    H2 2526   2.672   3.907   1.714 -2.4378  2.5649  0.0690
  162TMC2    C7 2527   2.924   3.824   1.697 -0.6549 -0.9838  0.1235
  162TMC2    C8 2528   2.553   4.094   1.581  0.1392  0.1967  0.0909
  162TMC2    O1 2529   2.887   3.857   1.807 -0.0426  0.5766 -0.3316
  162TMC2    O2 2530   2.577   4.152   1.687 -0.5305 -0.5877 -0.4389
  162TMC2    O5 2531   2.437   4.087   1.525  0.5111 -1.2425 -0.0742
  162TMC2    H5 2532   2.425   4.028   1.448 -3.9387 -1.5215  0.8451
  163MPD2     C 2533   3.234   4.019   0.886  0.0005  0.7073 -0.4558
  163MPD2    C1 2534   3.103   3.996   0.870  0.1434  0.1497 -0.3379
  163MPD2    C2 2535   3.023   3.987   0.983 -0.0144  0.0989  0.1296
  163MPD2    C3 2536   3.072   4.000   1.112 -0.3115 -0.0092 -0.2993
  163MPD2    C4 2537   3.209   4.029   1.126  0.3759  0.5275 -0.0134
  163MPD2    C5 2538   3.279   4.042   1.010  0.0201  0.4749  0.1813
  163MPD2     H 2539   2.917   3.966   0.980  0.4516 -1.7955 -2.2942
  163MPD2    H1 2540   3.256   4.044   1.223  0.0377  0.4786  0.1587
  163MPD2    H2 2541   3.299   4.009   0.800 -0.5310 -0.3858 -0.7312
  163MPD2    H3 2542   3.387   4.043   1.020 -0.0676 -1.6478  1.2932
  163MPD2     N 2543   2.983   3.997   1.225 -0.3503  0.6047  0.4729
  163MPD2    H5 2544   3.039   4.004   1.309  1.2535  2.2324 -0.7421
  163MPD2    N1 2545   3.055   3.972   0.732 -0.0127 -0.1772  0.1744
  163MPD2    H7 2546   3.128   3.982   0.662 -0.0196  2.0606  0.4786
  164TMC2    C1 2547   3.153   3.152  11.508  0.7957 -0.5131 -0.4728
  164TMC2    C2 2548   3.284   3.161  11.528  0.2829  0.2212  0.1493
  164TMC2    C3 2549   3.343   3.289  11.530 -1.0089  0.3220  0.1708
  164TMC2    C4 2550   3.077   3.268  11.493 -0.0174 -0.2795  0.0414
  164TMC2    C5 2551   3.135   3.386  11.492 -0.6455 -0.5473  0.4475
  164TMC2    C6 2552   3.268   3.404  11.510  0.9010 -0.6943 -0.5129
  164TMC2     C 2553   3.080   3.023  11.509  0.1742  0.0297  0.6436
  164TMC2     O 2554   2.963   3.034  11.481  0.1879 -0.3004 -0.2508
  164TMC2     H 2555   3.335   3.067  11.546  2.0386  1.3432  1.0083
  164TMC2    H1 2556   2.971   3.258  11.472  0.0459 -0.2062 -0.3141
  164TMC2    H2 2557   3.323   3.495  11.487 -0.9963  0.0958 -1.9304
  164TMC2    C7 2558   3.050   3.504  11.492  0.1819 -0.0723  0.5367
  164TMC2    C8 2559   3.476   3.299  11.587  0.9602  0.6332  0.2569
  164TMC2    O1 2560   2.931   3.491  11.494  0.0440 -0.0220  0.0442
  164TMC2    O2 2561   3.537   3.204  11.631  0.7688  0.5633  0.3029
  164TMC2    O5 2562   3.520   3.428  11.600  0.1753  0.6966 -0.2113
  164TMC2    H5 2563   3.454   3.500  11.589  1.2492  2.0613  2.3854
  165TMC2    C1 2564   1.057   0.465   2.326  0.2604 -1.2358 -0.8035
  165TMC2    C2 2565   1.105   0.527   2.435 -0.0904  0.2060  0.2584
  165TMC2    C3 2566   1.110   0.668   2.429  0.4784  0.3655 -0.0218
  165TMC2    C4 2567   1.017   0.532   2.212 -0.2582 -0.6042  0.3490
  165TMC2    C5 2568   1.035   0.670   2.214  1.0954 -0.3977 -0.6443
  165TMC2    C6 2569   1.076   0.745   2.325  0.6991 -0.0038 -0.1606
  165TMC2     C 2570   1.044   0.321   2.323  0.1354  1.0413  0.0347
  165TMC2     O 2571   0.971   0.282   2.233 -0.2770 -0.0685 -0.4048
  165TMC2     H 2572   1.123   0.481   2.531  0.0795  0.1560  0.2025
  165TMC2    H1 2573   0.982   0.475   2.127 -0.4088 -0.7913  0.5359
  165TMC2    H2 2574   1.090   0.853   2.329 -0.9380  0.1837  0.4715
  165TMC2    C7 2575   1.039   0.744   2.087  0.1785 -0.3706 -0.0293
  165TMC2    C8 2576   1.179   0.732   2.540  0.9794 -0.1000  0.3042
  165TMC2    O1 2577   1.099   0.848   2.097 -0.5544  0.0329 -0.1898
  165TMC2    O2 2578   1.146   0.844   2.576  0.2632  1.0230  0.2385
  165TMC2    O5 2579   1.301   0.685   2.537 -0.5935 -0.3963  0.4833
  165TMC2    H5 2580   1.304   0.601   2.486  1.5816 -1.0060  1.6452
  166MPD2     C 2581   1.216   4.587   2.397 -0.4578  0.2836 -0.1650
  166MPD2    C1 2582   1.093   4.630   2.339 -0.3995 -0.5446 -0.0765
  166MPD2    C2 2583   1.062   0.026   2.344 -0.2507  0.7527  0.0501
  166MPD2    C3 2584   1.154   0.119   2.408  0.0762  0.8785 -0.2501
  166MPD2    C4 2585   1.268   0.068   2.460 -0.3225  0.1428 -0.5919
  166MPD2    C5 2586   1.300   4.673   2.448  0.2358  0.0139  0.2347
  166MPD2     H 2587   0.967   0.062   2.304 -0.3298 -1.1837 -1.5141
  166MPD2    H1 2588   1.349   0.129   2.500  0.3194 -1.5655  0.7133
  166MPD2    H2 2589   1.246   4.483   2.393 -1.3579  0.0225 -0.0894
  166MPD2    H3 2590   1.387   4.637   2.502 -0.1847  0.2599  1.0783
  166MPD2     N 2591   1.138   0.258   2.399 -0.0504 -0.0131  0.0268
  166MPD2    H5 2592   1.220   0.315   2.416 -0.6802  1.1552 -0.8000
  166MPD2    N1 2593   1.020   4.532   2.274  0.9286  0.6959 -0.2253
  166MPD2    H7 2594   1.057   4.439   2.257 -1.4330 -0.1327 -0.9666
  167TMC2    C1 2595   3.356   3.493  13.001  0.4365  0.2062  0.1901
  167TMC2    C2 2596   3.372   3.551  13.124  0.2758 -0.0252 -0.6852
  167TMC2    C3 2597   3.304   3.506  13.232  0.2242 -0.1241  0.5779
  167TMC2    C4 2598   3.284   3.374  12.985 -0.1971 -0.0291  0.5271
  167TMC2    C5 2599   3.235   3.316  13.101  0.7066 -0.3154  0.1878
  167TMC2    C6 2600   3.241   3.381  13.226  0.3922  0.1691  0.5945
  167TMC2     C 2601   3.375   3.586  12.889  0.0792 -0.1217  0.1286
  167TMC2     O 2602   3.428   3.697  12.905 -0.9683 -0.4911  0.0638
  167TMC2     H 2603   3.427   3.644  13.135 -1.5414  0.9098  0.4118
  167TMC2    H1 2604   3.272   3.321  12.891  1.5589  0.3078  0.1269
  167TMC2    H2 2605   3.203   3.332  13.315 -1.5572 -0.5018 -0.6040
  167TMC2    C7 2606   3.155   3.196  13.098  0.7078  0.6528 -0.9693
  167TMC2    C8 2607   3.307   3.586  13.355 -0.9550 -0.5551  0.5821
  167TMC2    O1 2608   3.082   3.172  13.191  0.0385 -0.1027 -0.1774
  167TMC2    O2 2609   3.376   3.682  13.365 -0.7516 -0.8949  0.2367
  167TMC2    O5 2610   3.215   3.549  13.445 -0.3659 -0.1040  0.4902
  167TMC2    H5 2611   3.148   3.491  13.402  0.7584 -1.8710  1.1196
  168MPD2     C 2612   3.361   3.691  12.611  0.1688 -0.3037  0.2691
  168MPD2    C1 2613   3.302   3.578  12.650 -0.4161  0.1383  0.4600
  168MPD2    C2 2614   3.237   3.500  12.562 -0.5218 -0.4149  0.5569
  168MPD2    C3 2615   3.227   3.538  12.430  0.0754  0.1514  0.2003
  168MPD2    C4 2616   3.282   3.654  12.387 -0.2360  0.5796 -0.6821
  168MPD2    C5 2617   3.359   3.727  12.477  0.2063  0.2399 -0.8049
  168MPD2     H 2618   3.189   3.410  12.597 -1.3679 -0.1483  0.0873
  168MPD2    H1 2619   3.274   3.677  12.282  3.7781  1.3306 -0.8039
  168MPD2    H2 2620   3.402   3.768  12.677  2.4581 -1.5300  0.2903
  168MPD2    H3 2621   3.403   3.823  12.453 -1.1717  0.4893 -2.3221
  168MPD2     N 2622   3.149   3.466  12.333 -0.0405 -0.2104  0.1527
  168MPD2    H5 2623   3.113   3.525  12.259  0.8164 -2.2430 -1.8381
  168MPD2    N1 2624   3.294   3.539  12.787  0.1623  0.5594 -0.5174
  168MPD2    H7 2625   3.230   3.461  12.801  2.5040 -1.6001 -1.7902
  169MPD1     C 2626   4.188   3.423   9.635 -0.6177 -0.3561  0.0969
  169MPD1    C1 2627   4.327   3.411   9.647  0.1307  0.4881  0.1111
  169MPD1    C2 2628   4.371   3.282   9.672  0.0518 -0.2079  0.4898
  169MPD1    C3 2629   4.284   3.178   9.702 -0.0364 -0.1163  0.2074
  169MPD1    C4 2630   4.146   3.195   9.702 -0.0825  0.5490 -0.2238
  169MPD1    C5 2631   4.105   3.325   9.670  0.7355  0.4184  0.5247
  169MPD1     H 2632   4.477   3.264   9.663 -0.1133 -1.0376  0.2373
  169MPD1    H1 2633   4.068   3.126   9.731  1.1124  0.0829  1.8492
  169MPD1    H2 2634   4.142   3.516   9.603 -2.2775 -0.6556  1.5934
  169MPD1    H3 2635   3.999   3.345   9.663  0.7650  0.7054  0.9341
  169MPD1     N 2636   4.346   3.054   9.730  0.5109 -0.0174  0.3751
  169MPD1    H5 2637   4.448   3.054   9.729  0.5229  1.3629  1.3538
  169MPD1    N1 2638   4.406   3.517   9.609  0.1548 -0.3857  0.1631
  169MPD1    H6 2639   4.505   3.507   9.632  0.0166 -1.9804  0.1024
  169MPD1    H7 2640   4.374   3.609   9.636  0.8908  0.2930 -1.3066
  170MPD1     C 2641   4.376   0.673  13.486 -0.3735 -0.3146  0.1765
  170MPD1    C1 2642   4.293   0.781  13.454 -0.0138 -0.4849 -0.1628
  170MPD1    C2 2643   4.164   0.752  13.422 -0.7992 -0.0810 -0.5582
  170MPD1    C3 2644   4.120   0.622  13.423 -0.4767  0.5833 -0.6413
  170MPD1    C4 2645   4.204   0.517  13.454 -0.3805  0.1108 -0.7713
  170MPD1    C5 2646   4.330   0.546  13.491  0.7876  0.1148 -0.1259
  170MPD1     H 2647   4.095   0.836  13.418  0.6393  1.2871  2.6172
  170MPD1    H1 2648   4.172   0.414  13.448 -0.1514  0.2278 -3.9451
  170MPD1    H2 2649   4.474   0.685  13.531 -1.5275  2.2958  1.9700
  170MPD1    H3 2650   4.398   0.469  13.525  1.6473 -1.3817 -5.2370
  170MPD1     N 2651   3.983   0.603  13.400 -0.3497 -0.7274  0.6040
  170MPD1    H5 2652   3.930   0.690  13.393 -0.5821 -0.7595  2.1293
  170MPD1    N1 2653   4.331   0.911  13.497 -0.3166 -0.5039 -0.1428
  170MPD1    H6 2654   4.432   0.922  13.500 -0.4839  1.0697 -0.4788
  170MPD1    H7 2655   4.295   0.990  13.443  0.7213  0.2598  0.3003
  171MPD1     C 2656   1.782   1.965  15.821 -0.3672 -0.0470  0.2600
  171MPD1    C1 2657   1.775   1.827  15.864 -0.6478 -0.4678  0.2586
  171MPD1    C2 2658   1.883   1.745  15.844  0.6101 -1.1379 -0.5762
  171MPD1    C3 2659   2.006   1.796  15.811 -0.0033 -0.1453  0.2392
  171MPD1    C4 2660   2.005   1.921  15.754 -0.3823 -0.0125  0.0233
  171MPD1    C5 2661   1.899   2.001  15.764  0.2035 -0.9551 -0.3967
  171MPD1     H 2662   1.873   1.638  15.863  2.8781 -1.2036  0.2625
  171MPD1    H1 2663   2.094   1.971  15.717 -0.7556  2.2485  2.2256
  171MPD1    H2 2664   1.702   2.036  15.807 -0.8338 -0.5336  0.4343
  171MPD1    H3 2665   1.893   2.094  15.709  1.1745  0.3850  1.7790
  171MPD1     N 2666   2.131   1.732  15.816 -0.5222 -0.1476  0.5851
  171MPD1    H5 2667   2.211   1.794  15.804 -1.2005  0.3435 -1.3716
  171MPD1    N1 2668   1.645   1.774  15.892  0.4930  0.4342  0.5227
  171MPD1    H6 2669   1.599   1.847  15.946  1.1905  2.8517 -2.1393
  171MPD1    H7 2670   1.653   1.702  15.963 -3.0040 -1.2341 -0.7499
  172MPD1     C 2671   1.283   1.483   1.148 -0.1705 -0.1458  0.4909
  172MPD1    C1 2672   1.182   1.518   1.060 -0.2691 -0.2582  0.1194
  172MPD1    C2 2673   1.213   1.512   0.925  0.7851 -0.3983  0.0773
  172MPD1    C3 2674   1.343   1.482   0.878  0.3615 -0.1843 -0.3677
  172MPD1    C4 2675   1.431   1.436   0.968 -0.3572 -0.2149 -0.0144
  172MPD1    C5 2676   1.401   1.437   1.101 -0.0803 -0.2817 -0.0187
  172MPD1     H 2677   1.138   1.540   0.853  0.0338  1.0959  1.4341
  172MPD1    H1 2678   1.533   1.415   0.938  0.8652 -0.4169  4.3095
  172MPD1    H2 2679   1.269   1.481   1.255  1.4327 -4.7395  0.5891
  172MPD1    H3 2680   1.482   1.417   1.170  1.5939  2.1510 -1.2532
  172MPD1     N 2681   1.387   1.495   0.745 -0.1431 -0.0586 -0.1468
  172MPD1    H5 2682   1.484   1.474   0.728  0.5253  1.8242  1.3285
  172MPD1    N1 2683   1.048   1.544   1.083  0.1097  0.4063  0.3451
  172MPD1    H6 2684   1.017   1.617   1.020  2.4181  0.1516 -1.1244
  172MPD1    H7 2685   1.036   1.579   1.178  2.8079 -1.8986  1.5462
  173MPD1     C 2686   3.119   1.694  14.339  0.1154  0.2434 -0.0291
  173MPD1    C1 2687   3.240   1.624  14.336  0.5342  0.0533  0.3917
  173MPD1    C2 2688   3.236   1.509  14.410  0.3066 -0.3034 -0.5155
  173MPD1    C3 2689   3.122   1.464  14.469  0.1561  0.3598  0.5842
  173MPD1    C4 2690   2.999   1.534  14.468  0.2512 -0.3765 -0.0584
  173MPD1    C5 2691   3.003   1.652  14.399  0.5618  1.1022 -0.1898
  173MPD1     H 2692   3.319   1.439  14.413 -0.3141 -0.8895  2.3731
  173MPD1    H1 2693   2.907   1.502  14.514 -0.4336 -1.3985 -2.1437
  173MPD1    H2 2694   3.113   1.792  14.293  1.0319 -1.2664 -3.3436
  173MPD1    H3 2695   2.916   1.716  14.410  0.3641  0.9629 -0.9105
  173MPD1     N 2696   3.127   1.346  14.543  0.0776 -0.1046  0.0865
  173MPD1    H5 2697   3.213   1.292  14.539 -0.5713 -0.9991 -1.6145
  173MPD1    N1 2698   3.356   1.670  14.266 -0.2314 -0.7213 -0.2750
  173MPD1    H6 2699   3.335   1.726  14.183 -0.1487  0.0388  0.2138
  173MPD1    H7 2700   3.432   1.605  14.250 -1.5999 -1.6256 -3.1849
  174MPD1     C 2701   3.885   1.085  14.777 -0.2912  0.3991 -0.3126
  174MPD1    C1 2702   3.810   1.068  14.888  0.1376 -0.0675  0.0285
  174MPD1    C2 2703   3.670   1.077  14.873 -0.0264  0.0198  0.2426
  174MPD1    C3 2704   3.610   1.101  14.751  0.0339  0.4089 -0.2380
  174MPD1    C4 2705   3.694   1.120  14.642  0.9135  0.3046 -0.8458
  174MPD1    C5 2706   3.830   1.109  14.654  0.0784 -0.7351 -0.0230
  174MPD1     H 2707   3.605   1.074  14.960  2.2466  0.3715  1.9365
  174MPD1    H1 2708   3.663   1.135  14.539 -1.3101  1.8233  0.0422
  174MPD1    H2 2709   3.991   1.062  14.784 -0.7842 -1.6592  0.6729
  174MPD1    H3 2710   3.888   1.100  14.563  0.1532 -3.5149  0.2999
  174MPD1     N 2711   3.474   1.079  14.739  0.2555  1.3002  0.1222
  174MPD1    H5 2712   3.440   1.106  14.647  0.2047  2.5048  0.4987
  174MPD1    N1 2713   3.863   1.050  15.018  0.6316 -0.3361  0.0638
  174MPD1    H6 2714   3.962   1.024  15.015  0.6805 -0.1209 -0.1987
  174MPD1    H7 2715   3.816   0.970  15.059 -1.6487  0.3975 -1.1266
  175MPD1     C 2716   0.878   2.537  15.281  0.1432  1.1941  0.2917
  175MPD1    C1 2717   0.986   2.494  15.348 -0.4118  0.6377  0.1146
  175MPD1    C2 2718   0.973   2.410  15.457 -0.7216  0.8284 -0.0902
  175MPD1    C3 2719   0.847   2.362  15.493  0.9228  0.3155 -0.1638
  175MPD1    C4 2720   0.739   2.416  15.428 -0.3072 -0.0160 -0.1052
  175MPD1    C5 2721   0.756   2.500  15.321 -0.2626  0.1458 -0.5344
  175MPD1     H 2722   1.063   2.373  15.506 -0.3977 -0.2709 -1.5099
  175MPD1    H1 2723   0.641   2.412  15.473 -0.2823  1.0103  0.0473
  175MPD1    H2 2724   0.877   2.595  15.189 -2.3867 -0.2930 -0.6417
  175MPD1    H3 2725   0.675   2.539  15.260 -0.7052 -0.3261 -0.2588
  175MPD1     N 2726   0.831   2.280  15.604 -0.6455 -0.3009  0.6027
  175MPD1    H5 2727   0.738   2.264  15.641  0.4135 -1.4635  2.8161
  175MPD1    N1 2728   1.116   2.547  15.319 -0.8265 -0.3287 -0.4788
  175MPD1    H6 2729   1.131   2.573  15.222 -4.5667  1.8028 -0.4735
  175MPD1    H7 2730   1.197   2.490  15.345  0.7884  1.1742 -2.1882
  176MPD1     C 2731   2.092   4.027  16.888  0.1647 -0.2794 -0.2766
  176MPD1    C1 2732   2.021   4.092  16.993  0.0938  2.1144 -0.2812
  176MPD1    C2 2733   2.082   4.110  17.118 -0.2548 -0.1286 -0.1764
  176MPD1    C3 2734   2.209   4.065  17.146 -0.1553  0.3219 -0.1579
  176MPD1    C4 2735   2.276   4.002  17.039  0.3978  0.4806  0.3798
  176MPD1    C5 2736   2.221   3.985  16.914  0.3026  0.1407  0.5274
  176MPD1     H 2737   2.035   4.170  17.196  1.9417 -1.3997  2.0862
  176MPD1    H1 2738   2.373   3.959  17.064 -0.4888 -1.6810  0.0746
  176MPD1    H2 2739   2.045   3.994  16.796 -2.4169  1.4372  0.4027
  176MPD1    H3 2740   2.275   3.917  16.849 -1.6913 -0.5737 -0.4038
  176MPD1     N 2741   2.261   4.091  17.272 -0.3310  0.3693 -0.4424
  176MPD1    H5 2742   2.211   4.157  17.331  0.8698 -1.2672  2.4170
  176MPD1    N1 2743   1.889   4.132  16.974 -0.2743  0.3917  0.6202
  176MPD1    H6 2744   1.854   4.218  17.014  1.4020  0.5641  1.6764
  176MPD1    H7 2745   1.841   4.114  16.885 -0.9555 -0.5707  1.1881
  177MPD1     C 2746   0.960   3.640   9.202  0.5061  0.7025 -0.1096
  177MPD1    C1 2747   0.848   3.577   9.237 -0.2255  0.4241 -0.5511
  177MPD1    C2 2748   0.727   3.638   9.216  0.4662  0.7261  0.4752
  177MPD1    C3 2749   0.720   3.756   9.140 -0.1612  0.2913  0.2691
  177MPD1    C4 2750   0.842   3.812   9.095 -0.5729  0.3452  0.5123
  177MPD1    C5 2751   0.966   3.754   9.127  0.2419 -0.1643 -0.0600
  177MPD1     H 2752   0.639   3.589   9.255  0.2876 -0.0364 -0.8566
  177MPD1    H1 2753   0.852   3.905   9.040 -1.4565  0.7576  1.0424
  177MPD1    H2 2754   1.052   3.605   9.246 -0.2290 -0.0450  0.8333
  177MPD1    H3 2755   1.059   3.804   9.100  0.3110 -0.3337 -0.1391
  177MPD1     N 2756   0.591   3.794   9.098 -0.0593 -0.0174 -0.1123
  177MPD1    H5 2757   0.505   3.751   9.131  1.4592 -1.7059  1.5744
  177MPD1    N1 2758   0.851   3.461   9.323  0.3071  0.2062 -0.3796
  177MPD1    H6 2759   0.917   3.386   9.301  2.6361  1.9436  0.7247
  177MPD1    H7 2760   0.762   3.415   9.339  0.9925 -1.0359 -0.1453
  178MPD1     C 2761   4.253   4.672   0.312  0.1551 -0.2859 -0.1196
  178MPD1    C1 2762   4.204   4.597   0.208 -0.2449  0.2290  0.3746
  178MPD1    C2 2763   4.169   4.669   0.092 -0.2674 -0.5943 -0.4233
  178MPD1    C3 2764   4.196   0.065   0.073  0.5675 -0.1011  0.8316
  178MPD1    C4 2765   4.253   0.136   0.178 -0.3432  0.1123 -0.8379
  178MPD1    C5 2766   4.285   0.066   0.291 -0.1194  0.3577  0.6824
  178MPD1     H 2767   4.118   4.610   0.017  0.0484 -0.0496 -1.0601
  178MPD1    H1 2768   4.294   0.235   0.162  0.3178  0.2596  1.6852
  178MPD1    H2 2769   4.268   4.628   0.410 -1.6416 -0.3252  0.1349
  178MPD1    H3 2770   4.336   0.130   0.363  1.6246  1.5149 -1.5798
  178MPD1     N 2771   4.158   0.139  17.713 -0.4265  0.0747 -0.0142
  178MPD1    H5 2772   4.183   0.238  17.711  0.8677 -0.2742 -1.7979
  178MPD1    N1 2773   4.176   4.459   0.225  0.6179  0.2871  0.5563
  178MPD1    H6 2774   4.197   4.404   0.142 -0.9122 -0.9016  0.9579
  178MPD1    H7 2775   4.220   4.411   0.302 -0.0792 -1.0278  0.1365
  179MPD1     C 2776   3.111   3.114  15.283 -0.1403 -0.1338  0.4647
  179MPD1    C1 2777   3.215   3.088  15.364 -0.8623 -0.4542 -0.6333
  179MPD1    C2 2778   3.198   2.984  15.461  0.8634  0.2972 -0.5156
  179MPD1    C3 2779   3.067   2.949  15.487 -0.3523  0.2413 -0.3894
  179MPD1    C4 2780   2.961   2.985  15.405  0.5491 -0.5418 -0.3648
  179MPD1    C5 2781   2.989   3.061  15.298 -0.3171  0.1592  0.2448
  179MPD1     H 2782   3.281   2.947  15.520  0.4261 -0.5380 -0.4190
  179MPD1    H1 2783   2.859   2.956  15.426  0.4325  0.0493 -0.1179
  179MPD1    H2 2784   3.140   3.178  15.200 -2.2920 -0.1430 -0.3206
  179MPD1    H3 2785   2.903   3.091  15.239 -1.1944 -0.7862  1.0434
  179MPD1     N 2786   3.033   2.853  15.587  0.1588 -0.0983 -0.0964
  179MPD1    H5 2787   2.943   2.807  15.573  1.3523 -2.3967 -0.1669
  179MPD1    N1 2788   3.353   3.117  15.317 -0.7794  0.0324  0.4315
  179MPD1    H6 2789   3.417   3.099  15.394 -0.1960 -0.9470 -0.2799
  179MPD1    H7 2790   3.363   3.212  15.284 -1.7906  0.1746  0.5284
  180MPD1     C 2791   3.153   3.924  16.087 -0.2365  0.2545  0.1784
  180MPD1    C1 2792   3.286   3.972  16.086 -0.2083 -0.4215 -0.3310
  180MPD1    C2 2793   3.335   4.018  15.964 -1.3882  0.5621 -0.2482
  180MPD1    C3 2794   3.257   4.007  15.851  0.2731 -0.0959 -0.2980
  180MPD1    C4 2795   3.126   3.966  15.862  0.2707 -0.7368 -0.3110
  180MPD1    C5 2796   3.075   3.923  15.978  0.2074 -0.8604 -0.0496
  180MPD1     H 2797   3.430   4.068  15.950  1.0723 -3.1825  2.7038
  180MPD1    H1 2798   3.051   3.958  15.784  0.0904 -0.2300 -0.1905
  180MPD1    H2 2799   3.104   3.886  16.175  2.3214  1.6106  2.1750
  180MPD1    H3 2800   2.977   3.877  15.965 -0.5838  1.6036 -2.7353
  180MPD1     N 2801   3.311   4.030  15.716  0.2079  0.4794  0.4707
  180MPD1    H5 2802   3.411   4.047  15.709  0.1401 -0.0858 -1.8199
  180MPD1    N1 2803   3.351   4.006  16.203 -0.4211 -0.0549 -0.4130
  180MPD1    H6 2804   3.452   4.009  16.195 -0.3143  1.2134  1.5301
  180MPD1    H7 2805   3.339   3.932  16.273  0.4328  1.1334  0.9931
  181MPD1     C 2806   4.120   0.654  10.344  0.6181 -0.5481 -0.3702
  181MPD1    C1 2807   4.167   0.729  10.445  0.7782 -0.4054  0.1042
  181MPD1    C2 2808   4.285   0.791  10.424 -0.1315 -0.0615  1.0042
  181MPD1    C3 2809   4.342   0.807  10.298 -0.1626 -0.2434 -0.4747
  181MPD1    C4 2810   4.296   0.721  10.201  0.5106 -0.1349  0.0535
  181MPD1    C5 2811   4.181   0.648  10.219  0.4176  0.1620  0.5887
  181MPD1     H 2812   4.330   0.843  10.508 -0.7277  1.7516  0.2159
  181MPD1    H1 2813   4.339   0.720  10.101 -0.5242 -1.9050 -0.3648
  181MPD1    H2 2814   4.049   0.573  10.355 -0.7361  0.5891 -0.6788
  181MPD1    H3 2815   4.134   0.591  10.140  0.2418  0.7263  0.2895
  181MPD1     N 2816   4.458   0.886  10.272 -0.2097 -0.0222  0.1652
  181MPD1    H5 2817   4.510   0.866  10.186 -0.8026 -0.4379 -0.0946
  181MPD1    N1 2818   4.118   0.712  10.576 -0.1258 -0.1687  0.4088
  181MPD1    H6 2819   4.019   0.693  10.594 -0.0857 -0.8047 -0.0372
  181MPD1    H7 2820   4.124   0.801  10.625 -0.0657  0.0826 -0.0531
  182MPD1     C 2821   1.105   0.004   1.480 -0.2269 -0.1657 -0.6204
  182MPD1    C1 2822   1.151   0.137   1.479  1.3998 -0.2978 -0.1882
  182MPD1    C2 2823   1.130   0.222   1.375  0.3205  0.2085  0.1924
  182MPD1    C3 2824   1.038   0.182   1.280 -0.1261 -0.2446  0.0493
  182MPD1    C4 2825   0.983   0.056   1.280 -0.2113 -0.2725 -0.2307
  182MPD1    C5 2826   1.027   4.703   1.376  0.5216  0.5680  0.8386
  182MPD1     H 2827   1.185   0.315   1.385  0.4017  0.2560 -0.6618
  182MPD1    H1 2828   0.922   0.033   1.194 -2.2115 -0.2502  1.1807
  182MPD1    H2 2829   1.136   4.669   1.554  0.8440  1.3899  0.4765
  182MPD1    H3 2830   0.987   4.602   1.385  0.2573  0.6119  0.1701
  182MPD1     N 2831   0.986   0.278   1.189  0.4998  0.3996  0.2809
  182MPD1    H5 2832   0.919   0.236   1.126 -0.2417  0.8215  0.7970
  182MPD1    N1 2833   1.236   0.173   1.582  0.5441 -0.4296  0.4104
  182MPD1    H6 2834   1.228   0.269   1.616 -1.4980 -0.1863 -0.7723
  182MPD1    H7 2835   1.212   0.110   1.659  0.9926 -2.1652 -0.8652
  183MPD1     C 2836   2.604   0.166   9.738 -0.4142 -0.5607 -0.7488
  183MPD1    C1 2837   2.467   0.177   9.703 -0.4057 -0.5617 -0.0760
  183MPD1    C2 2838   2.393   0.284   9.748  0.6286 -0.5445 -0.0987
  183MPD1    C3 2839   2.458   0.389   9.807  0.3387  0.5037 -0.0141
  183MPD1    C4 2840   2.594   0.375   9.829  0.3445 -0.7387  0.6005
  183MPD1    C5 2841   2.664   0.268   9.807 -0.4775 -0.5227  0.1563
  183MPD1     H 2842   2.289   0.288   9.718  0.6636  0.5203 -0.0635
  183MPD1    H1 2843   2.651   0.454   9.876  0.6504  0.4929 -1.8422
  183MPD1    H2 2844   2.658   0.072   9.732 -1.6099 -1.2192 -1.2158
  183MPD1    H3 2845   2.767   0.264   9.839 -0.4930  0.6442  0.3444
  183MPD1     N 2846   2.379   0.504   9.822 -0.1936 -0.8044 -0.7165
  183MPD1    H5 2847   2.283   0.491   9.791  0.1596 -0.1194 -2.0814
  183MPD1    N1 2848   2.393   0.062   9.657 -0.0891  0.0139  0.7708
  183MPD1    H6 2849   2.451   0.005   9.596  0.8833  0.9239  0.8512
  183MPD1    H7 2850   2.302   0.079   9.613  0.5085 -2.3243 -1.3351
  184MPD1     C 2851   0.721   2.930  10.646  0.1138  0.1873 -0.2959
  184MPD1    C1 2852   0.593   2.974  10.661 -0.2729  0.1684 -0.3470
  184MPD1    C2 2853   0.545   3.083  10.589 -0.1810  0.2542  0.3275
  184MPD1    C3 2854   0.636   3.156  10.513  0.2220  0.1481 -0.0619
  184MPD1    C4 2855   0.762   3.105  10.489  0.2701  0.0614  0.3504
  184MPD1    C5 2856   0.801   2.992  10.559 -0.3103  0.0900  0.0499
  184MPD1     H 2857   0.445   3.124  10.598 -0.2604  0.1536 -0.0916
  184MPD1    H1 2858   0.834   3.145  10.419 -0.2767 -1.2333 -0.9587
  184MPD1    H2 2859   0.748   2.836  10.692  0.5194  0.5568  0.2149
  184MPD1    H3 2860   0.901   2.953  10.542 -0.8660 -1.6496  0.7120
  184MPD1     N 2861   0.590   3.273  10.445 -0.0610 -0.3809  0.3480
  184MPD1    H5 2862   0.654   3.311  10.376  0.9884 -3.5856 -0.4579
  184MPD1    N1 2863   0.503   2.895  10.738 -0.8292 -0.2152 -0.2757
  184MPD1    H6 2864   0.431   2.957  10.774  1.4270  1.1802  1.8719
  184MPD1    H7 2865   0.544   2.837  10.811 -0.8413 -1.3871 -1.1897
  185MPD1     C 2866   4.542   3.523   9.913  0.5345 -0.1180 -0.2748
  185MPD1    C1 2867   4.587   3.650   9.949 -0.0703 -0.1518  0.2875
  185MPD1    C2 2868   4.706   3.657  10.017  0.7908  0.2419 -0.1152
  185MPD1    C3 2869   0.035   3.544  10.057 -0.2599 -0.3318 -0.3778
  185MPD1    C4 2870   4.727   3.418  10.016 -0.1739 -0.0906  0.5502
  185MPD1    C5 2871   4.616   3.408   9.938  0.3673  0.3120 -0.5106
  185MPD1     H 2872   0.010   3.755  10.036 -1.7538  1.0753  1.2978
  185MPD1    H1 2873   0.021   3.318  10.044 -2.0577 -1.0249 -0.6053
  185MPD1    H2 2874   4.447   3.515   9.862  0.3072 -0.7700  0.2645
  185MPD1    H3 2875   4.572   3.318   9.898  1.6803 -0.3721 -0.3951
  185MPD1     N 2876   0.154   3.540  10.132 -0.0218 -0.2629  0.2578
  185MPD1    H5 2877   0.186   3.444  10.145  1.7814  0.9504  4.6311
  185MPD1    N1 2878   4.537   3.770   9.902  0.9943 -0.0267  0.2921
  185MPD1    H6 2879   4.441   3.757   9.871  1.3152  0.0647 -0.7213
  185MPD1    H7 2880   4.543   3.841   9.975 -0.6040 -1.0198  1.3907
  186MPD1     C 2881   3.677   4.415  15.919  0.0848 -0.3989 -0.8270
  186MPD1    C1 2882   3.584   4.366  16.006  0.2358 -0.0255  0.2378
  186MPD1    C2 2883   3.618   4.258  16.085 -0.7027  0.3969  0.0837
  186MPD1    C3 2884   3.740   4.196  16.072  0.0088  0.4262  0.0495
  186MPD1    C4 2885   3.825   4.238  15.974  0.4905  0.6756  0.1711
  186MPD1    C5 2886   3.796   4.347  15.904 -0.0357  0.4644  0.7952
  186MPD1     H 2887   3.546   4.223  16.157  0.4570  0.1163  1.1122
  186MPD1    H1 2888   3.919   4.186  15.959  0.1920  0.1417  0.1487
  186MPD1    H2 2889   3.673   4.512  15.870  0.0171 -0.9056 -1.8192
  186MPD1    H3 2890   3.866   4.377  15.827  0.9169 -1.7987  0.7907
  186MPD1     N 2891   3.776   4.082  16.143 -0.4242 -0.1338 -0.1531
  186MPD1    H5 2892   3.854   4.028  16.108  0.8421  1.7076 -0.1551
  186MPD1    N1 2893   3.464   4.436  16.033 -0.5401 -0.1967 -0.6057
  186MPD1    H6 2894   3.393   4.377  16.075 -0.9575  0.4724 -0.3726
  186MPD1    H7 2895   3.429   4.491  15.954 -2.9951 -0.0207  0.6202
  187MPD1     C 2896   2.783   4.281   0.314  0.3665  0.1824 -0.2484
  187MPD1    C1 2897   2.730   4.408   0.343  0.3899  0.0160 -0.1622
  187MPD1    C2 2898   2.727   4.502   0.238 -0.7392  1.0754  0.6684
  187MPD1    C3 2899   2.765   4.465   0.113  0.1455 -0.1177 -0.2655
  187MPD1    C4 2900   2.819   4.340   0.090 -0.9336 -0.0970 -0.1218
  187MPD1    C5 2901   2.837   4.255   0.194  0.0006  0.0513 -0.3186
  187MPD1     H 2902   2.694   4.601   0.267 -2.4583  0.4043  0.9823
  187MPD1    H1 2903   2.867   4.308  17.750 -0.9826 -2.2584  0.6059
  187MPD1    H2 2904   2.771   4.203   0.389  0.6540  0.3986  0.0262
  187MPD1    H3 2905   2.870   4.153   0.176 -0.5088  0.2124 -2.1707
  187MPD1     N 2906   2.766   4.557   0.002 -0.4842  0.3015 -0.4317
  187MPD1    H5 2907   2.799   4.522  17.665 -2.1278  1.2365 -1.3908
  187MPD1    N1 2908   2.658   4.433   0.460  0.9928 -0.0276  0.4953
  187MPD1    H6 2909   2.716   4.392   0.533  2.6715 -0.2512 -0.9424
  187MPD1    H7 2910   2.677   4.530   0.483  0.6101  0.0097  0.6442
  188MPD1     C 2911   2.530   0.881  10.782 -0.5748 -0.1332 -0.9483
  188MPD1    C1 2912   2.446   0.859  10.676 -0.5292  0.1964 -0.1927
  188MPD1    C2 2913   2.453   0.737  10.612 -0.3977  0.2802 -0.0658
  188MPD1    C3 2914   2.553   0.650  10.645 -0.4337 -1.0415 -0.3419
  188MPD1    C4 2915   2.654   0.687  10.740  0.4768  0.6939  0.6695
  188MPD1    C5 2916   2.636   0.799  10.813 -0.1914 -0.3857 -0.4226
  188MPD1     H 2917   2.377   0.711  10.540 -3.4071  3.7422  1.8656
  188MPD1    H1 2918   2.723   0.616  10.786  1.3198  0.6917 -0.6048
  188MPD1    H2 2919   2.528   0.972  10.841 -0.7858 -1.5797  1.2728
  188MPD1    H3 2920   2.691   0.828  10.902 -2.0335  2.0334 -0.0703
  188MPD1     N 2921   2.569   0.518  10.601 -0.2841 -0.0579 -0.0729
  188MPD1    H5 2922   2.646   0.465  10.642 -1.4070 -1.2885  0.4535
  188MPD1    N1 2923   2.339   0.946  10.657  0.6648  0.1567 -0.8409
  188MPD1    H6 2924   2.304   0.943  10.562  2.1540  0.9195 -1.4207
  188MPD1    H7 2925   2.375   1.041  10.670 -0.9173  0.5748  0.5148
  189MPD1     C 2926   4.540   1.532   1.007  0.1011  0.4438  0.1493
  189MPD1    C1 2927   4.408   1.491   1.018  0.7394 -0.4884 -0.0972
  189MPD1    C2 2928   4.303   1.577   0.969 -0.3907 -0.0027 -0.0009
  189MPD1    C3 2929   4.338   1.697   0.911  0.2025 -0.3864 -0.7636
  189MPD1    C4 2930   4.471   1.737   0.903  0.7822 -0.3652 -0.2348
  189MPD1    C5 2931   4.571   1.654   0.954 -0.3657 -0.1013 -0.6719
  189MPD1     H 2932   4.200   1.545   0.977  0.0851 -1.4105  0.5321
  189MPD1    H1 2933   4.514   1.823   0.852  0.1667  0.5280  0.7602
  189MPD1    H2 2934   4.615   1.468   1.052 -0.4577 -0.7274 -0.6012
  189MPD1    H3 2935   4.669   1.699   0.942 -0.5994  1.0805  1.8459
  189MPD1     N 2936   4.234   1.777   0.849 -0.2811  0.4764  0.0931
  189MPD1    H5 2937   4.147   1.727   0.835  0.6877 -0.2353 -3.5245
  189MPD1    N1 2938   4.373   1.357   1.062 -0.3110 -0.0394  0.1698
  189MPD1    H6 2939   4.442   1.335   1.134  0.3714  1.0037 -0.1535
  189MPD1    H7 2940   4.280   1.358   1.102 -1.0867  1.0706 -1.6467
  190MPD1     C 2941   3.206   4.417  15.811  1.0290  0.2271 -0.3898
  190MPD1    C1 2942   3.195   4.549  15.849  0.3498  0.0683 -0.0748
  190MPD1    C2 2943   3.288   4.638  15.797 -0.7091  0.0094 -0.1140
  190MPD1    C3 2944   3.382   4.603  15.705 -0.1892 -0.4527 -0.2321
  190MPD1    C4 2945   3.388   4.475  15.662  0.0301 -0.4893  0.3986
  190MPD1    C5 2946   3.305   4.386  15.715 -0.4407  0.7536 -0.0292
  190MPD1     H 2947   3.279   0.006  15.818 -0.8060  0.1445 -0.8642
  190MPD1    H1 2948   3.458   4.442  15.585 -1.6745  0.4698 -1.5607
  190MPD1    H2 2949   3.133   4.349  15.854 -0.3201  1.1676 -1.1717
  190MPD1    H3 2950   3.310   4.291  15.664 -1.8024 -0.0263  1.3007
  190MPD1     N 2951   3.487   4.695  15.674 -0.2366  0.0037  0.9998
  190MPD1    H5 2952   3.471   0.053  15.702  0.4445  0.9104 -1.7534
  190MPD1    N1 2953   3.113   4.572  15.962 -0.2364 -0.1926 -0.1246
  190MPD1    H6 2954   3.068   4.663  15.959 -0.9906 -0.7040 -4.2213
  190MPD1    H7 2955   3.044   4.500  15.984 -0.5912 -0.2148 -1.2999
  191MPD1     C 2956   2.599   1.233  12.860  0.1133 -0.5260 -0.9608
  191MPD1    C1 2957   2.722   1.238  12.796  0.8476 -0.1426  0.1591
  191MPD1    C2 2958   2.744   1.338  12.708 -0.3333 -0.2965  0.0629
  191MPD1    C3 2959   2.655   1.444  12.694  0.6776 -0.0999  0.3239
  191MPD1    C4 2960   2.532   1.432  12.744 -0.0822 -0.5925  0.0022
  191MPD1    C5 2961   2.505   1.330  12.832 -0.0370 -0.1674  0.3760
  191MPD1     H 2962   2.835   1.333  12.650 -0.4752  1.6417 -0.3106
  191MPD1    H1 2963   2.448   1.498  12.729  1.8972  1.7828 -0.5747
  191MPD1    H2 2964   2.570   1.149  12.921 -1.4220  0.2322 -0.6526
  191MPD1    H3 2965   2.412   1.327  12.886  2.3586 -3.2215  4.2760
  191MPD1     N 2966   2.696   1.555  12.614 -0.0856  0.2936 -0.2737
  191MPD1    H5 2967   2.790   1.549  12.575  0.0717  1.5300 -0.0991
  191MPD1    N1 2968   2.791   1.114  12.800  0.4557 -0.1958  0.5879
  191MPD1    H6 2969   2.788   1.070  12.892 -0.1750  2.6074  1.9047
  191MPD1    H7 2970   2.887   1.134  12.771 -0.2997  0.6585 -1.2474
  192MPD1     C 2971   2.760   2.147  11.756 -0.4149 -0.0166 -0.6012
  192MPD1    C1 2972   2.659   2.070  11.796 -0.5284  0.4784 -0.0095
  192MPD1    C2 2973   2.669   2.002  11.923  0.2443  0.3804  0.4735
  192MPD1    C3 2974   2.770   2.041  12.011 -0.4844 -0.4757  0.5706
  192MPD1    C4 2975   2.869   2.123  11.961 -0.5029 -0.2337 -0.5050
  192MPD1    C5 2976   2.868   2.175  11.838  0.0578  0.1752  0.2640
  192MPD1     H 2977   2.591   1.930  11.943  1.5530 -0.7764  1.3971
  192MPD1    H1 2978   2.952   2.155  12.024  0.8062 -0.8659 -1.9278
  192MPD1    H2 2979   2.758   2.196  11.659 -2.0958 -0.3245 -0.7236
  192MPD1    H3 2980   2.950   2.242  11.813 -0.2243  1.0703  1.7039
  192MPD1     N 2981   2.765   2.012  12.148  0.6882 -0.1559  1.1451
  192MPD1    H5 2982   2.850   2.029  12.202  0.9948 -1.6390  1.1247
  192MPD1    N1 2983   2.552   2.041  11.705 -0.5312  0.6974 -0.0640
  192MPD1    H6 2984   2.541   2.112  11.633 -0.6770 -0.4015 -1.1217
  192MPD1    H7 2985   2.463   2.045  11.753 -0.4694 -0.6737  0.1463
  193MPD1     C 2986   2.015   1.526  16.249 -0.3311  0.6654  0.4142
  193MPD1    C1 2987   2.105   1.457  16.322  0.1495  0.3612 -0.1949
  193MPD1    C2 2988   2.208   1.529  16.378  0.3246 -0.1848 -0.2994
  193MPD1    C3 2989   2.224   1.667  16.369 -0.6406 -0.1568  0.1691
  193MPD1    C4 2990   2.133   1.730  16.288 -0.2938  0.1888 -0.5141
  193MPD1    C5 2991   2.036   1.662  16.227  0.2952  0.5081  0.2973
  193MPD1     H 2992   2.291   1.479  16.426  0.5166 -0.5211 -0.9770
  193MPD1    H1 2993   2.136   1.838  16.278 -4.2598  0.3501  0.2405
  193MPD1    H2 2994   1.934   1.477  16.197  0.3677  0.3731 -0.3888
  193MPD1    H3 2995   1.971   1.717  16.160 -0.0278 -1.9490 -1.3798
  193MPD1     N 2996   2.318   1.753  16.431  0.7141 -0.0513  0.0697
  193MPD1    H5 2997   2.292   1.851  16.428 -0.6313 -0.4202 -0.1396
  193MPD1    N1 2998   2.096   1.316  16.326  0.1459  0.3535  0.0492
  193MPD1    H6 2999   2.073   1.283  16.419 -2.3360  1.4646 -0.1580
  193MPD1    H7 3000   2.004   1.296  16.287  0.2169  0.8909 -0.4091
  194MPD1     C 3001   0.198   3.950   0.101 -0.0519  0.3616  0.3191
  194MPD1    C1 3002   0.213   3.971  17.716 -0.4435 -0.0979 -0.3392
  194MPD1    C2 3003   0.270   3.870  17.638 -0.4316  1.1521 -0.3807
  194MPD1    C3 3004   0.286   3.745  17.692 -0.2387 -0.7973  0.5279
  194MPD1    C4 3005   0.273   3.734   0.079  0.5663  0.6706 -0.6490
  194MPD1    C5 3006   0.232   3.835   0.161 -0.5119 -0.3315  1.3406
  194MPD1     H 3007   0.298   3.902  17.538 -1.8269 -0.0625 -1.1614
  194MPD1    H1 3008   0.296   3.642   0.131  2.6154  0.5260 -1.8346
  194MPD1    H2 3009   0.170   4.028   0.170  1.6496  0.7177  0.6148
  194MPD1    H3 3010   0.213   3.817   0.266  3.7985 -2.6285  1.7272
  194MPD1     N 3011   0.335   3.632  17.625 -0.0131 -0.2295  0.0129
  194MPD1    H5 3012   0.344   3.552  17.687 -3.4099 -0.5080  0.1831
  194MPD1    N1 3013   0.179   4.094  17.660  0.2242  0.3757 -0.0148
  194MPD1    H6 3014   0.110   4.135  17.722  0.8892  1.0393  0.2884
  194MPD1    H7 3015   0.134   4.075  17.570 -0.4544  2.6645 -0.1601
  195MPD1     C 3016   1.936   1.182   0.447  0.7641  0.0883  0.2216
  195MPD1    C1 3017   2.050   1.156   0.376 -0.0942  0.4140  0.7942
  195MPD1    C2 3018   2.099   1.029   0.364  0.3112 -0.6329 -0.3016
  195MPD1    C3 3019   2.016   0.926   0.408  0.5166 -0.0802 -0.3973
  195MPD1    C4 3020   1.897   0.953   0.469 -0.1434 -0.3592 -0.7799
  195MPD1    C5 3021   1.855   1.080   0.490 -0.5734  0.3395 -0.0604
  195MPD1     H 3022   2.193   1.010   0.313  0.3718  0.5705 -0.6187
  195MPD1    H1 3023   1.836   0.871   0.505 -0.0433  0.6464  1.6464
  195MPD1    H2 3024   1.895   1.282   0.454  0.8003  0.0478  0.9829
  195MPD1    H3 3025   1.762   1.099   0.542 -0.4973  2.2304 -0.6257
  195MPD1     N 3026   2.048   0.788   0.385  0.1486 -0.2324  0.3949
  195MPD1    H5 3027   1.975   0.718   0.390  0.4369 -0.5732 -0.3326
  195MPD1    N1 3028   2.140   1.267   0.356 -0.0164 -0.2003  0.2287
  195MPD1    H6 3029   2.211   1.245   0.286 -0.6135 -1.1399 -0.0870
  195MPD1    H7 3030   2.076   1.336   0.319 -1.3056 -0.4737  1.9482
  196MPD1     C 3031   1.082   0.904   0.111 -0.1282  0.4416 -0.9617
  196MPD1    C1 3032   1.107   0.767   0.084 -0.3149  0.2350  0.6058
  196MPD1    C2 3033   1.164   0.681   0.173 -0.4744  0.1391 -0.2408
  196MPD1    C3 3034   1.206   0.730   0.298 -0.1856 -0.1496  0.2256
  196MPD1    C4 3035   1.190   0.859   0.330 -0.4967 -0.5313 -0.9896
  196MPD1    C5 3036   1.123   0.942   0.240  0.0274 -0.3146 -0.0955
  196MPD1     H 3037   1.179   0.577   0.147  0.5079  0.3673 -0.6091
  196MPD1    H1 3038   1.228   0.903   0.422 -0.3265  0.1106 -1.3661
  196MPD1    H2 3039   1.021   0.969   0.049  1.7497  2.5687 -0.5795
  196MPD1    H3 3040   1.109   1.045   0.270  0.3403  0.2405 -1.8176
  196MPD1     N 3041   1.269   0.644   0.391  0.3294 -0.2463 -0.1317
  196MPD1    H5 3042   1.309   0.689   0.473 -0.3550 -0.3699  0.2695
  196MPD1    N1 3043   1.068   0.717  17.710 -0.2706 -0.2292  0.0049
  196MPD1    H6 3044   1.070   0.794  17.644  0.4710 -1.1557 -1.0657
  196MPD1    H7 3045   1.133   0.649  17.670 -0.0913  0.5358 -0.9874
  197MPD1     C 3046   0.674   2.254  16.921  0.1071  0.4404  0.2231
  197MPD1    C1 3047   0.727   2.205  17.038 -0.6924 -0.0696  0.1584
  197MPD1    C2 3048   0.850   2.146  17.033 -0.1201 -0.2379 -0.2981
  197MPD1    C3 3049   0.913   2.126  16.909 -0.0279 -0.1713  0.0639
  197MPD1    C4 3050   0.843   2.155  16.795 -0.1071 -0.4057 -0.1404
  197MPD1    C5 3051   0.716   2.200  16.805 -0.4830  0.8291 -0.0127
  197MPD1     H 3052   0.904   2.114  17.121  1.0084 -0.7628 -1.1813
  197MPD1    H1 3053   0.872   2.130  16.694 -2.4842 -0.3455 -0.8486
  197MPD1    H2 3054   0.580   2.307  16.921 -1.6144 -2.5758  2.0473
  197MPD1    H3 3055   0.667   2.221  16.710 -0.6908  2.7266  0.5101
  197MPD1     N 3056   1.037   2.059  16.888  0.0289  0.1723 -0.1965
  197MPD1    H5 3057   1.073   2.060  16.792  2.7533  3.3872  0.8638
  197MPD1    N1 3058   0.661   2.245  17.155  0.3778  0.0612 -0.4420
  197MPD1    H6 3059   0.670   2.184  17.236  1.2665  0.6603 -0.1003
  197MPD1    H7 3060   0.563   2.271  17.140 -0.2363 -2.0100 -0.0913
  198MPD1     C 3061   3.327   0.780  15.549  0.1232 -0.2931 -0.0254
  198MPD1    C1 3062   3.287   0.823  15.678  0.3147  0.7777 -0.6142
  198MPD1    C2 3063   3.373   0.916  15.720 -0.2362  0.3895 -0.2506
  198MPD1    C3 3064   3.480   0.968  15.655 -0.4654 -0.4887 -0.0511
  198MPD1    C4 3065   3.509   0.923  15.529 -0.1697 -0.1397 -0.2059
  198MPD1    C5 3066   3.417   0.834  15.473 -0.1271 -0.0901  0.2918
  198MPD1     H 3067   3.355   0.951  15.821  1.4384  1.0792 -0.1995
  198MPD1    H1 3068   3.587   0.950  15.460 -2.4811 -2.7431 -3.7956
  198MPD1    H2 3069   3.265   0.704  15.502 -0.3828  0.4559 -0.5615
  198MPD1    H3 3070   3.435   0.809  15.369  0.5969  0.6646  0.2262
  198MPD1     N 3071   3.581   1.040  15.730 -0.4634  0.2087 -0.0687
  198MPD1    H5 3072   3.553   1.046  15.827  1.8496  0.4769  0.5548
  198MPD1    N1 3073   3.158   0.795  15.725 -0.1465 -0.2286  0.0536
  198MPD1    H6 3074   3.153   0.797  15.827  0.4370  0.1340  0.0789
  198MPD1    H7 3075   3.128   0.701  15.702 -1.6613  0.0558  0.8830
  199MPD1     C 3076   0.993   2.175  10.144  0.4652 -0.8459 -1.1148
  199MPD1    C1 3077   0.971   2.070  10.063  0.9614  0.4727  0.2666
  199MPD1    C2 3078   0.837   2.022  10.060  0.3879  0.9785  0.2345
  199MPD1    C3 3079   0.749   2.070  10.155 -0.4016 -0.3660 -0.5003
  199MPD1    C4 3080   0.779   2.167  10.250  0.0375  0.5847  0.5204
  199MPD1    C5 3081   0.902   2.225  10.230  0.1675  0.4961 -0.0386
  199MPD1     H 3082   0.815   1.935   9.999 -0.6011  0.4374  1.3763
  199MPD1    H1 3083   0.703   2.213  10.312  1.4192  0.4519  2.2983
  199MPD1    H2 3084   1.087   2.227  10.144  0.0374 -0.0774 -1.0808
  199MPD1    H3 3085   0.927   2.312  10.289 -0.1311  0.1839  0.5608
  199MPD1     N 3086   0.616   2.017  10.168 -0.3196 -0.4094  0.2754
  199MPD1    H5 3087   0.547   2.065  10.224  1.5050  2.2194  0.2867
  199MPD1    N1 3088   1.063   2.051   9.957 -0.1912 -0.0421 -0.1323
  199MPD1    H6 3089   1.161   2.070   9.977  0.1501 -0.3723 -1.4669
  199MPD1    H7 3090   1.068   1.954   9.925  1.0023  0.5235 -1.6858
  200MPD1     C 3091   3.860   2.314  16.076 -0.2856  0.1152 -0.1889
  200MPD1    C1 3092   3.765   2.321  15.978 -0.0044  1.0890 -0.0273
  200MPD1    C2 3093   3.748   2.208  15.893 -0.0773  0.3086 -0.4621
  200MPD1    C3 3094   3.821   2.091  15.906  0.1622 -0.3278 -0.4615
  200MPD1    C4 3095   3.902   2.081  16.018 -0.1272  0.1650  0.6400
  200MPD1    C5 3096   3.925   2.195  16.103  0.2102 -0.4379 -0.9815
  200MPD1     H 3097   3.680   2.203  15.808  0.4709 -0.3162 -0.8740
  200MPD1    H1 3098   3.953   1.988  16.041  2.0172  0.5903 -2.4301
  200MPD1    H2 3099   3.875   2.398  16.144  1.0857  0.2164 -0.6079
  200MPD1    H3 3100   3.986   2.180  16.191  0.3515 -0.2710 -1.0519
  200MPD1     N 3101   3.817   1.990  15.802 -0.2739  0.2483  0.5306
  200MPD1    H5 3102   3.752   2.010  15.727 -1.8868  1.0874  2.1607
  200MPD1    N1 3103   3.690   2.435  15.955  0.4166  0.0342 -0.3808
  200MPD1    H6 3104   3.696   2.498  16.035  1.6322 -1.6285  0.8282
  200MPD1    H7 3105   3.593   2.416  15.932  0.1493  0.4886  0.3629
  201MPD1     C 3106   1.700   1.269  13.537 -0.7206  0.4683 -0.2639
  201MPD1    C1 3107   1.667   1.133  13.559 -0.8740  0.1775 -0.0106
  201MPD1    C2 3108   1.767   1.040  13.552 -0.4649  0.2250 -0.5657
  201MPD1    C3 3109   1.900   1.084  13.541 -0.2935  0.4194 -0.1446
  201MPD1    C4 3110   1.927   1.217  13.503  0.5744 -0.5213  0.4328
  201MPD1    C5 3111   1.821   1.309  13.502  0.2004 -0.3999  0.2412
  201MPD1     H 3112   1.744   0.935  13.565  0.0243  0.3413  1.2550
  201MPD1    H1 3113   2.030   1.241  13.477 -0.7105  2.1525 -2.1588
  201MPD1    H2 3114   1.627   1.345  13.562 -1.7984 -0.8205  0.4711
  201MPD1    H3 3115   1.844   1.411  13.472 -2.4500  0.1920  0.1841
  201MPD1     N 3116   2.007   0.994  13.552  0.4682 -0.8237  0.1310
  201MPD1    H5 3117   1.969   0.900  13.563  0.1386 -0.6736  0.2670
  201MPD1    N1 3118   1.543   1.096  13.612 -0.0417  0.5480 -0.3448
  201MPD1    H6 3119   1.530   0.996  13.595  0.5877  0.0323  2.1132
  201MPD1    H7 3120   1.467   1.149  13.571 -1.1423 -0.2234  0.6726
  202MPD1     C 3121   0.844   4.731   9.437  0.2015  0.2873 -0.3540
  202MPD1    C1 3122   0.827   0.124   9.464 -0.0164  0.2220 -0.0799
  202MPD1    C2 3123   0.909   0.166   9.570 -0.0926 -0.4669 -0.2649
  202MPD1    C3 3124   1.020   0.091   9.612  0.5621  0.1978 -0.5214
  202MPD1    C4 3125   1.051   4.710   9.553 -0.4130  0.3631  0.0450
  202MPD1    C5 3126   0.954   4.660   9.473 -0.1386 -0.2519 -0.2853
  202MPD1     H 3127   0.903   0.270   9.601  1.1069 -0.8412  1.2307
  202MPD1    H1 3128   1.146   4.662   9.574 -1.3053 -1.3438  0.1462
  202MPD1    H2 3129   0.769   4.676   9.380  1.2111  1.4948 -2.8087
  202MPD1    H3 3130   0.971   4.565   9.423  2.5158 -0.2732  0.6430
  202MPD1     N 3131   1.111   0.139   9.703 -0.2446 -0.0336  0.2003
  202MPD1    H5 3132   1.201   0.095   9.719 -0.3976 -0.4260 -0.0247
  202MPD1    N1 3133   0.706   0.189   9.444 -0.1188  0.6797  0.0882
  202MPD1    H6 3134   0.714   0.290   9.433  1.7101  0.4067 -0.9607
  202MPD1    H7 3135   0.675   0.160   9.352 -0.9868 -3.1684  1.5741
  203MPD1     C 3136   0.140   1.432  12.547  0.0733  0.2433  0.0634
  203MPD1    C1 3137   0.159   1.358  12.437 -0.3593  0.2375  0.5792
  203MPD1    C2 3138   0.261   1.264  12.446  0.5328  0.3809 -0.0109
  203MPD1    C3 3139   0.337   1.247  12.558 -0.5046 -0.5207  0.0037
  203MPD1    C4 3140   0.308   1.327  12.667  0.1404 -0.8254 -0.2502
  203MPD1    C5 3141   0.205   1.407  12.667 -1.2690 -0.2241 -0.0279
  203MPD1     H 3142   0.291   1.215  12.354  1.0968  1.2008 -0.2684
  203MPD1    H1 3143   0.364   1.331  12.760  1.7288 -1.3648 -1.1701
  203MPD1    H2 3144   0.051   1.495  12.545  0.8473  1.3512  1.0654
  203MPD1    H3 3145   0.182   1.462  12.758  0.6174  1.4837 -0.5825
  203MPD1     N 3146   0.445   1.154  12.553 -0.2563  0.1678 -0.0419
  203MPD1    H5 3147   0.440   1.087  12.477 -0.0626 -1.6368  1.5381
  203MPD1    N1 3148   0.083   1.375  12.318 -0.0253 -0.3068 -0.2901
  203MPD1    H6 3149   4.731   1.421  12.329 -0.2156 -0.9113  0.6837
  203MPD1    H7 3150   0.054   1.282  12.288 -1.2334 -0.3766  1.0948
  204MPD1     C 3151   4.426   2.978   0.324 -0.0542 -0.3543 -0.2878
  204MPD1    C1 3152   4.509   2.980   0.212 -0.2970 -0.5076  0.2083
  204MPD1    C2 3153   4.558   2.856   0.169  0.5934 -0.5695  0.1135
  204MPD1    C3 3154   4.532   2.730   0.231  0.6853 -0.7755  0.0243
  204MPD1    C4 3155   4.446   2.735   0.340 -0.2880  0.0030  0.3152
  204MPD1    C5 3156   4.387   2.855   0.379  0.2119 -0.3416  0.0125
  204MPD1     H 3157   4.615   2.851   0.077 -1.5764  1.5337 -1.3509
  204MPD1    H1 3158   4.406   2.645   0.387 -2.2849 -0.6988 -2.6526
  204MPD1    H2 3159   4.381   3.070   0.358 -0.0118 -1.0958  1.8364
  204MPD1    H3 3160   4.315   2.849   0.460  0.7085  1.6203  0.5902
  204MPD1     N 3161   4.590   2.616   0.172  0.2885 -0.4080  0.3307
  204MPD1    H5 3162   4.654   2.640   0.097  0.3536 -1.3841  0.0766
  204MPD1    N1 3163   4.543   3.105   0.147 -0.5019 -0.3146 -0.1297
  204MPD1    H6 3164   4.480   3.184   0.160  0.0335  0.0106  0.4318
  204MPD1    H7 3165   4.587   3.100   0.056 -2.1145  2.5029 -1.0592
  205MPD1     C 3166   0.838   1.364   0.838  1.1701 -0.2513  0.8921
  205MPD1    C1 3167   0.827   1.250   0.766  0.3728  0.0821 -0.6966
  205MPD1    C2 3168   0.741   1.249   0.661 -0.0103 -0.6538  0.0551
  205MPD1    C3 3169   0.648   1.354   0.640  0.1013 -0.5044 -0.0276
  205MPD1    C4 3170   0.660   1.464   0.716 -0.0084  0.7543 -0.4374
  205MPD1    C5 3171   0.754   1.475   0.812 -0.0648 -0.7919  0.4020
  205MPD1     H 3172   0.741   1.152   0.613  0.6191 -1.4282  1.6361
  205MPD1    H1 3173   0.592   1.549   0.716 -1.1043 -0.1374 -1.1555
  205MPD1    H2 3174   0.901   1.387   0.924  2.0531 -0.1968  0.2285
  205MPD1    H3 3175   0.761   1.557   0.882  0.6798 -1.7099  1.4074
  205MPD1     N 3176   0.557   1.357   0.538  0.9202 -0.1884 -0.0387
  205MPD1    H5 3177   0.503   1.442   0.523  1.8634  0.8705  2.5236
  205MPD1    N1 3178   0.915   1.148   0.798 -0.1386 -0.1041  0.6213
  205MPD1    H6 3179   0.869   1.057   0.791  0.1477 -0.3424  1.7777
  205MPD1    H7 3180   0.950   1.157   0.893  1.0557  2.0371 -0.0367
  206MPD1     C 3181   1.379   4.157  16.571 -0.1502  0.4394 -0.3632
  206MPD1    C1 3182   1.283   4.055  16.578  0.3206  0.7082  0.5152
  206MPD1    C2 3183   1.176   4.062  16.495  0.1547 -0.2456 -0.4249
  206MPD1    C3 3184   1.163   4.162  16.397 -0.4099  0.3651 -0.3226
  206MPD1    C4 3185   1.266   4.252  16.387 -0.1375 -0.2641  0.4912
  206MPD1    C5 3186   1.372   4.247  16.469  0.4353  0.4061 -0.4492
  206MPD1     H 3187   1.108   3.977  16.495 -1.6225  1.1689 -1.6183
  206MPD1    H1 3188   1.270   4.329  16.311 -3.1869  0.5816  1.2197
  206MPD1    H2 3189   1.464   4.165  16.638 -1.3410  1.6656  0.9987
  206MPD1    H3 3190   1.461   4.307  16.452 -0.4577  2.0263  0.5976
  206MPD1     N 3191   1.059   4.162  16.301  0.5312  0.2305 -0.3648
  206MPD1    H5 3192   1.063   4.219  16.218  0.2848  0.2067 -0.3936
  206MPD1    N1 3193   1.284   3.971  16.689  0.0264  0.6426  0.1159
  206MPD1    H6 3194   1.264   3.873  16.672 -0.0888  1.2209 -2.9877
  206MPD1    H7 3195   1.379   3.959  16.723  0.1646 -1.8453 -1.1843
  207MPD1     C 3196   2.556   2.314  10.222  0.5473 -0.4205 -0.6236
  207MPD1    C1 3197   2.566   2.279  10.356  0.0111 -0.2831 -0.2230
  207MPD1    C2 3198   2.688   2.271  10.414  0.0738 -0.3223 -0.4173
  207MPD1    C3 3199   2.807   2.290  10.353 -0.3161  0.3567 -0.0221
  207MPD1    C4 3200   2.799   2.326  10.223 -0.0602 -0.4592  0.1271
  207MPD1    C5 3201   2.675   2.338  10.159  0.5154  0.0772 -0.6898
  207MPD1     H 3202   2.686   2.236  10.517  2.6622 -1.0919 -0.6449
  207MPD1    H1 3203   2.884   2.337  10.157  0.1238  1.6444  0.7018
  207MPD1    H2 3204   2.463   2.312  10.167  0.5630 -0.8222 -0.6403
  207MPD1    H3 3205   2.688   2.362  10.055 -3.4719  1.1049 -0.9775
  207MPD1     N 3206   2.939   2.257  10.402 -0.6267  0.0156 -0.4079
  207MPD1    H5 3207   3.016   2.252  10.336 -0.4632 -0.9560 -0.1328
  207MPD1    N1 3208   2.460   2.211  10.421  0.3477 -0.4576  0.0008
  207MPD1    H6 3209   2.370   2.242  10.386  0.3189  1.8645  2.1710
  207MPD1    H7 3210   2.456   2.208  10.523  0.2671 -0.1970  0.0030
  208MPD1     C 3211   0.032   4.434  17.419 -0.7001 -0.1017 -0.3547
  208MPD1    C1 3212   0.060   4.562  17.363  0.7025 -0.6597 -0.3341
  208MPD1    C2 3213   0.121   4.656  17.441  0.2691  0.4412 -1.0544
  208MPD1    C3 3214   0.149   4.629  17.574  0.2992  0.2108  0.3780
  208MPD1    C4 3215   0.122   4.500  17.621 -0.4124 -0.4774 -0.4439
  208MPD1    C5 3216   0.078   4.409  17.544 -0.7423 -0.0026 -0.4383
  208MPD1     H 3217   0.140   0.016  17.401  2.2459  0.9284  1.0761
  208MPD1    H1 3218   0.154   4.474  17.722  2.3304  0.6491 -1.0209
  208MPD1    H2 3219   0.000   4.351  17.358 -2.4200  1.1946 -1.2121
  208MPD1    H3 3220   0.074   4.304  17.567  1.3098 -0.3416 -1.6495
  208MPD1     N 3221   0.215   4.730  17.648 -0.0231  0.2066 -0.1808
  208MPD1    H5 3222   0.250   0.072  17.596 -0.3728  0.6946  0.3430
  208MPD1    N1 3223   0.034   4.600  17.232  0.0055 -0.7438 -0.6631
  208MPD1    H6 3224   4.709   4.539  17.182 -1.3114  0.6318 -0.6931
  208MPD1    H7 3225   4.737   4.696  17.225  1.3974 -0.0010  2.3624
  209MPD1     C 3226   3.657   1.919  12.172  0.5458 -0.5369  0.4412
  209MPD1    C1 3227   3.557   1.968  12.093 -0.0208  0.3701 -0.3406
  209MPD1    C2 3228   3.537   1.908  11.971  0.6525  0.3171  0.0712
  209MPD1    C3 3229   3.623   1.812  11.927 -1.2194  0.1617  0.2076
  209MPD1    C4 3230   3.736   1.781  12.005  0.2311 -0.4740  0.5604
  209MPD1    C5 3231   3.748   1.831  12.127 -0.4047 -0.2734 -0.1434
  209MPD1     H 3232   3.447   1.940  11.918 -0.5195  0.1155  1.9618
  209MPD1    H1 3233   3.813   1.711  11.979  1.0515  0.3078  0.8784
  209MPD1    H2 3234   3.672   1.958  12.272  2.4596  0.0023 -0.0576
  209MPD1    H3 3235   3.834   1.805  12.188  0.9884 -0.9122 -2.3614
  209MPD1     N 3236   3.603   1.757  11.797 -0.1547 -0.3544  0.6200
  209MPD1    H5 3237   3.526   1.794  11.743  0.2395 -0.5523 -0.0780
  209MPD1    N1 3238   3.467   2.067  12.145  0.0586  0.3224 -0.1320
  209MPD1    H6 3239   3.517   2.138  12.197  1.3766  0.4199 -1.5080
  209MPD1    H7 3240   3.418   2.106  12.065  0.0141  0.0279 -0.2495
  210MPD1     C 3241   4.095   1.680  10.837 -0.1846  0.0486  0.5619
  210MPD1    C1 3242   4.141   1.643  10.960  0.5123 -0.1830  0.7916
  210MPD1    C2 3243   4.052   1.633  11.074 -0.0071  0.4576 -0.0397
  210MPD1    C3 3244   3.920   1.680  11.056  0.8288 -0.0966  0.0816
  210MPD1    C4 3245   3.893   1.730  10.930  0.3259 -0.3428 -0.0952
  210MPD1    C5 3246   3.972   1.726  10.822 -0.2753  0.0173 -0.5871
  210MPD1     H 3247   4.089   1.592  11.167  0.6197 -1.2107 -1.0219
  210MPD1    H1 3248   3.795   1.771  10.910 -0.3179 -2.3196 -0.9672
  210MPD1    H2 3249   4.162   1.673  10.752  1.5169  1.1783  1.8185
  210MPD1    H3 3250   3.927   1.756  10.728 -1.5287 -0.8578 -0.2732
  210MPD1     N 3251   3.829   1.683  11.160 -0.1869  0.4368  0.6268
  210MPD1    H5 3252   3.735   1.710  11.136 -1.2774 -1.3145  2.9086
  210MPD1    N1 3253   4.262   1.587  10.975  0.5327  0.1449 -0.6701
  210MPD1    H6 3254   4.327   1.628  10.909  0.5002  1.3274  0.0242
  210MPD1    H7 3255   4.306   1.614  11.063  1.6956 -4.9376  0.3379
  211MPD1     C 3256   1.105   1.268  17.505  0.1871  0.0690 -0.0248
  211MPD1    C1 3257   0.983   1.255  17.568  0.2405  0.3471  0.5877
  211MPD1    C2 3258   0.871   1.298  17.497  0.7905  0.2077  0.3498
  211MPD1    C3 3259   0.880   1.348  17.367 -0.0405 -0.3648 -1.1809
  211MPD1    C4 3260   1.001   1.354  17.304 -1.1171 -0.3009  0.4809
  211MPD1    C5 3261   1.107   1.309  17.374  0.8491 -0.2729  0.2307
  211MPD1     H 3262   0.770   1.292  17.537  0.7583  4.1595  0.9127
  211MPD1    H1 3263   1.016   1.387  17.202  1.3469  2.2415  1.6706
  211MPD1    H2 3264   1.198   1.235  17.548  0.4301 -1.9727 -2.1170
  211MPD1    H3 3265   1.196   1.323  17.314  0.5335  0.6681 -0.0132
  211MPD1     N 3266   0.765   1.398  17.303  0.2016  0.7715 -0.1046
  211MPD1    H5 3267   0.683   1.406  17.363  0.9748  2.4596  0.7445
  211MPD1    N1 3268   0.969   1.198  17.695 -0.1129  0.5011 -0.3371
  211MPD1    H6 3269   0.898   1.235   0.006 -0.0968  2.7759 -1.6319
  211MPD1    H7 3270   1.060   1.194  17.741  0.7968  2.4205 -1.9501
  212MPD1     C 3271   4.667   4.667  16.722 -0.4786 -0.0638  0.8054
  212MPD1    C1 3272   0.018   4.594  16.796 -0.5364  0.2017  0.0482
  212MPD1    C2 3273   4.718   4.499  16.888 -0.0754 -0.1168 -0.6515
  212MPD1    C3 3274   4.583   4.471  16.906  0.3828 -0.3045 -0.2694
  212MPD1    C4 3275   4.498   4.543  16.825  0.6582  0.1416  0.2353
  212MPD1    C5 3276   4.537   4.633  16.733 -0.1080 -0.3509 -0.0722
  212MPD1     H 3277   0.055   4.447  16.946 -1.2039 -0.4035  0.5625
  212MPD1    H1 3278   4.393   4.525  16.843  1.0378 -1.4554  0.8238
  212MPD1    H2 3279   4.688   4.737  16.641 -0.6544 -0.2737  0.5755
  212MPD1    H3 3280   4.464   4.687  16.674 -0.7869 -0.9346  0.2316
  212MPD1     N 3281   4.534   4.381  16.992  0.0671 -0.1542  0.0925
  212MPD1    H5 3282   4.434   4.364  16.981  0.1893 -0.7985 -0.0420
  212MPD1    N1 3283   0.153   4.626  16.785  0.4075 -0.5249  0.0079
  212MPD1    H6 3284   0.221   4.555  16.808 -0.1694 -0.9701  0.3453
  212MPD1    H7 3285   0.174   4.670  16.695 -3.0190 -2.3345 -1.6957
  213MPD1     C 3286   2.791   4.653  16.106  0.2937 -0.3798 -0.2903
  213MPD1    C1 3287   2.734   0.038  16.083  0.1857 -0.5611  0.4287
  213MPD1    C2 3288   2.704   0.057  15.949  0.1956 -0.0083 -0.3346
  213MPD1    C3 3289   2.695   4.693  15.852 -0.6302  0.6773  0.1011
  213MPD1    C4 3290   2.722   4.563  15.897  0.6747  0.1399 -0.5740
  213MPD1    C5 3291   2.772   4.547  16.023 -0.8340  0.2325  0.1222
  213MPD1     H 3292   2.697   0.157  15.909  0.1462  0.4577  0.8346
  213MPD1    H1 3293   2.726   4.477  15.831 -3.9374 -1.5720  1.3327
  213MPD1    H2 3294   2.826   4.634  16.206 -0.0213  0.4493 -0.0276
  213MPD1    H3 3295   2.798   4.450  16.066  1.6555  0.2436 -1.3568
  213MPD1     N 3296   2.658   4.731  15.725  0.9364 -0.6909 -0.2945
  213MPD1    H5 3297   2.657   0.088  15.691 -0.3285 -0.3918  0.5884
  213MPD1    N1 3298   2.788   0.136  16.166  0.5482  0.2614 -0.3398
  213MPD1    H6 3299   2.734   0.221  16.178 -0.8635 -0.8289  1.0006
  213MPD1    H7 3300   2.795   0.097  16.260 -0.4877 -1.5871 -1.0484
  214MPD1     C 3301   1.931   4.617  15.093 -0.3095 -0.5528 -0.2558
  214MPD1    C1 3302   2.033   4.588  15.002  0.6081 -0.1477  0.0454
  214MPD1    C2 3303   2.161   4.577  15.063  0.2062  0.4720  0.3102
  214MPD1    C3 3304   2.180   4.576  15.198 -0.3352  0.1782  0.1857
  214MPD1    C4 3305   2.074   4.601  15.281  0.0602  0.3068  0.1856
  214MPD1    C5 3306   1.947   4.633  15.228  0.3071  0.1511  0.5301
  214MPD1     H 3307   2.245   4.550  14.999 -0.0361  1.1778 -0.3054
  214MPD1    H1 3308   2.091   4.627  15.384  0.9589 -2.2955  0.6735
  214MPD1    H2 3309   1.830   4.612  15.054 -1.1552  3.3124  1.4421
  214MPD1    H3 3310   1.868   4.661  15.296  1.7577 -3.1470  3.5813
  214MPD1     N 3311   2.309   4.577  15.259  0.4054  0.1527 -0.5829
  214MPD1    H5 3312   2.319   4.589  15.359 -1.0313 -2.2599 -0.1449
  214MPD1    N1 3313   2.007   4.530  14.879  0.0722  0.8682  1.1407
  214MPD1    H6 3314   2.082   4.544  14.812 -0.1952 -2.2541  0.1910
  214MPD1    H7 3315   1.925   4.575  14.838 -0.7460 -1.3176  0.3882
  215MPD1     C 3316   2.686   0.209  11.380 -0.2174 -0.2387  0.4002
  215MPD1    C1 3317   2.793   0.254  11.456  0.8461  0.8429  0.3665
  215MPD1    C2 3318   2.809   0.396  11.451 -0.0661 -0.7426  0.1440
  215MPD1    C3 3319   2.732   0.485  11.377  0.3461  0.0951  0.2580
  215MPD1    C4 3320   2.643   0.428  11.289 -0.1542 -0.4824 -0.2600
  215MPD1    C5 3321   2.616   0.291  11.292 -0.1630  0.0381 -0.3233
  215MPD1     H 3322   2.898   0.436  11.498 -0.2961 -1.1089  0.8812
  215MPD1    H1 3323   2.591   0.487  11.214  0.2431  2.0620  1.4607
  215MPD1    H2 3324   2.655   0.105  11.373 -0.7984  0.0076 -0.6832
  215MPD1    H3 3325   2.532   0.258  11.232 -1.9849 -0.6050  2.6053
  215MPD1     N 3326   2.754   0.623  11.391  0.2486  0.4601  0.3933
  215MPD1    H5 3327   2.831   0.656  11.447  0.7927 -2.6454  1.4708
  215MPD1    N1 3328   2.855   0.170  11.551  0.0811 -0.2343 -0.6749
  215MPD1    H6 3329   2.860   0.071  11.528 -2.2101 -0.3248 -0.7825
  215MPD1    H7 3330   2.947   0.204  11.579 -0.6937  0.6209  0.8261
  216MPD1     C 3331   4.448   4.246  17.551  0.3596 -0.4028 -0.6311
  216MPD1    C1 3332   4.317   4.234  17.600  0.3012  0.0838 -0.0153
  216MPD1    C2 3333   4.274   4.105  17.628 -0.2771 -0.4113 -0.8732
  216MPD1    C3 3334   4.358   4.001  17.593 -0.2864 -0.0237  0.1112
  216MPD1    C4 3335   4.471   4.023  17.520  0.0014  0.2290 -0.5421
  216MPD1    C5 3336   4.518   4.147  17.493 -0.2429  0.4343 -0.0536
  216MPD1     H 3337   4.173   4.097  17.665 -0.0233 -3.2473 -0.7439
  216MPD1    H1 3338   4.523   3.935  17.485  1.0210 -0.3272  2.3575
  216MPD1    H2 3339   4.489   4.345  17.545 -0.2110  0.0421  2.7516
  216MPD1    H3 3340   4.605   4.175  17.435  0.0925  1.0025  0.7287
  216MPD1     N 3341   4.325   3.865  17.625 -0.1527 -0.5014 -0.0947
  216MPD1    H5 3342   4.377   3.785  17.589 -3.3866 -2.1417 -1.1080
  216MPD1    N1 3343   4.261   4.352  17.655  0.3977 -0.5534  0.0852
  216MPD1    H6 3344   4.287   4.425  17.589 -0.4537 -0.1126  0.2427
  216MPD1    H7 3345   4.161   4.347  17.669  0.7029 -0.3541  2.3008
  217MPD1     C 3346   0.331   1.058   9.753  0.0349  0.4942 -0.0602
  217MPD1    C1 3347   0.409   0.988   9.670 -0.6503  0.2386 -0.5835
  217MPD1    C2 3348   0.352   0.873   9.624  0.2708  0.2688  0.1760
  217MPD1    C3 3349   0.240   0.810   9.680 -0.3471  0.4671  0.1516
  217MPD1    C4 3350   0.177   0.877   9.783 -0.5602 -0.0898  0.2347
  217MPD1    C5 3351   0.214   1.002   9.809  0.1076  0.5850 -0.4372
  217MPD1     H 3352   0.403   0.810   9.553 -1.2441 -0.5284 -0.2120
  217MPD1    H1 3353   0.092   0.835   9.836  0.2922 -0.5847  1.2013
  217MPD1    H2 3354   0.366   1.154   9.788  0.3450  0.3031  0.1579
  217MPD1    H3 3355   0.166   1.059   9.887 -0.0436  0.8476 -0.7194
  217MPD1     N 3356   0.174   0.694   9.627  0.8108  0.6145 -0.2373
  217MPD1    H5 3357   0.092   0.669   9.681 -0.8850 -0.0045 -3.1199
  217MPD1    N1 3358   0.511   1.052   9.599  0.2978  0.2017 -0.0202
  217MPD1    H6 3359   0.563   0.981   9.548 -2.4884  0.6859 -3.5818
  217MPD1    H7 3360   0.574   1.094   9.666  0.7381 -1.2214  0.4607
  218MPD1     C 3361   1.845   0.613  12.971  1.1455  1.1878 -0.3654
  218MPD1    C1 3362   1.947   0.526  12.928 -0.1366  0.1738  0.4811
  218MPD1    C2 3363   2.069   0.577  12.887  0.2066  0.5751 -0.8146
  218MPD1    C3 3364   2.095   0.712  12.885 -0.1038  0.1756 -0.0376
  218MPD1    C4 3365   1.989   0.798  12.923 -0.2155  0.1123  0.3212
  218MPD1    C5 3366   1.870   0.749  12.969 -0.8657  0.0972  0.1000
  218MPD1     H 3367   2.149   0.511  12.856 -0.9584 -0.5000 -1.5392
  218MPD1    H1 3368   2.007   0.905  12.924  0.4986 -0.0284  2.4411
  218MPD1    H2 3369   1.750   0.584  13.014  1.6778 -0.0906 -0.0501
  218MPD1    H3 3370   1.802   0.829  12.997 -1.0560 -0.6766  1.8883
  218MPD1     N 3371   2.224   0.764  12.852 -0.2064  1.0674  0.0784
  218MPD1    H5 3372   2.297   0.696  12.870 -2.1133 -0.8492  0.6167
  218MPD1    N1 3373   1.927   0.386  12.941 -0.1239 -0.0829  0.6695
  218MPD1    H6 3374   1.828   0.367  12.937 -0.2213  0.2511  1.4187
  218MPD1    H7 3375   1.972   0.332  12.868 -0.6386  0.8126 -0.2976
  219MPD1     C 3376   2.531   1.486  12.208 -0.3047  0.1029 -0.1999
  219MPD1    C1 3377   2.598   1.366  12.177  0.3724 -0.3677 -0.3755
  219MPD1    C2 3378   2.588   1.261  12.266  0.2083  0.2788  0.1033
  219MPD1    C3 3379   2.518   1.283  12.386  0.4539 -0.0425  0.4120
  219MPD1    C4 3380   2.452   1.401  12.413  0.0823  0.7025  0.2988
  219MPD1    C5 3381   2.460   1.501  12.324  0.1142 -0.6043  0.3230
  219MPD1     H 3382   2.619   1.161  12.239 -0.9974  0.5136 -2.1289
  219MPD1    H1 3383   2.392   1.416  12.502 -0.9105 -0.8466 -0.1117
  219MPD1    H2 3384   2.540   1.579  12.153 -1.6382  0.1897 -0.2838
  219MPD1    H3 3385   2.420   1.601  12.341 -1.5054 -1.0229 -1.0092
  219MPD1     N 3386   2.496   1.182  12.483 -0.1612  0.4451  0.2664
  219MPD1    H5 3387   2.440   1.215  12.561 -0.3658  0.0644  0.2807
  219MPD1    N1 3388   2.685   1.375  12.068  0.3593 -0.2863  0.3602
  219MPD1    H6 3389   2.712   1.289  12.021  0.0798  0.3003 -0.8936
  219MPD1    H7 3390   2.646   1.431  11.992  0.3820  0.6692  1.0566
  220MPD1     C 3391   3.138   1.521   9.877 -0.2050 -0.1260 -0.5158
  220MPD1    C1 3392   3.082   1.631   9.928 -0.3656  0.6897 -0.4391
  220MPD1    C2 3393   2.974   1.607  10.013  0.4131  0.1971 -0.4332
  220MPD1    C3 3394   2.930   1.482  10.044 -0.8761 -0.6372 -0.3565
  220MPD1    C4 3395   2.979   1.375   9.972 -0.5549 -0.0965  0.1563
  220MPD1    C5 3396   3.095   1.398   9.896 -0.1091 -0.2552 -0.2099
  220MPD1     H 3397   2.935   1.690  10.071 -0.8576 -0.1055 -0.8657
  220MPD1    H1 3398   2.934   1.276   9.969  0.1249 -0.3636 -1.2157
  220MPD1    H2 3399   3.232   1.537   9.825 -0.4655  2.1507 -0.3134
  220MPD1    H3 3400   3.137   1.318   9.837 -0.0226 -0.9120  0.7437
  220MPD1     N 3401   2.843   1.468  10.154 -0.1214  0.3640  0.1194
  220MPD1    H5 3402   2.823   1.553  10.206  1.1421  0.1555  0.9115
  220MPD1    N1 3403   3.137   1.754   9.904  0.0470  0.8233 -0.1992
  220MPD1    H6 3404   3.184   1.767   9.814  0.1354  0.9435 -0.1354
  220MPD1    H7 3405   3.064   1.824   9.902 -1.1802 -0.4115  1.4417
  221MPD1     C 3406   3.923   0.747  17.114  0.4052 -0.7269  0.0117
  221MPD1    C1 3407   3.995   0.845  17.052  0.1270  0.3075 -0.4478
  221MPD1    C2 3408   4.096   0.815  16.968 -0.4576 -0.0995  0.8692
  221MPD1    C3 3409   4.136   0.691  16.951  0.8916  0.2238  0.2223
  221MPD1    C4 3410   4.061   0.591  17.007  0.5935  0.1925  0.2850
  221MPD1    C5 3411   3.955   0.620  17.088 -0.2279  0.0902 -0.0689
  221MPD1     H 3412   4.151   0.902  16.933 -0.6904 -0.4486 -0.3645
  221MPD1    H1 3413   4.074   0.484  16.995  2.3445  0.5029 -0.5190
  221MPD1    H2 3414   3.830   0.767  17.165  2.0238  0.6893  2.3927
  221MPD1    H3 3415   3.897   0.541  17.135 -0.1763  0.9399  1.4279
  221MPD1     N 3416   4.260   0.657  16.896 -0.7329 -0.0523 -0.7057
  221MPD1    H5 3417   4.279   0.558  16.891  1.2420  0.4207 -2.3747
  221MPD1    N1 3418   3.976   0.981  17.094 -0.0365  0.5036  0.3779
  221MPD1    H6 3419   3.882   1.013  17.116 -0.2114  0.2955 -0.0576
  221MPD1    H7 3420   4.008   1.049  17.025 -2.8646  0.5738 -0.8727
  222MPD1     C 3421   4.339   0.011  17.022 -0.3642  0.0627 -0.5496
  222MPD1    C1 3422   4.451   0.080  17.057 -0.6477 -0.3503  0.3415
  222MPD1    C2 3423   4.507   0.069  17.182  0.6333  0.3243 -0.2662
  222MPD1    C3 3424   4.449   4.726  17.273 -0.5392 -0.1222  1.1344
  222MPD1    C4 3425   4.332   4.662  17.239 -0.2427  0.0820  0.6521
  222MPD1    C5 3426   4.284   4.662  17.111 -0.3642 -0.5411  0.3559
  222MPD1     H 3427   4.598   0.123  17.206  0.9343 -0.1858 -0.2599
  222MPD1    H1 3428   4.273   4.615  17.316  0.6743 -0.9867  0.7158
  222MPD1    H2 3429   4.292   0.010  16.924 -3.0431  0.6416  0.7155
  222MPD1    H3 3430   4.203   4.595  17.084 -0.1508 -0.0655 -1.4931
  222MPD1     N 3431   4.492   4.724  17.407 -0.2451 -0.0839 -0.4420
  222MPD1    H5 3432   4.569   0.044  17.437 -1.1049  0.6159  0.4187
  222MPD1    N1 3433   4.519   0.143  16.956  0.3081  0.2471 -0.0846
  222MPD1    H6 3434   4.527   0.080  16.877  1.8994 -0.3990  0.5746
  222MPD1    H7 3435   4.609   0.180  16.988  0.6571 -1.4002  0.8230
  223MPD1     C 3436   4.537   4.002   0.305 -0.7877  0.2258 -0.6017
  223MPD1    C1 3437   4.421   4.040   0.244  0.5677 -0.3573 -1.6008
  223MPD1    C2 3438   4.401   4.171   0.196 -0.5768  0.7864  0.5643
  223MPD1    C3 3439   4.502   4.262   0.213 -0.0858  0.4439  0.3397
  223MPD1    C4 3440   4.620   4.224   0.276  0.0155  0.0272  0.2954
  223MPD1    C5 3441   4.638   4.094   0.317 -0.0652  0.4265  0.2274
  223MPD1     H 3442   4.313   4.191   0.136 -0.0986 -0.0424 -0.4114
  223MPD1    H1 3443   4.704   4.291   0.286 -0.3406  0.4316  0.6002
  223MPD1    H2 3444   4.559   3.898   0.327 -0.7467 -0.0646 -2.0071
  223MPD1    H3 3445   4.732   4.064   0.364 -0.0471 -0.4676 -0.3826
  223MPD1     N 3446   4.496   4.382   0.154  0.5653  0.3323 -0.2742
  223MPD1    H5 3447   4.425   4.407   0.085 -0.4575 -1.3701  0.1668
  223MPD1    N1 3448   4.321   3.941   0.229  0.3746 -0.1472 -0.2162
  223MPD1    H6 3449   4.269   3.959   0.143  0.5408  1.7365  0.0771
  223MPD1    H7 3450   4.369   3.853   0.215  1.7310  0.9336 -2.3790
  224MPD1     C 3451   1.368   1.317  10.201 -0.0653 -0.3626 -0.7677
  224MPD1    C1 3452   1.382   1.318  10.067 -0.4242 -0.1325 -0.3339
  224MPD1    C2 3453   1.309   1.236   9.992 -0.3504  0.0747 -0.9722
  224MPD1    C3 3454   1.224   1.148  10.057 -0.7305  0.1846 -0.1177
  224MPD1    C4 3455   1.228   1.130  10.192 -0.1028 -0.4353 -0.7679
  224MPD1    C5 3456   1.302   1.219  10.267  0.2882 -0.6152 -0.5978
  224MPD1     H 3457   1.323   1.236   9.884 -0.3381  1.0832 -0.9714
  224MPD1    H1 3458   1.174   1.059  10.253  0.4035  1.2815  1.6963
  224MPD1    H2 3459   1.436   1.373  10.263 -1.3194  1.1024 -0.7182
  224MPD1    H3 3460   1.310   1.215  10.375 -0.6421 -1.6232 -0.5608
  224MPD1     N 3461   1.140   1.050   9.989  0.2047 -0.9151  0.3955
  224MPD1    H5 3462   1.073   1.003  10.048 -0.6295 -2.0009 -1.4072
  224MPD1    N1 3463   1.467   1.416  10.011  0.1891 -0.2260 -0.4869
  224MPD1    H6 3464   1.525   1.463  10.080 -0.1339  0.6858 -0.8284
  224MPD1    H7 3465   1.531   1.372   9.945 -1.1819 -3.2805  0.2546
  225MPD1     C 3466   2.146   1.384  12.874  0.2715  0.0449 -0.0441
  225MPD1    C1 3467   2.124   1.524  12.873 -0.5848  0.2647  0.0911
  225MPD1    C2 3468   2.021   1.565  12.787 -0.3195 -0.5404  0.1759
  225MPD1    C3 3469   1.961   1.480  12.699  0.1242 -0.3851  1.1222
  225MPD1    C4 3470   2.003   1.349  12.694  0.3641  0.7208 -0.1697
  225MPD1    C5 3471   2.080   1.295  12.789  0.2558  0.2976 -0.1197
  225MPD1     H 3472   1.995   1.671  12.785 -1.0875 -0.7226  0.8385
  225MPD1    H1 3473   1.949   1.286  12.623 -2.7767  3.0290  0.1484
  225MPD1    H2 3474   2.220   1.340  12.941  0.0211 -0.0429  0.1746
  225MPD1    H3 3475   2.110   1.191  12.792 -1.2570 -0.0548  2.0310
  225MPD1     N 3476   1.872   1.525  12.604 -0.8366  0.2089 -1.0411
  225MPD1    H5 3477   1.842   1.458  12.533  1.3357  1.5276 -3.1964
  225MPD1    N1 3478   2.181   1.605  12.977 -0.0786 -0.4190 -0.7075
  225MPD1    H6 3479   2.270   1.561  12.998  0.3197 -0.6238 -2.8926
  225MPD1    H7 3480   2.192   1.702  12.948 -0.3214 -0.2508 -0.2513
  226MPD1     C 3481   2.333   2.694   9.889 -0.2382 -0.0909  0.2175
  226MPD1    C1 3482   2.229   2.626   9.944  0.4689  0.2713  0.3887
  226MPD1    C2 3483   2.235   2.492   9.975 -0.3677 -0.5225 -0.1362
  226MPD1    C3 3484   2.341   2.420   9.926 -0.0541 -0.4414 -0.8319
  226MPD1    C4 3485   2.451   2.490   9.871 -0.0047  0.2924 -0.1757
  226MPD1    C5 3486   2.446   2.629   9.861 -0.3261  0.2254 -0.1490
  226MPD1     H 3487   2.151   2.432  10.007 -1.2451 -0.0778 -1.5765
  226MPD1    H1 3488   2.542   2.439   9.841  0.8064  3.6285 -3.4738
  226MPD1    H2 3489   2.319   2.801   9.876 -2.9546 -0.5291 -0.4989
  226MPD1    H3 3490   2.535   2.679   9.826  0.3581 -0.0538  1.2005
  226MPD1     N 3491   2.336   2.283   9.951  0.5643  0.6323  0.2130
  226MPD1    H5 3492   2.262   2.246  10.009  2.3737  1.1643  2.8480
  226MPD1    N1 3493   2.102   2.696   9.944 -0.6341 -0.3419 -0.4066
  226MPD1    H6 3494   2.034   2.650  10.004  0.0289 -1.6614 -0.6536
  226MPD1    H7 3495   2.113   2.794   9.968  0.4320 -0.1746 -1.5308
  227MPD1     C 3496   2.003   2.026  10.645 -0.2663  0.3932  0.0095
  227MPD1    C1 3497   1.983   2.127  10.551 -0.2591  0.0995  0.2987
  227MPD1    C2 3498   2.048   2.104  10.431 -0.4357  0.2241 -0.1021
  227MPD1    C3 3499   2.127   1.994  10.406 -0.2665 -0.3382  0.3147
  227MPD1    C4 3500   2.142   1.895  10.502 -0.4658 -0.6011 -0.0858
  227MPD1    C5 3501   2.078   1.917  10.618  0.6808 -0.3642 -0.1811
  227MPD1     H 3502   2.021   2.176  10.355  1.9059  1.1323 -0.0668
  227MPD1    H1 3503   2.199   1.803  10.496  1.2437  0.5422 -1.0913
  227MPD1    H2 3504   1.961   2.024  10.744 -1.0735 -1.0950 -0.3613
  227MPD1    H3 3505   2.083   1.832  10.685  0.8424 -1.0185 -1.0239
  227MPD1     N 3506   2.180   1.987  10.275  0.2208  0.3818  0.0058
  227MPD1    H5 3507   2.152   2.066  10.218 -0.8733  2.0524  2.8220
  227MPD1    N1 3508   1.913   2.240  10.576  0.0568  0.4449 -0.1829
  227MPD1    H6 3509   1.883   2.277  10.486 -1.3256 -3.6679 -1.4100
  227MPD1    H7 3510   1.830   2.226  10.634  0.1605  1.5321  0.2328
  228MPD1     C 3511   4.039   4.239  12.806 -0.1455  0.3448 -0.7197
  228MPD1    C1 3512   3.914   4.266  12.748 -0.5653  0.0237 -0.1406
  228MPD1    C2 3513   3.807   4.289  12.836 -0.0336 -0.3808 -0.0172
  228MPD1    C3 3514   3.817   4.268  12.969  0.5038  0.3815  0.6747
  228MPD1    C4 3515   3.941   4.245  13.022 -0.9125 -0.3683 -0.1329
  228MPD1    C5 3516   4.051   4.231  12.945 -0.4709  0.0628 -0.3518
  228MPD1     H 3517   3.709   4.285  12.791 -1.0445  1.9756  1.9842
  228MPD1    H1 3518   3.962   4.250  13.128 -0.6495 -0.3133 -0.1863
  228MPD1    H2 3519   4.131   4.237  12.750  0.3477  1.8696  0.0344
  228MPD1    H3 3520   4.150   4.216  12.987 -0.8081  0.7887  0.6839
  228MPD1     N 3521   3.704   4.288  13.045 -0.0341 -0.2678 -0.2133
  228MPD1    H5 3522   3.618   4.322  13.004  0.8801  1.3566 -0.7963
  228MPD1    N1 3523   3.901   4.277  12.608  0.4181 -0.5242 -0.3281
  228MPD1    H6 3524   3.964   4.217  12.556 -0.7576 -2.3170  0.3527
  228MPD1    H7 3525   3.808   4.249  12.577  1.3886 -1.9118 -1.9402
  229MPD1     C 3526   3.335   3.327  15.893 -0.1252 -0.7740  0.3575
  229MPD1    C1 3527   3.313   3.234  15.790 -0.1966 -0.2518  0.9079
  229MPD1    C2 3528   3.428   3.196  15.717  1.4091 -0.4676 -0.8186
  229MPD1    C3 3529   3.558   3.220  15.769  0.0813 -0.4696 -0.1266
  229MPD1    C4 3530   3.573   3.299  15.880 -0.0399 -0.5300  0.5361
  229MPD1    C5 3531   3.461   3.351  15.940 -0.3903 -0.0242 -0.2478
  229MPD1     H 3532   3.403   3.143  15.626  0.1183 -3.0753  1.0306
  229MPD1    H1 3533   3.667   3.327  15.925 -0.5845  0.1937  1.2328
  229MPD1    H2 3534   3.251   3.372  15.945 -0.3348  1.9433 -2.3493
  229MPD1    H3 3535   3.486   3.426  16.013  0.9078 -1.2335  0.5400
  229MPD1     N 3536   3.672   3.163  15.710  0.1043 -0.3768  0.6476
  229MPD1    H5 3537   3.757   3.162  15.765  0.8880 -0.3383 -0.5380
  229MPD1    N1 3538   3.185   3.207  15.741  0.0841 -0.2165  0.1196
  229MPD1    H6 3539   3.115   3.215  15.815  1.2123  1.7191  0.9775
  229MPD1    H7 3540   3.182   3.110  15.710  0.5999  0.7882 -3.0441
  230MPD1     C 3541   4.527   2.764  15.935  0.4013  0.6213 -0.5210
  230MPD1    C1 3542   4.553   2.771  15.804 -0.0625 -0.0522 -0.9178
  230MPD1    C2 3543   4.447   2.796  15.718  0.3412 -0.3353 -0.1086
  230MPD1    C3 3544   4.323   2.826  15.765 -0.3662  0.5636 -0.5742
  230MPD1    C4 3545   4.303   2.830  15.898 -0.4775  0.6227 -0.0666
  230MPD1    C5 3546   4.407   2.812  15.982  0.3015  0.6218  0.6360
  230MPD1     H 3547   4.459   2.786  15.611  1.5435  0.1338 -0.0209
  230MPD1    H1 3548   4.208   2.856  15.944 -0.0389  1.8589  0.1368
  230MPD1    H2 3549   4.611   2.759  16.004  0.8235 -1.9065 -1.2249
  230MPD1    H3 3550   4.395   2.821  16.089 -0.4643  2.3276  0.4037
  230MPD1     N 3551   4.213   2.846  15.677 -0.1049 -0.2156 -0.5038
  230MPD1    H5 3552   4.227   2.843  15.577  1.8450 -1.0952 -0.2132
  230MPD1    N1 3553   4.676   2.718  15.758 -0.0606  0.4044 -0.4581
  230MPD1    H6 3554   0.009   2.751  15.822 -1.8226 -0.6403  2.0806
  230MPD1    H7 3555   4.700   2.755  15.667  0.8649 -0.5017 -0.5759
  231MPD1     C 3556   1.815   0.239  15.654  0.2195  0.1624 -0.4566
  231MPD1    C1 3557   1.801   0.303  15.534 -0.0325 -0.5304 -0.1234
  231MPD1    C2 3558   1.902   0.280  15.446 -0.4926  0.2733  0.1559
  231MPD1    C3 3559   2.015   0.200  15.473  0.3623 -0.5381 -0.3053
  231MPD1    C4 3560   2.014   0.123  15.579 -0.0365 -0.0859  0.1822
  231MPD1    C5 3561   1.910   0.144  15.666  0.0439 -0.0410  0.0464
  231MPD1     H 3562   1.896   0.332  15.351 -0.9231  0.9657  0.5646
  231MPD1    H1 3563   2.093   0.054  15.605  1.4187  0.0394 -3.9284
  231MPD1    H2 3564   1.743   0.270  15.729 -0.4993 -0.5011 -0.8771
  231MPD1    H3 3565   1.910   0.076  15.749  0.0534 -1.1594 -0.8694
  231MPD1     N 3566   2.113   0.199  15.372 -0.2489 -0.0459 -0.3739
  231MPD1    H5 3567   2.103   0.266  15.296 -0.4383  1.0345  0.6096
  231MPD1    N1 3568   1.714   0.418  15.524 -0.9259 -0.0612  0.8776
  231MPD1    H6 3569   1.630   0.424  15.581 -1.1848 -2.8692  0.7993
  231MPD1    H7 3570   1.689   0.422  15.425 -1.7957 -0.3972  1.0875
  232MPD1     C 3571   3.729   3.042   0.857  0.0407  0.1112 -0.1780
  232MPD1    C1 3572   3.626   3.134   0.834 -0.3433 -0.4507  0.4410
  232MPD1    C2 3573   3.529   3.092   0.749 -0.4479  0.6332 -1.2472
  232MPD1    C3 3574   3.527   2.961   0.694 -0.2203 -0.8843 -0.5361
  232MPD1    C4 3575   3.626   2.873   0.727  0.2353 -0.0305 -0.1143
  232MPD1    C5 3576   3.731   2.915   0.802 -0.3925 -0.0162  0.0657
  232MPD1     H 3577   3.464   3.167   0.704 -1.6738  0.9328  1.0367
  232MPD1    H1 3578   3.631   2.772   0.688  0.6064  0.4774 -1.3813
  232MPD1    H2 3579   3.813   3.065   0.921  1.3324 -1.6534 -1.2522
  232MPD1    H3 3580   3.817   2.851   0.816 -0.5846 -0.5547 -1.1291
  232MPD1     N 3581   3.421   2.930   0.606 -0.1331  0.0032  0.3774
  232MPD1    H5 3582   3.348   2.999   0.590  0.1804  0.5673  1.3809
  232MPD1    N1 3583   3.643   3.271   0.857 -0.2958 -0.1784  0.0738
  232MPD1    H6 3584   3.679   3.285   0.951 -0.8738  3.2942 -0.2236
  232MPD1    H7 3585   3.551   3.314   0.858 -0.6120 -0.8511 -0.3011
  233MPD1     C 3586   0.901   1.732   1.819 -0.2336 -0.2701 -0.5016
  233MPD1    C1 3587   0.955   1.614   1.858 -0.1698 -0.6420  0.2531
  233MPD1    C2 3588   0.875   1.500   1.843 -0.4885 -0.1292  0.2488
  233MPD1    C3 3589   0.755   1.506   1.775  0.5946  0.0875 -0.1792
  233MPD1    C4 3590   0.729   1.626   1.701  0.3966 -0.1551  0.7112
  233MPD1    C5 3591   0.793   1.734   1.735 -0.7285 -0.1257  0.0822
  233MPD1     H 3592   0.910   1.399   1.864  0.7763  0.7869  2.4712
  233MPD1    H1 3593   0.647   1.630   1.630  2.4972 -0.4131 -1.7401
  233MPD1    H2 3594   0.955   1.823   1.840  0.7300 -0.7417 -0.9502
  233MPD1    H3 3595   0.754   1.828   1.698  1.3352  1.0388  0.8775
  233MPD1     N 3596   0.672   1.389   1.755  0.1487 -0.5495  0.0338
  233MPD1    H5 3597   0.596   1.392   1.688  1.0027  0.6135 -0.8853
  233MPD1    N1 3598   1.073   1.615   1.939  0.5796 -0.5295 -0.3514
  233MPD1    H6 3599   1.126   1.528   1.940  0.0543 -0.8396  0.8361
  233MPD1    H7 3600   1.140   1.688   1.915 -0.0853  0.1249 -0.1917
  234MPD1     C 3601   0.953   4.585   8.259 -0.7002 -0.6533 -0.0648
  234MPD1    C1 3602   0.840   4.626   8.325  0.3713 -0.2884  0.0079
  234MPD1    C2 3603   0.858   4.680   8.455  0.6628 -0.0535 -0.7270
  234MPD1    C3 3604   0.968   4.654   8.532 -0.2768 -0.1120 -0.8732
  234MPD1    C4 3605   1.068   4.587   8.480  0.1327 -0.6893 -0.1309
  234MPD1    C5 3606   1.057   4.553   8.343  0.7989  0.6288 -0.3950
  234MPD1     H 3607   0.772   4.725   8.504  1.3722  0.7249 -0.2035
  234MPD1    H1 3608   1.153   4.554   8.538  0.5650  0.1577 -0.2846
  234MPD1    H2 3609   0.943   4.564   8.154  0.0101  3.7941 -1.0031
  234MPD1    H3 3610   1.143   4.510   8.294 -0.5033 -0.6538 -1.5557
  234MPD1     N 3611   0.964   4.700   8.662  0.3508  0.8419 -0.3568
  234MPD1    H5 3612   0.876   0.002   8.694 -0.6007 -1.8672  0.4627
  234MPD1    N1 3613   0.717   4.639   8.247 -0.2695 -0.0729 -0.9118
  234MPD1    H6 3614   0.637   4.642   8.310 -0.4761  0.5377 -1.2123
  234MPD1    H7 3615   0.706   4.560   8.184  2.1013 -0.9567 -0.2575
  235MPD1     C 3616   2.900   2.212  11.115 -0.4910  0.0393  0.4279
  235MPD1    C1 3617   2.898   2.239  10.977  0.3363 -0.0084 -0.0202
  235MPD1    C2 3618   2.988   2.327  10.919  0.8803  0.3987 -0.2604
  235MPD1    C3 3619   3.042   2.422  10.997 -0.1809  0.1824 -0.1273
  235MPD1    C4 3620   3.020   2.420  11.135 -0.5440  0.3027 -0.0719
  235MPD1    C5 3621   2.963   2.308  11.193  0.2502  0.0201  0.4312
  235MPD1     H 3622   2.992   2.344  10.812 -0.1906  0.5413 -0.2784
  235MPD1    H1 3623   3.050   2.504  11.197 -0.3394 -1.4442  2.1709
  235MPD1    H2 3624   2.846   2.131  11.162  0.1941  0.1902  1.4896
  235MPD1    H3 3625   2.951   2.300  11.301 -2.3339 -1.3617  0.0170
  235MPD1     N 3626   3.106   2.523  10.929 -0.5879 -0.5296 -0.5603
  235MPD1    H5 3627   3.112   2.515  10.828  0.9521 -2.8431 -0.2775
  235MPD1    N1 3628   2.838   2.143  10.884 -1.0738 -0.2248  0.1598
  235MPD1    H6 3629   2.826   2.172  10.787  3.2139  0.5697 -0.1244
  235MPD1    H7 3630   2.752   2.104  10.923 -0.5048 -0.3874  1.2641
  236MPD1     C 3631   1.664   3.362  10.101  0.0433 -0.4032 -0.1663
  236MPD1    C1 3632   1.732   3.244  10.112  0.9861  0.1633  0.4733
  236MPD1    C2 3633   1.823   3.229  10.215  0.2436  0.3625 -0.0978
  236MPD1    C3 3634   1.842   3.329  10.311 -0.1962  1.1952  0.0819
  236MPD1    C4 3635   1.771   3.444  10.302 -0.3814 -0.2293 -0.0513
  236MPD1    C5 3636   1.692   3.457  10.195 -0.4260 -0.3800  0.3726
  236MPD1     H 3637   1.879   3.136  10.226  0.7303  0.9252  2.2848
  236MPD1    H1 3638   1.790   3.529  10.367 -2.6246 -0.3691  0.7861
  236MPD1    H2 3639   1.607   3.396  10.016 -1.4751 -0.4182  0.8477
  236MPD1    H3 3640   1.634   3.548  10.190 -1.6794 -1.1102  1.7998
  236MPD1     N 3641   1.920   3.319  10.426 -0.1121 -0.7144  0.3663
  236MPD1    H5 3642   1.918   3.390  10.498  1.0147 -1.1303  0.8019
  236MPD1    N1 3643   1.710   3.139  10.021  0.0747  0.6585 -0.6183
  236MPD1    H6 3644   1.614   3.140   9.986  0.5673 -1.5488 -2.0697
  236MPD1    H7 3645   1.744   3.045  10.042 -0.2509  0.9308  1.1108
  237MPD1     C 3646   2.525   1.676  15.148  0.7288  0.0474  1.0437
  237MPD1    C1 3647   2.440   1.727  15.046 -0.4494 -0.6994  0.0092
  237MPD1    C2 3648   2.311   1.690  15.040 -0.3630  0.1585  0.1404
  237MPD1    C3 3649   2.258   1.602  15.131 -0.0916  0.1085 -0.2056
  237MPD1    C4 3650   2.339   1.556  15.231 -0.3002 -0.0225  0.0739
  237MPD1    C5 3651   2.471   1.591  15.235  0.2398 -0.0207 -0.4026
  237MPD1     H 3652   2.251   1.731  14.960 -1.1382  1.3379  1.3225
  237MPD1    H1 3653   2.297   1.485  15.301  0.7549 -1.1403 -0.4259
  237MPD1    H2 3654   2.629   1.705  15.152  0.6094  0.8480 -1.1283
  237MPD1    H3 3655   2.529   1.552  15.318 -0.8947 -0.1669  0.3224
  237MPD1     N 3656   2.129   1.540  15.120  0.4050 -0.0761 -0.0879
  237MPD1    H5 3657   2.097   1.468  15.184  0.2322 -0.3171 -0.4479
  237MPD1    N1 3658   2.480   1.834  14.963 -0.2482  0.3828  0.0633
  237MPD1    H6 3659   2.428   1.831  14.876  2.7642  0.1225 -1.7113
  237MPD1    H7 3660   2.581   1.840  14.951 -0.2313  0.5330  0.2819
  238MPD1     C 3661   4.360   4.368  14.666  0.0924  0.4530  0.2183
  238MPD1    C1 3662   4.292   4.317  14.772 -0.4878  0.4718 -0.0389
  238MPD1    C2 3663   4.186   4.389  14.814  0.7440 -0.2024  0.0309
  238MPD1    C3 3664   4.147   4.514  14.759 -0.2163 -0.5087  1.1912
  238MPD1    C4 3665   4.215   4.552  14.652  0.3548  0.5641 -0.9512
  238MPD1    C5 3666   4.322   4.484  14.606 -0.2580  0.6611  0.1781
  238MPD1     H 3667   4.119   4.339  14.883  1.0937 -0.7603 -0.0258
  238MPD1    H1 3668   4.193   4.646  14.602 -2.1344  1.0295  1.0441
  238MPD1    H2 3669   4.445   4.322  14.618 -0.7975 -1.3959  0.4393
  238MPD1    H3 3670   4.367   4.527  14.517 -1.1478 -2.3903 -1.7547
  238MPD1     N 3671   4.054   4.607  14.808  0.1228 -1.0095 -0.4142
  238MPD1    H5 3672   4.053   4.703  14.776 -0.0849 -1.1005 -0.6789
  238MPD1    N1 3673   4.312   4.184  14.808  0.1173  0.3174  0.4236
  238MPD1    H6 3674   4.411   4.161  14.798  0.1565 -0.0889  1.7066
  238MPD1    H7 3675   4.287   4.168  14.906 -1.5268 -0.7422 -0.1705
  239MPD1     C 3676   4.340   1.688  15.210 -0.1099  0.5948 -0.1477
  239MPD1    C1 3677   4.264   1.574  15.240  0.4855 -0.6005 -0.2948
  239MPD1    C2 3678   4.173   1.527  15.139  0.2564  0.0262 -0.3420
  239MPD1    C3 3679   4.172   1.579  15.014 -0.4515 -0.7926 -0.3838
  239MPD1    C4 3680   4.237   1.701  14.995 -0.5102 -0.0131  0.5613
  239MPD1    C5 3681   4.309   1.753  15.097 -0.2254 -0.0436 -0.2228
  239MPD1     H 3682   4.109   1.444  15.167  0.9153  0.3132  2.0284
  239MPD1    H1 3683   4.235   1.753  14.900  0.7450 -0.7991  0.0985
  239MPD1    H2 3684   4.403   1.735  15.285 -1.7330  1.5305  0.6185
  239MPD1    H3 3685   4.351   1.852  15.083  1.6466 -0.7187  0.6965
  239MPD1     N 3686   4.095   1.540  14.910 -0.2889 -0.0257  0.1375
  239MPD1    H5 3687   4.087   1.608  14.835  0.9940  0.7464  0.7122
  239MPD1    N1 3688   4.283   1.495  15.358  0.1143 -0.2930 -0.3375
  239MPD1    H6 3689   4.202   1.454  15.404 -1.0513  0.6957 -1.5163
  239MPD1    H7 3690   4.334   1.546  15.431 -0.0028 -0.7206  0.0405
  240MPD1     C 3691   3.802   0.863  14.033 -0.6421 -0.2286 -0.1259
  240MPD1    C1 3692   3.670   0.888  14.065 -0.5889 -0.0510  0.3173
  240MPD1    C2 3693   3.648   0.895  14.199 -0.0496 -0.3498 -0.3937
  240MPD1    C3 3694   3.743   0.850  14.291 -0.2935 -0.4046 -0.2058
  240MPD1    C4 3695   3.870   0.818  14.251 -0.4834  0.1001 -0.2362
  240MPD1    C5 3696   3.896   0.814  14.113 -0.0528  0.1377 -0.0195
  240MPD1     H 3697   3.556   0.937  14.239  0.5678  0.8306 -0.1951
  240MPD1    H1 3698   3.945   0.772  14.315 -0.5251  1.2857  0.6593
  240MPD1    H2 3699   3.831   0.882  13.930  1.3099 -1.0933  0.2703
  240MPD1    H3 3700   3.995   0.810  14.069 -0.5420 -0.5289 -1.0626
  240MPD1     N 3701   3.704   0.837  14.430  0.1956 -0.2496 -0.9508
  240MPD1    H5 3702   3.607   0.854  14.453  0.7750 -0.8377  1.9497
  240MPD1    N1 3703   3.584   0.935  13.968  0.2013 -0.1091 -0.0919
  240MPD1    H6 3704   3.487   0.908  13.984  0.4047  0.2280  1.6429
  240MPD1    H7 3705   3.610   0.906  13.873 -2.5372  1.2710 -1.2624
  241MPD1     C 3706   3.923   0.666  15.482 -0.5294 -0.1836  0.4263
  241MPD1    C1 3707   4.006   0.626  15.378 -0.2164 -0.0781 -0.3384
  241MPD1    C2 3708   3.959   0.634  15.246 -0.5360  0.5478 -0.2514
  241MPD1    C3 3709   3.827   0.666  15.223 -0.2178 -0.6127 -1.0585
  241MPD1    C4 3710   3.750   0.706  15.330 -0.2605 -0.3954  1.1607
  241MPD1    C5 3711   3.792   0.698  15.458  0.4028 -0.0179 -0.5036
  241MPD1     H 3712   4.019   0.599  15.162  0.7499  1.3540  0.3367
  241MPD1    H1 3713   3.652   0.743  15.302  0.2912 -0.9850 -1.4769
  241MPD1    H2 3714   3.972   0.668  15.579  1.3284  1.1464 -0.5425
  241MPD1    H3 3715   3.732   0.738  15.539 -0.0685  1.9612 -1.8337
  241MPD1     N 3716   3.761   0.660  15.097  0.2526 -0.2308  0.6953
  241MPD1    H5 3717   3.661   0.675  15.099 -0.0300 -2.1218  0.1945
  241MPD1    N1 3718   4.142   0.607  15.399  0.0104  0.4386  0.0746
  241MPD1    H6 3719   4.188   0.535  15.345 -1.7802  0.5943 -1.6765
  241MPD1    H7 3720   4.169   0.586  15.495 -1.4842  0.9380  0.6101
  242MPD1     C 3721   2.817   2.967  15.937  0.0792  0.2891 -0.7141
  242MPD1    C1 3722   2.850   3.066  16.030  0.4613  0.2150  0.1436
  242MPD1    C2 3723   2.863   3.192  15.976 -0.1367  0.2578 -0.1789
  242MPD1    C3 3724   2.873   3.215  15.838  0.0488  0.4060  0.4984
  242MPD1    C4 3725   2.847   3.109  15.755  0.0629  0.1930  0.0451
  242MPD1    C5 3726   2.815   2.988  15.806  0.2551 -0.3599  0.2150
  242MPD1     H 3727   2.863   3.274  16.047  1.9385 -0.0499  0.1887
  242MPD1    H1 3728   2.851   3.117  15.647 -0.8082  0.9001  0.0698
  242MPD1    H2 3729   2.801   2.864  15.970  2.0079  0.1104 -0.3452
  242MPD1    H3 3730   2.798   2.900  15.745 -0.1248 -0.4052  0.3841
  242MPD1     N 3731   2.909   3.341  15.785  0.0049  0.0850  0.0398
  242MPD1    H5 3732   2.915   3.355  15.685  0.1942  0.4816  0.1066
  242MPD1    N1 3733   2.863   3.044  16.169  0.6600  0.2895 -0.1045
  242MPD1    H6 3734   2.922   3.115  16.211  1.1859  1.3042 -2.5679
  242MPD1    H7 3735   2.900   2.955  16.204 -1.3926 -0.9883 -1.1490
  243MPD1     C 3736   3.917   3.219   0.368 -0.7054 -0.3818 -0.3146
  243MPD1    C1 3737   3.986   3.111   0.422  0.2790 -0.0475  0.0095
  243MPD1    C2 3738   4.073   3.031   0.338  0.0568  0.5279  0.3216
  243MPD1    C3 3739   4.087   3.073   0.205 -0.4157 -0.2164 -0.5870
  243MPD1    C4 3740   4.021   3.185   0.161  0.1159 -0.5332  0.0776
  243MPD1    C5 3741   3.943   3.259   0.247  0.6622  0.0020  0.4143
  243MPD1     H 3742   4.110   2.934   0.368 -1.9942 -0.2371  0.4147
  243MPD1    H1 3743   4.028   3.228   0.062  2.3144  1.3390  1.0582
  243MPD1    H2 3744   3.852   3.279   0.431 -0.7445  0.2552 -0.9607
  243MPD1    H3 3745   3.893   3.351   0.219  1.0069  0.0479 -0.0522
  243MPD1     N 3746   4.175   3.002   0.120  0.1663  0.3154 -0.4436
  243MPD1    H5 3747   4.233   2.926   0.153  0.1179  0.2678 -0.4671
  243MPD1    N1 3748   3.948   3.065   0.547  0.3776 -0.0100  0.4407
  243MPD1    H6 3749   4.027   3.030   0.601 -1.5035  0.6732  3.6675
  243MPD1    H7 3750   3.902   3.132   0.608 -0.4403 -0.6157  0.4864
  244MPD1     C 3751   4.299   2.124   0.123 -0.0524 -0.0769 -0.5499
  244MPD1    C1 3752   4.224   2.212   0.189 -0.7604 -0.0698 -0.2225
  244MPD1    C2 3753   4.227   2.342   0.140  0.2798 -0.0480 -0.2793
  244MPD1    C3 3754   4.295   2.376   0.023 -0.2707 -0.2761  0.7072
  244MPD1    C4 3755   4.373   2.284  17.718 -0.0437  0.1256 -0.1911
  244MPD1    C5 3756   4.369   2.160   0.016 -0.6089  0.4560  0.1113
  244MPD1     H 3757   4.182   2.419   0.202 -1.7827 -1.4912 -0.0106
  244MPD1    H1 3758   4.440   2.304  17.635 -0.1137  1.1099 -0.0110
  244MPD1    H2 3759   4.313   2.021   0.153  3.1148 -0.6358 -3.8530
  244MPD1    H3 3760   4.437   2.087  17.725  0.1668  1.1726  0.1248
  244MPD1     N 3761   4.284   2.511  17.740 -0.6202 -0.0334 -0.0688
  244MPD1    H5 3762   4.210   2.565   0.032 -2.1058 -2.7194  0.7359
  244MPD1    N1 3763   4.179   2.175   0.320  0.3557 -0.0967  0.3439
  244MPD1    H6 3764   4.143   2.080   0.322  1.2715 -0.4879 -1.6321
  244MPD1    H7 3765   4.113   2.247   0.349 -0.5109 -0.8443  0.2628
  245MPD1     C 3766   1.307   2.891  13.765  0.0001  0.5273  0.3597
  245MPD1    C1 3767   1.426   2.826  13.781  1.1325  0.2785 -0.3025
  245MPD1    C2 3768   1.544   2.900  13.793 -0.0421  0.5288  0.3905
  245MPD1    C3 3769   1.535   3.042  13.791  0.5981 -0.6888 -0.1546
  245MPD1    C4 3770   1.411   3.101  13.796  0.7208 -0.0035 -0.8503
  245MPD1    C5 3771   1.298   3.026  13.787  0.0251 -0.0779  0.6511
  245MPD1     H 3772   1.642   2.855  13.791  0.6233  1.9323  2.2778
  245MPD1    H1 3773   1.403   3.209  13.803  1.0489  0.0978 -2.0679
  245MPD1    H2 3774   1.213   2.838  13.758  0.3071  0.0792 -0.3593
  245MPD1    H3 3775   1.199   3.071  13.797  0.0311 -0.2686  1.5461
  245MPD1     N 3776   1.656   3.113  13.776 -0.6558  0.0595 -0.4207
  245MPD1    H5 3777   1.748   3.071  13.782  0.4848  2.3534 -2.1505
  245MPD1    N1 3778   1.438   2.686  13.754  0.2578 -0.0306  0.5044
  245MPD1    H6 3779   1.352   2.645  13.789 -0.0418 -0.1561 -0.3713
  245MPD1    H7 3780   1.515   2.647  13.809  0.6069  0.0293  0.0599
  246MPD1     C 3781   3.624   2.660  10.665 -0.0415 -0.0203 -0.2681
  246MPD1    C1 3782   3.668   2.711  10.545 -0.5181  0.4774 -0.2566
  246MPD1    C2 3783   3.587   2.719  10.436 -0.5666  0.5175  0.0362
  246MPD1    C3 3784   3.463   2.661  10.444 -0.0380  0.3037  0.0587
  246MPD1    C4 3785   3.428   2.597  10.559  0.0232  0.5622  0.1856
  246MPD1    C5 3786   3.504   2.603  10.677 -0.0557  0.4647  0.1889
  246MPD1     H 3787   3.620   2.768  10.346 -0.8546  0.4256 -0.1224
  246MPD1    H1 3788   3.328   2.554  10.565  0.5470 -0.7201 -0.3678
  246MPD1    H2 3789   3.694   2.654  10.748  1.1499  0.1557 -1.2569
  246MPD1    H3 3790   3.469   2.553  10.767  0.0372  3.2463  1.7864
  246MPD1     N 3791   3.374   2.675  10.339 -1.1013  0.1370  0.4040
  246MPD1    H5 3792   3.420   2.712  10.257  0.6597  0.2557  1.4476
  246MPD1    N1 3793   3.786   2.789  10.549  0.6770 -0.6005  0.3846
  246MPD1    H6 3794   3.858   2.746  10.607  2.0821  1.8379  0.4481
  246MPD1    H7 3795   3.828   2.797  10.456  1.2052  1.6760  0.8187
  247MPD1     C 3796   1.239   2.516  16.848 -0.3844  0.6449 -0.2067
  247MPD1    C1 3797   1.307   2.628  16.790 -0.1522  0.5470 -0.9942
  247MPD1    C2 3798   1.284   2.665  16.659  0.0671 -0.3018 -0.0424
  247MPD1    C3 3799   1.207   2.583  16.579  0.1834  0.4502 -0.3722
  247MPD1    C4 3800   1.144   2.476  16.639  0.2782  0.8355 -0.0543
  247MPD1    C5 3801   1.162   2.435  16.772 -0.1412  0.0512 -0.0951
  247MPD1     H 3802   1.324   2.751  16.606 -0.9723  0.5530  0.5507
  247MPD1    H1 3803   1.081   2.414  16.577  0.1414  2.1030 -1.1722
  247MPD1    H2 3804   1.249   2.490  16.953  0.6457  1.2528 -0.1570
  247MPD1    H3 3805   1.110   2.351  16.816  0.3915 -0.5437 -0.5943
  247MPD1     N 3806   1.179   2.612  16.443  0.1428 -0.2564  0.4079
  247MPD1    H5 3807   1.117   2.547  16.395  0.2620 -0.6750  0.8092
  247MPD1    N1 3808   1.375   2.717  16.880 -0.3550  0.2132  0.5401
  247MPD1    H6 3809   1.395   2.664  16.965 -1.6074  1.4380  1.6110
  247MPD1    H7 3810   1.464   2.745  16.840  1.5282 -1.4538  3.6050
  248MPD1     C 3811   1.836   2.703   0.259  0.0638 -0.4673 -0.4700
  248MPD1    C1 3812   1.773   2.648   0.148  0.5820 -0.2006 -0.2155
  248MPD1    C2 3813   1.648   2.597   0.168  0.8063 -0.1436  0.1976
  248MPD1    C3 3814   1.576   2.618   0.280 -0.2590 -0.3548 -0.0898
  248MPD1    C4 3815   1.642   2.684   0.381  0.2605 -0.2155 -0.2268
  248MPD1    C5 3816   1.776   2.721   0.374 -0.1025 -0.1217  0.5215
  248MPD1     H 3817   1.607   2.536   0.088  0.3289  0.4975 -0.0476
  248MPD1    H1 3818   1.595   2.718   0.473 -0.8485 -1.4006 -0.3506
  248MPD1    H2 3819   1.942   2.726   0.262  0.1091 -0.6800 -0.4821
  248MPD1    H3 3820   1.833   2.757   0.458 -1.5275  3.0114  0.1275
  248MPD1     N 3821   1.449   2.563   0.298 -0.1181  0.0109 -0.4104
  248MPD1    H5 3822   1.414   2.515   0.216 -0.1754  1.8568 -1.4685
  248MPD1    N1 3823   1.845   2.610   0.033  0.3809 -0.5302  1.1236
  248MPD1    H6 3824   1.919   2.677   0.014  0.9348 -1.1558  1.0669
  248MPD1    H7 3825   1.784   2.612  17.704  3.7974  0.7783 -1.4079
  249MPD1     C 3826   3.050   1.728  10.679  0.0630  0.4149  0.2674
  249MPD1    C1 3827   2.998   1.762  10.555  0.7554  0.3990  0.0696
  249MPD1    C2 3828   3.081   1.823  10.464  0.0720 -0.2061 -0.3245
  249MPD1    C3 3829   3.216   1.839  10.480 -0.4808 -0.4080 -0.0360
  249MPD1    C4 3830   3.265   1.794  10.600 -0.4054 -0.1789 -0.0735
  249MPD1    C5 3831   3.183   1.741  10.697  0.0807  0.1399 -0.4066
  249MPD1     H 3832   3.033   1.856  10.373  0.7217  0.9914 -0.2341
  249MPD1    H1 3833   3.371   1.787  10.618 -0.5441 -0.0794  0.7862
  249MPD1    H2 3834   2.981   1.693  10.755 -0.4867  0.9807  0.0275
  249MPD1    H3 3835   3.219   1.713  10.795  2.2548  2.1140 -0.6294
  249MPD1     N 3836   3.298   1.883  10.379 -0.1483 -0.8158  0.0424
  249MPD1    H5 3837   3.261   1.881  10.285  1.4429  1.1447 -0.6291
  249MPD1    N1 3838   2.858   1.771  10.538 -1.1029  0.1274 -0.0928
  249MPD1    H6 3839   2.828   1.770  10.440 -0.0610  1.1519 -0.4183
  249MPD1    H7 3840   2.812   1.693  10.584 -1.2075  1.0942  1.4520
  250MPD2     C 3841   4.141   1.440  12.741  0.2891  0.9660  0.2788
  250MPD2    C1 3842   4.268   1.446  12.696  1.0005 -0.0759  0.2801
  250MPD2    C2 3843   4.326   1.328  12.646 -0.1566 -0.1241 -0.3113
  250MPD2    C3 3844   4.259   1.201  12.654  0.0464  0.4203 -0.3892
  250MPD2    C4 3845   4.132   1.206  12.711 -0.6564  0.4729 -0.2018
  250MPD2    C5 3846   4.071   1.327  12.753 -0.3031  0.0239 -0.3612
  250MPD2     H 3847   4.432   1.335  12.623  0.1619  0.2849  1.2784
  250MPD2    H1 3848   4.073   1.117  12.729 -0.1709  0.2153  0.1090
  250MPD2    H2 3849   4.093   1.524  12.790 -0.3405 -0.2379  1.7276
  250MPD2    H3 3850   3.981   1.315  12.813  0.2406 -0.4547  0.3584
  250MPD2     N 3851   4.300   1.086  12.598 -0.2201  0.0180 -0.1082
  250MPD2    H5 3852   4.248   1.006  12.631 -2.1381  1.0677 -0.5577
  250MPD2    N1 3853   4.339   1.570  12.700 -0.1882  0.3415 -0.0399
  250MPD2    H7 3854   4.282   1.645  12.740 -0.8206 -0.3709  0.3936
  251TMC3    C1 3855   4.492   1.754  12.655 -0.1026 -0.8267 -0.1492
  251TMC3    C2 3856   4.404   1.841  12.706 -0.1214 -0.5890  0.0337
  251TMC3    C3 3857   4.436   1.973  12.684  0.6867  0.9028  1.2419
  251TMC3    C4 3858   4.601   1.800  12.584 -0.2577  0.0941  0.9127
  251TMC3    C5 3859   4.634   1.928  12.571  0.6350 -0.1896  0.3907
  251TMC3    C6 3860   4.542   2.020  12.616  0.6912  1.3542  0.6403
  251TMC3     C 3861   4.470   1.602  12.668  0.5080 -0.3108 -0.4963
  251TMC3     O 3862   4.562   1.519  12.650  0.0940  0.4816  0.1369
  251TMC3     H 3863   4.337   1.814  12.788 -0.2048 -1.7262 -0.4025
  251TMC3    H1 3864   4.670   1.728  12.541 -1.5258 -0.2231 -0.6081
  251TMC3    H2 3865   4.536   2.121  12.578 -0.0422  1.0940  0.0902
  251TMC3    C7 3866   0.024   1.956  12.629 -0.1821  0.0106  0.2438
  251TMC3    C8 3867   4.373   2.065  12.783  0.5237  0.2431  1.1357
  251TMC3    O1 3868   0.070   1.867  12.697  0.3306 -0.0290 -0.1079
  251TMC3    O2 3869   4.287   2.017  12.858 -0.1616  0.1208 -0.0022
  252TMC3    C1 3870   4.387   2.845   9.816  0.5531  0.2093  0.0945
  252TMC3    C2 3871   4.491   2.832   9.730  0.0185  0.0101  0.0105
  252TMC3    C3 3872   4.584   2.726   9.755 -0.0426 -0.3991  0.1904
  252TMC3    C4 3873   4.366   2.757   9.922  0.0806 -0.2576  0.3164
  252TMC3    C5 3874   4.451   2.652   9.931 -0.2212  0.2782 -0.2426
  252TMC3    C6 3875   4.561   2.635   9.851  0.1647  0.1324 -0.4768
  252TMC3     C 3876   4.288   2.944   9.784  0.9612 -0.3720 -0.1037
  252TMC3     O 3877   4.174   2.921   9.826  0.0267  0.0049  0.3376
  252TMC3     H 3878   4.507   2.902   9.649 -1.1035  0.1141 -0.1301
  252TMC3    H1 3879   4.271   2.761   9.974 -1.0201  0.4788 -1.7330
  252TMC3    H2 3880   4.618   2.543   9.855 -2.6548 -1.6108 -0.3204
  252TMC3    C7 3881   4.426   2.564  10.039  0.0877 -0.0879 -0.4378
  252TMC3    C8 3882   4.704   2.730   9.678 -0.3481  0.0475 -0.0822
  252TMC3    O1 3883   4.316   2.567  10.100 -0.2205  0.6722 -1.1160
  252TMC3    O2 3884   4.714   2.806   9.582 -0.2899 -0.0032  0.2789
  253MPD2     C 3885   1.122   1.880  15.376 -0.2017 -0.1429 -0.6747
  253MPD2    C1 3886   0.994   1.937  15.395 -0.3785 -0.2309 -0.6817
  253MPD2    C2 3887   0.913   1.892  15.488 -0.1069 -0.2741 -0.2027
  253MPD2    C3 3888   0.964   1.788  15.569 -0.5264 -0.6552  0.9887
  253MPD2    C4 3889   1.081   1.728  15.547  0.3295  0.0933 -0.2581
  253MPD2    C5 3890   1.163   1.777  15.455 -0.1466 -0.6095 -0.3585
  253MPD2     H 3891   0.817   1.939  15.503 -1.2506 -1.7360 -2.9205
  253MPD2    H1 3892   1.116   1.648  15.610  0.8940 -1.4873 -2.5853
  253MPD2    H2 3893   1.193   1.911  15.300 -0.3123  1.9071  0.0535
  253MPD2    H3 3894   1.262   1.733  15.444  0.1429 -0.0197 -0.0995
  253MPD2     N 3895   0.903   1.738  15.685 -0.6800  0.3320 -0.3719
  253MPD2    H5 3896   0.951   1.662  15.732  2.8323  3.1322  0.5487
  253MPD2    N1 3897   0.943   2.044  15.322  0.0127  0.1696 -0.1246
  253MPD2    H7 3898   0.846   2.070  15.335 -0.5794 -1.5385 -1.1195
  254TMC3    C1 3899   0.773   1.736  15.877  0.3470  0.1384 -0.1829
  254TMC3    C2 3900   0.665   1.783  15.944 -0.3323  0.4765 -0.1224
  254TMC3    C3 3901   0.630   1.709  16.054 -1.1765 -0.2584  0.2680
  254TMC3    C4 3902   0.851   1.627  15.914 -0.1499 -0.2047 -0.1708
  254TMC3    C5 3903   0.800   1.562  16.027  0.4783  0.5236 -0.0224
  254TMC3    C6 3904   0.697   1.604  16.101  0.1199  0.3984  0.4708
  254TMC3     C 3905   0.795   1.798  15.748 -0.1596 -0.1731 -0.1129
  254TMC3     O 3906   0.723   1.891  15.707  0.5181  0.1380  0.8494
  254TMC3     H 3907   0.605   1.862  15.900  0.2361  0.4306 -0.9824
  254TMC3    H1 3908   0.930   1.585  15.853 -0.0633 -0.9193  0.4307
  254TMC3    H2 3909   0.660   1.545  16.184  1.1447 -1.1816 -0.1970
  254TMC3    C7 3910   0.900   1.485  16.099  0.0211 -0.4584  0.0758
  254TMC3    C8 3911   0.524   1.754  16.137 -0.0465  0.0825  0.6433
  254TMC3    O1 3912   0.847   1.418  16.186  0.4088 -0.0567 -0.1737
  254TMC3    O2 3913   0.510   1.695  16.244  0.0224 -0.1024  0.2117
  255MPD2     C 3914   3.948   3.532  10.100 -0.0977 -0.0429  0.1450
  255MPD2    C1 3915   3.975   3.643  10.171 -0.6021  0.6287  0.1697
  255MPD2    C2 3916   4.019   3.757  10.113 -0.3945 -0.0244 -0.5501
  255MPD2    C3 3917   4.058   3.756   9.981  0.6010  0.0182 -0.4366
  255MPD2    C4 3918   4.041   3.641   9.911 -0.7012  0.0366  0.0284
  255MPD2    C5 3919   3.971   3.535   9.964  0.2573  0.0553 -0.1204
  255MPD2     H 3920   4.035   3.847  10.173 -0.1966  0.2583 -1.0321
  255MPD2    H1 3921   4.078   3.631   9.810  3.1146  1.5654  1.2712
  255MPD2    H2 3922   3.917   3.434  10.135  1.2859 -0.8178 -0.8042
  255MPD2    H3 3923   3.975   3.449   9.898 -2.9512 -0.5707  0.5176
  255MPD2     N 3924   4.125   3.871   9.941  0.7014  0.2567  0.2516
  255MPD2    H5 3925   4.134   3.952  10.001 -1.1809 -0.0119  0.8858
  255MPD2    N1 3926   3.954   3.640  10.312  0.3781  0.2717  0.6847
  255MPD2    H7 3927   3.902   3.557  10.340  1.3301 -0.5059  0.1289
  256TMC3    C1 3928   3.956   3.693  10.545  0.1492 -0.9316  0.0879
  256TMC3    C2 3929   4.025   3.749  10.648 -0.4094 -0.1532 -0.5552
  256TMC3    C3 3930   3.949   3.762  10.764 -0.8239  0.4799 -0.2537
  256TMC3    C4 3931   3.848   3.617  10.562  0.6580  0.6208 -0.1161
  256TMC3    C5 3932   3.778   3.626  10.677 -0.0012  0.6256  0.0394
  256TMC3    C6 3933   3.828   3.701  10.786 -0.6190  0.0066  0.4214
  256TMC3     C 3934   4.007   3.723  10.413  0.0405  1.1166 -0.3400
  256TMC3     O 3935   4.086   3.819  10.403 -0.0904  0.0545  0.5779
  256TMC3     H 3936   4.122   3.795  10.635  0.3377 -1.9771 -1.3422
  256TMC3    H1 3937   3.802   3.568  10.477  0.4064 -0.7800  0.8224
  256TMC3    H2 3938   3.780   3.703  10.884 -4.6083  0.4303 -1.5302
  256TMC3    C7 3939   3.680   3.530  10.707 -0.4315  0.4498  0.3432
  256TMC3    C8 3940   3.956   3.890  10.821  0.0999  0.0489 -0.4617
  256TMC3    O1 3941   3.696   3.421  10.659 -0.1257 -0.7041  0.1684
  256TMC3    O2 3942   3.896   3.909  10.925 -0.5814  0.5439 -0.9169
  257MPD2     C 3943   3.404   1.232  13.422  0.0944 -0.4001 -0.0144
  257MPD2    C1 3944   3.440   1.149  13.317  0.3666 -0.4383  0.7275
  257MPD2    C2 3945   3.509   1.033  13.331  0.4364  0.4597 -0.0332
  257MPD2    C3 3946   3.538   0.992  13.463  0.7225  0.2608  0.6040
  257MPD2    C4 3947   3.502   1.069  13.569 -0.2672  0.2397 -0.3567
  257MPD2    C5 3948   3.427   1.191  13.546 -0.0192 -0.1770  0.4217
  257MPD2     H 3949   3.522   0.959  13.252 -2.6768  1.2402 -1.3099
  257MPD2    H1 3950   3.540   1.041  13.667 -1.3030 -1.4453 -0.4398
  257MPD2    H2 3951   3.356   1.329  13.406  0.3196 -0.1664  0.7189
  257MPD2    H3 3952   3.414   1.256  13.631 -0.7146 -2.3366  1.9676
  257MPD2     N 3953   3.603   0.873  13.475 -0.3698 -0.0694 -0.1029
  257MPD2    H5 3954   3.613   0.816  13.392  0.0493 -0.8951  0.5082
  257MPD2    N1 3955   3.424   1.202  13.184  0.1258  0.0915 -0.3560
  257MPD2    H7 3956   3.387   1.296  13.171  0.3245  0.4385  1.5466
  258TMC3    C1 3957   3.695   0.676  13.575  0.2463  0.4729 -0.0442
  258TMC3    C2 3958   3.734   0.625  13.456 -0.2959  0.4872  0.4427
  258TMC3    C3 3959   3.781   0.498  13.455  0.1610  0.2786 -0.0850
  258TMC3    C4 3960   3.695   0.599  13.690 -1.3002  0.1334 -0.1926
  258TMC3    C5 3961   3.732   0.471  13.687  0.4511  0.0471  0.9845
  258TMC3    C6 3962   3.774   0.420  13.569 -0.2024 -0.0349 -0.3859
  258TMC3     C 3963   3.647   0.812  13.594 -0.5268  0.6479 -0.6264
  258TMC3     O 3964   3.632   0.842  13.711 -0.1140 -0.4577 -0.0430
  258TMC3     H 3965   3.714   0.677  13.363 -0.0606 -0.9551 -0.4116
  258TMC3    H1 3966   3.672   0.645  13.785 -1.7168 -0.0749 -0.1918
  258TMC3    H2 3967   3.813   0.319  13.580 -0.2725  0.1077  1.1703
  258TMC3    C7 3968   3.779   0.399  13.804  0.9768  0.3626 -0.1630
  258TMC3    C8 3969   3.913   0.483  13.405 -0.4181  0.0754  0.5365
  258TMC3    O1 3970   3.766   0.275  13.804  0.0278 -0.2262  0.5154
  258TMC3    O2 3971   3.958   0.370  13.394  0.4961 -0.4380 -0.2686
  259MPD2     C 3972   2.235   3.314   0.785  0.5572  0.7021 -0.5519
  259MPD2    C1 3973   2.318   3.203   0.756  0.1215  0.3432 -0.1874
  259MPD2    C2 3974   2.348   3.177   0.628  0.0474 -0.6931  0.1036
  259MPD2    C3 3975   2.301   3.244   0.518 -0.6150 -1.1496 -0.3748
  259MPD2    C4 3976   2.228   3.358   0.550  0.0877 -0.2768  0.6197
  259MPD2    C5 3977   2.187   3.388   0.680 -0.2553 -0.5846 -0.6169
  259MPD2     H 3978   2.404   3.086   0.613  0.3718 -0.6208  0.8480
  259MPD2    H1 3979   2.183   3.413   0.469  0.8899  0.4012  0.6394
  259MPD2    H2 3980   2.209   3.340   0.886  0.7453 -1.5470  0.0677
  259MPD2    H3 3981   2.122   3.474   0.693 -1.3316 -1.2806 -1.4427
  259MPD2     N 3982   2.338   3.196   0.392 -0.2434  0.0600 -0.5152
  259MPD2    H5 3983   2.391   3.111   0.382  1.9782  1.5799 -1.6493
  259MPD2    N1 3984   2.356   3.120   0.864  0.1361  0.4398 -0.0758
  259MPD2    H7 3985   2.315   3.153   0.951  2.0967 -0.3586  1.1420
  260TMC3    C1 3986   2.394   3.216   0.158 -0.1590 -0.0267  0.3765
  260TMC3    C2 3987   2.463   3.304   0.083 -0.9800 -0.1012  0.6161
  260TMC3    C3 3988   2.550   3.250  17.744  0.0520  0.1956  0.5865
  260TMC3    C4 3989   2.398   3.081   0.149  0.0147 -0.2945 -0.0686
  260TMC3    C5 3990   2.476   3.035   0.045  0.1283 -0.0066 -0.4071
  260TMC3    C6 3991   2.560   3.118  17.726 -0.1366  0.0042 -0.1124
  260TMC3     C 3992   2.320   3.272   0.277  0.6750 -0.3323  0.3026
  260TMC3     O 3993   2.278   3.387   0.264  0.3796  0.2083 -0.1159
  260TMC3     H 3994   2.474   3.408   0.111 -0.1230 -0.1763  0.5507
  260TMC3    H1 3995   2.335   3.025   0.216  0.8056  1.0971  1.8366
  260TMC3    H2 3996   2.627   3.078  17.652 -0.0444 -0.3950  0.1875
  260TMC3    C7 3997   2.481   2.893   0.018 -0.5605 -0.5343 -0.6262
  260TMC3    C8 3998   2.668   3.323  17.725  0.3424  0.2268 -0.1326
  260TMC3    O1 3999   2.528   2.859  17.663 -0.5178  0.0253 -0.1744
  260TMC3    O2 4000   2.656   3.444  17.737 -0.5599  0.1681 -0.1860
  261MPD2     C 4001   4.020   0.833  11.982 -0.0311  0.2480  0.7600
  261MPD2    C1 4002   4.132   0.912  12.011  0.2574 -0.3117 -0.6460
  261MPD2    C2 4003   4.159   1.031  11.942 -0.0761  0.4177  0.9617
  261MPD2    C3 4004   4.081   1.070  11.833 -0.6658  0.2557 -0.0737
  261MPD2    C4 4005   3.965   0.992  11.811  0.0592 -0.2273 -0.8655
  261MPD2    C5 4006   3.941   0.876  11.881  0.3095  0.6204 -0.2482
  261MPD2     H 4007   4.242   1.094  11.972  0.0027  1.0696 -0.6065
  261MPD2    H1 4008   3.879   1.027  11.754  0.6644  1.6429 -0.5968
  261MPD2    H2 4009   3.999   0.730  12.008 -2.2006  0.6500  0.5730
  261MPD2    H3 4010   3.853   0.820  11.853  0.0446  0.7806  0.2613
  261MPD2     N 4011   4.100   1.186  11.758  0.2172  0.9346  0.1667
  261MPD2    H5 4012   4.169   1.255  11.787  3.8754 -2.7742  0.2358
  261MPD2    N1 4013   4.198   0.894  12.135  0.1201  0.6763 -0.3352
  261MPD2    H7 4014   4.257   0.970  12.167  2.5824 -1.2360 -0.3269
  262TMC3    C1 4015   4.088   1.319  11.581  0.3425 -0.2860  0.2907
  262TMC3    C2 4016   4.050   1.444  11.625 -0.4351 -0.4963  0.2320
  262TMC3    C3 4017   4.134   1.540  11.578 -0.9656  0.1024 -0.2341
  262TMC3    C4 4018   4.169   1.288  11.478 -0.6203 -0.0434 -0.4989
  262TMC3    C5 4019   4.247   1.389  11.428 -0.2347  0.0337  0.9250
  262TMC3    C6 4020   4.230   1.513  11.477  0.6712 -0.8317 -0.1651
  262TMC3     C 4021   4.029   1.210  11.645 -0.7317 -0.0207  0.2256
  262TMC3     O 4022   3.973   1.133  11.564 -0.5225  0.0782  0.1719
  262TMC3     H 4023   3.978   1.452  11.706 -1.1077  0.5339 -0.4678
  262TMC3    H1 4024   4.194   1.186  11.454  0.3138  0.4196 -1.5406
  262TMC3    H2 4025   4.299   1.593  11.454  0.2063  0.4227  2.6880
  262TMC3    C7 4026   4.350   1.341  11.340 -0.0158 -0.3839 -0.1359
  262TMC3    C8 4027   4.135   1.674  11.622  0.4457 -0.5060  0.2981
  262TMC3    O1 4028   4.383   1.224  11.350  0.1577 -0.3080 -0.0488
  262TMC3    O2 4029   4.193   1.757  11.554 -0.1074  0.0082 -0.2989
  263MPD2     C 4030   0.504   0.215  11.218  0.2819  0.2177 -0.1724
  263MPD2    C1 4031   0.531   0.335  11.281  0.4575  0.1409 -0.8960
  263MPD2    C2 4032   0.564   0.446  11.200 -0.7167 -0.1187 -0.0482
  263MPD2    C3 4033   0.550   0.443  11.058 -0.4756  0.0871  0.1315
  263MPD2    C4 4034   0.520   0.321  10.999 -0.1901  0.4209  0.0358
  263MPD2    C5 4035   0.504   0.205  11.078  0.7081 -0.2638 -0.3007
  263MPD2     H 4036   0.606   0.538  11.238 -1.4611 -0.0908  0.6976
  263MPD2    H1 4037   0.517   0.310  10.892 -3.6759 -0.6924  0.2526
  263MPD2    H2 4038   0.498   0.123  11.276  1.8098  1.5392  2.1044
  263MPD2    H3 4039   0.493   0.115  11.019  0.4816  0.8935 -2.0048
  263MPD2     N 4040   0.562   0.553  10.968 -0.4068  0.1088 -0.8233
  263MPD2    H5 4041   0.564   0.536  10.868  2.2124  4.7344 -1.5964
  263MPD2    N1 4042   0.548   0.345  11.422 -0.5130 -0.0284 -0.4038
  263MPD2    H7 4043   0.545   0.260  11.477 -2.0723 -0.8058 -1.7085
  264TMC3    C1 4044   0.578   0.774  10.895  0.5868 -0.0750  0.6706
  264TMC3    C2 4045   0.504   0.890  10.907  1.4432  0.1140 -0.1657
  264TMC3    C3 4046   0.521   0.982  10.807  0.2541 -0.5535 -0.5219
  264TMC3    C4 4047   0.672   0.754  10.799  0.3915 -0.1887 -0.5049
  264TMC3    C5 4048   0.692   0.855  10.705  0.1929 -0.2955  0.1993
  264TMC3    C6 4049   0.612   0.961  10.703 -0.2162  0.4717 -0.2339
  264TMC3     C 4050   0.570   0.685  11.009  0.1022  0.3650  0.4670
  264TMC3     O 4051   0.533   0.737  11.118 -0.5046  0.8468 -0.4546
  264TMC3     H 4052   0.441   0.906  10.994  0.1794 -1.3275 -0.8186
  264TMC3    H1 4053   0.753   0.691  10.833  0.8013  0.2534 -0.6598
  264TMC3    H2 4054   0.626   1.029  10.620 -3.1291  0.7688 -0.4717
  264TMC3    C7 4055   0.831   0.882  10.667  0.1306 -0.2257  0.5146
  264TMC3    C8 4056   0.537   1.116  10.863 -0.1382 -0.1846  0.2720
  264TMC3    O1 4057   0.900   0.782  10.648 -0.3742 -0.0364 -0.6460
  264TMC3    O2 4058   0.633   1.178  10.812 -0.3513 -0.1130  0.5121
  265MPD2     C 4059   2.691   1.025  15.967 -0.0334 -0.2425  0.3251
  265MPD2    C1 4060   2.676   1.121  15.865 -0.0214 -0.4659 -0.0106
  265MPD2    C2 4061   2.749   1.099  15.751  0.0112  0.7574  0.6568
  265MPD2    C3 4062   2.846   1.001  15.732 -0.2692  0.1808  0.3639
  265MPD2    C4 4063   2.840   0.895  15.824 -0.7756 -0.4735 -0.3622
  265MPD2    C5 4064   2.762   0.910  15.933 -0.2319  0.1193 -0.2404
  265MPD2     H 4065   2.743   1.172  15.671 -1.1058 -0.9478 -0.8287
  265MPD2    H1 4066   2.906   0.810  15.835  1.3764  1.3879  1.1311
  265MPD2    H2 4067   2.624   1.025  16.052 -1.5526  1.9283 -0.8825
  265MPD2    H3 4068   2.771   0.821  15.995 -0.3524  1.0211  1.0552
  265MPD2     N 4069   2.932   0.986  15.619  0.1445 -0.0715 -0.1787
  265MPD2    H5 4070   2.990   0.903  15.620  0.8028  0.4079  1.1480
  265MPD2    N1 4071   2.581   1.221  15.887 -0.1557  0.1130  0.3731
  265MPD2    H7 4072   2.540   1.224  15.980  1.9434 -1.5204  1.3671
  266TMC3    C1 4073   2.453   1.414  15.877 -0.7476 -0.0919 -0.4493
  266TMC3    C2 4074   2.520   1.484  15.973 -0.3852  0.7107  0.2165
  266TMC3    C3 4075   2.463   1.603  16.010 -0.2470  0.1753  0.2485
  266TMC3    C4 4076   2.332   1.439  15.821  0.7002  0.2206  0.2095
  266TMC3    C5 4077   2.283   1.565  15.860  0.3203 -0.0757 -0.3840
  266TMC3    C6 4078   2.344   1.646  15.956 -0.3893 -0.3781 -0.0534
  266TMC3     C 4079   2.532   1.318  15.799 -0.1891  0.0009 -0.3919
  266TMC3     O 4080   2.521   1.319  15.672 -0.1732  0.2164  0.6917
  266TMC3     H 4081   2.615   1.445  16.008 -1.7296 -0.0263  3.1247
  266TMC3    H1 4082   2.286   1.383  15.740  0.4789  1.0979 -0.2828
  266TMC3    H2 4083   2.308   1.747  15.976 -1.7613 -1.0421  0.8184
  266TMC3    C7 4084   2.145   1.600  15.835  0.1529  0.3718  0.3299
  266TMC3    C8 4085   2.543   1.679  16.107 -0.0183 -0.0153 -0.0407
  266TMC3    O1 4086   2.062   1.511  15.820 -0.4244  0.3179  0.5499
  266TMC3    O2 4087   2.633   1.618  16.160  0.6537  0.0221 -0.0287
  267MPD2     C 4088   4.283   3.313   0.648 -0.1882  0.4384 -0.1759
  267MPD2    C1 4089   4.384   3.307   0.553 -0.1841  0.0478  0.1364
  267MPD2    C2 4090   4.362   3.348   0.418 -0.0292  0.3909 -0.0167
  267MPD2    C3 4091   4.239   3.408   0.386  0.2376  0.4277  0.5868
  267MPD2    C4 4092   4.139   3.420   0.487 -0.4100 -1.0936 -0.0190
  267MPD2    C5 4093   4.158   3.360   0.614  0.2416 -0.0513 -0.0724
  267MPD2     H 4094   4.441   3.329   0.347 -0.1020  1.1192 -0.2851
  267MPD2    H1 4095   4.044   3.462   0.454  1.4342  2.1440 -1.1349
  267MPD2    H2 4096   4.298   3.269   0.746 -1.3933 -3.4166 -1.7121
  267MPD2    H3 4097   4.080   3.358   0.689  1.4003 -1.4256  1.0912
  267MPD2     N 4098   4.203   3.455   0.256  0.2911  0.2652 -0.5171
  267MPD2    H5 4099   4.137   3.532   0.248  0.5718  0.5710  0.1609
  267MPD2    N1 4100   4.507   3.254   0.600 -0.0783  0.6494 -0.3548
  267MPD2    H7 4101   4.503   3.194   0.682 -2.2811  0.1917 -0.7999
  268TMC3    C1 4102   0.006   3.229   0.614  0.3853  0.5702  0.1472
  268TMC3    C2 4103   0.105   3.173   0.539  0.2176  1.1080  0.0048
  268TMC3    C3 4104   0.191   3.089   0.603 -0.2868  0.1586 -0.1065
  268TMC3    C4 4105   0.009   3.215   0.750  0.5438 -0.0160  0.1277
  268TMC3    C5 4106   0.091   3.125   0.809 -0.5876 -0.3367  0.0713
  268TMC3    C6 4107   0.193   3.065   0.736 -0.0374 -0.1941 -0.4492
  268TMC3     C 4108   4.629   3.293   0.546 -0.1837  0.0761 -0.1586
  268TMC3     O 4109   4.654   3.368   0.454  0.4035  0.2798 -0.2994
  268TMC3     H 4110   0.081   3.171   0.433 -0.5462  0.4755  0.1858
  268TMC3    H1 4111   4.671   3.275   0.798  1.7219  1.2731  0.4083
  268TMC3    H2 4112   0.263   2.993   0.777 -0.9342  0.0329  1.4973
  268TMC3    C7 4113   0.074   3.104   0.952  0.4387  0.2735 -0.1670
  268TMC3    C8 4114   0.284   3.028   0.523  0.6496 -0.5713  0.2639
  268TMC3    O1 4115   4.732   3.176   1.010 -0.3790  0.2641 -0.1036
  268TMC3    O2 4116   0.333   2.929   0.570  0.2265  0.6037 -0.1861
  269MPD2     C 4117   0.296   2.281  15.261 -0.2621 -0.4730 -0.0680
  269MPD2    C1 4118   0.270   2.270  15.396 -0.2764 -0.2750  0.2225
  269MPD2    C2 4119   0.303   2.382  15.476 -0.3077 -0.5269  0.0500
  269MPD2    C3 4120   0.351   2.495  15.424 -0.5217 -0.4730  0.0815
  269MPD2    C4 4121   0.388   2.500  15.290  0.1933  0.3125 -0.2024
  269MPD2    C5 4122   0.357   2.389  15.213  0.2490 -0.1837  0.7083
  269MPD2     H 4123   0.276   2.387  15.581 -0.3106  2.9447 -0.0942
  269MPD2    H1 4124   0.421   2.594  15.250  2.0311  0.3084  1.3094
  269MPD2    H2 4125   0.261   2.204  15.194  1.2012 -0.1128 -1.2385
  269MPD2    H3 4126   0.379   2.401  15.107 -0.1564  0.5964  0.7155
  269MPD2     N 4127   0.380   2.591  15.524  0.3573 -0.3149 -0.4872
  269MPD2    H5 4128   0.372   2.556  15.619 -1.1354 -0.8301 -0.7949
  269MPD2    N1 4129   0.200   2.154  15.446  0.0895 -0.3567  0.1804
  269MPD2    H7 4130   0.192   2.079  15.378 -2.7289  1.1713 -1.1987
  270TMC3    C1 4131   0.162   1.990  15.603  0.4836 -0.9654  0.4409
  270TMC3    C2 4132   0.057   1.925  15.537  0.2482  0.3610  0.1520
  270TMC3    C3 4133   0.018   1.806  15.590 -0.3166  0.0263 -0.0754
  270TMC3    C4 4134   0.230   1.929  15.707 -0.2259  0.3394 -0.5648
  270TMC3    C5 4135   0.192   1.804  15.744  0.2162  0.3759 -0.3863
  270TMC3    C6 4136   0.082   1.743  15.693  0.3564  0.3430  0.4287
  270TMC3     C 4137   0.194   2.125  15.582  0.0588 -0.1485 -0.3111
  270TMC3     O 4138   0.240   2.182  15.681 -0.0149  0.3480 -0.1267
  270TMC3     H 4139   4.722   1.964  15.468  0.3846  1.6806  0.7374
  270TMC3    H1 4140   0.315   1.970  15.761  1.1336 -1.0037 -1.6950
  270TMC3    H2 4141   0.061   1.640  15.721  1.1287  0.2861  0.8238
  270TMC3    C7 4142   0.305   1.720  15.791  0.5447 -0.9877 -0.0420
  270TMC3    C8 4143   4.680   1.724  15.503 -0.7258 -0.9866 -0.3768
  270TMC3    O1 4144   0.414   1.766  15.753  0.5977  0.3254  0.0256
  270TMC3    O2 4145   4.564   1.757  15.469 -0.8840 -0.2551 -0.2791
  271MPD2     C 4146   4.417   1.180  13.829  0.3379 -0.6380 -0.9179
  271MPD2    C1 4147   4.391   1.261  13.940 -0.0803  0.8282 -0.8491
  271MPD2    C2 4148   4.303   1.370  13.926  0.1787  0.5765 -0.0558
  271MPD2    C3 4149   4.244   1.400  13.803 -0.0655  0.3316  0.1926
  271MPD2    C4 4150   4.275   1.313  13.694 -0.4978 -0.2611  0.6789
  271MPD2    C5 4151   4.346   1.199  13.710  0.3006 -0.9792  0.5213
  271MPD2     H 4152   4.275   1.424  14.016  0.6164 -0.5192  0.7499
  271MPD2    H1 4153   4.234   1.321  13.595 -0.4710 -0.2540  0.6683
  271MPD2    H2 4154   4.487   1.098  13.819  1.6871  0.2621  1.1638
  271MPD2    H3 4155   4.369   1.137  13.625 -2.4933  1.0660 -1.7166
  271MPD2     N 4156   4.175   1.519  13.771 -0.8246  0.6793  0.0868
  271MPD2    H5 4157   4.154   1.530  13.672  0.1939  0.0023 -0.2069
  271MPD2    N1 4158   4.453   1.248  14.067 -0.1751 -0.1047  0.2372
  271MPD2    H7 4159   4.446   1.324  14.135  0.4374 -1.0964  1.4203
  272TMC3    C1 4160   4.614   1.182  14.213  0.4607 -0.1395  0.2352
  272TMC3    C2 4161   0.013   1.175  14.198 -0.1228  0.2046  1.2548
  272TMC3    C3 4162   0.094   1.167  14.303 -0.0380  0.2201  0.5322
  272TMC3    C4 4163   4.561   1.195  14.335  0.3822 -0.4361 -0.3001
  272TMC3    C5 4164   4.645   1.216  14.439  0.2784 -0.2943  0.1358
  272TMC3    C6 4165   0.040   1.195  14.424  0.4723 -0.2256 -1.2969
  272TMC3     C 4166   4.536   1.147  14.100 -0.2328 -0.3805 -0.5655
  272TMC3     O 4167   4.575   1.050  14.039 -0.1577  0.5106 -0.2333
  272TMC3     H 4168   0.050   1.154  14.098  0.1028 -0.9719  1.5840
  272TMC3    H1 4169   4.454   1.201  14.345  0.5677  1.3345  0.5093
  272TMC3    H2 4170   0.105   1.219  14.507 -1.3956 -0.4623  0.2260
  272TMC3    C7 4171   4.611   1.331  14.525  0.0532 -0.4303  0.6983
  272TMC3    C8 4172   0.232   1.176  14.280  0.0253 -0.8973  0.3488
  272TMC3    O1 4173   4.687   1.365  14.616  0.0439  0.4581  0.1272
  272TMC3    O2 4174   0.259   1.222  14.172  0.3325  0.0605 -0.3042
  273MPD2     C 4175   1.177   4.245  11.793 -0.0599 -0.1028 -0.1132
  273MPD2    C1 4176   1.238   4.366  11.786 -0.3739  0.2586  0.3042
  273MPD2    C2 4177   1.293   4.409  11.663  0.2701 -0.5313  0.3035
  273MPD2    C3 4178   1.284   4.335  11.549 -0.1870  0.3601  0.5147
  273MPD2    C4 4179   1.231   4.206  11.559  0.2454  0.0851  0.5420
  273MPD2    C5 4180   1.173   4.166  11.680  0.0075 -0.2426  0.0955
  273MPD2     H 4181   1.345   4.503  11.653 -0.6976 -0.2229 -1.7897
  273MPD2    H1 4182   1.215   4.139  11.476  0.1197  0.0936  0.5604
  273MPD2    H2 4183   1.151   4.209  11.892  0.9809  0.0776  0.2224
  273MPD2    H3 4184   1.128   4.067  11.679  3.2021 -1.6898  0.7829
  273MPD2     N 4185   1.333   4.390  11.428 -0.0376  0.2580 -0.1652
  273MPD2    H5 4186   1.383   4.478  11.420  2.3297 -1.2316 -1.7122
  273MPD2    N1 4187   1.247   4.434  11.905  0.1928 -0.3425  0.1321
  273MPD2    H7 4188   1.194   4.402  11.985 -1.3631 -0.9233 -1.1307
  274TMC3    C1 4189   1.324   4.420  11.193  0.0037  0.3019  0.2125
  274TMC3    C2 4190   1.287   4.364  11.075 -0.2330 -0.1163 -0.1398
  274TMC3    C3 4191   1.288   4.447  10.967 -0.1525 -0.2925  0.3818
  274TMC3    C4 4192   1.363   4.549  11.212 -0.0198  0.5956  0.6126
  274TMC3    C5 4193   1.366   4.620  11.097  0.7130  0.3328 -0.2073
  274TMC3    C6 4194   1.341   4.570  10.971 -0.3280 -0.1910  0.4766
  274TMC3     C 4195   1.305   4.332  11.310  1.0313  0.1993  0.2747
  274TMC3     O 4196   1.256   4.223  11.284 -0.1620  0.6182 -0.4182
  274TMC3     H 4197   1.254   4.261  11.065  1.1553 -0.8424  2.9355
  274TMC3    H1 4198   1.386   4.599  11.306  2.5911  1.2647 -0.3961
  274TMC3    H2 4199   1.334   4.643  10.890  0.2651  0.2450  0.8148
  274TMC3    C7 4200   1.368   0.028  11.104 -0.1137  0.2160 -0.8402
  274TMC3    C8 4201   1.174   4.419  10.882 -0.3620  0.4310  0.0550
  274TMC3    O1 4202   1.401   0.092  11.002  0.1759  0.5478 -0.2511
  274TMC3    O2 4203   1.108   4.322  10.911  0.2405  0.5916  0.1802
  275MPD2     C 4204   1.525   2.196  14.601  0.3583  0.7616 -0.0739
  275MPD2    C1 4205   1.462   2.317  14.584 -0.3402  0.1747  0.0563
  275MPD2    C2 4206   1.323   2.309  14.583 -0.0086 -0.3976  0.1328
  275MPD2    C3 4207   1.254   2.191  14.566  0.0525  0.5861 -0.1395
  275MPD2    C4 4208   1.325   2.074  14.569 -0.5598 -0.8048 -0.3670
  275MPD2    C5 4209   1.459   2.077  14.589  0.1148 -0.2908 -0.3838
  275MPD2     H 4210   1.270   2.404  14.587 -0.2543 -0.4917 -0.8529
  275MPD2    H1 4211   1.284   1.974  14.565 -0.8437 -0.7709  1.7309
  275MPD2    H2 4212   1.633   2.191  14.616  0.2687  2.6040  1.1694
  275MPD2    H3 4213   1.521   1.988  14.592  0.5247  0.0070 -0.0314
  275MPD2     N 4214   1.109   2.179  14.557  0.2192  0.2961  0.0983
  275MPD2    H5 4215   1.070   2.086  14.570 -0.0803  0.6175  1.5591
  275MPD2    N1 4216   1.528   2.440  14.558  0.0180 -0.2267 -0.0568
  275MPD2    H7 4217   1.476   2.527  14.566 -2.5944 -1.5870 -2.1396
  276TMC3    C1 4218   1.664   2.612  14.548  0.1808 -0.2964 -0.1713
  276TMC3    C2 4219   1.554   2.683  14.519 -0.3016 -0.6043 -0.4513
  276TMC3    C3 4220   1.554   2.816  14.549  0.1597 -0.2014  0.5744
  276TMC3    C4 4221   1.772   2.661  14.616  0.0368  0.7693  0.0436
  276TMC3    C5 4222   1.761   2.791  14.654  0.1657 -0.7176  0.8943
  276TMC3    C6 4223   1.651   2.867  14.630 -0.6170  0.3357 -0.1420
  276TMC3     C 4224   1.655   2.468  14.546 -0.5225  0.4754 -0.1156
  276TMC3     O 4225   1.756   2.408  14.577 -0.1040 -0.2736 -0.7186
  276TMC3     H 4226   1.492   2.643  14.439 -1.4462  0.3544 -0.0425
  276TMC3    H1 4227   1.833   2.590  14.671  0.5534  0.5014 -0.8615
  276TMC3    H2 4228   1.645   2.973  14.651  0.5283  0.8250 -2.2515
  276TMC3    C7 4229   1.832   2.832  14.773 -0.4793 -0.1633 -0.2314
  276TMC3    C8 4230   1.418   2.853  14.570 -0.9213  0.3890 -0.9568
  276TMC3    O1 4231   1.775   2.912  14.843 -0.2037  0.3798 -0.3172
  276TMC3    O2 4232   1.401   2.980  14.577  0.6159  0.5865  0.4865
  277MPD2     C 4233   3.235   1.532  13.558  0.6348 -0.0294 -0.2015
  277MPD2    C1 4234   3.104   1.506  13.570  0.5344 -0.2943 -0.1875
  277MPD2    C2 4235   3.044   1.483  13.693 -0.0666 -0.0730 -0.2750
  277MPD2    C3 4236   3.123   1.489  13.807  0.2690  1.0381  0.8531
  277MPD2    C4 4237   3.254   1.522  13.796  0.0533  0.1211  0.1491
  277MPD2    C5 4238   3.310   1.550  13.670 -0.6661 -0.4485  1.1722
  277MPD2     H 4239   2.937   1.471  13.705 -0.1769  1.9301  0.7698
  277MPD2    H1 4240   3.315   1.545  13.883  0.8191  2.7033 -1.0756
  277MPD2    H2 4241   3.279   1.554  13.461 -0.0251 -1.9253 -0.9274
  277MPD2    H3 4242   3.412   1.587  13.661 -1.0169  0.1619 -0.2781
  277MPD2     N 4243   3.065   1.466  13.933  0.8438 -0.7552  0.4756
  277MPD2    H5 4244   2.965   1.452  13.935  0.6530  0.4976 -0.4468
  277MPD2    N1 4245   3.030   1.507  13.452 -0.2335 -0.2172 -0.1683
  277MPD2    H7 4246   3.076   1.539  13.367 -0.3988 -0.5149 -0.3690
  278TMC3    C1 4247   3.027   1.433  14.153 -0.5601 -0.6363  0.5852
  278TMC3    C2 4248   3.029   1.310  14.213 -0.1296  0.2806 -0.2820
  278TMC3    C3 4249   2.909   1.244  14.245  0.3253  0.3376 -0.6750
  278TMC3    C4 4250   2.899   1.479  14.115  0.1104 -0.5159 -0.2146
  278TMC3    C5 4251   2.781   1.413  14.145 -0.0227  0.2337 -0.4121
  278TMC3    C6 4252   2.788   1.296  14.212  0.3602  0.2601  0.3008
  278TMC3     C 4253   3.128   1.453  14.055 -0.1750  0.1037  0.0825
  278TMC3     O 4254   3.240   1.406  14.073  0.7304 -0.0834 -0.2928
  278TMC3     H 4255   3.122   1.254  14.209 -0.0845  0.3011  0.4307
  278TMC3    H1 4256   2.890   1.580  14.076 -0.9435 -0.6217 -0.2232
  278TMC3    H2 4257   2.695   1.243  14.228  1.1412 -2.0106 -2.5539
  278TMC3    C7 4258   2.677   1.422  14.050 -1.1761 -0.0556  0.6171
  278TMC3    C8 4259   2.921   1.109  14.196  0.5969  0.0691 -0.7077
  278TMC3    O1 4260   2.712   1.430  13.934 -0.1288 -0.3537 -0.9150
  278TMC3    O2 4261   3.016   1.038  14.224  0.4844  0.1030  0.9173
  279MPD2     C 4262   1.705   1.086   0.161 -0.5372 -0.1886 -0.3578
  279MPD2    C1 4263   1.707   1.214   0.122  0.1826  0.9408  0.4447
  279MPD2    C2 4264   1.774   1.253   0.003 -0.3518 -0.6665 -0.8173
  279MPD2    C3 4265   1.831   1.151  17.680 -0.2321 -0.6037  0.2578
  279MPD2    C4 4266   1.821   1.020  17.721 -0.1499  0.5576  0.4910
  279MPD2    C5 4267   1.757   0.990   0.080  0.1364 -0.6801 -0.2491
  279MPD2     H 4268   1.793   1.355  17.726  0.6785 -0.4205  0.7208
  279MPD2    H1 4269   1.857   0.947  17.649  0.4710  2.5692 -1.2457
  279MPD2    H2 4270   1.657   1.047   0.250  0.0308 -2.4948 -1.0346
  279MPD2    H3 4271   1.759   0.885   0.109  3.0854 -0.7308 -0.6309
  279MPD2     N 4272   1.920   1.182  17.575 -0.1688 -0.5628  0.9884
  279MPD2    H5 4273   1.970   1.105  17.531 -0.7832  0.1927 -0.9912
  279MPD2    N1 4274   1.660   1.325   0.196  0.0624 -0.3543 -0.4681
  279MPD2    H7 4275   1.652   1.415   0.149  1.4030  0.8825  1.6322
  280TMC3    C1 4276   1.548   1.448   0.371  0.1963  0.2531 -0.3807
  280TMC3    C2 4277   1.469   1.437   0.487 -0.2527 -0.0285 -0.7591
  280TMC3    C3 4278   1.391   1.545   0.517 -0.3014 -0.1759  0.7385
  280TMC3    C4 4279   1.549   1.563   0.291 -0.3330  0.3618  0.2135
  280TMC3    C5 4280   1.462   1.660   0.321 -0.9897 -0.8254 -0.3508
  280TMC3    C6 4281   1.383   1.652   0.434  0.6880  0.3224  0.2101
  280TMC3     C 4282   1.598   1.318   0.318  0.4066  0.0324  0.0458
  280TMC3     O 4283   1.558   1.223   0.379  0.1475  0.4880 -0.2939
  280TMC3     H 4284   1.456   1.345   0.542 -1.0716 -0.0024 -0.9107
  280TMC3    H1 4285   1.621   1.581   0.211  1.4038 -3.2879  0.9493
  280TMC3    H2 4286   1.327   1.739   0.464 -0.7940  0.1279 -2.0179
  280TMC3    C7 4287   1.499   1.791   0.276  0.6761 -0.1734  0.0664
  280TMC3    C8 4288   1.321   1.552   0.639 -0.0529  0.0219  0.0048
  280TMC3    O1 4289   1.607   1.830   0.314 -0.0202  0.3367 -0.2921
  280TMC3    O2 4290   1.214   1.616   0.639 -0.4006  0.5267 -0.2072
  281TMC3    C1 4291   0.366   1.901  13.387 -0.1686 -0.0463  0.2258
  281TMC3    C2 4292   0.351   1.958  13.263 -0.2448 -0.1841 -0.8301
  281TMC3    C3 4293   0.415   1.915  13.155 -0.5201 -0.0609 -0.1023
  281TMC3    C4 4294   0.449   1.797  13.395 -0.3267 -0.0181  0.5362
  281TMC3    C5 4295   0.508   1.746  13.285 -0.3826 -0.2994 -0.5805
  281TMC3    C6 4296   0.496   1.807  13.161 -0.8208  0.3065  0.0082
  281TMC3     C 4297   0.308   1.956  13.506 -0.4039 -0.2514 -0.4508
  281TMC3     O 4298   0.351   1.911  13.608 -0.0952 -0.1546  0.2501
  281TMC3     H 4299   0.283   2.040  13.244 -1.9030 -0.7814  2.5539
  281TMC3    H1 4300   0.461   1.748  13.491  0.1047 -1.3278 -0.1833
  281TMC3    H2 4301   0.546   1.763  13.076 -0.0756 -0.8200  1.0212
  281TMC3    C7 4302   0.588   1.625  13.275  0.3531  0.1639 -0.1796
  281TMC3    C8 4303   0.363   1.950  13.024  0.2165 -0.7876 -0.4098
  281TMC3    O1 4304   0.638   1.595  13.168  0.1445  0.4520  0.6477
  281TMC3    O2 4305   0.342   1.865  12.942  0.2875 -0.4221 -0.5100
  282MPD2     C 4306   2.618   3.138  15.103  1.1641  0.8527  0.1996
  282MPD2    C1 4307   2.506   3.181  15.171 -0.3318 -0.3059 -0.1567
  282MPD2    C2 4308   2.387   3.183  15.114 -0.5492 -0.2524 -0.1324
  282MPD2    C3 4309   2.373   3.141  14.983 -0.8527  0.4743  0.0904
  282MPD2    C4 4310   2.483   3.086  14.920 -0.0518 -0.4105 -0.3314
  282MPD2    C5 4311   2.606   3.086  14.978 -0.6958  0.3097 -0.0657
  282MPD2     H 4312   2.304   3.222  15.171 -0.3614 -0.0975  0.0390
  282MPD2    H1 4313   2.481   3.060  14.815  1.0724  0.6761 -0.6242
  282MPD2    H2 4314   2.718   3.146  15.143  1.8771  0.4874 -1.5367
  282MPD2    H3 4315   2.687   3.046  14.919 -0.9598  0.3609 -0.4596
  282MPD2     N 4316   2.247   3.137  14.929  0.4526  0.2746 -0.1744
  282MPD2    H5 4317   2.181   3.187  14.987 -1.9899 -0.9019 -1.9436
  282MPD2    N1 4318   2.509   3.245  15.297  0.0586  0.1049 -0.7045
  282MPD2    H7 4319   2.422   3.279  15.336  1.8252  2.2373  1.3487
  283TMC3    C1 4320   2.573   3.267  15.522 -0.7439 -0.5132 -0.1549
  283TMC3    C2 4321   2.606   3.381  15.586  0.4119  0.8780 -0.2235
  283TMC3    C3 4322   2.575   3.386  15.719  1.1114 -0.0779 -0.7124
  283TMC3    C4 4323   2.522   3.154  15.579 -0.6686 -0.4935 -0.2979
  283TMC3    C5 4324   2.510   3.157  15.713 -0.3012  0.1448 -0.7149
  283TMC3    C6 4325   2.542   3.269  15.791 -0.2530  0.5686  0.1152
  283TMC3     C 4326   2.613   3.257  15.386 -0.0308  0.2965 -0.5025
  283TMC3     O 4327   2.726   3.212  15.364  0.1077  1.0020  0.1584
  283TMC3     H 4328   2.642   3.465  15.528  2.0619  0.4681  0.2184
  283TMC3    H1 4329   2.497   3.073  15.511 -0.8446 -0.5320 -0.1882
  283TMC3    H2 4330   2.539   3.260  15.898 -0.2433 -0.5858  0.0134
  283TMC3    C7 4331   2.442   3.043  15.773  0.8710  0.0519  0.4211
  283TMC3    C8 4332   2.608   3.509  15.799  0.7894  0.2053  1.1142
  283TMC3    O1 4333   2.406   3.057  15.891 -0.3060 -0.7453  0.0861
  283TMC3    O2 4334   2.569   3.499  15.915 -0.0169 -0.2126  0.0847
  284MPD2     C 4335   0.197   2.272  11.870 -0.3477 -0.9627  0.5327
  284MPD2    C1 4336   0.331   2.240  11.878  0.2337  0.6719  0.8867
  284MPD2    C2 4337   0.364   2.165  11.987  0.2548  0.3605 -0.3629
  284MPD2    C3 4338   0.281   2.128  12.084 -0.0648  0.2515 -0.2713
  284MPD2    C4 4339   0.146   2.136  12.061  0.0040 -0.7125 -0.5481
  284MPD2    C5 4340   0.109   2.205  11.951 -0.2496 -0.4347 -0.1742
  284MPD2     H 4341   0.471   2.163  12.004  0.1018 -0.6590  0.4392
  284MPD2    H1 4342   0.079   2.087  12.130 -0.5641  1.5285  0.5052
  284MPD2    H2 4343   0.161   2.337  11.791  2.6565  1.3626  1.0600
  284MPD2    H3 4344   0.003   2.222  11.932 -0.6122 -1.6080  0.7896
  284MPD2     N 4345   0.325   2.061  12.196  0.5312  0.2337  0.4157
  284MPD2    H5 4346   0.423   2.046  12.212  0.4003 -0.8690  0.1933
  284MPD2    N1 4347   0.428   2.289  11.786 -0.5348 -0.5095  0.2826
  284MPD2    H7 4348   0.522   2.261  11.811  1.1584  0.5121 -5.0074
  285TMC3    C1 4349   0.524   2.424  11.626  0.2231 -0.2135  0.3785
  285TMC3    C2 4350   0.617   2.330  11.605 -0.0292 -0.3896  0.2113
  285TMC3    C3 4351   0.742   2.364  11.588  0.0114  0.3159 -0.3685
  285TMC3    C4 4352   0.561   2.558  11.636 -0.0572 -0.3945 -0.3257
  285TMC3    C5 4353   0.696   2.590  11.620  0.5543  0.4122 -0.0402
  285TMC3    C6 4354   0.787   2.492  11.606  0.0383  0.1139  0.1192
  285TMC3     C 4355   0.406   2.389  11.698  0.0205 -0.3943 -0.4523
  285TMC3     O 4356   0.322   2.477  11.695 -0.6761 -0.5434  0.2620
  285TMC3     H 4357   0.580   2.228  11.602 -2.9766  0.5704  3.6269
  285TMC3    H1 4358   0.484   2.628  11.667  1.1543  1.8624 -2.4278
  285TMC3    H2 4359   0.888   2.520  11.576  0.2432  0.4522  1.1188
  285TMC3    C7 4360   0.737   2.725  11.669 -0.1239  0.6225 -0.2881
  285TMC3    C8 4361   0.834   2.267  11.528 -0.2893  0.2586 -0.5026
  285TMC3    O1 4362   0.661   2.819  11.671  0.5233 -0.5718 -0.3732
  285TMC3    O2 4363   0.779   2.166  11.490 -0.0415  0.6763 -0.2366
  286MPD2     C 4364   1.620   1.385   1.511  0.1678 -0.1871 -0.2359
  286MPD2    C1 4365   1.518   1.318   1.456 -0.4851 -0.1950 -0.0327
  286MPD2    C2 4366   1.540   1.218   1.365 -0.1301  0.8344  0.2197
  286MPD2    C3 4367   1.672   1.179   1.339 -0.2446  0.6939 -0.3953
  286MPD2    C4 4368   1.775   1.243   1.403 -0.5963  0.5001 -0.0380
  286MPD2    C5 4369   1.750   1.348   1.487 -0.0711 -0.0408 -0.0513
  286MPD2     H 4370   1.453   1.161   1.335  1.2199  0.9419 -3.8597
  286MPD2    H1 4371   1.879   1.215   1.392 -0.8258 -1.0735  1.7581
  286MPD2    H2 4372   1.603   1.467   1.579  1.7610 -0.5626  0.6286
  286MPD2    H3 4373   1.835   1.392   1.537 -0.7769 -2.3397  3.1896
  286MPD2     N 4374   1.704   1.066   1.255  0.3540 -0.2491  0.0612
  286MPD2    H5 4375   1.802   1.040   1.250  0.0296 -1.2680 -1.0806
  286MPD2    N1 4376   1.381   1.343   1.496 -0.4080  0.7472  0.3537
  286MPD2    H7 4377   1.310   1.282   1.457  0.0755  0.4617 -0.0763
  287TMC3    C1 4378   1.670   0.888   1.111 -0.1606  0.1964 -0.2444
  287TMC3    C2 4379   1.586   0.828   1.023  0.2795 -0.2522  0.3060
  287TMC3    C3 4380   1.586   0.693   1.008 -0.5712 -0.0613  0.0959
  287TMC3    C4 4381   1.760   0.810   1.182 -0.5725 -0.5341 -0.4156
  287TMC3    C5 4382   1.753   0.673   1.170  0.7962 -0.2825  0.1828
  287TMC3    C6 4383   1.662   0.611   1.083  0.4821 -0.2173 -0.4755
  287TMC3     C 4384   1.614   1.013   1.169  0.1613  0.4617  0.3851
  287TMC3     O 4385   1.499   1.039   1.134  0.2637  0.3963 -0.1326
  287TMC3     H 4386   1.524   0.898   0.968  0.0339  0.6021  1.6493
  287TMC3    H1 4387   1.843   0.851   1.240  0.5378 -0.5301 -2.0047
  287TMC3    H2 4388   1.672   0.504   1.068  0.2154  0.0127 -2.2258
  287TMC3    C7 4389   1.839   0.588   1.248 -0.3136  0.5921 -0.5626
  287TMC3    C8 4390   1.465   0.626   0.957 -1.1451  0.3347 -0.0816
  287TMC3    O1 4391   1.946   0.635   1.284  0.0845  0.3771 -0.0836
  287TMC3    O2 4392   1.463   0.503   0.957  0.2058  0.0745 -0.2307
  288TMC3    C1 4393   3.242   1.050  14.806 -0.0668  0.6378 -0.1999
  288TMC3    C2 4394   3.151   0.963  14.855 -1.0839  0.5329  0.5604
  288TMC3    C3 4395   3.019   0.987  14.835  0.0469  0.8178 -0.6492
  288TMC3    C4 4396   3.202   1.161  14.730  0.6767 -0.6326  0.5760
  288TMC3    C5 4397   3.074   1.173  14.693  0.5056 -0.4691  0.2211
  288TMC3    C6 4398   2.986   1.093  14.763 -0.8854  0.2629  0.4101
  288TMC3     C 4399   3.387   1.025  14.835 -0.7313 -0.2491 -0.6229
  288TMC3     O 4400   3.418   0.947  14.926 -0.5889 -0.1516  0.5217
  288TMC3     H 4401   3.186   0.875  14.907  1.0486  0.6739 -0.6142
  288TMC3    H1 4402   3.272   1.236  14.694  1.3836 -0.4854  2.2615
  288TMC3    H2 4403   2.882   1.126  14.767 -0.9915  0.0594 -0.6256
  288TMC3    C7 4404   3.032   1.298  14.635  0.0658  0.2332 -0.3978
  288TMC3    C8 4405   2.938   0.971  14.952 -0.2229  0.4243  0.1183
  288TMC3    O1 4406   2.911   1.320  14.644 -0.2014  0.1615  0.0559
  288TMC3    O2 4407   2.928   1.069  15.022  0.6613 -0.2478 -0.2694
  289MPD2     C 4408   3.303   0.278  14.875 -0.6292  0.5257  0.1202
  289MPD2    C1 4409   3.297   0.390  14.791 -0.4364  0.0229 -0.0330
  289MPD2    C2 4410   3.202   0.410  14.690  0.3114 -0.1219  1.1241
  289MPD2    C3 4411   3.096   0.322  14.679 -0.5737  0.5767  0.4892
  289MPD2    C4 4412   3.094   0.215  14.764  0.0043 -0.1008 -0.3518
  289MPD2    C5 4413   3.197   0.194  14.853 -0.7379  0.5178 -0.1946
  289MPD2     H 4414   3.201   0.498  14.627 -1.5628 -0.0669  1.2109
  289MPD2    H1 4415   3.015   0.141  14.774  0.4637 -0.7113 -1.1672
  289MPD2    H2 4416   3.376   0.261  14.953 -1.2149 -1.4662  0.2364
  289MPD2    H3 4417   3.185   0.112  14.923  4.4537 -1.9891 -2.1732
  289MPD2     N 4418   3.002   0.323  14.578  0.5339 -0.2621  0.3291
  289MPD2    H5 4419   2.942   0.242  14.579  1.7282 -1.1223  1.5648
  289MPD2    N1 4420   3.406   0.473  14.803 -0.0235 -0.1618  0.3470
  289MPD2    H7 4421   3.482   0.431  14.855  0.3637  1.9371  1.4847
  290TMC3    C1 4422   2.869   0.421  14.401  0.3842 -0.0938  1.1231
  290TMC3    C2 4423   2.820   0.549  14.369 -0.1702  0.3716 -0.2280
  290TMC3    C3 4424   2.713   0.539  14.281  0.2502 -0.4959 -0.8378
  290TMC3    C4 4425   2.819   0.300  14.359 -0.5418 -0.1279 -0.1546
  290TMC3    C5 4426   2.705   0.306  14.279  1.2098  1.0557 -0.4873
  290TMC3    C6 4427   2.664   0.426  14.232  0.8499 -0.5625 -0.3558
  290TMC3     C 4428   2.980   0.435  14.495  0.0175 -0.1475 -0.1104
  290TMC3     O 4429   3.022   0.549  14.513 -0.3398 -0.0344  0.2876
  290TMC3     H 4430   2.861   0.642  14.407 -0.5361  0.7852 -0.8521
  290TMC3    H1 4431   2.875   0.208  14.365 -0.7709 -0.2199  0.6022
  290TMC3    H2 4432   2.572   0.432  14.175  0.3869 -0.5420  0.3868
  290TMC3    C7 4433   2.663   0.188  14.212 -0.1435  0.0386 -0.4342
  290TMC3    C8 4434   2.664   0.667  14.227  0.0395 -0.6970 -0.5775
  290TMC3    O1 4435   2.607   0.206  14.105  0.1029 -0.2852  0.0204
  290TMC3    O2 4436   2.587   0.666  14.130 -0.0726 -0.3812 -0.6200
  291MPD2     C 4437   1.532   0.097   0.325  0.1410 -0.5886 -0.5160
  291MPD2    C1 4438   1.653   0.039   0.343 -0.6746 -0.0680 -0.1876
  291MPD2    C2 4439   1.761   0.116   0.353 -0.2211 -0.6154  0.3244
  291MPD2    C3 4440   1.761   0.253   0.347 -0.0392  0.8880 -0.3492
  291MPD2    C4 4441   1.642   0.311   0.317  0.2755  0.0673 -0.4058
  291MPD2    C5 4442   1.535   0.235   0.313  0.2261  0.0972  0.7855
  291MPD2     H 4443   1.854   0.064   0.369  1.2284  1.3632 -1.6024
  291MPD2    H1 4444   1.629   0.419   0.315 -4.2044 -0.4185  1.8784
  291MPD2    H2 4445   1.436   0.047   0.317  0.4046 -1.5387  2.2077
  291MPD2    H3 4446   1.443   0.287   0.290 -0.4271 -1.8084 -0.8942
  291MPD2     N 4447   1.874   0.340   0.366 -0.1115  0.1327  0.2888
  291MPD2    H5 4448   1.866   0.438   0.342 -2.3469 -0.3614 -1.0047
  291MPD2    N1 4449   1.662   4.632   0.344 -0.5773  0.5901 -0.8041
  291MPD2    H7 4450   1.572   4.588   0.329 -0.7997  0.5461  0.7081
  292TMC3    C1 4451   1.738   4.416   0.383 -0.4221 -0.5587 -0.7467
  292TMC3    C2 4452   1.811   4.344   0.477 -0.0764 -0.2568 -0.2893
  292TMC3    C3 4453   1.765   4.231   0.535 -0.5937 -0.2555 -0.2013
  292TMC3    C4 4454   1.614   4.367   0.364  0.7904  0.4483  0.0232
  292TMC3    C5 4455   1.568   4.250   0.424  0.0158  0.0179  0.4683
  292TMC3    C6 4456   1.648   4.168   0.501 -0.6933  0.3458 -0.0686
  292TMC3     C 4457   1.769   4.556   0.381  0.5829  0.0244 -0.0364
  292TMC3     O 4458   1.882   4.586   0.410  0.5817  0.6499  0.2339
  292TMC3     H 4459   1.904   4.389   0.511  1.9527 -2.1956 -3.2663
  292TMC3    H1 4460   1.549   4.421   0.297 -1.2798 -3.2853 -1.0195
  292TMC3    H2 4461   1.617   4.073   0.543 -0.4747 -1.3482 -3.6699
  292TMC3    C7 4462   1.462   4.180   0.354 -0.6552  0.3431  0.2913
  292TMC3    C8 4463   1.836   4.188   0.661  0.4231  0.6654  0.1978
  292TMC3    O1 4464   1.351   4.229   0.347  0.1839 -0.0571 -0.0433
  292TMC3    O2 4465   1.961   4.195   0.673  0.1182 -0.2804  0.0385
  293MPD2     C 4466   3.741   0.872  12.839  0.5947  0.4896 -0.0095
  293MPD2    C1 4467   3.706   0.809  12.952  0.4994  0.1510  0.6094
  293MPD2    C2 4468   3.774   0.840  13.073  0.2230 -0.1223 -0.6758
  293MPD2    C3 4469   3.862   0.947  13.072  0.0590  0.0812 -0.0701
  293MPD2    C4 4470   3.903   1.003  12.954 -0.2955  0.2861 -0.1150
  293MPD2    C5 4471   3.840   0.970  12.838  0.1685 -0.1242  0.1970
  293MPD2     H 4472   3.740   0.794  13.165 -0.7570  2.4121  0.2238
  293MPD2    H1 4473   3.958   1.097  12.951 -2.4181  1.5700  0.8656
  293MPD2    H2 4474   3.692   0.853  12.744  0.3340 -0.4704  0.3184
  293MPD2    H3 4475   3.868   1.025  12.749  0.6575 -0.0557  0.3920
  293MPD2     N 4476   3.903   1.015  13.189  0.2914 -0.1249 -0.6548
  293MPD2    H5 4477   3.953   1.103  13.173 -1.3579  0.7061 -1.2111
  293MPD2    N1 4478   3.594   0.733  12.954  0.5263 -0.3377 -0.1614
  293MPD2    H7 4479   3.555   0.708  12.864 -1.5901  0.0244  0.6502
  294TMC3    C1 4480   3.376   0.690  13.030  0.2495 -0.2632 -0.6072
  294TMC3    C2 4481   3.341   0.657  12.902  0.9148  0.2629 -0.3919
  294TMC3    C3 4482   3.219   0.677  12.850 -0.7097 -0.7877  0.3357
  294TMC3    C4 4483   3.294   0.766  13.105  0.7752 -0.5849  0.5001
  294TMC3    C5 4484   3.169   0.798  13.052  0.2672  0.4697 -1.2191
  294TMC3    C6 4485   3.129   0.754  12.927 -0.5349 -0.5298 -0.1342
  294TMC3     C 4486   3.521   0.700  13.065  0.7236  0.0412 -0.3688
  294TMC3     O 4487   3.539   0.704  13.185 -0.0530 -1.0929  0.4177
  294TMC3     H 4488   3.412   0.598  12.845  1.6596 -1.2908  2.1032
  294TMC3    H1 4489   3.318   0.812  13.201 -1.3295  0.2198  0.6631
  294TMC3    H2 4490   3.030   0.774  12.889 -0.5537 -0.0046  0.1924
  294TMC3    C7 4491   3.127   0.938  13.071 -0.8013  0.8383  0.5400
  294TMC3    C8 4492   3.205   0.709  12.713  0.3693 -0.2626 -0.2091
  294TMC3    O1 4493   3.127   0.994  13.181 -0.1814 -0.1219  0.3025
  294TMC3    O2 4494   3.192   0.828  12.686 -0.2615  0.8897 -0.1384
  295MPD2     C 4495   0.427   0.745   1.013 -0.2526  0.2710 -0.4816
  295MPD2    C1 4496   0.396   0.656   0.916  0.2057  0.6867 -0.2484
  295MPD2    C2 4497   0.366   0.528   0.955 -0.1206  0.0966 -0.5821
  295MPD2    C3 4498   0.374   0.491   1.093  0.8166 -0.3369 -0.6984
  295MPD2    C4 4499   0.403   0.584   1.182 -0.3044 -0.0932 -0.1401
  295MPD2    C5 4500   0.431   0.712   1.141  0.0236  0.0328  0.5110
  295MPD2     H 4501   0.353   0.450   0.881 -0.2850  2.0264 -2.6084
  295MPD2    H1 4502   0.389   0.576   1.289  1.8570 -0.7145  0.0942
  295MPD2    H2 4503   0.458   0.847   0.991 -0.6324  0.1035 -1.8024
  295MPD2    H3 4504   0.450   0.788   1.216  0.7997  0.1419  0.1955
  295MPD2     N 4505   0.332   0.371   1.153 -0.1336  0.0748 -0.5491
  295MPD2    H5 4506   0.375   0.358   1.244 -2.8734  0.8239  0.8253
  295MPD2    N1 4507   0.381   0.685   0.776  0.0242 -0.4519  0.1210
  295MPD2    H7 4508   0.329   0.618   0.721  0.8740  0.9216 -2.3394
  296TMC3    C1 4509   0.222   0.169   1.180  0.5622 -0.3694 -1.1483
  296TMC3    C2 4510   0.250   0.180   1.318 -0.0592 -0.7396 -0.9318
  296TMC3    C3 4511   0.196   0.085   1.404  0.3255 -0.3426  0.3140
  296TMC3    C4 4512   0.135   0.072   1.138 -0.1380  0.1844 -0.0695
  296TMC3    C5 4513   0.088   4.726   1.227 -0.2350 -0.1890  1.0154
  296TMC3    C6 4514   0.107   4.733   1.362  0.6666 -0.6441  0.4776
  296TMC3     C 4515   0.255   0.276   1.088  0.6451  0.1778  0.0863
  296TMC3     O 4516   0.221   0.278   0.971  0.6070 -0.4085  0.5009
  296TMC3     H 4517   0.329   0.238   1.365 -0.2189 -0.5733 -0.8656
  296TMC3    H1 4518   0.109   0.059   1.033 -0.5162  0.2906  0.0083
  296TMC3    H2 4519   0.068   4.654   1.426  3.9866 -2.4534  0.2246
  296TMC3    C7 4520   0.033   4.604   1.171  0.0799 -0.8957 -0.0809
  296TMC3    C8 4521   0.217   0.116   1.544 -0.4833 -0.9090 -0.4544
  296TMC3    O1 4522   0.078   4.581   1.059 -0.0325 -0.2159 -0.2729
  296TMC3    O2 4523   0.223   0.228   1.581 -0.3337 -0.2065 -0.1503
  297MPD2     C 4524   1.244   1.800  16.210 -0.8168 -0.2207 -0.5295
  297MPD2    C1 4525   1.254   1.911  16.126 -0.3106  0.3616 -0.1944
  297MPD2    C2 4526   1.380   1.971  16.119  0.5092 -0.0923 -0.9129
  297MPD2    C3 4527   1.492   1.935  16.182 -0.0010  0.1659 -0.2587
  297MPD2    C4 4528   1.483   1.833  16.270 -0.4264 -0.2386 -0.2419
  297MPD2    C5 4529   1.359   1.774  16.287 -0.0491 -0.0498  0.4373
  297MPD2     H 4530   1.400   2.060  16.060 -1.2057  1.0990  0.3123
  297MPD2    H1 4531   1.556   1.797  16.342  1.3294  1.6949 -1.0480
  297MPD2    H2 4532   1.150   1.755  16.240 -3.1092  3.5449 -2.0850
  297MPD2    H3 4533   1.344   1.698  16.363  1.4334 -0.3149  0.4771
  297MPD2     N 4534   1.614   1.998  16.155  0.0988  0.5204 -0.5391
  297MPD2    H5 4535   1.615   2.075  16.089 -2.4164  1.5601  0.6289
  297MPD2    N1 4536   1.149   1.967  16.046  0.1593  0.8124  0.5574
  297MPD2    H7 4537   1.176   2.041  15.982  1.0739 -0.9597 -1.1028
  298TMC3    C1 4538   0.933   2.034  15.984 -0.7096 -0.1346 -0.0738
  298TMC3    C2 4539   0.977   2.083  15.866  0.2223  0.5643 -0.3150
  298TMC3    C3 4540   0.900   2.179  15.809 -0.0970 -0.0484 -0.4368
  298TMC3    C4 4541   0.822   2.079  16.049 -0.5077  1.2904 -0.5190
  298TMC3    C5 4542   0.746   2.172  15.980 -0.5956 -0.3387  0.2776
  298TMC3    C6 4543   0.782   2.220  15.860  0.1741 -0.5513 -0.3653
  298TMC3     C 4544   1.014   1.936  16.056 -0.2555 -0.5588 -0.4773
  298TMC3     O 4545   0.954   1.840  16.101 -0.3538 -0.2907 -0.0208
  298TMC3     H 4546   1.066   2.055  15.811 -1.2262 -3.2868 -0.6782
  298TMC3    H1 4547   0.795   2.038  16.146 -1.0395  2.3381 -0.2173
  298TMC3    H2 4548   0.725   2.302  15.817 -0.2824 -1.3117 -1.2145
  298TMC3    C7 4549   0.648   2.242  16.067 -0.0861  0.2377  0.0770
  298TMC3    C8 4550   0.939   2.216  15.673 -0.4683 -0.1259 -0.1335
  298TMC3    O1 4551   0.644   2.221  16.189 -0.2177 -0.1477 -0.1051
  298TMC3    O2 4552   1.057   2.207  15.651 -0.2002 -0.4639  0.0132
  299MPD2     C 4553   2.561   1.767  10.774  0.7696 -0.0038 -0.6303
  299MPD2    C1 4554   2.476   1.719  10.869 -0.2587  0.0940 -0.2099
  299MPD2    C2 4555   2.380   1.622  10.840 -0.5896  0.5238  0.5152
  299MPD2    C3 4556   2.342   1.607  10.710 -0.0378  0.4540  0.0380
  299MPD2    C4 4557   2.421   1.670  10.609 -0.0870 -0.1160  0.3907
  299MPD2    C5 4558   2.533   1.739  10.641 -0.4955  0.0173  0.2448
  299MPD2     H 4559   2.326   1.572  10.919 -1.7562  0.9895  0.0082
  299MPD2    H1 4560   2.401   1.653  10.503 -2.4900 -0.7422  0.9481
  299MPD2    H2 4561   2.654   1.819  10.794  0.9386  0.1378 -1.7511
  299MPD2    H3 4562   2.600   1.780  10.566  0.0088 -1.0427  0.1095
  299MPD2     N 4563   2.229   1.530  10.658  0.3856 -0.2617  0.1331
  299MPD2    H5 4564   2.212   1.525  10.558  1.2540  1.1336 -0.0870
  299MPD2    N1 4565   2.491   1.760  11.001 -0.2594 -0.1579  0.0483
  299MPD2    H7 4566   2.438   1.713  11.073 -0.9766 -1.6174 -1.4201
  300TMC3    C1 4567   2.042   1.395  10.654 -0.5067 -0.3253  0.0904
  300TMC3    C2 4568   1.970   1.485  10.576 -0.0621  0.3792 -0.3667
  300TMC3    C3 4569   1.844   1.450  10.536 -0.1722  0.1802  0.3152
  300TMC3    C4 4570   1.980   1.277  10.698 -0.4236 -0.1578 -0.6480
  300TMC3    C5 4571   1.855   1.244  10.648 -0.0042 -0.2201  0.8682
  300TMC3    C6 4572   1.785   1.336  10.572 -0.0976  0.3804  0.2655
  300TMC3     C 4573   2.157   1.438  10.733 -0.1832  1.1286 -1.2086
  300TMC3     O 4574   2.180   1.382  10.839  0.0919  0.4174 -0.1994
  300TMC3     H 4575   2.016   1.580  10.553  0.6107 -0.0486 -0.7774
  300TMC3    H1 4576   2.032   1.208  10.764  0.7234 -0.6587 -2.0831
  300TMC3    H2 4577   1.683   1.322  10.537  0.2237  0.6234 -0.7596
  300TMC3    C7 4578   1.775   1.169  10.739  0.0105 -0.2093 -0.2072
  300TMC3    C8 4579   1.760   1.562  10.510 -0.3002 -0.7076  0.1606
  300TMC3    O1 4580   1.822   1.065  10.787  0.2967  0.9198  0.1770
  300TMC3    O2 4581   1.722   1.574  10.397  0.2169 -0.1190 -0.2199
  301MPD2     C 4582   4.375   3.304   1.226 -0.0639  0.3269 -0.8688
  301MPD2    C1 4583   4.252   3.263   1.174  1.1629 -0.0255 -0.6540
  301MPD2    C2 4584   4.234   3.130   1.148  1.1116  0.2777  0.1395
  301MPD2    C3 4585   4.334   3.037   1.172 -0.2239 -0.5229  0.2742
  301MPD2    C4 4586   4.447   3.078   1.239  0.2024 -0.1202  0.3584
  301MPD2    C5 4587   4.468   3.215   1.270  0.1190 -0.5908  0.2594
  301MPD2     H 4588   4.140   3.099   1.103  1.1578  0.8118 -0.3196
  301MPD2    H1 4589   4.518   3.006   1.278 -0.7829 -1.5025 -0.4227
  301MPD2    H2 4590   4.402   3.408   1.240  1.5411 -0.3779  1.3295
  301MPD2    H3 4591   4.554   3.241   1.331  0.7308 -0.3696 -0.7026
  301MPD2     N 4592   4.310   2.896   1.153 -0.2533 -0.7694 -0.1243
  301MPD2    H5 4593   4.373   2.828   1.194 -0.3594 -0.2347  0.9228
  301MPD2    N1 4594   4.155   3.347   1.133 -0.2175 -0.8802  0.1164
  301MPD2    H7 4595   4.088   3.299   1.074 -0.0718 -2.4910  1.2675
  302TMC3    C1 4596   4.210   2.696   1.074  0.4768 -0.0082 -0.2578
  302TMC3    C2 4597   4.280   2.625   1.168  0.2359 -0.6903 -0.0870
  302TMC3    C3 4598   4.258   2.490   1.180 -0.5153  0.1895  0.4750
  302TMC3    C4 4599   4.111   2.636   1.002  0.1936  0.0340  0.3148
  302TMC3    C5 4600   4.100   2.502   1.017  0.7670  0.3624  0.5117
  302TMC3    C6 4601   4.174   2.425   1.099 -0.4084 -0.6128 -0.4946
  302TMC3     C 4602   4.213   2.840   1.071 -0.8197 -0.2705 -0.1516
  302TMC3     O 4603   4.122   2.899   1.015 -0.0699 -0.5403 -0.3830
  302TMC3     H 4604   4.359   2.670   1.228 -0.4916  0.9051 -0.3229
  302TMC3    H1 4605   4.046   2.694   0.937 -0.8121 -0.7659  0.6120
  302TMC3    H2 4606   4.147   2.321   1.113 -0.9065 -0.3167  0.7357
  302TMC3    C7 4607   3.980   2.435   0.964  0.0570 -0.0278 -0.2739
  302TMC3    C8 4608   4.291   2.430   1.308 -0.5238  0.3705 -0.6988
  302TMC3    O1 4609   3.989   2.318   0.924  0.7374 -0.3971  0.2981
  302TMC3    O2 4610   4.298   2.310   1.312 -0.3157  0.2452  0.6113
  303MPD2     C 4611   4.164   0.926  10.885  0.6752  0.4105  0.4253
  303MPD2    C1 4612   4.034   0.958  10.846 -0.0401  0.1563 -0.6159
  303MPD2    C2 4613   4.020   1.032  10.729  0.1044 -0.7054 -0.0865
  303MPD2    C3 4614   4.132   1.063  10.655 -0.3212  0.0524  0.1990
  303MPD2    C4 4615   4.257   1.030  10.696  0.9905 -0.1260  0.9163
  303MPD2    C5 4616   4.269   0.966  10.810 -0.3200  0.0100 -0.8246
  303MPD2     H 4617   3.918   1.047  10.696 -0.0016  0.4975  0.7918
  303MPD2    H1 4618   4.351   1.056  10.649  1.6142 -1.5311  1.3826
  303MPD2    H2 4619   4.187   0.876  10.978  0.3700 -1.5031 -0.5443
  303MPD2    H3 4620   4.360   0.932  10.858  0.2155 -0.2496 -2.0415
  303MPD2     N 4621   4.125   1.114  10.527  0.3740  0.0170  0.3368
  303MPD2    H5 4622   4.213   1.117  10.476  0.5819  1.7210  0.8100
  303MPD2    N1 4623   3.924   0.917  10.927 -0.7269 -0.6902  0.4194
  303MPD2    H7 4624   3.936   0.855  11.007  2.7958 -1.8838 -1.0295
  304TMC3    C1 4625   3.709   0.913  11.022 -0.6406 -0.5081  0.3173
  304TMC3    C2 4626   3.611   0.998  11.068  0.0371 -0.1341  0.2732
  304TMC3    C3 4627   3.487   0.948  11.062  0.9485  0.1615 -0.3017
  304TMC3    C4 4628   3.681   0.787  10.973 -0.6586  0.1952 -0.3595
  304TMC3    C5 4629   3.556   0.739  10.970 -0.2845 -0.2552 -0.2414
  304TMC3    C6 4630   3.453   0.815  11.027 -0.3509 -0.2952 -0.2766
  304TMC3     C 4631   3.798   0.969  10.914 -0.4843 -0.1464 -0.3819
  304TMC3     O 4632   3.754   1.063  10.850  0.2419 -0.6843  0.0667
  304TMC3     H 4633   3.632   1.104  11.072 -0.3057 -0.0736  0.5356
  304TMC3    H1 4634   3.766   0.730  10.937 -1.6791 -2.0568  0.7868
  304TMC3    H2 4635   3.349   0.784  11.023 -0.0417 -1.0764 -2.1348
  304TMC3    C7 4636   3.526   0.700  10.836 -0.3773  0.6899  0.1137
  304TMC3    C8 4637   3.387   1.042  11.007 -0.7956  0.4210 -0.3865
  304TMC3    O1 4638   3.604   0.622  10.780 -0.0519  0.4761  0.2618
  304TMC3    O2 4639   3.326   0.999  10.909  0.1716 -0.8626 -0.1428
  305MPD2     C 4640   2.278   3.297  14.510  0.3871 -0.1022  0.3697
  305MPD2    C1 4641   2.372   3.394  14.493  0.0033 -0.1158  0.3578
  305MPD2    C2 4642   2.439   3.412  14.369  0.8669 -0.4170 -0.3456
  305MPD2    C3 4643   2.414   3.315  14.269  0.0918  0.2222 -0.1007
  305MPD2    C4 4644   2.313   3.222  14.291  0.9341  0.0532  0.7909
  305MPD2    C5 4645   2.243   3.213  14.409  0.4571 -0.5934  0.3866
  305MPD2     H 4646   2.507   3.495  14.354  1.0387 -0.4379  0.2795
  305MPD2    H1 4647   2.302   3.151  14.209 -1.4571 -1.4313  2.3983
  305MPD2    H2 4648   2.227   3.295  14.606  0.0755 -1.5116  0.1737
  305MPD2    H3 4649   2.168   3.137  14.430 -0.9933  0.4360 -1.1067
  305MPD2     N 4650   2.474   3.309  14.141 -0.4014  0.2226  0.0245
  305MPD2    H5 4651   2.446   3.232  14.081 -0.5083 -0.0545  0.4305
  305MPD2    N1 4652   2.389   3.480  14.606  0.4592 -0.0798 -0.0833
  305MPD2    H7 4653   2.338   3.456  14.690 -1.6070  1.7821 -0.7989
  306TMC3    C1 4654   2.491   3.637  14.747  0.5502 -0.3640 -0.3661
  306TMC3    C2 4655   2.478   3.556  14.855  0.5026  0.2065 -0.0701
  306TMC3    C3 4656   2.463   3.600  14.979 -0.3613 -0.1979  0.6091
  306TMC3    C4 4657   2.532   3.766  14.764 -0.3445 -0.2963 -0.2629
  306TMC3    C5 4658   2.512   3.818  14.890  0.3106  0.0911  0.2021
  306TMC3    C6 4659   2.460   3.739  14.996  0.0389 -0.3396  0.5438
  306TMC3     C 4660   2.477   3.582  14.616  0.0062  0.5016  0.6523
  306TMC3     O 4661   2.555   3.634  14.534 -0.0054 -0.3555 -0.4462
  306TMC3     H 4662   2.467   3.451  14.832  0.0271  0.0148  1.0614
  306TMC3    H1 4663   2.571   3.829  14.684 -1.1007  0.5967  0.0650
  306TMC3    H2 4664   2.444   3.776  15.097 -1.0437  2.3460 -0.6046
  306TMC3    C7 4665   2.623   3.900  14.932 -0.6758  0.4031 -0.0923
  306TMC3    C8 4666   2.552   3.533  15.072 -0.2162  0.2825 -0.4392
  306TMC3    O1 4667   2.658   3.980  14.851 -0.2821  0.2644 -0.6163
  306TMC3    O2 4668   2.573   3.595  15.177 -0.0813  0.2183  0.1608
  307MPD2     C 4669   0.328   1.531   0.776  0.4044  0.3480 -0.1199
  307MPD2    C1 4670   0.289   1.665   0.777  0.1497  0.7181 -0.1673
  307MPD2    C2 4671   0.213   1.721   0.876  0.1588  0.0493  0.7683
  307MPD2    C3 4672   0.184   1.642   0.988  0.3162  0.4282 -0.3926
  307MPD2    C4 4673   0.221   1.508   0.987  0.2912  0.0883  0.1741
  307MPD2    C5 4674   0.287   1.454   0.877  1.2787  0.5583 -0.1854
  307MPD2     H 4675   0.169   1.819   0.864  1.8708  0.4756 -2.0280
  307MPD2    H1 4676   0.184   1.435   1.058 -0.1691 -0.8737 -1.0737
  307MPD2    H2 4677   0.385   1.483   0.697 -0.1149 -2.9623  1.5341
  307MPD2    H3 4678   0.303   1.346   0.876 -0.6509  0.2690 -0.3641
  307MPD2     N 4679   0.116   1.700   1.097  0.4680  0.1800  0.5425
  307MPD2    H5 4680   0.090   1.798   1.085  0.5604  0.1334 -0.0213
  307MPD2    N1 4681   0.309   1.747   0.665 -0.5813  0.3723 -0.0212
  307MPD2    H7 4682   0.266   1.838   0.679  1.4019  0.8273  3.1589
  308TMC3    C1 4683   4.503   1.710   1.402 -0.6500 -0.7232 -0.1176
  308TMC3    C2 4684   4.490   1.847   1.402  0.1603  0.7935 -0.1069
  308TMC3    C3 4685   4.592   1.919   1.341 -0.5307 -0.2506 -0.4047
  308TMC3    C4 4686   4.607   1.640   1.345  0.5491 -0.0211 -0.2553
  308TMC3    C5 4687   4.705   1.718   1.286  0.0802  0.7563  0.1261
  308TMC3    C6 4688   4.703   1.854   1.289 -0.4854  0.0106 -0.4272
  308TMC3     C 4689   4.379   1.637   1.396 -0.5115  0.6005  0.4162
  308TMC3     O 4690   4.387   1.516   1.411  0.0642 -0.1460  0.0322
  308TMC3     H 4691   4.412   1.900   1.455  0.8600  1.5867  0.1240
  308TMC3    H1 4692   4.600   1.535   1.321  2.0762 -0.1441 -0.1920
  308TMC3    H2 4693   0.044   1.910   1.243 -2.2173  3.7537  1.1314
  308TMC3    C7 4694   0.054   1.636   1.203 -0.4742 -0.3905 -0.0882
  308TMC3    C8 4695   4.580   2.058   1.376  0.5577 -0.7225  0.8976
  308TMC3    O1 4696   0.065   1.520   1.226  0.3415  0.1908 -0.1550
  308TMC3    O2 4697   4.521   2.088   1.478  0.1371  0.1174 -0.2236
  309MPD2     C 4698   4.139   2.612  17.373 -0.1123 -0.0203 -0.1668
  309MPD2    C1 4699   4.145   2.479  17.349  0.3433 -0.0016  0.0728
  309MPD2    C2 4700   4.057   2.386  17.406 -0.4751  0.1397 -0.3439
  309MPD2    C3 4701   3.965   2.442  17.494  0.0195 -0.0910 -0.0040
  309MPD2    C4 4702   3.968   2.579  17.517 -0.3873 -0.7486 -1.1116
  309MPD2    C5 4703   4.047   2.664  17.457  0.1862  0.0413  0.4875
  309MPD2     H 4704   4.068   2.282  17.377 -1.8396 -0.0786 -0.0839
  309MPD2    H1 4705   3.897   2.619  17.589  2.6065  0.1063  1.3817
  309MPD2    H2 4706   4.189   2.693  17.320  2.2582 -1.2369  0.1945
  309MPD2    H3 4707   4.035   2.770  17.473 -0.4587 -0.1906  1.5502
  309MPD2     N 4708   3.850   2.375  17.547  0.0713  0.3888 -0.1099
  309MPD2    H5 4709   3.787   2.432  17.602  0.2053  2.2595 -1.9171
  309MPD2    N1 4710   4.246   2.431  17.259 -0.6537 -0.1309 -0.5166
  309MPD2    H7 4711   4.239   2.332  17.241  0.3918 -0.1371 -0.8833
  310TMC3    C1 4712   4.429   2.413  17.114 -0.3866  0.6217 -0.2935
  310TMC3    C2 4713   4.462   2.475  16.997  0.0739  0.8358  0.0788
  310TMC3    C3 4714   4.541   2.405  16.918 -0.0849 -0.3189  0.4957
  310TMC3    C4 4715   4.477   2.296  17.159 -0.1498 -0.4500 -0.1777
  310TMC3    C5 4716   4.560   2.226  17.077 -1.2255 -0.1727 -0.0968
  310TMC3    C6 4717   4.586   2.279  16.951 -1.0237 -0.4868 -0.3762
  310TMC3     C 4718   4.351   2.497  17.197 -0.6597  0.1859  0.4864
  310TMC3     O 4719   4.373   2.617  17.194 -0.2379 -0.1873 -0.3255
  310TMC3     H 4720   4.412   2.562  16.956  0.3267  1.3512  0.8713
  310TMC3    H1 4721   4.462   2.270  17.263 -2.0254  2.5069  0.2836
  310TMC3    H2 4722   4.621   2.212  16.874  0.2708 -0.0815 -0.1344
  310TMC3    C7 4723   4.625   2.102  17.109 -0.0747  0.6070 -0.8023
  310TMC3    C8 4724   4.520   2.437  16.774  0.7345  0.6989 -0.5319
  310TMC3    O1 4725   4.692   2.044  17.022 -0.7058 -0.0762 -0.3098
  310TMC3    O2 4726   4.414   2.492  16.739 -0.0845 -0.1367 -0.0809
  311MPD2     C 4727   1.863   3.141  13.344  0.2475  0.1925  0.1196
  311MPD2    C1 4728   1.824   3.232  13.241 -0.5432  0.2487 -0.4762
  311MPD2    C2 4729   1.693   3.271  13.232 -0.3183 -0.1801 -0.7696
  311MPD2    C3 4730   1.597   3.204  13.306 -0.0530  0.6735 -0.3300
  311MPD2    C4 4731   1.631   3.116  13.400  0.2475 -0.1792 -0.3825
  311MPD2    C5 4732   1.762   3.076  13.414  0.4184  0.1171  0.5211
  311MPD2     H 4733   1.666   3.343  13.156 -3.0126  0.0641  0.4263
  311MPD2    H1 4734   1.561   3.064  13.464 -0.4369  0.0325 -0.9546
  311MPD2    H2 4735   1.965   3.108  13.356  0.7839  1.7426 -0.3223
  311MPD2    H3 4736   1.791   3.011  13.496 -0.8260 -1.9454 -0.6510
  311MPD2     N 4737   1.469   3.227  13.262  0.3920  0.4511  0.3155
  311MPD2    H5 4738   1.450   3.306  13.201 -0.5334 -1.5072 -1.9034
  311MPD2    N1 4739   1.921   3.299  13.160 -0.5441 -0.0097  0.3565
  311MPD2    H7 4740   1.888   3.366  13.091  0.3126 -0.5861 -0.6123
  312TMC3    C1 4741   1.243   3.219  13.225  0.6878  0.3474 -0.6761
  312TMC3    C2 4742   1.148   3.137  13.173 -0.7181 -0.5836 -0.5115
  312TMC3    C3 4743   1.029   3.197  13.131  0.2415  0.4877 -0.0686
  312TMC3    C4 4744   1.221   3.353  13.257  0.8853 -1.0155 -0.1241
  312TMC3    C5 4745   1.107   3.412  13.204  0.4293  0.0988 -0.5979
  312TMC3    C6 4746   1.017   3.336  13.132 -0.4249 -0.1600 -0.3423
  312TMC3     C 4747   1.360   3.154  13.278 -0.2496 -0.5148  0.0537
  312TMC3     O 4748   1.355   3.036  13.321 -0.2408 -0.0064  0.0025
  312TMC3     H 4749   1.168   3.031  13.176 -1.7465 -0.8287 -2.4517
  312TMC3    H1 4750   1.287   3.409  13.321 -1.1107  0.9114  0.2557
  312TMC3    H2 4751   0.925   3.382  13.099  0.3150  1.0873 -0.6859
  312TMC3    C7 4752   1.068   3.543  13.251  0.1401 -0.0162 -0.4339
  312TMC3    C8 4753   0.920   3.123  13.062  0.2247 -0.0807 -0.4608
  312TMC3    O1 4754   0.996   3.605  13.173  0.1482  0.4691 -0.2959
  312TMC3    O2 4755   0.838   3.187  12.995  0.0956 -0.0665  0.6510
  313MPD2     C 4756   1.359   1.847  10.949 -0.0474 -0.3434 -1.0235
  313MPD2    C1 4757   1.232   1.898  10.928 -0.1444 -0.6621 -0.7962
  313MPD2    C2 4758   1.145   1.841  10.842 -0.5039  0.5888  0.2518
  313MPD2    C3 4759   1.182   1.740  10.759  0.0999 -0.7975 -0.0936
  313MPD2    C4 4760   1.314   1.702  10.760 -0.2912  0.1181  0.2078
  313MPD2    C5 4761   1.395   1.751  10.857  0.2423 -0.3915 -0.7334
  313MPD2     H 4762   1.042   1.874  10.835 -0.6099  0.6357  2.1840
  313MPD2    H1 4763   1.348   1.622  10.696 -0.1409 -0.9033  1.5522
  313MPD2    H2 4764   1.425   1.870  11.033  0.5285 -0.9760 -1.3041
  313MPD2    H3 4765   1.498   1.717  10.864  0.2071 -0.6229 -1.4311
  313MPD2     N 4766   1.091   1.684  10.664  0.5940 -0.4649  0.7010
  313MPD2    H5 4767   0.996   1.718  10.675 -0.1494 -2.3855  0.1453
  313MPD2    N1 4768   1.182   2.006  11.001 -0.7761  0.3729 -0.1641
  313MPD2    H7 4769   1.089   2.034  10.972 -0.6865  0.4426 -0.3840
  314TMC3    C1 4770   1.199   2.197  11.125 -0.0102 -0.0734  0.1948
  314TMC3    C2 4771   1.278   2.282  11.196  0.7005  0.5081 -0.0760
  314TMC3    C3 4772   1.248   2.415  11.185  0.3205  0.6551  0.5320
  314TMC3    C4 4773   1.093   2.235  11.044 -0.4853  0.3605 -0.1973
  314TMC3    C5 4774   1.079   2.370  11.028  0.1523 -0.3716  0.3585
  314TMC3    C6 4775   1.155   2.460  11.093 -0.0242  0.4340  0.9993
  314TMC3     C 4776   1.251   2.068  11.102  0.0226 -0.1230 -0.4266
  314TMC3     O 4777   1.359   2.039  11.158 -0.2933  0.7383  0.0391
  314TMC3     H 4778   1.367   2.240  11.241  0.8061 -0.4961 -1.2323
  314TMC3    H1 4779   1.023   2.169  10.993  0.6270 -0.2105 -0.9903
  314TMC3    H2 4780   1.131   2.566  11.095 -0.5701  0.3136  0.8597
  314TMC3    C7 4781   1.004   2.413  10.909 -0.0034  0.2677  0.6067
  314TMC3    C8 4782   1.312   2.514  11.271  0.2182  0.0369 -0.5974
  314TMC3    O1 4783   1.038   2.517  10.852  0.3210  0.8878  0.4630
  314TMC3    O2 4784   1.286   2.633  11.260  0.3709 -0.2184 -0.2715
  315MPD2     C 4785   0.629   2.227   0.308  0.5604 -0.0150  0.0580
  315MPD2    C1 4786   0.728   2.129   0.286  1.3018  0.9047  0.7248
  315MPD2    C2 4787   0.796   2.131   0.164  0.5475  0.6657 -0.4315
  315MPD2    C3 4788   0.762   2.229   0.073  0.4379  0.2275 -0.2750
  315MPD2    C4 4789   0.670   2.328   0.099  0.0488  0.4362 -0.1025
  315MPD2    C5 4790   0.604   2.332   0.216 -0.1861 -0.3457 -0.0215
  315MPD2     H 4791   0.863   2.048   0.150  0.1084  0.4200 -1.0910
  315MPD2    H1 4792   0.654   2.410   0.029 -1.8123  0.2365  0.1001
  315MPD2    H2 4793   0.576   2.228   0.403 -0.1942 -0.9115 -0.3445
  315MPD2    H3 4794   0.525   2.407   0.220 -1.0033 -1.0293 -3.6648
  315MPD2     N 4795   0.834   2.229  17.702  0.4564 -0.9676 -0.7892
  315MPD2    H5 4796   0.900   2.152  17.703  2.0179  0.3756 -0.4255
  315MPD2    N1 4797   0.755   2.015   0.365 -0.4301  0.0865  0.0720
  315MPD2    H7 4798   0.821   1.947   0.327 -1.5003 -0.8304 -0.1544
  316TMC3    C1 4799   0.903   2.276  17.492  0.0590  0.4971  0.6714
  316TMC3    C2 4800   1.014   2.192  17.514 -0.8457  0.6944 -0.4276
  316TMC3    C3 4801   1.106   2.189  17.411 -0.4985  0.3018  0.2769
  316TMC3    C4 4802   0.888   2.341  17.373 -0.3903 -0.4229  0.0420
  316TMC3    C5 4803   0.983   2.337  17.280  0.5305 -0.0970 -0.3406
  316TMC3    C6 4804   1.096   2.266  17.305 -0.3072 -0.6073  0.2276
  316TMC3     C 4805   0.814   2.308  17.595  0.1296  0.1155  0.8324
  316TMC3     O 4806   0.751   2.409  17.582 -0.0561  0.0526 -0.5164
  316TMC3     H 4807   1.024   2.137  17.607  1.0939 -0.1582 -1.1524
  316TMC3    H1 4808   0.799   2.402  17.358 -0.6431 -0.5020  1.2025
  316TMC3    H2 4809   1.168   2.252  17.225 -0.5091  1.4545 -0.3150
  316TMC3    C7 4810   1.000   2.443  17.182 -0.4261  0.5113 -0.2620
  316TMC3    C8 4811   1.239   2.133  17.430 -0.4354  0.3146  0.2869
  316TMC3    O1 4812   1.116   2.488  17.167 -0.6674  0.5096  0.4306
  316TMC3    O2 4813   1.333   2.156  17.356  0.1427  0.2115 -0.2917
  317MPD2     C 4814   2.880   0.492  13.418 -0.0251  0.2941  0.4094
  317MPD2    C1 4815   2.866   0.356  13.387  0.1990 -0.0355  0.6225
  317MPD2    C2 4816   2.931   0.260  13.469 -0.2994 -0.5708  0.1251
  317MPD2    C3 4817   3.008   0.305  13.577 -0.6475  0.0451 -0.4201
  317MPD2    C4 4818   3.010   0.442  13.613  0.1665  0.1989 -0.1466
  317MPD2    C5 4819   2.941   0.533  13.533 -0.2535 -0.0991  0.0662
  317MPD2     H 4820   2.926   0.156  13.438 -1.3621 -0.7347  0.8438
  317MPD2    H1 4821   3.070   0.481  13.694  1.0294  0.7359 -1.0401
  317MPD2    H2 4822   2.828   0.577  13.376  0.5571 -0.6031 -2.0974
  317MPD2    H3 4823   2.943   0.636  13.564  0.9315  0.2248 -1.0718
  317MPD2     N 4824   3.069   0.208  13.655 -0.3227  0.1846 -0.0899
  317MPD2    H5 4825   3.060   0.117  13.612 -0.6391  0.6980 -1.0983
  317MPD2    N1 4826   2.795   0.305  13.274  0.3432  0.0505 -0.0006
  317MPD2    H7 4827   2.799   0.205  13.256 -0.1098  0.0467 -0.0802
  318TMC3    C1 4828   3.202   0.110  13.834  0.0338 -0.5112  0.4840
  318TMC3    C2 4829   3.167   4.722  13.800  0.9144  0.3828  0.2785
  318TMC3    C3 4830   3.223   4.623  13.877  0.0423 -0.1496 -0.1702
  318TMC3    C4 4831   3.291   0.134  13.929 -0.0744 -0.5613 -0.4757
  318TMC3    C5 4832   3.332   0.033  14.013  0.2816 -0.9124 -0.7952
  318TMC3    C6 4833   3.295   4.644  13.991 -0.1927 -0.7824  0.5296
  318TMC3     C 4834   3.149   0.231  13.769 -0.3503 -0.0784 -0.1312
  318TMC3     O 4835   3.176   0.339  13.824  0.1851 -0.3973 -0.0055
  318TMC3     H 4836   3.098   4.695  13.721  0.0169  2.2384  0.4343
  318TMC3    H1 4837   3.318   0.236  13.951  0.4941 -0.6531 -0.7430
  318TMC3    H2 4838   3.329   4.562  14.054  0.4400  0.1983  1.4637
  318TMC3    C7 4839   3.425   0.081  14.117  0.0723 -0.3097 -0.8926
  318TMC3    C8 4840   3.174   4.490  13.844  0.4470 -0.2157 -0.6130
  318TMC3    O1 4841   3.430   0.201  14.145 -0.3328 -0.3910  0.4987
  318TMC3    O2 4842   3.189   4.403  13.930  0.2573  0.1629  0.0991
  319MPD2     C 4843   3.298   1.178  17.282  0.2433  0.7156  0.3887
  319MPD2    C1 4844   3.360   1.274  17.202 -0.0760 -0.0459  0.5706
  319MPD2    C2 4845   3.385   1.249  17.067 -0.3844 -0.8438 -0.2679
  319MPD2    C3 4846   3.343   1.134  17.011  0.1065  0.4965 -0.1775
  319MPD2    C4 4847   3.285   1.031  17.090 -0.1306  0.1917  0.5771
  319MPD2    C5 4848   3.269   1.060  17.223 -0.2257 -0.3720  0.3966
  319MPD2     H 4849   3.437   1.330  17.018 -2.2064 -0.7001 -1.9698
  319MPD2    H1 4850   3.255   0.938  17.043 -1.3176  1.7689 -1.8045
  319MPD2    H2 4851   3.289   1.181  17.390 -1.9170  1.1860  0.1984
  319MPD2    H3 4852   3.232   0.984  17.291 -1.3641 -0.9703 -0.8843
  319MPD2     N 4853   3.363   1.103  16.878 -0.1630  0.4718  0.5163
  319MPD2    H5 4854   3.331   1.011  16.850 -1.0918  1.1579 -0.6111
  319MPD2    N1 4855   3.415   1.394  17.246 -0.9983  0.6899 -0.3895
  319MPD2    H7 4856   3.469   1.446  17.178 -1.1956  2.0253  0.4812
  320TMC3    C1 4857   3.417   1.142  16.651  0.1131  0.3348 -0.0152
  320TMC3    C2 4858   3.418   1.242  16.561  0.0960 -0.0812  0.4687
  320TMC3    C3 4859   3.457   1.207  16.434 -0.0365 -0.2775  0.0849
  320TMC3    C4 4860   3.453   1.012  16.627 -0.5779  0.2852 -0.5513
  320TMC3    C5 4861   3.501   0.980  16.506  0.6737  0.3218 -0.7159
  320TMC3    C6 4862   3.495   1.077  16.400  0.1494 -0.2240  0.1921
  320TMC3     C 4863   3.414   1.191  16.785  0.2303  0.4448  0.0822
  320TMC3     O 4864   3.444   1.309  16.801 -0.0257 -0.0562 -0.0382
  320TMC3     H 4865   3.386   1.344  16.580 -0.4352 -0.1106 -0.3024
  320TMC3    H1 4866   3.462   0.939  16.706  4.4016  0.5634 -0.8320
  320TMC3    H2 4867   3.531   1.050  16.301  0.1329  0.2902  0.0475
  320TMC3    C7 4868   3.494   0.837  16.475 -0.3322  0.1237 -0.1732
  320TMC3    C8 4869   3.401   1.289  16.321  0.6965  0.1255  0.1858
  320TMC3    O1 4870   3.533   0.810  16.361  0.2113  0.3896  0.2604
  320TMC3    O2 4871   3.384   1.410  16.340 -0.2849 -0.3851  0.2389
  321TMC3    C1 4872   3.504   1.554  17.375 -0.2030  0.0180  0.2630
  321TMC3    C2 4873   3.623   1.533  17.318 -0.1095 -0.3507 -0.3900
  321TMC3    C3 4874   3.712   1.636  17.308 -0.1284 -0.0531 -0.1569
  321TMC3    C4 4875   3.474   1.668  17.449 -0.4664 -0.3522 -0.3665
  321TMC3    C5 4876   3.563   1.766  17.438 -0.6657  0.1353  0.6267
  321TMC3    C6 4877   3.683   1.752  17.368  0.2197  0.5659  0.1312
  321TMC3     C 4878   3.408   1.450  17.371 -0.4024  0.1462  0.5723
  321TMC3     O 4879   3.320   1.431  17.450  0.0734  0.1901  0.3203
  321TMC3     H 4880   3.643   1.443  17.262  1.9287  0.4312 -0.9397
  321TMC3    H1 4881   3.394   1.660  17.522  0.6887 -1.6721  0.7574
  321TMC3    H2 4882   3.741   1.843  17.355  1.5908 -0.4294 -0.7143
  321TMC3    C7 4883   3.576   1.847  17.559 -0.2169  0.1078  0.6646
  321TMC3    C8 4884   3.848   1.594  17.362 -0.0820  0.4108 -0.1565
  321TMC3    O1 4885   3.480   1.920  17.593 -0.4387 -0.1427 -0.0879
  321TMC3    O2 4886   3.886   1.675  17.449 -0.9507  0.7229 -0.3430
  322MPD2     C 4887   2.586   2.525  13.554 -0.1594  0.1824 -0.8531
  322MPD2    C1 4888   2.648   2.497  13.668  0.8270 -0.0175 -0.0292
  322MPD2    C2 4889   2.666   2.367  13.696  0.3894  0.3759  0.3562
  322MPD2    C3 4890   2.656   2.266  13.601  0.9234 -0.3191 -0.4088
  322MPD2    C4 4891   2.573   2.293  13.494  0.2134 -0.2693  0.2182
  322MPD2    C5 4892   2.546   2.426  13.472  0.7402 -0.2681 -0.1487
  322MPD2     H 4893   2.724   2.348  13.786  0.0157 -1.6186  0.1670
  322MPD2    H1 4894   2.543   2.217  13.423 -0.6726 -0.9048  1.2687
  322MPD2    H2 4895   2.562   2.629  13.535 -1.9391 -0.4396 -1.9625
  322MPD2    H3 4896   2.501   2.457  13.378 -0.6997 -0.3509  0.5167
  322MPD2     N 4897   2.725   2.146  13.624  0.3006  0.1914 -0.5327
  322MPD2    H5 4898   2.796   2.149  13.697 -2.2131  0.2635  1.8742
  322MPD2    N1 4899   2.671   2.606  13.756  0.1735  0.3254 -0.9479
  322MPD2    H7 4900   2.675   2.696  13.711  2.0160  0.5793 -0.2827
  323TMC3    C1 4901   2.742   2.703  13.974 -0.2332  0.2392  0.2021
  323TMC3    C2 4902   2.776   2.823  13.916 -0.1564  0.1747  0.3638
  323TMC3    C3 4903   2.866   2.901  13.983 -0.5808  0.1635  0.0991
  323TMC3    C4 4904   2.795   2.663  14.094 -0.6571  0.1724 -0.5896
  323TMC3    C5 4905   2.896   2.741  14.156 -0.2836 -0.8209 -0.4505
  323TMC3    C6 4906   2.924   2.864  14.101 -0.6577 -0.1827 -0.6929
  323TMC3     C 4907   2.702   2.589  13.890  0.4463  0.2648  0.0293
  323TMC3     O 4908   2.713   2.486  13.950 -0.2643  0.1049 -0.3996
  323TMC3     H 4909   2.724   2.858  13.828 -0.4189 -1.2304 -0.0339
  323TMC3    H1 4910   2.771   2.567  14.139 -1.3001 -0.0502 -1.3954
  323TMC3    H2 4911   3.004   2.927  14.138 -1.5368 -0.5730  1.8060
  323TMC3    C7 4912   2.990   2.662  14.235 -0.3414  0.3760  0.9781
  323TMC3    C8 4913   2.926   3.017  13.919  0.2885 -0.3623  0.0067
  323TMC3    O1 4914   2.936   2.585  14.312  0.5104  0.3406  0.0838
  323TMC3    O2 4915   2.961   3.113  13.987 -0.1837  0.8357 -0.5894
  324MPD2     C 4916   0.184   3.627  14.492  0.4498  1.0240  0.2747
  324MPD2    C1 4917   0.199   3.704  14.602 -0.3204 -0.1639 -0.3704
  324MPD2    C2 4918   0.094   3.697  14.699 -0.2943  0.7382 -0.0027
  324MPD2    C3 4919   4.726   3.609  14.686  0.7481 -0.4423 -0.1322
  324MPD2    C4 4920   4.724   3.529  14.570 -0.5180 -0.4329  0.0163
  324MPD2    C5 4921   0.084   3.536  14.472  0.1082  0.9146  0.5847
  324MPD2     H 4922   0.095   3.758  14.788 -2.2510  0.0505  0.4912
  324MPD2    H1 4923   4.637   3.471  14.544  0.1258 -1.3082 -0.1790
  324MPD2    H2 4924   0.257   3.627  14.411  0.0404 -0.6225 -0.0801
  324MPD2    H3 4925   0.072   3.466  14.391 -1.3634  1.6493  0.1551
  324MPD2     N 4926   4.609   3.613  14.773  0.2516  0.4049  0.3061
  324MPD2    H5 4927   4.551   3.530  14.764 -0.6774  0.9574  1.1992
  324MPD2    N1 4928   0.310   3.788  14.633  0.0656  0.1850  0.6804
  324MPD2    H7 4929   0.321   3.819  14.729  0.6646 -3.0463  1.6831
  325TMC3    C1 4930   4.445   3.705  14.918  0.3515  0.4660 -0.1641
  325TMC3    C2 4931   4.361   3.602  14.899 -0.1356  0.1190 -0.3894
  325TMC3    C3 4932   4.231   3.624  14.931 -0.3533  0.3302 -0.2550
  325TMC3    C4 4933   4.416   3.817  14.996  0.5397 -0.6158 -0.1108
  325TMC3    C5 4934   4.285   3.833  15.021 -0.0099  0.2981  0.7006
  325TMC3    C6 4935   4.192   3.739  14.989  0.5598 -0.1172  0.2369
  325TMC3     C 4936   4.565   3.723  14.839 -0.3585 -0.4100 -0.2470
  325TMC3     O 4937   4.622   3.831  14.846 -0.5850  0.1393 -0.2213
  325TMC3     H 4938   4.386   3.519  14.834  0.7405 -1.0962  1.4912
  325TMC3    H1 4939   4.482   3.903  15.003  2.3747 -1.9998 -0.3788
  325TMC3    H2 4940   4.088   3.755  15.016  0.3216 -0.6769 -0.3671
  325TMC3    C7 4941   4.234   3.961  15.074 -0.7496 -0.2716 -0.8192
  325TMC3    C8 4942   4.135   3.531  14.873 -0.4265 -0.3997 -0.3441
  325TMC3    O1 4943   4.312   4.055  15.071 -0.5829  0.2757  0.0818
  325TMC3    O2 4944   4.174   3.474  14.770 -0.3739 -0.3529 -0.0976
  326MPD2     C 4945   0.470   4.469  11.248  0.1121  0.0869  0.9307
  326MPD2    C1 4946   0.507   4.495  11.121 -0.3065 -0.3195  1.0977
  326MPD2    C2 4947   0.607   4.586  11.099  0.4727 -0.4754  0.0495
  326MPD2    C3 4948   0.678   4.650  11.198 -0.3330 -0.4611  0.7823
  326MPD2    C4 4949   0.646   4.613  11.331  0.1976  0.1150 -0.4446
  326MPD2    C5 4950   0.537   4.526  11.350 -0.3156  0.0978  0.1255
  326MPD2     H 4951   0.635   4.594  10.994  0.1135 -3.0270 -0.2521
  326MPD2    H1 4952   0.695   4.670  11.409  0.0784  0.5091 -0.6569
  326MPD2    H2 4953   0.379   4.413  11.267  0.0504 -0.4924 -1.1417
  326MPD2    H3 4954   0.503   4.518  11.452  0.7125 -0.3097  0.4391
  326MPD2     N 4955   0.782   0.008  11.172 -0.1999  0.6843  0.1352
  326MPD2    H5 4956   0.816   0.062  11.252  0.5928  0.3148  0.0443
  326MPD2    N1 4957   0.468   4.420  11.013 -0.5439 -0.1483 -0.2174
  326MPD2    H7 4958   0.527   4.413  10.930 -0.0423  1.0924  0.0342
  327TMC3    C1 4959   0.353   4.281  10.883  0.2212  0.0373  0.3469
  327TMC3    C2 4960   0.241   4.328  10.828 -0.0425 -0.5693 -0.4783
  327TMC3    C3 4961   0.238   4.363  10.698  0.3406  0.3433 -0.3765
  327TMC3    C4 4962   0.469   4.277  10.810 -0.1742 -0.0017  0.0397
  327TMC3    C5 4963   0.461   4.295  10.670  0.2582 -0.2930  0.1151
  327TMC3    C6 4964   0.345   4.334  10.610 -0.2020 -0.3640  0.3244
  327TMC3     C 4965   0.366   4.329  11.020 -0.2836  0.0884  0.0953
  327TMC3     O 4966   0.272   4.326  11.094  0.1340 -0.5883 -0.1883
  327TMC3     H 4967   0.160   4.329  10.900  0.8066  1.5503  0.4297
  327TMC3    H1 4968   0.560   4.250  10.861 -0.3886  2.2479  1.6461
  327TMC3    H2 4969   0.338   4.358  10.505  0.0658 -0.1753  0.3505
  327TMC3    C7 4970   0.576   4.332  10.588  0.1451  0.4501 -0.5372
  327TMC3    C8 4971   0.144   4.460  10.650  0.1106 -0.5742  0.1946
  327TMC3    O1 4972   0.562   4.362  10.472 -0.4725  0.0166 -0.1660
  327TMC3    O2 4973   0.148   4.490  10.531 -0.3185  0.7435 -0.1487
  328MPD2     C 4974   2.911   4.081  17.255  0.3336 -0.1082  0.2540
  328MPD2    C1 4975   2.877   4.197  17.317  0.2633  0.1123  0.1412
  328MPD2    C2 4976   2.903   4.319  17.259 -0.3351  0.1394 -0.3729
  328MPD2    C3 4977   2.931   4.322  17.118 -0.0764  0.2424  0.8722
  328MPD2    C4 4978   2.961   4.203  17.053  0.4436  1.1457 -0.3909
  328MPD2    C5 4979   2.956   4.081  17.125  0.7179  0.3810 -0.1935
  328MPD2     H 4980   2.884   4.415  17.307  0.8821 -0.5746  1.5517
  328MPD2    H1 4981   2.997   4.212  16.952  0.6497 -0.0960 -0.4327
  328MPD2    H2 4982   2.901   3.982  17.299 -1.4456  0.2740  0.7285
  328MPD2    H3 4983   2.987   3.995  17.068  0.1111 -0.5993  0.9620
  328MPD2     N 4984   2.937   4.440  17.049  0.1715  0.0340 -0.0786
  328MPD2    H5 4985   2.922   4.436  16.949 -0.2747 -2.4440  0.0987
  328MPD2    N1 4986   2.806   4.177  17.439  0.4519  0.3417 -0.0092
  328MPD2    H7 4987   2.787   4.082  17.467 -0.3259  0.7230  0.7592
  329TMC3    C1 4988   2.602   4.235  17.537  0.0800  0.8487  0.4444
  329TMC3    C2 4989   2.524   4.330  17.591 -0.7935 -0.2871  0.0745
  329TMC3    C3 4990   2.388   4.337  17.561  0.0322 -0.1170 -0.3822
  329TMC3    C4 4991   2.551   4.126  17.482  0.3097  0.5760 -0.6502
  329TMC3    C5 4992   2.415   4.142  17.443  0.5784  0.1642  0.2004
  329TMC3    C6 4993   2.335   4.248  17.478 -0.7574  0.1108 -0.0230
  329TMC3     C 4994   2.733   4.274  17.493 -0.5028 -0.0166 -0.0246
  329TMC3     O 4995   2.761   4.391  17.506 -0.4899 -0.6287 -0.1493
  329TMC3     H 4996   2.573   4.416  17.636  1.6108 -1.0909 -0.9797
  329TMC3    H1 4997   2.609   4.040  17.451 -1.2897 -0.6195 -0.3038
  329TMC3    H2 4998   2.232   4.266  17.447 -0.5837 -2.6565 -2.2121
  329TMC3    C7 4999   2.394   4.084  17.311  0.3344 -0.2108  0.1764
  329TMC3    C8 5000   2.340   4.472  17.553 -0.0286  0.0096 -0.9000
  329TMC3    O1 5001   2.492   4.035  17.255  0.7352 -0.0254  0.6115
  329TMC3    O2 5002   2.282   4.503  17.448 -0.4466  0.5798  0.0380
  330TMC3    C1 5003   0.259   4.067   8.935 -0.1363 -0.5617 -0.0385
  330TMC3    C2 5004   0.171   3.970   8.958 -0.0716 -0.2641  0.8807
  330TMC3    C3 5005   0.210   3.842   8.988  0.3451 -0.0423  0.1756
  330TMC3    C4 5006   0.387   4.033   8.942 -0.4335 -0.3573 -0.8505
  330TMC3    C5 5007   0.431   3.911   8.973 -0.1282 -0.0655 -0.2211
  330TMC3    C6 5008   0.343   3.806   8.993 -0.5259 -0.1195  0.0395
  330TMC3     C 5009   0.209   4.206   8.901  1.0461  0.0446 -0.9124
  330TMC3     O 5010   0.258   4.266   8.805  0.3454  0.2292  0.5039
  330TMC3     H 5011   0.066   3.993   8.942  0.1535  0.5601  0.5886
  330TMC3    H1 5012   0.458   4.116   8.939 -1.2053  0.2889 -1.1781
  330TMC3    H2 5013   0.371   3.701   8.997 -0.3708 -0.1187 -1.0074
  330TMC3    C7 5014   0.575   3.893   9.003 -0.0088  0.4183 -0.0796
  330TMC3    C8 5015   0.101   3.746   9.018  0.4751 -0.9182  0.4058
  330TMC3    O1 5016   0.650   3.975   8.953  0.5010  0.1718 -0.4787
  330TMC3    O2 5017   4.725   3.781   8.988 -0.0156  0.1702 -0.0121
  331MPD2     C 5018   4.193   3.017  13.158 -0.4175 -0.0346  0.3211
  331MPD2    C1 5019   4.260   3.014  13.032  0.2569 -0.0848  0.2371
  331MPD2    C2 5020   4.225   2.919  12.941  0.4425 -0.1658  0.4478
  331MPD2    C3 5021   4.141   2.812  12.979  0.1103  0.5240 -0.2503
  331MPD2    C4 5022   4.079   2.815  13.101  0.2484  0.2194 -0.6459
  331MPD2    C5 5023   4.102   2.914  13.190 -0.5591 -0.6964 -0.6418
  331MPD2     H 5024   4.277   2.902  12.847 -0.5241 -1.7458  0.1973
  331MPD2    H1 5025   4.009   2.737  13.126 -0.5547  0.7228 -1.3518
  331MPD2    H2 5026   4.205   3.101  13.225 -1.8747  1.0113 -0.7371
  331MPD2    H3 5027   4.041   2.916  13.280  1.5836  1.4168  0.7413
  331MPD2     N 5028   4.124   2.705  12.890 -0.6154 -0.1930 -0.6405
  331MPD2    H5 5029   4.182   2.705  12.806 -0.1926 -0.2932 -0.3522
  331MPD2    N1 5030   4.342   3.120  12.998  0.4033 -0.5028 -0.0818
  331MPD2    H7 5031   4.343   3.205  13.053 -0.6346  0.3197 -1.3192
  332TMC3    C1 5032   4.024   2.528  12.763 -0.5037 -0.1099 -0.3696
  332TMC3    C2 5033   3.899   2.526  12.691 -0.1763 -1.3561  0.1308
  332TMC3    C3 5034   3.890   2.454  12.572  0.2781 -0.0261 -0.3907
  332TMC3    C4 5035   4.138   2.487  12.712 -0.2358 -0.2954  0.4835
  332TMC3    C5 5036   4.126   2.399  12.603 -0.5238 -0.0945  0.6087
  332TMC3    C6 5037   4.003   2.382  12.540 -0.0734  0.5221 -0.1818
  332TMC3     C 5038   4.018   2.618  12.885  0.2928  0.0291 -0.0731
  332TMC3     O 5039   3.916   2.610  12.952  0.5111 -0.3162  0.0707
  332TMC3     H 5040   3.809   2.570  12.733  0.6538 -1.3227  1.8778
  332TMC3    H1 5041   4.224   2.492  12.778  0.3130  0.3605 -0.2955
  332TMC3    H2 5042   4.005   2.333  12.443 -0.9014  1.8547 -0.8754
  332TMC3    C7 5043   4.241   2.329  12.540  0.1943 -0.3276  0.7906
  332TMC3    C8 5044   3.840   2.530  12.463  0.3369 -0.4628 -0.2935
  332TMC3    O1 5045   4.217   2.226  12.477  0.0958 -0.6202 -0.3266
  332TMC3    O2 5046   3.926   2.542  12.375 -0.2191  0.2608  0.4546
  333MPD2     C 5047   3.908   2.945  11.169 -0.2696 -0.4403 -0.6998
  333MPD2    C1 5048   4.005   2.844  11.144 -0.8117 -0.1034  0.1232
  333MPD2    C2 5049   4.011   2.735  11.236  0.1462  0.0123 -0.0165
  333MPD2    C3 5050   3.923   2.728  11.339  0.9927 -0.0044 -0.9794
  333MPD2    C4 5051   3.816   2.819  11.351  0.6946  0.0992 -0.0194
  333MPD2    C5 5052   3.816   2.930  11.267 -0.0847 -0.4481  0.4852
  333MPD2     H 5053   4.095   2.667  11.234  0.3672  0.2519  1.4855
  333MPD2    H1 5054   3.741   2.811  11.429  1.4601  0.0390  0.6981
  333MPD2    H2 5055   3.920   3.036  11.112  1.4747 -1.4472 -1.9695
  333MPD2    H3 5056   3.736   2.998  11.292  1.1797  0.2815  2.5879
  333MPD2     N 5057   3.949   2.619  11.422 -0.0645  0.4599  0.3277
  333MPD2    H5 5058   4.025   2.563  11.385  0.9347  1.0301  1.5476
  333MPD2    N1 5059   4.102   2.867  11.043 -0.0166 -0.2378  0.2603
  333MPD2    H7 5060   4.093   2.961  11.007  0.9457 -0.4521 -0.5310
  334TMC3    C1 5061   4.318   2.830  10.956 -0.0960  1.0925 -0.7827
  334TMC3    C2 5062   4.419   2.803  11.041 -0.6568 -0.2079  0.0050
  334TMC3    C3 5063   4.533   2.875  11.027 -0.5232  0.1190 -0.6615
  334TMC3    C4 5064   4.326   2.927  10.855  0.3476 -0.0371 -0.3564
  334TMC3    C5 5065   4.448   2.982  10.837 -0.0990  0.3127  0.6339
  334TMC3    C6 5066   4.557   2.959  10.921 -0.4951  0.0477 -0.6087
  334TMC3     C 5067   4.199   2.779  11.015 -0.3701 -0.4139  0.1955
  334TMC3     O 5068   4.201   2.664  11.047 -0.0439 -0.2364  0.0865
  334TMC3     H 5069   4.399   2.735  11.124 -0.3890 -1.3616 -0.8676
  334TMC3    H1 5070   4.250   2.951  10.782  1.2807 -0.5725 -1.4938
  334TMC3    H2 5071   4.651   3.008  10.898  0.5288 -1.0218  1.3108
  334TMC3    C7 5072   4.455   3.097  10.751 -0.3642 -0.5700 -0.0887
  334TMC3    C8 5073   4.639   2.843  11.123  0.8272 -0.3038 -0.3835
  334TMC3    O1 5074   4.372   3.180  10.776  0.6854  0.1062  0.4690
  334TMC3    O2 5075   4.614   2.753  11.203  0.6668 -0.5097  0.4764
  335TMC3    C1 5076   4.113   0.172  17.481  0.1503  0.5488 -0.2399
  335TMC3    C2 5077   4.020   0.143  17.389  0.1288  0.1427  0.2376
  335TMC3    C3 5078   4.036   0.182  17.263  0.7770 -0.9310  0.7293
  335TMC3    C4 5079   4.222   0.250  17.464  1.0669  0.0249  0.1455
  335TMC3    C5 5080   4.239   0.300  17.333 -0.7242  0.2883  0.3124
  335TMC3    C6 5081   4.146   0.252  17.229 -0.0236 -0.3932 -0.1636
  335TMC3     C 5082   4.103   0.085  17.600  0.0816  0.1542 -0.2835
  335TMC3     O 5083   4.049   4.717  17.584 -0.1054 -0.0743  0.2304
  335TMC3     H 5084   3.931   0.087  17.417 -0.5909  0.4922 -1.3188
  335TMC3    H1 5085   4.298   0.260  17.541  1.0095  1.4878  0.0090
  335TMC3    H2 5086   4.167   0.289  17.130  4.4738  1.6962  1.5423
  335TMC3    C7 5087   4.315   0.417  17.298 -0.1110 -0.4941 -0.1743
  335TMC3    C8 5088   3.946   0.158  17.153 -0.0144  0.2719  0.1988
  335TMC3    O1 5089   4.336   0.439  17.180  0.1813 -0.4660 -0.0910
  335TMC3    O2 5090   3.968   0.222  17.048 -0.6477 -0.3291  0.2956
  336MPD2     C 5091   3.519   2.583  16.164 -0.7369 -0.3405  0.1449
  336MPD2    C1 5092   3.435   2.480  16.146 -0.7289  0.2463  0.2491
  336MPD2    C2 5093   3.476   2.352  16.209 -0.5148  0.3155 -0.3287
  336MPD2    C3 5094   3.580   2.337  16.288 -0.2648 -0.3079 -0.1241
  336MPD2    C4 5095   3.663   2.449  16.308  0.7171  0.1826  0.4660
  336MPD2    C5 5096   3.628   2.564  16.245 -0.0771 -0.1221 -0.5826
  336MPD2     H 5097   3.404   2.275  16.182  3.6781 -3.8076  0.2038
  336MPD2    H1 5098   3.752   2.446  16.369  1.9477  1.3991 -1.2607
  336MPD2    H2 5099   3.506   2.686  16.133  0.8558 -0.3279 -0.5029
  336MPD2    H3 5100   3.698   2.647  16.248  2.2245 -2.1419  1.5079
  336MPD2     N 5101   3.615   2.212  16.344  0.1004  0.1419  0.2485
  336MPD2    H5 5102   3.704   2.213  16.394 -0.1804 -0.3761  0.7511
  336MPD2    N1 5103   3.315   2.491  16.074 -0.3191  0.1135  0.0612
  336MPD2    H7 5104   3.268   2.402  16.063  0.6660 -0.1309 -2.1581
  337TMC3    C1 5105   3.154   2.590  15.939  0.4619 -0.6112 -0.0474
  337TMC3    C2 5106   3.117   2.480  15.878 -0.6124 -0.2086  0.3314
  337TMC3    C3 5107   3.051   2.491  15.761 -0.2500  0.5211  0.8592
  337TMC3    C4 5108   3.125   2.719  15.895  0.6292  0.4541  0.3756
  337TMC3    C5 5109   3.062   2.725  15.782 -0.3025  0.2853  0.1783
  337TMC3    C6 5110   3.034   2.611  15.705 -1.0103  0.3009  0.0913
  337TMC3     C 5111   3.269   2.604  16.017  0.0007  0.0954 -0.8353
  337TMC3     O 5112   3.326   2.712  16.023 -0.3828  0.1089  0.0142
  337TMC3     H 5113   3.147   2.381  15.911 -0.1060 -0.2370 -0.2158
  337TMC3    H1 5114   3.154   2.808  15.950  1.0986  1.2049 -1.0867
  337TMC3    H2 5115   2.981   2.622  15.611 -0.0846 -0.9522 -0.5643
  337TMC3    C7 5116   3.111   2.828  15.693  0.1201  0.5129  0.0743
  337TMC3    C8 5117   3.018   2.364  15.707  0.3198  0.2695 -0.3769
  337TMC3    O1 5118   3.201   2.895  15.740 -0.5743 -0.1348  0.4581
  337TMC3    O2 5119   3.012   2.270  15.786 -0.3215 -0.5578 -0.3471
  338MPD2     C 5120   3.421   2.309   1.303 -0.3878  0.1309  0.0244
  338MPD2    C1 5121   3.373   2.265   1.181  0.0754  0.2288 -0.0769
  338MPD2    C2 5122   3.237   2.252   1.157  0.3750 -0.5090  1.2389
  338MPD2    C3 5123   3.142   2.282   1.255  0.3377  0.4694  0.3248
  338MPD2    C4 5124   3.188   2.334   1.373  0.3778  0.4752 -0.2964
  338MPD2    C5 5125   3.328   2.343   1.397 -0.0103  0.1351 -0.6137
  338MPD2     H 5126   3.199   2.204   1.067 -0.1058  0.9634  0.6551
  338MPD2    H1 5127   3.119   2.370   1.448 -0.5109  1.6412 -1.6756
  338MPD2    H2 5128   3.528   2.320   1.319 -0.1718  0.0367 -1.3178
  338MPD2    H3 5129   3.365   2.368   1.496 -0.7087 -1.7905  0.1305
  338MPD2     N 5130   3.010   2.276   1.224 -0.6618 -0.0578 -0.3849
  338MPD2    H5 5131   2.989   2.267   1.125  2.2700  0.4953 -1.0658
  338MPD2    N1 5132   3.458   2.217   1.084 -0.3154  0.1599 -0.2177
  338MPD2    H7 5133   3.405   2.201   0.999  0.2512  1.6399 -0.8625
  339TMC3    C1 5134   2.785   2.268   1.214  0.6325 -0.2756 -0.0777
  339TMC3    C2 5135   2.715   2.149   1.224 -0.3826 -0.2043  0.0915
  339TMC3    C3 5136   2.660   2.103   1.111 -0.0603 -0.6452  0.5841
  339TMC3    C4 5137   2.817   2.322   1.098  0.0804  0.0913  0.6675
  339TMC3    C5 5138   2.748   2.279   0.994 -0.3558  0.4137 -0.4375
  339TMC3    C6 5139   2.668   2.169   0.995 -0.3386 -0.4443  0.1783
  339TMC3     C 5140   2.892   2.284   1.300 -0.2411  0.4721  0.0402
  339TMC3     O 5141   2.869   2.282   1.418  0.2788 -0.7331  0.0947
  339TMC3     H 5142   2.682   2.113   1.320  1.0377 -0.7323  0.3837
  339TMC3    H1 5143   2.880   2.410   1.092 -0.4702  0.3823 -0.8559
  339TMC3    H2 5144   2.627   2.120   0.907 -1.4776  2.2195 -0.7691
  339TMC3    C7 5145   2.815   2.305   0.869 -0.1337 -0.8181 -0.1577
  339TMC3    C8 5146   2.575   1.989   1.117  0.4501  0.2548  0.4868
  339TMC3    O1 5147   2.932   2.336   0.884  0.2776 -0.0468 -0.5679
  339TMC3    O2 5148   2.489   1.985   1.034  0.0486  0.6480  0.5825
  340MPD2     C 5149   3.204   3.404  10.788 -0.3510  0.3192  0.0971
  340MPD2    C1 5150   3.213   3.537  10.809  0.0794 -0.0457  0.1633
  340MPD2    C2 5151   3.336   3.591  10.830  0.2210 -0.4330 -0.2749
  340MPD2    C3 5152   3.450   3.514  10.806  0.2399 -0.4473  0.8847
  340MPD2    C4 5153   3.439   3.375  10.791  0.8286  0.2202  0.5457
  340MPD2    C5 5154   3.315   3.326  10.786 -0.3147 -0.1668  0.4608
  340MPD2     H 5155   3.345   3.696  10.855 -0.5203 -0.3396 -0.3962
  340MPD2    H1 5156   3.524   3.309  10.789  0.6670 -0.0285  1.7507
  340MPD2    H2 5157   3.105   3.360  10.781  0.2979 -1.0348 -0.7569
  340MPD2    H3 5158   3.304   3.220  10.765 -0.1496 -0.1461  0.2638
  340MPD2     N 5159   3.571   3.587  10.777 -0.3935 -0.1357 -0.0919
  340MPD2    H5 5160   3.568   3.688  10.777  0.3289 -0.1231  1.4427
  340MPD2    N1 5161   3.097   3.616  10.791  0.0865  0.7720  0.1961
  340MPD2    H7 5162   3.016   3.576  10.745  1.4231 -2.1339  0.3540
  341TMC3    C1 5163   3.033   3.818  10.701 -0.1721 -0.1769 -0.2933
  341TMC3    C2 5164   3.070   3.768  10.575  0.4606 -0.1767 -0.7995
  341TMC3    C3 5165   3.105   3.853  10.475  0.3513 -0.3418  0.0755
  341TMC3    C4 5166   3.040   3.953  10.719 -0.6592  0.3479  0.4930
  341TMC3    C5 5167   3.078   4.035  10.609 -0.0440  0.2554 -0.1602
  341TMC3    C6 5168   3.106   3.986  10.488 -0.5359  0.4660  0.2896
  341TMC3     C 5169   3.099   3.749  10.810  0.4866 -0.8340 -0.6571
  341TMC3     O 5170   3.170   3.816  10.885 -0.0400 -0.1490  0.2260
  341TMC3     H 5171   3.072   3.661  10.556 -3.2630 -0.4098  0.0636
  341TMC3    H1 5172   3.028   3.994  10.819  2.6796 -0.0489  1.0351
  341TMC3    H2 5173   3.168   4.045  10.422  0.3683 -0.6755  0.1127
  341TMC3    C7 5174   3.168   4.142  10.641  0.1375  0.2558 -0.6637
  341TMC3    C8 5175   3.138   3.785  10.354 -0.1021  0.2960 -0.4187
  341TMC3    O1 5176   3.194   4.234  10.562 -0.5728  0.0577 -0.4497
  341TMC3    O2 5177   3.115   3.668  10.348  0.4197  0.0905 -0.1039
  342MPD2     C 5178   1.486   2.620  17.625  0.6770 -0.2042  0.7793
  342MPD2    C1 5179   1.596   2.671  17.552 -0.4625  0.1234 -0.3693
  342MPD2    C2 5180   1.595   2.809  17.530 -0.2039 -0.3636  0.0318
  342MPD2    C3 5181   1.515   2.894  17.610 -0.1181  0.3411  0.1358
  342MPD2    C4 5182   1.429   2.837  17.699  0.1398 -0.2571 -0.4512
  342MPD2    C5 5183   1.412   2.703  17.701  0.1238 -0.5708 -0.0796
  342MPD2     H 5184   1.677   2.845  17.469 -0.1739  0.0259  0.3035
  342MPD2    H1 5185   1.366   2.900   0.009  0.6002  0.4404 -0.6899
  342MPD2    H2 5186   1.460   2.515  17.628  1.4358 -0.4114  0.1728
  342MPD2    H3 5187   1.336   2.663   0.015 -0.8274  1.0429 -0.1830
  342MPD2     N 5188   1.531   3.032  17.618 -0.8241  0.1714  0.3739
  342MPD2    H5 5189   1.475   3.084  17.685 -0.2549  0.7104  0.4279
  342MPD2    N1 5190   1.686   2.586  17.484 -0.3050 -0.2231 -0.1256
  342MPD2    H7 5191   1.752   2.625  17.417 -1.5781  1.4519 -0.4080
  343TMC3    C1 5192   1.773   2.384  17.406  0.6495  0.3960 -0.2700
  343TMC3    C2 5193   1.865   2.458  17.330 -0.1391  0.2336 -0.4187
  343TMC3    C3 5194   1.930   2.383  17.237 -0.2463  0.5155  0.0510
  343TMC3    C4 5195   1.776   2.249  17.412  1.5773  0.1813 -0.6542
  343TMC3    C5 5196   1.851   2.181  17.324  0.8492 -0.6885 -0.2827
  343TMC3    C6 5197   1.917   2.245  17.225 -0.2435  0.1297 -0.1108
  343TMC3     C 5198   1.693   2.452  17.503 -0.4632  0.4136 -0.9154
  343TMC3     O 5199   1.618   2.380  17.563 -0.3592  0.0772  0.3495
  343TMC3     H 5200   1.880   2.564  17.315  1.8860  0.1384  0.9584
  343TMC3    H1 5201   1.743   2.192  17.499  0.9329 -0.3322 -1.2312
  343TMC3    H2 5202   1.977   2.180  17.162 -0.1080  1.6226 -1.5113
  343TMC3    C7 5203   1.803   2.044  17.307 -0.4261 -0.2265 -0.0048
  343TMC3    C8 5204   2.024   2.447  17.151 -0.2722  0.1225  0.0072
  343TMC3    O1 5205   1.805   1.976  17.413 -0.4489 -0.1601 -0.4864
  343TMC3    O2 5206   2.044   2.564  17.164  0.0045 -0.2193 -0.2448
  344MPD2     C 5207   2.575   2.497  11.433 -0.1134  0.1185 -0.5589
  344MPD2    C1 5208   2.591   2.440  11.310  0.0503  0.6571 -0.7034
  344MPD2    C2 5209   2.634   2.522  11.207  0.4088 -0.4187 -0.2935
  344MPD2    C3 5210   2.673   2.652  11.238 -0.3958  0.4090 -0.4517
  344MPD2    C4 5211   2.667   2.703  11.370 -0.3051  0.4460  0.3106
  344MPD2    C5 5212   2.612   2.627  11.463 -0.4099  0.4625 -0.3408
  344MPD2     H 5213   2.638   2.479  11.108  1.1839 -1.0508  0.0212
  344MPD2    H1 5214   2.690   2.806  11.397 -3.4040  1.5044 -1.0081
  344MPD2    H2 5215   2.540   2.448  11.523 -3.5892  1.9895 -0.8904
  344MPD2    H3 5216   2.592   2.655  11.566  3.5659  0.5803  0.3748
  344MPD2     N 5217   2.720   2.749  11.143  0.1086  0.2185  0.8324
  344MPD2    H5 5218   2.756   2.836  11.181  0.4197  0.1729  0.6433
  344MPD2    N1 5219   2.543   2.305  11.285  0.3420  0.1965 -0.2060
  344MPD2    H7 5220   2.526   2.280  11.188 -0.9267 -1.3711  0.4359
  345TMC3    C1 5221   2.776   2.848  10.952 -0.4806 -0.3350 -0.2182
  345TMC3    C2 5222   2.901   2.872  11.005 -0.0319 -0.4228 -0.0975
  345TMC3    C3 5223   2.958   2.981  10.957  0.2383 -0.5598 -0.1595
  345TMC3    C4 5224   2.714   2.926  10.860 -0.0099 -0.2958 -0.4618
  345TMC3    C5 5225   2.786   3.024  10.802 -0.3757 -0.2389 -0.1195
  345TMC3    C6 5226   2.906   3.055  10.860  0.1674 -0.8247  0.9899
  345TMC3     C 5227   2.707   2.739  11.008 -0.2257  0.3008 -0.4762
  345TMC3     O 5228   2.673   2.646  10.937  0.3714  0.5770 -0.4410
  345TMC3     H 5229   2.938   2.815  11.089  3.3017 -1.1531 -2.0684
  345TMC3    H1 5230   2.611   2.918  10.828 -0.4316  1.5191  0.4614
  345TMC3    H2 5231   2.972   3.132  10.823 -0.5527 -0.0240  1.3821
  345TMC3    C7 5232   2.717   3.133  10.743  0.1609  0.2084  0.3902
  345TMC3    C8 5233   3.047   3.057  11.044  0.1587  0.1956 -0.2940
  345TMC3    O1 5234   2.758   3.245  10.746  0.3086 -0.8686  0.3922
  345TMC3    O2 5235   3.156   3.014  11.088  0.2765  0.1642  0.8663
  346MPD2     C 5236   3.062   4.551  14.818  0.2591 -0.1797 -0.2734
  346MPD2    C1 5237   3.121   4.433  14.765 -0.2314 -0.4751 -0.4586
  346MPD2    C2 5238   3.200   4.359  14.858  0.1815 -0.2481  0.2857
  346MPD2    C3 5239   3.221   4.396  14.986 -0.1760  0.2352  0.2947
  346MPD2    C4 5240   3.171   4.513  15.030  0.4386  0.3529  0.0047
  346MPD2    C5 5241   3.102   4.592  14.944 -1.0396 -0.5992 -0.3518
  346MPD2     H 5242   3.246   4.265  14.830 -0.7609 -0.8109  0.6253
  346MPD2    H1 5243   3.176   4.535  15.136 -1.4762  0.8787 -0.0214
  346MPD2    H2 5244   3.002   4.623  14.764  0.4317  0.6093  0.5949
  346MPD2    H3 5245   3.049   4.678  14.982 -0.0349 -0.0601 -0.1720
  346MPD2     N 5246   3.276   4.300  15.073 -0.3092 -0.3161 -0.2793
  346MPD2    H5 5247   3.292   4.215  15.020  1.7402 -0.1264  0.0359
  346MPD2    N1 5248   3.105   4.382  14.631  0.1608  0.4276 -0.1505
  346MPD2    H7 5249   3.129   4.285  14.615  1.0926  0.4171  1.2861
  347TMC3    C1 5250   3.305   4.176  15.271 -0.0096  0.6112  0.7410
  347TMC3    C2 5251   3.408   4.103  15.226 -0.0946  1.2827 -0.4346
  347TMC3    C3 5252   3.466   4.016  15.317 -0.3033 -0.3588 -0.4575
  347TMC3    C4 5253   3.266   4.165  15.402  0.0916  0.3754 -0.3254
  347TMC3    C5 5254   3.327   4.079  15.486  0.5943  0.4824 -0.2797
  347TMC3    C6 5255   3.428   3.999  15.442  0.7826 -0.3321 -0.6669
  347TMC3     C 5256   3.276   4.305  15.208  0.1203  0.5211  0.3767
  347TMC3     O 5257   3.240   4.395  15.287 -0.4282 -0.1303 -0.2915
  347TMC3     H 5258   3.454   4.102  15.127  0.3120  0.8380 -0.2416
  347TMC3    H1 5259   3.186   4.230  15.433  1.0508  1.1883  0.4644
  347TMC3    H2 5260   3.481   3.927  15.503  0.9200 -1.1176 -1.6975
  347TMC3    C7 5261   3.244   4.035  15.597  0.3700  0.0725 -0.2494
  347TMC3    C8 5262   3.616   4.005  15.298 -0.4221  0.0147  0.1814
  347TMC3    O1 5263   3.126   4.023  15.570 -0.6204  0.0040 -0.0018
  347TMC3    O2 5264   3.669   3.898  15.321 -0.0151 -0.3380 -0.1280
  348MPD2     C 5265   1.585   4.061  12.460 -0.0764  0.5341  0.4598
  348MPD2    C1 5266   1.626   3.993  12.346  0.1076  0.2029 -0.3316
  348MPD2    C2 5267   1.623   4.045  12.219  0.3983  0.5807 -0.1026
  348MPD2    C3 5268   1.597   4.181  12.191  0.6433 -0.2124 -0.3744
  348MPD2    C4 5269   1.554   4.250  12.301 -0.5976 -0.2290  0.9234
  348MPD2    C5 5270   1.545   4.192  12.427  0.4616 -0.2701  0.3292
  348MPD2     H 5271   1.635   3.974  12.137 -0.9191  1.1008 -0.7454
  348MPD2    H1 5272   1.500   4.341  12.276 -0.3411 -0.9010 -2.0494
  348MPD2    H2 5273   1.572   4.017  12.558  0.6258  1.4632  0.9688
  348MPD2    H3 5274   1.505   4.252  12.509  2.5306  1.3570  0.1597
  348MPD2     N 5275   1.597   4.226  12.061  0.0551  0.0123 -0.3606
  348MPD2    H5 5276   1.601   4.149  11.995  1.0730 -0.6149  0.4308
  348MPD2    N1 5277   1.649   3.858  12.343  0.0255 -1.0010 -0.2767
  348MPD2    H7 5278   1.681   3.813  12.258  2.0512  0.5295 -0.2986
  349TMC3    C1 5279   1.636   3.635  12.387  0.5171 -0.1584 -0.1926
  349TMC3    C2 5280   1.693   3.539  12.454  0.9309 -0.1149  0.1088
  349TMC3    C3 5281   1.714   3.416  12.399  0.0941 -0.0240  0.9074
  349TMC3    C4 5282   1.622   3.616  12.249  0.1457 -0.1745  0.4221
  349TMC3    C5 5283   1.656   3.499  12.193 -0.0907 -0.1007  0.1252
  349TMC3    C6 5284   1.701   3.394  12.267  0.1846 -0.6357 -0.5426
  349TMC3     C 5285   1.635   3.762  12.447 -0.1305 -0.4774 -0.0125
  349TMC3     O 5286   1.647   3.774  12.567  0.2136  0.1133  0.5788
  349TMC3     H 5287   1.713   3.557  12.559  1.1246  0.9396 -0.1142
  349TMC3    H1 5288   1.578   3.688  12.181 -0.9441 -0.6541  0.6285
  349TMC3    H2 5289   1.703   3.293  12.227  0.7834 -0.8526  0.0393
  349TMC3    C7 5290   1.626   3.469  12.050 -0.6379 -0.8168  0.8607
  349TMC3    C8 5291   1.789   3.320  12.486 -0.0333 -0.2124 -0.0113
  349TMC3    O1 5292   1.595   3.354  12.018  0.6743  0.2998  0.7145
  349TMC3    O2 5293   1.774   3.341  12.608 -0.4492  0.0113 -0.0550
  350MPD2     C 5294   0.211   1.608  10.392 -0.5975  0.2827  0.5373
  350MPD2    C1 5295   0.269   1.493  10.353 -0.6171  0.0210  0.0180
  350MPD2    C2 5296   0.406   1.489  10.337  0.6464  0.1019 -0.3665
  350MPD2    C3 5297   0.483   1.601  10.365  0.2175 -0.1531  0.2380
  350MPD2    C4 5298   0.425   1.715  10.420  0.2604  0.1937 -0.2503
  350MPD2    C5 5299   0.285   1.716  10.426  0.1064 -0.4270 -0.3192
  350MPD2     H 5300   0.459   1.402  10.300  1.5930  0.3001  0.5260
  350MPD2    H1 5301   0.479   1.805  10.448  1.5979  0.5418 -3.9162
  350MPD2    H2 5302   0.103   1.620  10.391 -0.4450  1.6030 -0.3320
  350MPD2    H3 5303   0.233   1.808  10.452 -2.6223 -2.5197  1.5905
  350MPD2     N 5304   0.623   1.596  10.345  0.0036 -0.2453  0.3834
  350MPD2    H5 5305   0.655   1.508  10.305 -0.1141  0.7389 -1.8552
  350MPD2    N1 5306   0.191   1.374  10.333  0.0235 -0.3951  0.1079
  350MPD2    H7 5307   0.235   1.286  10.310  1.9234  0.5125  0.2465
  351TMC3    C1 5308   0.006   1.242  10.283  0.1831  0.6876  0.3906
  351TMC3    C2 5309   0.100   1.175  10.207 -0.6096  0.3693 -0.2387
  351TMC3    C3 5310   0.087   1.035  10.206  0.1358  0.1726  0.5249
  351TMC3    C4 5311   4.631   1.184  10.330  1.4039  0.0023  0.7186
  351TMC3    C5 5312   4.618   1.048  10.316 -0.4433  0.0587  0.0191
  351TMC3    C6 5313   4.719   0.972  10.261  0.0275 -0.3899 -0.0945
  351TMC3     C 5314   0.054   1.369  10.337  0.4932 -0.7077  0.2620
  351TMC3     O 5315   4.713   1.437  10.398  0.2722 -0.1106 -0.1722
  351TMC3     H 5316   0.178   1.219  10.145 -1.0104 -0.6008 -1.4400
  351TMC3    H1 5317   4.542   1.238  10.362  1.0277  0.4441 -1.0854
  351TMC3    H2 5318   4.701   0.868  10.241  1.7662 -0.5641 -0.7920
  351TMC3    C7 5319   4.490   0.994  10.350 -0.4488 -0.4005 -0.0459
  351TMC3    C8 5320   0.212   0.972  10.159 -0.5856 -0.6751 -0.2922
  351TMC3    O1 5321   4.424   1.051  10.437 -0.8773 -0.1248  0.1912
  351TMC3    O2 5322   0.301   1.050  10.120 -0.5288  0.1369 -0.1643
  352MPD2     C 5323   3.897   4.359   1.125  0.2707  0.6982 -0.7459
  352MPD2    C1 5324   3.782   4.286   1.137 -0.1078  0.6343  0.4010
  352MPD2    C2 5325   3.792   4.146   1.147 -0.0759 -0.2060  0.2446
  352MPD2    C3 5326   3.912   4.075   1.131  0.2383  0.0373  0.2411
  352MPD2    C4 5327   4.023   4.153   1.116 -0.0439  0.0682 -0.5904
  352MPD2    C5 5328   4.017   4.294   1.114  0.1981 -0.4707  0.3496
  352MPD2     H 5329   3.704   4.086   1.167 -0.4259  1.0101  2.3653
  352MPD2    H1 5330   4.118   4.106   1.091  0.8152  0.7854  1.3139
  352MPD2    H2 5331   3.891   4.468   1.125 -0.2746  0.6722 -0.0860
  352MPD2    H3 5332   4.105   4.355   1.126  0.2561 -0.4676 -0.0807
  352MPD2     N 5333   3.931   3.932   1.134 -0.6227  0.2442  0.2231
  352MPD2    H5 5334   4.012   3.889   1.091 -0.8735  1.2483 -1.2710
  352MPD2    N1 5335   3.661   4.355   1.134  0.1364  0.2228 -0.5033
  352MPD2    H7 5336   3.656   4.440   1.079 -0.7204  0.5659  0.1003
  353TMC3    C1 5337   3.862   3.701   1.157 -0.1944  0.5399 -0.0383
  353TMC3    C2 5338   3.990   3.673   1.127 -1.0408  0.5444 -0.4382
  353TMC3    C3 5339   4.017   3.539   1.112  0.5181  0.4446 -0.0471
  353TMC3    C4 5340   3.755   3.616   1.171 -0.5614  0.3543  0.4409
  353TMC3    C5 5341   3.792   3.485   1.164 -0.1277 -0.4718  0.0859
  353TMC3    C6 5342   3.916   3.443   1.131 -0.0783  0.0432  0.0460
  353TMC3     C 5343   3.834   3.846   1.178  0.1216 -0.2067  1.2993
  353TMC3     O 5344   3.724   3.872   1.229 -0.2606 -0.8344  0.5855
  353TMC3     H 5345   4.075   3.741   1.131  0.4757 -1.3758 -0.3728
  353TMC3    H1 5346   3.655   3.648   1.198 -0.3215  0.7442  0.8607
  353TMC3    H2 5347   3.934   3.338   1.150 -0.4074 -0.3634 -1.9042
  353TMC3    C7 5348   3.692   3.381   1.187  0.9276  0.7477  0.0919
  353TMC3    C8 5349   4.149   3.484   1.156 -1.0615  0.3595 -0.5996
  353TMC3    O1 5350   3.710   3.271   1.136 -0.3515  0.0861 -0.2179
  353TMC3    O2 5351   4.232   3.560   1.213  0.3412  0.1953 -0.2973
  354TMC3    C1 5352   0.831   0.200  13.456  0.3082  0.1710  0.7278
  354TMC3    C2 5353   0.910   0.314  13.460  0.3815  0.4121  0.0520
  354TMC3    C3 5354   0.947   0.373  13.342  0.0023 -0.4728 -0.6117
  354TMC3    C4 5355   0.798   0.141  13.340  0.3583 -0.6989  0.5681
  354TMC3    C5 5356   0.848   0.193  13.224  0.6333 -0.3133 -1.0920
  354TMC3    C6 5357   0.917   0.311  13.224 -0.4581 -1.3194  0.5207
  354TMC3     C 5358   0.817   0.110  13.568 -0.3816  0.1287 -0.2020
  354TMC3     O 5359   0.732   0.020  13.561 -0.1709  0.4777 -0.4695
  354TMC3     H 5360   0.931   0.361  13.555  0.4499 -0.1712  0.3204
  354TMC3    H1 5361   0.765   0.038  13.329 -0.2473 -0.3840 -0.6706
  354TMC3    H2 5362   0.966   0.355  13.138 -2.6039 -1.4581 -0.7664
  354TMC3    C7 5363   0.856   0.109  13.107 -0.0165  0.2514  0.4774
  354TMC3    C8 5364   0.982   0.517  13.337  0.2065  0.3267 -0.9461
  354TMC3    O1 5365   0.790   0.002  13.107 -0.4487 -0.2876  0.1777
  354TMC3    O2 5366   1.007   0.569  13.444 -0.1655 -0.1573  0.2247
  355MPD2     C 5367   0.223   0.912  11.700 -0.3451  0.1848  0.3310
  355MPD2    C1 5368   0.318   0.924  11.595  0.0657 -0.1391 -0.2354
  355MPD2    C2 5369   0.448   0.910  11.638 -0.1915 -0.0407  0.2415
  355MPD2    C3 5370   0.492   0.943  11.770  0.0727 -0.4288 -0.7846
  355MPD2    C4 5371   0.398   0.942  11.871 -0.0520  0.2341 -0.5328
  355MPD2    C5 5372   0.266   0.911  11.832  0.0041  0.2474 -0.5452
  355MPD2     H 5373   0.522   0.878  11.566 -0.2347  2.4003 -0.8556
  355MPD2    H1 5374   0.426   0.966  11.973  2.0591  0.9235 -1.2788
  355MPD2    H2 5375   0.118   0.893  11.679 -0.7524  1.0739  1.6236
  355MPD2    H3 5376   0.184   0.897  11.901  0.6903 -0.4026  0.1395
  355MPD2     N 5377   0.627   0.980  11.805  0.3572 -0.1295 -0.4415
  355MPD2    H5 5378   0.629   1.026  11.896  2.5177 -0.1794 -0.4767
  355MPD2    N1 5379   0.280   0.921  11.462  0.3906  0.2560 -0.6200
  355MPD2    H7 5380   0.182   0.897  11.448  1.1398 -2.6333 -0.8481
  356TMC3    C1 5381   0.844   1.048  11.769 -0.0781 -0.3125 -0.8308
  356TMC3    C2 5382   0.935   1.082  11.671  0.9085 -0.0483  0.4318
  356TMC3    C3 5383   1.040   1.162  11.708  0.6783  0.0442 -0.0106
  356TMC3    C4 5384   0.861   1.076  11.894  0.3941  0.0227 -0.3406
  356TMC3    C5 5385   0.970   1.156  11.932  0.0618  0.0386 -1.0038
  356TMC3    C6 5386   1.052   1.205  11.834 -0.3027 -0.2294 -0.3408
  356TMC3     C 5387   0.732   0.972  11.722 -0.4123  0.2692  0.8308
  356TMC3     O 5388   0.760   0.904  11.623 -0.1157  0.2777 -0.1965
  356TMC3     H 5389   0.911   1.055  11.569 -1.3561  0.4243  0.8396
  356TMC3    H1 5390   0.784   1.051  11.966 -0.2460  0.6798 -0.8034
  356TMC3    H2 5391   1.121   1.288  11.850  0.6622 -1.3129  1.1638
  356TMC3    C7 5392   0.952   1.239  12.054  0.1235  0.2736  0.1256
  356TMC3    C8 5393   1.145   1.185  11.611 -0.0063 -0.1216  0.1217
  356TMC3    O1 5394   0.843   1.257  12.100 -0.3379  0.4257 -0.5408
  356TMC3    O2 5395   1.138   1.116  11.511 -0.1161  0.2319 -0.7465
  357MPD2     C 5396   0.618   1.089   0.990  0.6172 -0.1304  0.2807
  357MPD2    C1 5397   0.669   0.994   1.071  0.1039  0.0328  0.1845
  357MPD2    C2 5398   0.641   1.009   1.211 -0.8887 -0.1259 -0.4697
  357MPD2    C3 5399   0.558   1.111   1.250  0.1440  0.2454 -0.3409
  357MPD2    C4 5400   0.515   1.215   1.169  0.4808 -0.6162  0.2279
  357MPD2    C5 5401   0.546   1.194   1.035 -0.0342  0.1732  0.0752
  357MPD2     H 5402   0.678   0.932   1.278 -1.4719 -0.1685 -0.1926
  357MPD2    H1 5403   0.458   1.305   1.193  1.3317  0.1377 -0.5551
  357MPD2    H2 5404   0.632   1.087   0.883  2.1441 -0.2964  0.4867
  357MPD2    H3 5405   0.523   1.276   0.968 -3.2678 -0.6888  0.1324
  357MPD2     N 5406   0.506   1.121   1.379 -0.2260  0.5776 -0.1748
  357MPD2    H5 5407   0.466   1.209   1.408 -0.6967  0.9935 -2.1233
  357MPD2    N1 5408   0.746   0.888   1.012  0.4651 -0.2646 -0.9412
  357MPD2    H7 5409   0.745   0.884   0.911 -2.0577  1.1263 -0.9648
  358TMC3    C1 5410   0.863   0.686   1.006  0.2842  0.4941  0.4502
  358TMC3    C2 5411   0.759   0.628   0.931 -0.0740 -0.9217 -0.0705
  358TMC3    C3 5412   0.755   0.492   0.939 -0.2505 -0.1045  0.6802
  358TMC3    C4 5413   0.959   0.611   1.064 -0.3269 -0.4874 -0.6759
  358TMC3    C5 5414   0.941   0.474   1.077  0.0619  0.2481  0.1579
  358TMC3    C6 5415   0.850   0.418   1.002 -0.5072  0.5783  0.3677
  358TMC3     C 5416   0.812   0.795   1.084  0.9540 -0.1513 -0.6200
  358TMC3     O 5417   0.841   0.805   1.202 -0.1016 -0.5109 -0.0805
  358TMC3     H 5418   0.670   0.683   0.905  1.3174  1.2287 -0.2705
  358TMC3    H1 5419   1.028   0.663   1.130 -0.9793 -0.6842  0.1614
  358TMC3    H2 5420   0.839   0.310   1.007 -0.5222  0.5805  0.3812
  358TMC3    C7 5421   1.025   0.410   1.172  0.2504 -0.2177  0.0504
  358TMC3    C8 5422   0.678   0.434   0.838  0.2323 -0.3706  0.4344
  358TMC3    O1 5423   1.099   0.480   1.247  0.4042  0.0504 -0.0907
  358TMC3    O2 5424   0.677   0.488   0.726 -0.6484 -0.0073  0.2460
  359MPD2     C 5425   0.738   4.474  12.375  0.7928  0.3445  0.2733
  359MPD2    C1 5426   0.823   4.410  12.293  0.0560 -0.1053  0.8244
  359MPD2    C2 5427   0.789   4.284  12.250 -0.1073 -0.3163  0.7777
  359MPD2    C3 5428   0.661   4.232  12.272  0.2330 -0.2530 -0.1138
  359MPD2    C4 5429   0.574   4.304  12.349  0.0672 -0.2783  0.4418
  359MPD2    C5 5430   0.612   4.421  12.401  0.0018 -0.0405 -0.3225
  359MPD2     H 5431   0.855   4.232  12.181  0.6729 -1.0960  2.1156
  359MPD2    H1 5432   0.471   4.275  12.366 -0.1796 -0.0711 -0.6675
  359MPD2    H2 5433   0.760   4.575  12.407 -1.4472  0.4390  1.5272
  359MPD2    H3 5434   0.548   4.468  12.474  0.6812  0.8986 -0.3256
  359MPD2     N 5435   0.615   4.104  12.228 -0.1934  0.2281 -0.4797
  359MPD2    H5 5436   0.526   4.067  12.260  0.7619 -2.0484 -0.4912
  359MPD2    N1 5437   0.955   4.460  12.266  0.0191 -0.0132  0.0023
  359MPD2    H7 5438   1.004   4.418  12.188 -1.7520 -3.3462  0.6900
  360TMC3    C1 5439   1.146   4.592  12.261  0.3631 -0.6128 -0.5509
  360TMC3    C2 5440   1.229   4.680  12.322 -0.0347 -0.2291  0.5978
  360TMC3    C3 5441   1.346   4.720  12.262  0.4426  0.5885 -0.2368
  360TMC3    C4 5442   1.162   4.565  12.126  0.6956 -0.1881  0.6975
  360TMC3    C5 5443   1.285   4.596  12.077 -0.1432 -0.1008  0.5273
  360TMC3    C6 5444   1.375   4.681  12.137  0.0590 -0.4229  0.1350
  360TMC3     C 5445   1.022   4.558  12.330  0.9556 -0.2841 -0.1897
  360TMC3     O 5446   0.987   4.613  12.433  0.2938  0.5973 -0.3459
  360TMC3     H 5447   1.221   4.701  12.428  1.5243  0.1829  0.6273
  360TMC3    H1 5448   1.088   4.514  12.065  1.1277  1.2902 -1.0534
  360TMC3    H2 5449   1.462   4.705  12.077 -0.4194  0.8580 -0.0375
  360TMC3    C7 5450   1.319   4.554  11.940  0.2587 -0.3255  0.5256
  360TMC3    C8 5451   1.456   4.706  12.351  0.2255 -0.7357  0.6797
  360TMC3    O1 5452   1.379   4.635  11.866 -0.0373  0.4550  0.1958
  360TMC3    O2 5453   1.453   0.032  12.458  0.5389  0.2422 -0.4972
  361MPD2     C 5454   2.610   3.739  17.456 -0.1982  0.0002 -0.0145
  361MPD2    C1 5455   2.605   3.645  17.355 -0.2858 -0.0463  0.2658
  361MPD2    C2 5456   2.704   3.552  17.353 -0.1417  0.2176  0.0382
  361MPD2    C3 5457   2.808   3.555  17.446 -0.0213  0.1329  0.0295
  361MPD2    C4 5458   2.824   3.656  17.530 -0.0180 -0.1913  0.8015
  361MPD2    C5 5459   2.724   3.754  17.537 -0.2032 -0.1214 -0.2624
  361MPD2     H 5460   2.700   3.483  17.270 -1.4243 -0.4296  0.6289
  361MPD2    H1 5461   2.907   3.652  17.599  0.5805  0.3198  0.1159
  361MPD2    H2 5462   2.532   3.815  17.455  0.2913  0.4695 -3.5507
  361MPD2    H3 5463   2.735   3.837  17.606 -0.2270 -0.1961 -0.1687
  361MPD2     N 5464   2.905   3.453  17.454  0.0526  0.1115  0.2017
  361MPD2    H5 5465   2.991   3.481  17.500 -0.2417  3.7989 -1.4930
  361MPD2    N1 5466   2.506   3.635  17.262  0.2607  0.0751 -0.1084
  361MPD2    H7 5467   2.529   3.568  17.189  0.6465  0.4386 -0.3255
  362TMC3    C1 5468   2.308   3.647  17.147 -0.0695 -0.0934 -0.4030
  362TMC3    C2 5469   2.203   3.559  17.167 -0.4726 -0.2329 -0.0930
  362TMC3    C3 5470   2.172   3.472  17.068 -0.1583 -0.0095 -0.2799
  362TMC3    C4 5471   2.374   3.652  17.030 -0.2651  1.2439 -0.1996
  362TMC3    C5 5472   2.330   3.572  16.927  0.0233  0.5631  0.5288
  362TMC3    C6 5473   2.233   3.481  16.947  0.1886 -0.0210  0.6248
  362TMC3     C 5474   2.378   3.691  17.266 -0.2300 -0.5536  0.4103
  362TMC3     O 5475   2.326   3.761  17.353  0.1747 -0.6023  0.8244
  362TMC3     H 5476   2.169   3.545  17.269  1.3975  0.4839  0.6417
  362TMC3    H1 5477   2.459   3.718  17.015 -1.7043  2.5565 -2.4806
  362TMC3    H2 5478   2.184   3.441  16.860  1.3005  0.0989 -0.0681
  362TMC3    C7 5479   2.373   3.606  16.789 -0.2095 -0.1739 -0.6684
  362TMC3    C8 5480   2.042   3.410  17.078  0.1435 -0.4367  0.0106
  362TMC3    O1 5481   2.437   3.711  16.790 -0.0441  0.2992 -0.7406
  362TMC3    O2 5482   2.013   3.320  17.005 -0.3581 -0.4614 -0.1476
  363TMC3    C1 5483   2.338   0.744   9.884 -0.0025 -0.4571  0.2826
  363TMC3    C2 5484   2.205   0.716   9.924 -0.3111  0.1506 -0.4271
  363TMC3    C3 5485   2.136   0.826   9.970  0.1088 -0.6883 -0.7023
  363TMC3    C4 5486   2.399   0.868   9.911  0.0830  0.7843 -0.3885
  363TMC3    C5 5487   2.317   0.969   9.949 -0.0294 -0.0423  0.8591
  363TMC3    C6 5488   2.183   0.954   9.972 -0.4976  0.2912  0.0335
  363TMC3     C 5489   2.432   0.633   9.854  0.4714  0.1688 -0.0133
  363TMC3     O 5490   2.552   0.666   9.873 -0.4132  0.2519  0.5602
  363TMC3     H 5491   2.159   0.621   9.900  0.0427 -0.3084  0.6949
  363TMC3    H1 5492   2.505   0.882   9.896  0.0309 -0.9092 -2.3966
  363TMC3    H2 5493   2.127   1.038  10.013  0.4891  1.2167 -0.5037
  363TMC3    C7 5494   2.355   1.102   9.939 -0.8735  0.5494 -0.4885
  363TMC3    C8 5495   1.995   0.799   9.992 -0.2714 -0.4450  0.0167
  363TMC3    O1 5496   2.287   1.190   9.989  0.2561 -0.2905 -0.1665
  363TMC3    O2 5497   1.975   0.681  10.016 -0.2087 -0.9042 -0.1844
  364MPD2     C 5498   4.535   0.106  10.693  0.2089 -0.1526 -0.0599
  364MPD2    C1 5499   4.620   0.077  10.590  0.5092 -0.0084 -0.1963
  364MPD2    C2 5500   4.703   4.705  10.599  0.4437  0.1576 -0.3129
  364MPD2    C3 5501   4.720   4.635  10.714  0.3139  0.0542 -0.0454
  364MPD2    C4 5502   4.648   4.682  10.823 -0.4159  0.0114 -1.0643
  364MPD2    C5 5503   4.552   0.038  10.816 -0.2999  0.4212 -0.2421
  364MPD2     H 5504   0.022   4.674  10.513 -1.0367  0.4540 -1.4051
  364MPD2    H1 5505   4.664   4.635  10.919 -1.7435  1.8136  0.0412
  364MPD2    H2 5506   4.462   0.186  10.694  0.9449  0.5114  1.2750
  364MPD2    H3 5507   4.497   0.059  10.906 -0.5434  1.3028 -0.5891
  364MPD2     N 5508   0.073   4.528  10.743  0.7269 -0.1388  0.2142
  364MPD2    H5 5509   0.092   4.518  10.842 -0.1259  1.7572  0.5599
  364MPD2    N1 5510   4.623   0.168  10.473  0.7670 -0.0143  0.1233
  364MPD2    H7 5511   4.561   0.248  10.485 -0.2943 -0.5650 -1.7888
  365TMC3    C1 5512   4.716   0.290  10.287  0.6770 -0.4341  0.0700
  365TMC3    C2 5513   0.010   0.308  10.156 -0.1917  0.5572 -0.0922
  365TMC3    C3 5514   0.030   0.431  10.110 -0.5155  0.2865 -0.2616
  365TMC3    C4 5515   4.684   0.400  10.368 -0.1976  0.5213 -0.7991
  365TMC3    C5 5516   4.695   0.524  10.313  0.2989  1.1153  0.1302
  365TMC3    C6 5517   0.000   0.547  10.184 -0.3754  0.3336  0.1136
  365TMC3     C 5518   4.707   0.160  10.359  0.2662  0.0966  0.2925
  365TMC3     O 5519   0.027   0.070  10.304  0.0912  0.3196  0.5906
  365TMC3     H 5520   0.024   0.233  10.079 -1.4725  0.4916 -0.2589
  365TMC3    H1 5521   4.667   0.391  10.475  1.1074 -2.1522 -0.8137
  365TMC3    H2 5522   4.723   0.642  10.135  1.4036  1.5549  1.9228
  365TMC3    C7 5523   4.698   0.636  10.406 -0.1768  0.0249  0.0516
  365TMC3    C8 5524   0.093   0.460   9.980 -0.5100 -0.1315 -0.0024
  365TMC3    O1 5525   0.048   0.723  10.396 -0.2717  0.1700 -0.3882
  365TMC3    O2 5526   0.095   0.573   9.936 -0.1423 -0.2360  0.2891
  366MPD2     C 5527   3.407   2.128  15.864  0.2973  0.7254  0.4056
  366MPD2    C1 5528   3.345   2.123  15.739  0.0344  0.0701  0.1123
  366MPD2    C2 5529   3.295   2.002  15.693 -0.8562  0.0801  0.1185
  366MPD2    C3 5530   3.316   1.881  15.758  0.1029  0.4383 -0.2458
  366MPD2    C4 5531   3.367   1.892  15.884  0.3441 -0.3215 -0.7655
  366MPD2    C5 5532   3.422   2.010  15.933 -0.3072  0.0592  0.2971
  366MPD2     H 5533   3.249   2.000  15.594 -0.3718  0.4757 -0.1150
  366MPD2    H1 5534   3.386   1.804  15.945  0.5349  1.0339  1.1325
  366MPD2    H2 5535   3.460   2.209  15.911 -0.3700  1.5316 -0.2352
  366MPD2    H3 5536   3.459   2.004  16.034  0.5844 -1.2995 -0.1112
  366MPD2     N 5537   3.277   1.758  15.690 -0.4782 -0.1053 -0.3953
  366MPD2    H5 5538   3.239   1.765  15.596 -0.3156  0.1327 -0.4427
  366MPD2    N1 5539   3.353   2.235  15.648  0.0566  0.3778  0.6483
  366MPD2    H7 5540   3.300   2.225  15.562  1.1744 -0.5782  0.0796
  367TMC3    C1 5541   3.380   2.454  15.586  0.4157 -0.3920 -0.6499
  367TMC3    C2 5542   3.383   2.583  15.639 -0.4280 -0.7852 -0.7302
  367TMC3    C3 5543   3.419   2.687  15.551  0.1438 -0.3598  0.1353
  367TMC3    C4 5544   3.392   2.428  15.453  0.0354 -0.1366 -0.3933
  367TMC3    C5 5545   3.413   2.541  15.367  0.0020 -0.0106  0.4675
  367TMC3    C6 5546   3.440   2.666  15.419 -0.6972 -0.0963  0.6109
  367TMC3     C 5547   3.411   2.353  15.686  0.0033  0.1073 -0.1949
  367TMC3     O 5548   3.449   2.396  15.797  0.1845 -0.0122 -0.0997
  367TMC3     H 5549   3.369   2.596  15.745 -1.7751  0.7787 -1.1017
  367TMC3    H1 5550   3.389   2.326  15.417 -1.5613 -0.5362  0.8637
  367TMC3    H2 5551   3.486   2.747  15.363  0.3405 -0.5243  0.8635
  367TMC3    C7 5552   3.350   2.530  15.236  0.0870 -0.4459 -0.7998
  367TMC3    C8 5553   3.515   2.770  15.615 -0.3325 -0.0879 -0.0211
  367TMC3    O1 5554   3.272   2.437  15.221  0.4651  0.1990 -0.0484
  367TMC3    O2 5555   3.621   2.771  15.565 -0.3286  0.0240 -0.5621
  368MPD2     C 5556   4.684   3.541  13.620 -0.2414  0.5914 -0.2005
  368MPD2    C1 5557   4.632   3.577  13.499 -0.0719  0.5997 -0.1447
  368MPD2    C2 5558   4.723   3.632  13.413 -0.2255 -0.3564  0.8425
  368MPD2    C3 5559   0.121   3.654  13.449  0.2252  0.0958  0.8841
  368MPD2    C4 5560   0.167   3.627  13.574  0.5417  0.0434  0.1872
  368MPD2    C5 5561   0.080   3.556  13.650  0.5698 -0.2920  0.1346
  368MPD2     H 5562   4.689   3.646  13.311 -0.2459  0.2926  0.9440
  368MPD2    H1 5563   0.270   3.643  13.604  1.0738  0.3853 -1.8276
  368MPD2    H2 5564   4.626   3.494  13.698  0.9706  2.8816  2.1240
  368MPD2    H3 5565   0.108   3.535  13.753  0.2138 -1.2058  0.0424
  368MPD2     N 5566   0.215   3.717  13.359 -0.4204 -0.4678  0.4639
  368MPD2    H5 5567   0.315   3.722  13.376 -0.8325  1.0684  2.4237
  368MPD2    N1 5568   4.494   3.552  13.470  0.1153  0.7283  0.3674
  368MPD2    H7 5569   4.435   3.522  13.547  0.4384 -2.9988 -0.8192
  369TMC3    C1 5570   4.286   3.554  13.347  0.3203  0.0748  0.2642
  369TMC3    C2 5571   4.243   3.591  13.223  0.4253  0.9372  0.1686
  369TMC3    C3 5572   4.143   3.685  13.212 -0.8058 -0.0826 -0.2505
  369TMC3    C4 5573   4.221   3.603  13.461 -0.0378 -0.1537  0.1363
  369TMC3    C5 5574   4.108   3.681  13.444  0.0288 -0.2314 -0.2293
  369TMC3    C6 5575   4.072   3.729  13.321  0.1668 -0.5637  0.0405
  369TMC3     C 5576   4.428   3.569  13.350  0.3044  0.0818 -0.0787
  369TMC3     O 5577   4.481   3.597  13.242  0.1687 -0.4071 -0.8677
  369TMC3     H 5578   4.300   3.560  13.137  1.3694 -2.5174  2.0451
  369TMC3    H1 5579   4.238   3.568  13.562 -1.9587 -3.1840 -0.6108
  369TMC3    H2 5580   4.001   3.811  13.314  0.1352 -0.3459  2.8013
  369TMC3    C7 5581   4.000   3.652  13.528  0.0012 -0.5063 -0.3220
  369TMC3    C8 5582   4.170   3.787  13.116  0.1265 -0.5607 -0.4153
  369TMC3    O1 5583   4.004   3.545  13.588  0.1568  0.0412  0.0185
  369TMC3    O2 5584   4.076   3.858  13.083  0.4276  0.3753 -0.0540
  370TMC3    C1 5585   3.846   4.695  16.450 -0.4310 -0.2564  0.0794
  370TMC3    C2 5586   3.822   4.589  16.533  0.0954  0.0425 -0.1311
  370TMC3    C3 5587   3.845   4.462  16.491 -0.2874 -0.2125  0.5019
  370TMC3    C4 5588   3.875   4.680  16.318  0.0385 -0.0157 -0.0527
  370TMC3    C5 5589   3.899   4.550  16.280 -0.3764 -0.4645 -0.4085
  370TMC3    C6 5590   3.881   4.435  16.362  0.1472 -0.2351  0.3563
  370TMC3     C 5591   3.852   0.088  16.516  0.2321 -0.6089 -0.0936
  370TMC3     O 5592   3.776   0.102  16.610 -0.9456 -0.4572  0.4965
  370TMC3     H 5593   3.796   4.605  16.637 -1.7921 -0.3258 -0.5503
  370TMC3    H1 5594   3.907   0.015  16.246 -0.0538  1.5956  1.5570
  370TMC3    H2 5595   3.902   4.332  16.335  0.5664 -0.1024  0.1819
  370TMC3    C7 5596   3.981   4.533  16.160  0.3764 -0.4389 -0.6324
  370TMC3    C8 5597   3.866   4.356  16.592 -0.1084  0.2714  0.2903
  370TMC3    O1 5598   3.956   4.599  16.060 -0.9499 -0.6730 -0.4401
  370TMC3    O2 5599   3.958   4.275  16.567 -0.0287  0.0768  0.0577
  371TMC3    C1 5600   0.450   2.795  15.620  0.4879 -0.1919  0.2701
  371TMC3    C2 5601   0.356   2.787  15.720 -0.1419 -0.2518  0.7125
  371TMC3    C3 5602   0.366   2.885  15.815 -0.3257  0.4876 -0.3459
  371TMC3    C4 5603   0.543   2.894  15.618 -0.0694  0.3954  0.1369
  371TMC3    C5 5604   0.548   2.987  15.717 -0.1632 -0.0986  0.6081
  371TMC3    C6 5605   0.457   2.986  15.821 -0.3771 -0.0655  1.1557
  371TMC3     C 5606   0.450   2.712  15.505  0.1447  0.3376  0.0160
  371TMC3     O 5607   0.493   2.754  15.396 -0.2155  0.3740  0.1461
  371TMC3     H 5608   0.270   2.721  15.716  0.0562 -0.5180  0.8681
  371TMC3    H1 5609   0.629   2.885  15.552 -0.7207 -0.7307 -0.5677
  371TMC3    H2 5610   0.466   3.051  15.907 -1.9166 -1.1204  2.0934
  371TMC3    C7 5611   0.610   3.112  15.683  0.1570  0.8992 -0.5258
  371TMC3    C8 5612   0.241   2.911  15.882  0.3393 -0.1416  0.3026
  371TMC3    O1 5613   0.653   3.188  15.766  0.6239 -0.2299  0.4591
  371TMC3    O2 5614   0.161   2.821  15.909  0.0951  0.0566 -0.1349
  372MPD2     C 5615   4.315   3.934  13.674 -0.4218  0.5868  0.1764
  372MPD2    C1 5616   4.426   3.874  13.725  0.0858 -0.2190  0.1659
  372MPD2    C2 5617   4.409   3.772  13.818  0.0538 -0.1314  1.0151
  372MPD2    C3 5618   4.284   3.727  13.863 -0.4349 -0.5081 -0.4627
  372MPD2    C4 5619   4.179   3.789  13.816  0.3836  0.5971  0.0414
  372MPD2    C5 5620   4.195   3.890  13.720  0.5610  0.0480 -0.1962
  372MPD2     H 5621   4.495   3.714  13.850  1.2093  2.6743  2.8975
  372MPD2    H1 5622   4.076   3.761  13.836 -0.4984  3.1357 -0.9932
  372MPD2    H2 5623   4.316   4.016  13.602  0.2739 -1.3281 -1.9849
  372MPD2    H3 5624   4.101   3.935  13.690 -0.1993 -1.3498  0.0640
  372MPD2     N 5625   4.272   3.603  13.930 -0.4213  0.4623  0.0192
  372MPD2    H5 5626   4.358   3.552  13.950  0.1022  0.8132 -1.3265
  372MPD2    N1 5627   4.553   3.906  13.671  0.3474  0.4693 -0.3713
  372MPD2    H7 5628   4.628   3.863  13.725 -1.2642  0.0261  1.4921
  373TMC3    C1 5629   4.183   3.418  14.019 -0.1672  0.1087 -0.8636
  373TMC3    C2 5630   4.258   3.409  14.140  0.5953  0.4448  0.6775
  373TMC3    C3 5631   4.267   3.280  14.192 -0.0749  0.1762  0.4063
  373TMC3    C4 5632   4.108   3.314  13.978  0.2587 -0.1382  0.5326
  373TMC3    C5 5633   4.124   3.188  14.034  0.5889 -0.1408  0.1284
  373TMC3    C6 5634   4.202   3.174  14.142 -0.5636 -0.5662  0.8391
  373TMC3     C 5635   4.157   3.540  13.963  0.2367 -0.5914  0.4738
  373TMC3     O 5636   4.048   3.595  13.983  0.1090 -0.2630 -0.0427
  373TMC3     H 5637   4.314   3.492  14.180  1.3453 -0.8099  2.2021
  373TMC3    H1 5638   4.043   3.332  13.894 -0.5607  2.0471  1.6282
  373TMC3    H2 5639   4.237   3.080  14.183  0.7467 -1.2236 -1.7730
  373TMC3    C7 5640   4.137   3.088  13.936 -0.8278  0.4284  0.0309
  373TMC3    C8 5641   4.384   3.252  14.260  0.8557  0.1174  0.2612
  373TMC3    O1 5642   4.153   3.133  13.823  0.5371 -0.4819 -0.0928
  373TMC3    O2 5643   4.479   3.327  14.239  0.3769  0.1860 -0.5328
  374TMC3    C1 5644   0.469   3.439  10.354 -0.5143 -0.4373 -0.3419
  374TMC3    C2 5645   0.582   3.519  10.340  0.2091 -0.0669  0.4469
  374TMC3    C3 5646   0.568   3.640  10.283  0.7273 -0.1215 -0.3380
  374TMC3    C4 5647   0.347   3.493  10.318  0.2018 -0.1428  0.1196
  374TMC3    C5 5648   0.338   3.619  10.278 -0.4539 -0.2978  0.3154
  374TMC3    C6 5649   0.448   3.692  10.245  1.2643 -0.5596 -0.0121
  374TMC3     C 5650   0.466   3.325  10.437  0.2794 -0.1093  0.1715
  374TMC3     O 5651   0.359   3.281  10.477 -0.6200  0.4964 -0.5015
  374TMC3     H 5652   0.682   3.483  10.359  1.4477  1.5072 -3.0835
  374TMC3    H1 5653   0.257   3.438  10.343  1.1350 -2.1447 -0.8800
  374TMC3    H2 5654   0.436   3.798  10.227  2.4369 -0.5665 -0.8160
  374TMC3    C7 5655   0.221   3.650  10.190 -0.0060 -0.5167  0.5414
  374TMC3    C8 5656   0.681   3.718  10.243  0.1362  0.2283  0.2263
  374TMC3    O1 5657   0.211   3.764  10.152  0.4381  0.4070  0.6966
  374TMC3    O2 5658   0.667   3.813  10.171  0.3245 -0.2364 -0.2011
  375MPD2     C 5659   0.653   0.693  16.902 -0.2925 -0.3062  0.4252
  375MPD2    C1 5660   0.533   0.632  16.883 -0.4735 -0.7192 -0.0903
  375MPD2    C2 5661   0.532   0.500  16.848  0.7624 -0.6200  0.4819
  375MPD2    C3 5662   0.643   0.424  16.822 -0.3776 -0.1849  0.0770
  375MPD2    C4 5663   0.766   0.490  16.827  0.3126 -1.2780  0.1129
  375MPD2    C5 5664   0.765   0.623  16.869  0.5432 -0.1535  0.0961
  375MPD2     H 5665   0.433   0.455  16.849  0.7321 -0.6265 -3.5140
  375MPD2    H1 5666   0.861   0.443  16.810  0.4865 -1.5215  1.6964
  375MPD2    H2 5667   0.669   0.795  16.934 -1.1260 -0.3575  0.9950
  375MPD2    H3 5668   0.862   0.672  16.876 -0.9859  2.3375  3.5886
  375MPD2     N 5669   0.640   0.287  16.806 -0.3276  0.6772  0.3118
  375MPD2    H5 5670   0.728   0.241  16.783 -1.3991 -1.9069  1.3659
  375MPD2    N1 5671   0.406   0.694  16.912  0.1077  0.8379  0.5511
  375MPD2    H7 5672   0.326   0.634  16.928  1.8645 -1.3056  1.4183
  376TMC3    C1 5673   0.572   0.063  16.788 -0.2940  0.0549 -0.3607
  376TMC3    C2 5674   0.702   0.037  16.762  0.1078  0.1092  0.8073
  376TMC3    C3 5675   0.724   4.690  16.664 -0.1871 -0.6728  0.4958
  376TMC3    C4 5676   0.466   0.010  16.723 -0.3610  0.0155 -0.2176
  376TMC3    C5 5677   0.496   4.675  16.615  0.7182 -0.1078  0.1390
  376TMC3    C6 5678   0.622   4.642  16.587  0.0490 -0.5249  0.4047
  376TMC3     C 5679   0.544   0.196  16.839 -0.1296 -0.0139 -0.3120
  376TMC3     O 5680   0.443   0.216  16.903  0.0299  0.7781 -0.0521
  376TMC3     H 5681   0.781   0.083  16.820 -0.8612  0.1730  2.0645
  376TMC3    H1 5682   0.368   0.054  16.734  0.1162  1.2664 -0.9162
  376TMC3    H2 5683   0.659   4.589  16.500  0.6267  1.6323 -0.6498
  376TMC3    C7 5684   0.402   4.650  16.509 -0.0961 -0.7040 -0.2972
  376TMC3    C8 5685   0.861   4.661  16.626 -0.3228  0.3426 -0.1215
  376TMC3    O1 5686   0.291   4.622  16.543 -0.4660 -0.4732  0.3475
  376TMC3    O2 5687   0.881   4.645  16.504 -0.1557 -0.2830  0.3357
  377MPD2     C 5688   3.783   3.759  13.053  0.2627  0.3128  0.2422
  377MPD2    C1 5689   3.724   3.856  12.980  0.9103  0.0833  0.0845
  377MPD2    C2 5690   3.616   3.921  13.036 -0.0395  0.8147 -0.0470
  377MPD2    C3 5691   3.563   3.879  13.159  0.0218 -0.2666 -0.0661
  377MPD2    C4 5692   3.625   3.776  13.227 -0.3359 -0.5630  0.1748
  377MPD2    C5 5693   3.741   3.722  13.178  0.4862  0.2253  0.2970
  377MPD2     H 5694   3.564   3.991  12.971 -2.0456  0.3123  1.0198
  377MPD2    H1 5695   3.590   3.748  13.326  1.6124 -0.6487  0.8313
  377MPD2    H2 5696   3.859   3.689  13.020 -0.0488  0.2238 -0.2913
  377MPD2    H3 5697   3.791   3.643  13.235 -1.5706 -0.1106  1.6291
  377MPD2     N 5698   3.438   3.926  13.204 -0.1510  1.0144  0.5071
  377MPD2    H5 5699   3.397   3.867  13.275 -0.4723  0.6661  0.0267
  377MPD2    N1 5700   3.774   3.876  12.852  0.6311 -0.0646 -0.1352
  377MPD2    H7 5701   3.861   3.828  12.831  2.0207  0.5064  4.3443
  378TMC3    C1 5702   3.796   3.842  12.404 -0.0770  0.4556 -0.7533
  378TMC3    C2 5703   3.731   3.902  12.510  0.4980  0.5967  0.0884
  378TMC3    C3 5704   3.802   3.918  12.630  0.4174  0.3847  0.1041
  378TMC3    C4 5705   3.929   3.808  12.406  0.3973 -0.8767 -0.5277
  378TMC3    C5 5706   3.990   3.826  12.528  0.4245  0.1189 -0.0568
  378TMC3    C6 5707   3.933   3.877  12.645 -0.1323  0.1895  0.5458
  378TMC3     C 5708   3.730   3.861  12.284 -0.6688 -0.0505  0.7221
  378TMC3     O 5709   3.612   3.907  12.288  0.1623  0.1151 -0.2930
  378TMC3     H 5710   3.629   3.938  12.509  0.2198 -0.1724  2.2577
  378TMC3    H1 5711   3.983   3.765  12.323  2.9711  0.7484  0.2966
  378TMC3    H2 5712   3.994   3.909  12.729 -0.3022 -0.1919  0.8172
  378TMC3    C7 5713   4.135   3.802  12.546  0.3540  0.8724 -0.4487
  378TMC3    C8 5714   3.724   3.952  12.750  0.0757 -0.2607  0.1500
  378TMC3    O1 5715   4.193   3.844  12.642  0.2216 -0.2939  0.2846
  378TMC3    O2 5716   3.622   4.020  12.745 -0.3254 -0.6044 -0.1397
  379MPD2     C 5717   4.688   2.425  16.287  0.9997  0.7154  0.4731
  379MPD2    C1 5718   4.558   2.440  16.333 -0.2281 -0.9814 -0.0824
  379MPD2    C2 5719   4.532   2.438  16.474 -0.3821  0.7794  0.2575
  379MPD2    C3 5720   4.642   2.418  16.565  0.2763 -0.1864  0.0147
  379MPD2    C4 5721   0.025   2.393  16.514  0.7079 -0.6219 -0.6029
  379MPD2    C5 5722   0.050   2.401  16.377 -0.0888 -0.4344 -0.0969
  379MPD2     H 5723   4.432   2.447  16.515  0.2249 -1.5734  2.2260
  379MPD2    H1 5724   0.108   2.379  16.582  0.2069  0.0961  0.1692
  379MPD2    H2 5725   4.718   2.439  16.184  2.5544 -0.1851  0.7993
  379MPD2    H3 5726   0.154   2.388  16.348 -0.7315 -2.3217 -1.5816
  379MPD2     N 5727   4.633   2.407  16.702 -0.3827 -0.0035 -0.0618
  379MPD2    H5 5728   4.713   2.379  16.757 -1.1813 -0.5169  0.8455
  379MPD2    N1 5729   4.459   2.441  16.237 -1.0989 -0.1358  0.2342
  379MPD2    H7 5730   4.490   2.435  16.140  0.3523 -0.3486  0.7113
  380TMC3    C1 5731   4.249   2.491  16.146 -0.5988 -0.4085  0.1844
  380TMC3    C2 5732   4.280   2.448  16.018  0.2283 -0.3989 -0.3396
  380TMC3    C3 5733   4.213   2.499  15.910  0.1826  0.4098  0.1959
  380TMC3    C4 5734   4.141   2.578  16.163  0.3298  0.2517  0.5230
  380TMC3    C5 5735   4.074   2.610  16.051  0.2400  0.8003 -0.4514
  380TMC3    C6 5736   4.112   2.585  15.924  0.3671 -0.0021 -0.1880
  380TMC3     C 5737   4.328   2.464  16.259 -0.4526  1.1388  0.3176
  380TMC3     O 5738   4.264   2.480  16.363  0.1758  0.9813  0.2329
  380TMC3     H 5739   4.358   2.377  15.996 -0.5505 -1.2911 -0.2515
  380TMC3    H1 5740   4.141   2.622  16.262  0.5992  1.3562  0.0286
  380TMC3    H2 5741   4.070   2.639  15.839 -0.6057  1.7977  1.4287
  380TMC3    C7 5742   3.977   2.719  16.075 -0.2452  0.1282  0.6253
  380TMC3    C8 5743   4.259   2.470  15.768 -0.0898 -0.1405 -0.2335
  380TMC3    O1 5744   3.980   2.776  16.179 -0.3107 -0.4907  0.4405
  380TMC3    O2 5745   4.379   2.449  15.760 -0.4829  0.0672  0.1475
  381TMC3    C1 5746   3.818   3.950  16.332 -0.1275 -0.3404 -0.1488
  381TMC3    C2 5747   3.950   3.984  16.321  0.5579  0.4724 -0.1382
  381TMC3    C3 5748   4.028   3.964  16.431 -0.4472 -0.5047  0.0465
  381TMC3    C4 5749   3.771   3.891  16.451 -0.0433  0.5047 -0.0903
  381TMC3    C5 5750   3.853   3.883  16.562  0.0975 -0.1675  0.3683
  381TMC3    C6 5751   3.983   3.911  16.549  0.8135 -0.2367  0.7553
  381TMC3     C 5752   3.720   4.038  16.262 -0.5696 -0.5568  0.9589
  381TMC3     O 5753   3.619   4.075  16.323 -0.3976 -0.0264  0.1294
  381TMC3     H 5754   3.996   4.032  16.235 -1.5869  1.2261 -0.8638
  381TMC3    H1 5755   3.669   3.856  16.462  0.2448 -0.3921 -0.3060
  381TMC3    H2 5756   4.049   3.889  16.632 -1.3980 -1.2080  2.2675
  381TMC3    C7 5757   3.817   3.808  16.684 -0.2781  0.5528 -0.1443
  381TMC3    C8 5758   4.168   3.999  16.430  0.4471  0.2621 -0.1859
  381TMC3    O1 5759   3.899   3.739  16.743 -0.3362  0.6458  0.0489
  381TMC3    O2 5760   4.216   4.014  16.316 -0.3701 -0.4897 -0.5834
  382MPD2     C 5761   3.206   0.694  17.412  0.0227 -0.1787 -0.8621
  382MPD2    C1 5762   3.086   0.707  17.480 -0.0225  0.7826  0.2954
  382MPD2    C2 5763   3.011   0.594  17.494  0.4284  0.0902  0.0892
  382MPD2    C3 5764   3.035   0.468  17.437 -0.5123 -0.8239  0.3128
  382MPD2    C4 5765   3.155   0.455  17.369  0.1827  0.0203  0.9599
  382MPD2    C5 5766   3.237   0.569  17.362 -0.4526 -0.8851  0.0329
  382MPD2     H 5767   2.914   0.601  17.541  0.4474 -1.8733  0.4296
  382MPD2    H1 5768   3.170   0.368  17.305 -1.4160 -0.9891  1.9443
  382MPD2    H2 5769   3.278   0.770  17.386  0.2464 -0.8755 -2.2370
  382MPD2    H3 5770   3.326   0.558  17.300  0.6492  0.7809  1.3196
  382MPD2     N 5771   2.956   0.353  17.449 -0.5995  0.4721 -0.7077
  382MPD2    H5 5772   2.984   0.271  17.396 -0.8466  0.4243 -0.7637
  382MPD2    N1 5773   3.044   0.820  17.539  0.3610 -0.3939  0.0270
  382MPD2    H7 5774   2.952   0.821  17.581  0.7068  1.6421  0.7252
  383TMC3    C1 5775   2.807   0.202  17.526  0.1646 -0.2860  0.8918
  383TMC3    C2 5776   2.782   0.138  17.407 -0.2675  0.1039 -0.0356
  383TMC3    C3 5777   2.726   0.011  17.409 -0.4327 -0.2399  0.1634
  383TMC3    C4 5778   2.780   0.142  17.648  0.1585  0.6814  0.3146
  383TMC3    C5 5779   2.738   0.015  17.640 -0.1604 -0.4005  0.3987
  383TMC3    C6 5780   2.713   4.687  17.528  0.0675  0.0898 -0.3071
  383TMC3     C 5781   2.845   0.339  17.532 -0.0014  0.4354 -0.6973
  383TMC3     O 5782   2.812   0.410  17.629  0.4298  0.0633 -0.0468
  383TMC3     H 5783   2.800   0.185  17.311 -0.3441  2.9385  1.3567
  383TMC3    H1 5784   2.785   0.197  17.741 -0.4779  1.0031  0.1616
  383TMC3    H2 5785   2.646   4.603  17.540  2.6743 -2.1048 -1.1739
  383TMC3    C7 5786   2.757   4.691   0.016 -0.0121  0.0338 -0.8810
  383TMC3    C8 5787   2.657   4.704  17.293 -0.5064  0.5874 -0.5074
  383TMC3    O1 5788   2.757   0.033   0.110  0.2311  0.5577 -0.3356
  383TMC3    O2 5789   2.619   0.052  17.213 -0.1395  0.2234  0.5672
  384MPD2     C 5790   4.539   1.662  11.675  0.2955 -0.5767  0.1891
  384MPD2    C1 5791   4.484   1.544  11.713 -0.6592  0.0910 -0.2900
  384MPD2    C2 5792   4.522   1.427  11.650 -0.6964 -0.0529  0.1144
  384MPD2    C3 5793   4.624   1.430  11.567  0.7195  0.0871 -0.1130
  384MPD2    C4 5794   4.685   1.548  11.536 -0.9113  0.1987  0.6763
  384MPD2    C5 5795   4.640   1.663  11.586  0.0630  0.2446 -0.4501
  384MPD2     H 5796   4.483   1.329  11.672 -0.0258  0.3991  3.2103
  384MPD2    H1 5797   0.037   1.547  11.477 -1.3316 -0.9017  0.0401
  384MPD2    H2 5798   4.503   1.752  11.723 -1.0468 -1.2183  0.4028
  384MPD2    H3 5799   4.685   1.757  11.557 -0.1885  1.2470  2.3633
  384MPD2     N 5800   4.680   1.310  11.503 -0.0134  0.0152  0.4853
  384MPD2    H5 5801   4.729   1.339  11.419  0.6396 -0.0798  0.8314
  384MPD2    N1 5802   4.390   1.551  11.822 -0.0710  0.1905 -0.0869
  384MPD2    H7 5803   4.370   1.640  11.867  0.0620 -0.2832  0.9038
  385TMC3    C1 5804   4.649   1.134  11.659 -0.0065 -0.2990  0.4690
  385TMC3    C2 5805   4.581   1.019  11.693  0.3033  0.1159  0.3422
  385TMC3    C3 5806   4.545   0.995  11.824  0.2728 -0.7498  0.0836
  385TMC3    C4 5807   4.697   1.215  11.760 -0.1127 -0.2229  0.3761
  385TMC3    C5 5808   4.669   1.177  11.889  0.3095  0.0668 -0.3622
  385TMC3    C6 5809   4.597   1.063  11.925 -0.7246 -0.2566 -0.7305
  385TMC3     C 5810   4.658   1.177  11.528  0.5555 -0.7607  0.5512
  385TMC3     O 5811   4.642   1.094  11.443 -0.1988 -0.1115 -0.3452
  385TMC3     H 5812   4.567   0.943  11.618 -1.2992  0.2896  0.4736
  385TMC3    H1 5813   0.020   1.299  11.732  1.8475 -1.6237  0.5010
  385TMC3    H2 5814   4.574   1.034  12.027 -0.7477  2.2755 -0.0257
  385TMC3    C7 5815   4.654   1.284  11.987  0.2842  0.2678  0.1831
  385TMC3    C8 5816   4.460   0.880  11.852  0.3144  0.1842  0.3746
  385TMC3    O1 5817   4.573   1.272  12.078  0.0917 -0.0168  0.0038
  385TMC3    O2 5818   4.469   0.836  11.965  0.3267  0.0432 -0.3517
  386TMC3    C1 5819   0.560   3.707  11.701  0.8328  0.0061 -0.4534
  386TMC3    C2 5820   0.589   3.774  11.587  0.4492 -0.3194 -0.7919
  386TMC3    C3 5821   0.489   3.850  11.527  0.3420 -0.4846 -0.3322
  386TMC3    C4 5822   0.436   3.693  11.760 -0.2694 -0.0476  0.2558
  386TMC3    C5 5823   0.339   3.772  11.696 -0.7720  0.7646 -0.1864
  386TMC3    C6 5824   0.366   3.856  11.591  0.1887 -0.5644 -0.5824
  386TMC3     C 5825   0.658   3.622  11.756 -0.0493 -0.8770  0.8229
  386TMC3     O 5826   0.615   3.537  11.829 -0.7432 -0.0348 -0.0516
  386TMC3     H 5827   0.688   3.788  11.544  1.1116 -1.2999  0.3836
  386TMC3    H1 5828   0.412   3.623  11.839 -1.1707  0.9213  0.8289
  386TMC3    H2 5829   0.291   3.931  11.568  1.2647  1.1627  1.5456
  386TMC3    C7 5830   0.211   3.796  11.775 -0.7543 -0.3137  0.2149
  386TMC3    C8 5831   0.510   3.878  11.387 -0.1114 -0.0991  0.1804
  386TMC3    O1 5832   0.211   3.772  11.895 -0.3357 -0.6457  0.5335
  386TMC3    O2 5833   0.628   3.892  11.356  0.2413 -0.6629 -0.5486
  387MPD2     C 5834   2.155   4.561  10.224 -0.3360 -0.0938 -0.4716
  387MPD2    C1 5835   2.203   4.551  10.357  0.1154 -0.0642 -0.4853
  387MPD2    C2 5836   2.201   4.422  10.418 -0.6483  0.4388 -0.0320
  387MPD2    C3 5837   2.183   4.304  10.350  0.3807  0.2362 -0.0080
  387MPD2    C4 5838   2.165   4.319  10.211  0.2000 -0.3827 -0.0193
  387MPD2    C5 5839   2.140   4.443  10.154  0.0955  0.6948  0.0364
  387MPD2     H 5840   2.236   4.425  10.520  1.2459  0.3155 -0.6670
  387MPD2    H1 5841   2.147   4.235  10.145  1.4886  0.5606 -1.5603
  387MPD2    H2 5842   2.140   4.658  10.178 -3.1027 -0.9679 -1.4352
  387MPD2    H3 5843   2.090   4.450  10.058  0.2329 -0.0619 -0.0925
  387MPD2     N 5844   2.205   4.184  10.423 -0.2140  0.0477 -0.1183
  387MPD2    H5 5845   2.223   4.196  10.522 -4.4523 -0.2419  0.6815
  387MPD2    N1 5846   2.247   4.661  10.435  0.7034 -0.0363 -0.7005
  387MPD2    H7 5847   2.290   4.629  10.522 -2.9876  2.0022  1.8825
  388TMC3    C1 5848   2.385   0.107  10.466 -0.2939 -0.2050  0.2971
  388TMC3    C2 5849   2.402   0.243  10.443  0.0831 -0.7775  0.0920
  388TMC3    C3 5850   2.504   0.304  10.507 -0.0981  0.0762 -0.1665
  388TMC3    C4 5851   2.464   0.035  10.548  0.1066  0.3334  0.5289
  388TMC3    C5 5852   2.573   0.098  10.596 -0.1938 -0.0395 -0.3169
  388TMC3    C6 5853   2.601   0.230  10.573  0.2064  0.0347 -0.5683
  388TMC3     C 5854   2.275   0.046  10.388 -0.1554 -0.9299  0.2999
  388TMC3     O 5855   2.224   0.105  10.293 -0.0825 -0.0471 -0.0641
  388TMC3     H 5856   2.334   0.289  10.372  1.5131  1.5836  0.2340
  388TMC3    H1 5857   2.437   4.668  10.549 -0.6170  0.4972 -2.5289
  388TMC3    H2 5858   2.683   0.277  10.625  1.2224 -0.2076 -1.9506
  388TMC3    C7 5859   2.675   0.015  10.657  0.3485 -0.8284 -0.4623
  388TMC3    C8 5860   2.478   0.447  10.525 -0.1246  0.3567 -0.1634
  388TMC3    O1 5861   2.788   0.058  10.676  0.5831 -0.4425 -0.0414
  388TMC3    O2 5862   2.382   0.490  10.467 -0.2757  0.2945  0.0785
  389MPD2     C 5863   1.824   2.257  11.675  0.1782 -0.3580  1.0942
  389MPD2    C1 5864   1.752   2.181  11.586 -0.4466 -0.6800  0.0397
  389MPD2    C2 5865   1.657   2.089  11.638 -0.3215 -0.2361  0.4309
  389MPD2    C3 5866   1.646   2.068  11.774  0.0157  0.2297  0.5512
  389MPD2    C4 5867   1.717   2.150  11.857 -0.7599  0.4850  0.0577
  389MPD2    C5 5868   1.805   2.247  11.809 -0.3383 -0.3084 -0.1652
  389MPD2     H 5869   1.586   2.039  11.573 -1.1716  1.7549 -0.2070
  389MPD2    H1 5870   1.703   2.138  11.963 -2.2283 -1.5208 -0.3631
  389MPD2    H2 5871   1.906   2.316  11.636 -0.3934  0.3134  0.9080
  389MPD2    H3 5872   1.863   2.299  11.884 -0.0357  0.2490 -0.7800
  389MPD2     N 5873   1.569   1.974  11.837  0.1381 -0.2865  0.0885
  389MPD2    H5 5874   1.569   1.981  11.939  1.3015  0.1400  0.0571
  389MPD2    N1 5875   1.776   2.203  11.445 -0.9961  0.0369 -0.4005
  389MPD2    H7 5876   1.844   2.273  11.418 -1.7124  1.0105  0.2968
  390TMC3    C1 5877   1.379   1.835  11.883 -0.3469  0.3121 -0.6177
  390TMC3    C2 5878   1.306   1.725  11.846  0.3487 -0.0824 -0.0378
  390TMC3    C3 5879   1.201   1.680  11.922 -0.8162 -0.0951 -0.2216
  390TMC3    C4 5880   1.362   1.900  12.005 -0.4244 -0.4654 -0.5301
  390TMC3    C5 5881   1.254   1.858  12.080  0.3965  0.2249 -0.4093
  390TMC3    C6 5882   1.175   1.748  12.042 -0.2244 -0.7685  0.1699
  390TMC3     C 5883   1.481   1.884  11.785  0.3869  0.3819 -0.3379
  390TMC3     O 5884   1.465   1.854  11.666 -0.3755  0.0201 -0.2377
  390TMC3     H 5885   1.322   1.679  11.750  2.1210 -0.8926  0.6504
  390TMC3    H1 5886   1.429   1.977  12.042 -0.1963 -0.4734 -0.9237
  390TMC3    H2 5887   1.101   1.710  12.112  1.0114  0.2976  2.0631
  390TMC3    C7 5888   1.223   1.934  12.195  0.1641  0.4125 -0.3816
  390TMC3    C8 5889   1.093   1.605  11.854 -0.0524 -0.2495 -0.4714
  390TMC3    O1 5890   1.316   2.003  12.230  0.0976  0.2920  1.1164
  390TMC3    O2 5891   1.122   1.530  11.764  0.1554  0.1760 -0.0820
  391MPD2     C 5892   1.354   3.873  11.593  0.0507  0.7946 -0.0609
  391MPD2    C1 5893   1.446   3.953  11.536  0.4541  0.4360  0.5547
  391MPD2    C2 5894   1.467   3.948  11.396 -0.3235  0.4804 -0.4204
  391MPD2    C3 5895   1.376   3.875  11.322  0.1315 -0.4737 -0.5024
  391MPD2    C4 5896   1.285   3.792  11.374  0.4439  0.6789  0.3880
  391MPD2    C5 5897   1.284   3.786  11.511  0.2935  0.3522 -0.2055
  391MPD2     H 5898   1.546   3.998  11.342  0.9640 -0.8353  0.2629
  391MPD2    H1 5899   1.235   3.713  11.320  2.4625 -1.0883  1.0899
  391MPD2    H2 5900   1.336   3.854  11.698 -0.0536  0.3017 -0.1704
  391MPD2    H3 5901   1.211   3.715  11.547  1.0753 -1.0433 -1.3803
  391MPD2     N 5902   1.377   3.897  11.183 -0.3362  0.0982 -0.5116
  391MPD2    H5 5903   1.452   3.955  11.147 -0.9617  0.8874 -0.5672
  391MPD2    N1 5904   1.528   4.034  11.619  0.2837  0.0041  0.6387
  391MPD2    H7 5905   1.506   4.024  11.718  1.1145 -1.8596  0.6242
  392TMC3    C1 5906   1.319   3.886  10.948 -0.3413 -0.0868  0.5910
  392TMC3    C2 5907   1.258   3.807  10.851  0.0156 -0.1759  0.5811
  392TMC3    C3 5908   1.271   3.852  10.722 -0.2293  0.3183  0.0981
  392TMC3    C4 5909   1.392   3.995  10.926 -0.0140  0.1252 -0.1051
  392TMC3    C5 5910   1.406   4.030  10.795  0.5874 -0.3059 -0.6930
  392TMC3    C6 5911   1.348   3.966  10.692  0.1527  0.0923 -0.4049
  392TMC3     C 5912   1.292   3.842  11.088  0.3548  0.3220 -0.5905
  392TMC3     O 5913   1.198   3.760  11.101 -0.5639 -0.2686  0.1428
  392TMC3     H 5914   1.204   3.716  10.875 -0.4413 -0.0952 -0.1362
  392TMC3    H1 5915   1.410   4.060  11.011  0.1886 -0.4939  0.3322
  392TMC3    H2 5916   1.382   3.988  10.592 -0.0705 -0.6131 -0.6302
  392TMC3    C7 5917   1.461   4.164  10.773 -0.1536 -0.7184  0.0951
  392TMC3    C8 5918   1.209   3.772  10.620  0.2242  0.1911  0.2612
  392TMC3    O1 5919   1.546   4.198  10.856  0.8067  0.2932 -0.2773
  392TMC3    O2 5920   1.135   3.679  10.656  0.0565  0.3207  0.4722
  393TMC3    C1 5921   0.063   1.501  10.747  0.2394 -0.4725  0.6523
  393TMC3    C2 5922   4.675   1.451  10.776  0.3019 -0.0135 -0.6465
  393TMC3    C3 5923   4.649   1.317  10.740  0.2469 -0.3158 -0.0548
  393TMC3    C4 5924   0.165   1.423  10.697  0.2282  0.0810  0.1887
  393TMC3    C5 5925   0.138   1.284  10.677  0.0012 -0.6043  1.2236
  393TMC3    C6 5926   0.011   1.237  10.696 -0.0426 -0.5782  0.2707
  393TMC3     C 5927   0.076   1.646  10.724  0.3473  0.0249  0.0741
  393TMC3     O 5928   4.718   1.704  10.694 -0.4756 -0.3102 -0.4647
  393TMC3     H 5929   4.593   1.518  10.800  1.1451  1.0578 -0.7661
  393TMC3    H1 5930   0.260   1.467  10.671 -0.4265  0.4908 -1.5485
  393TMC3    H2 5931   4.715   1.137  10.672 -3.8275  0.8747 -0.3229
  393TMC3    C7 5932   0.222   1.201  10.596  0.4716 -0.2366  0.6069
  393TMC3    C8 5933   4.519   1.300  10.683 -0.1297  0.0691  0.0967
  393TMC3    O1 5934   0.167   1.102  10.546 -0.5165  0.8968  0.0043
  393TMC3    O2 5935   4.438   1.252  10.760 -0.0647 -0.5719  0.7810
  394TMC3    C1 5936   1.747   2.191  11.209  0.0685 -0.1748  0.3209
  394TMC3    C2 5937   1.665   2.160  11.104 -0.3279 -0.0206  0.0873
  394TMC3    C3 5938   1.678   2.236  10.991 -0.4761  0.2954 -0.7884
  394TMC3    C4 5939   1.850   2.277  11.202  0.3298  0.1967 -0.4556
  394TMC3    C5 5940   1.859   2.347  11.083  0.0378 -0.6248  0.2584
  394TMC3    C6 5941   1.770   2.331  10.985 -0.4854 -0.0343  0.3985
  394TMC3     C 5942   1.724   2.129  11.344 -0.2957  0.0605 -0.0116
  394TMC3     O 5943   1.640   2.039  11.348  0.3241  0.7558  0.5152
  394TMC3     H 5944   1.589   2.085  11.124  0.6550 -0.8630  0.6420
  394TMC3    H1 5945   1.932   2.284  11.272 -0.3010  3.8422 -0.0822
  394TMC3    H2 5946   1.780   2.394  10.898  1.1785  0.1349  0.7049
  394TMC3    C7 5947   1.986   2.407  11.056 -0.7636  0.1832 -0.2137
  394TMC3    C8 5948   1.627   2.189  10.864  0.6452  0.8303  0.5087
  394TMC3    O1 5949   2.080   2.357  11.115  0.3360 -0.0049 -0.8069
  394TMC3    O2 5950   1.608   2.269  10.769 -0.0653 -0.1108 -0.4742
  395TMC3    C1 5951   1.721   4.463  14.341 -0.0057  0.4375 -0.1715
  395TMC3    C2 5952   1.592   4.482  14.376 -0.9235  0.2551 -0.7147
  395TMC3    C3 5953   1.562   4.567  14.474 -0.2341  0.2700  0.2614
  395TMC3    C4 5954   1.820   4.542  14.389 -0.4124  0.6587 -0.0746
  395TMC3    C5 5955   1.789   4.635  14.486  0.5097 -0.7662  0.1417
  395TMC3    C6 5956   1.655   4.654  14.521  0.1385 -0.8252  0.7383
  395TMC3     C 5957   1.742   4.337  14.397  0.4991  0.4452 -0.1124
  395TMC3     O 5958   1.806   4.332  14.500 -0.2874 -0.1544 -0.1033
  395TMC3     H 5959   1.514   4.432  14.320  0.5701 -0.0959 -2.4658
  395TMC3    H1 5960   1.917   4.505  14.357 -0.6159 -0.1038  0.1915
  395TMC3    H2 5961   1.640   4.717  14.607  0.0846 -0.9644  0.8302
  395TMC3    C7 5962   1.895   4.703  14.561 -0.0986 -0.2423 -0.1168
  395TMC3    C8 5963   1.445   4.539  14.560 -0.7069 -0.0697 -0.7925
  395TMC3    O1 5964   1.872   0.075  14.591  0.3114  0.2489  0.0599
  395TMC3    O2 5965   1.407   4.628  14.637 -0.3061  0.1233  0.2815
  396MPD2     C 5966   0.784   0.692  17.302 -1.0153  0.4345  0.1844
  396MPD2    C1 5967   0.911   0.647  17.283 -0.1881 -0.7911  0.3288
  396MPD2    C2 5968   0.987   0.712  17.182  0.2727 -0.1482 -0.3819
  396MPD2    C3 5969   0.941   0.822  17.106 -0.1096  0.0860  0.1446
  396MPD2    C4 5970   0.823   0.873  17.141 -0.0253  0.1154 -0.0295
  396MPD2    C5 5971   0.747   0.810  17.233 -0.6101 -0.1158 -0.2222
  396MPD2     H 5972   1.085   0.681  17.147  0.4915  1.3178 -1.0780
  396MPD2    H1 5973   0.779   0.962  17.098 -0.9354  0.5132  1.7209
  396MPD2    H2 5974   0.717   0.656  17.379 -0.2768  1.2332  1.1855
  396MPD2    H3 5975   0.647   0.846  17.255 -0.4241 -1.0177  2.1092
  396MPD2     N 5976   1.025   0.871  16.999 -0.4776 -0.6608 -0.1630
  396MPD2    H5 5977   1.111   0.820  16.989 -1.4144 -2.8873  3.0985
  396MPD2    N1 5978   0.954   0.529  17.351  0.0364 -0.0496  0.2646
  396MPD2    H7 5979   0.877   0.492  17.405 -0.6808 -2.1355 -2.1896
  397TMC3    C1 5980   1.089   0.347  17.393 -0.0655  1.2955 -0.3979
  397TMC3    C2 5981   1.150   0.278  17.285  0.1763 -0.1469  0.6641
  397TMC3    C3 5982   1.076   0.188  17.213  0.1411 -0.2032 -0.1905
  397TMC3    C4 5983   0.968   0.292  17.442  0.8329 -0.6059 -0.3741
  397TMC3    C5 5984   0.913   0.187  17.373  0.3953 -0.4737 -0.0878
  397TMC3    C6 5985   0.963   0.138  17.259 -0.0602 -0.2985 -0.2862
  397TMC3     C 5986   1.082   0.483  17.355  0.0779  0.6295 -0.3813
  397TMC3     O 5987   1.177   0.537  17.301 -0.3147  0.3134  0.6799
  397TMC3     H 5988   1.212   0.338  17.220 -0.9649 -0.3208 -0.6110
  397TMC3    H1 5989   0.912   0.346  17.518  1.6624 -0.3067  0.0183
  397TMC3    H2 5990   0.900   0.075  17.197 -0.8505  0.6093 -0.4161
  397TMC3    C7 5991   0.808   0.106  17.440  0.2319  0.1887  0.0125
  397TMC3    C8 5992   1.096   0.172  17.069  0.0892  0.6169 -0.4389
  397TMC3    O1 5993   0.762   0.008  17.381  0.0010  0.0150  0.4263
  397TMC3    O2 5994   1.001   0.121  17.009  0.0824 -0.4147  0.5896
  398MPD2     C 5995   4.004   2.504   0.573 -0.5614  0.3831 -0.0841
  398MPD2    C1 5996   4.110   2.420   0.601 -0.1914  0.5173  0.0883
  398MPD2    C2 5997   4.233   2.473   0.623  0.0487  0.0268 -0.3742
  398MPD2    C3 5998   4.251   2.610   0.646 -0.9923 -0.5684  0.8782
  398MPD2    C4 5999   4.139   2.693   0.631  0.6520  0.3519  0.7638
  398MPD2    C5 6000   4.019   2.637   0.599  0.0790  0.0307  0.0976
  398MPD2     H 6001   4.320   2.409   0.638 -1.5506 -2.4081 -1.3861
  398MPD2    H1 6002   4.140   2.799   0.651 -0.3833  0.3091  1.0661
  398MPD2    H2 6003   3.905   2.462   0.555 -0.4404  0.2916 -0.5241
  398MPD2    H3 6004   3.944   2.712   0.578 -1.7804 -2.3664 -1.7352
  398MPD2     N 6005   4.379   2.662   0.677  0.3849  0.4189  0.4658
  398MPD2    H5 6006   4.448   2.587   0.674  0.0565  0.2011 -2.4654
  398MPD2    N1 6007   4.094   2.283   0.607 -0.0096  0.5196  0.0389
  398MPD2    H7 6008   4.173   2.232   0.645  0.5013  3.1983  2.5706
  399TMC3    C1 6009   3.979   2.079   0.626 -0.2121  0.4840  0.0861
  399TMC3    C2 6010   4.097   2.054   0.701 -0.2842  1.0957 -0.0320
  399TMC3    C3 6011   4.139   1.927   0.696 -0.0912  0.5840 -0.7388
  399TMC3    C4 6012   3.918   1.982   0.550  0.0171 -0.2751  0.1479
  399TMC3    C5 6013   3.963   1.858   0.566  0.3615  0.3971 -0.2132
  399TMC3    C6 6014   4.074   1.826   0.636 -0.9537  0.1193  0.3498
  399TMC3     C 6015   3.979   2.214   0.575  0.2021  0.8453 -0.2648
  399TMC3     O 6016   3.892   2.244   0.495 -0.3995 -0.2248 -0.2674
  399TMC3     H 6017   4.148   2.123   0.767  4.1738 -1.5150 -0.7305
  399TMC3    H1 6018   3.830   2.003   0.491 -1.2542  1.7964  2.7681
  399TMC3    H2 6019   4.114   1.726   0.637 -1.1293  0.0441 -0.6685
  399TMC3    C7 6020   3.903   1.747   0.488  0.0635  0.6698  0.5878
  399TMC3    C8 6021   4.244   1.901   0.783  0.5388  0.3618  0.6392
  399TMC3    O1 6022   3.965   1.643   0.478  0.3105  0.2089  0.7127
  399TMC3    O2 6023   4.342   1.974   0.774 -0.1965 -0.1354 -0.0383
  400TMC3    C1 6024   2.919   4.662  17.008  0.3381  0.1597 -0.1999
  400TMC3    C2 6025   2.794   4.650  16.954  0.3028 -0.5882  0.2718
  400TMC3    C3 6026   2.727   0.028  16.926 -0.0412  0.0782  0.6852
  400TMC3    C4 6027   2.985   0.046  17.023  0.6079  0.2619  0.0883
  400TMC3    C5 6028   2.909   0.161  17.004  0.5003 -0.1128 -0.1536
  400TMC3    C6 6029   2.781   0.145  16.962 -0.0391  0.9732 -0.4164
  400TMC3     C 6030   2.961   4.562  17.102  0.5395  0.2152  0.1598
  400TMC3     O 6031   3.012   4.593  17.206 -0.0455  1.1117 -0.0234
  400TMC3     H 6032   2.734   4.563  16.977  0.2064 -0.8609 -1.0115
  400TMC3    H1 6033   3.084   0.045  17.066 -0.8108  0.0870  3.2975
  400TMC3    H2 6034   2.731   0.238  16.934  0.4457  0.6972 -2.1740
  400TMC3    C7 6035   2.974   0.286  17.038 -0.3416 -0.2989 -0.2453
  400TMC3    C8 6036   2.598   0.031  16.862 -0.2389 -0.2746  0.0134
  400TMC3    O1 6037   3.101   0.288  17.033  0.2760  0.4390 -0.2555
  400TMC3    O2 6038   2.549   0.142  16.840 -0.0951 -0.1557 -0.6768
  401MPD2     C 6039   0.692   3.747   1.120  0.7821  0.0800  0.0150
  401MPD2    C1 6040   0.788   3.659   1.161  0.6446 -0.3722  0.7119
  401MPD2    C2 6041   0.767   3.523   1.163 -0.2943 -0.3244  0.2485
  401MPD2    C3 6042   0.637   3.465   1.143 -0.4789 -0.0513 -0.4432
  401MPD2    C4 6043   0.538   3.556   1.104 -0.3953 -0.7592 -0.2660
  401MPD2    C5 6044   0.570   3.688   1.084  0.0441  0.5110 -0.1763
  401MPD2     H 6045   0.841   3.452   1.196 -0.0956 -1.0562 -1.7892
  401MPD2    H1 6046   0.442   3.521   1.070 -0.3255 -2.4448  1.2585
  401MPD2    H2 6047   0.695   3.855   1.114  0.2669  0.0840 -0.1425
  401MPD2    H3 6048   0.489   3.750   1.047  0.1194  0.9430  0.3822
  401MPD2     N 6049   0.608   3.330   1.173 -0.0011 -0.5993 -0.1327
  401MPD2    H5 6050   0.685   3.276   1.212  0.4192  0.0460 -0.0706
  401MPD2    N1 6051   0.928   3.698   1.190  0.3613 -0.4789 -0.1836
  401MPD2    H7 6052   0.994   3.621   1.201  0.5116  0.1314  3.1481
  402TMC3    C1 6053   0.522   3.119   1.158  0.7886 -0.7685 -0.8944
  402TMC3    C2 6054   0.604   3.072   1.262  0.4313 -0.5599 -0.3619
  402TMC3    C3 6055   0.653   2.944   1.249  0.1969  0.1175 -0.1212
  402TMC3    C4 6056   0.520   3.048   1.043  0.4805  0.5943 -0.1437
  402TMC3    C5 6057   0.584   2.925   1.026  0.0255  0.1673  0.6055
  402TMC3    C6 6058   0.652   2.873   1.131  0.4359 -0.8058  0.3818
  402TMC3     C 6059   0.497   3.259   1.145  0.5224 -0.4969 -0.3940
  402TMC3     O 6060   0.395   3.292   1.095 -0.3849  0.3644  0.9074
  402TMC3     H 6061   0.625   3.125   1.355 -1.9906 -1.5814  0.7735
  402TMC3    H1 6062   0.464   3.092   0.961  1.2718  0.7862 -0.5849
  402TMC3    H2 6063   0.696   2.775   1.121  0.4640 -0.6409 -1.0160
  402TMC3    C7 6064   0.529   2.838   0.921 -0.0689  0.2055  0.4644
  402TMC3    C8 6065   0.753   2.885   1.346  0.4036 -0.4491  0.5707
  402TMC3    O1 6066   0.417   2.869   0.886  0.7660  0.2764  0.1934
  402TMC3    O2 6067   0.822   2.794   1.299  0.5983  0.1228 -0.8950
  403MPD2     C 6068   3.920   1.674  13.159  0.1458 -0.3053  0.3502
  403MPD2    C1 6069   3.993   1.615  13.266 -0.5679 -0.1060  0.4523
  403MPD2    C2 6070   4.088   1.694  13.338  0.1734  0.6173 -0.5210
  403MPD2    C3 6071   4.104   1.827  13.304 -0.1124 -0.0838  0.0143
  403MPD2    C4 6072   4.025   1.880  13.201 -0.2829 -0.9403  0.4094
  403MPD2    C5 6073   3.937   1.804  13.132  0.2003  0.0768  0.3096
  403MPD2     H 6074   4.161   1.654  13.407 -1.5319  0.2675  1.0850
  403MPD2    H1 6075   4.037   1.981  13.165 -1.2858 -0.8666  0.2883
  403MPD2    H2 6076   3.842   1.626  13.102 -0.8217  0.6263  0.9080
  403MPD2    H3 6077   3.868   1.845  13.059 -0.2508 -2.0572 -0.4750
  403MPD2     N 6078   4.205   1.903  13.360 -0.3728  0.8064 -0.0901
  403MPD2    H5 6079   4.257   1.869  13.440  2.2867  0.8724 -1.7948
  403MPD2    N1 6080   3.954   1.490  13.318 -0.4441 -0.6400 -0.6115
  403MPD2    H7 6081   3.882   1.442  13.265 -0.5877 -0.4293 -0.6057
  404TMC3    C1 6082   3.933   1.306  13.467  0.6920  0.7363 -0.6731
  404TMC3    C2 6083   3.907   1.278  13.600 -0.4913  0.4673 -0.4227
  404TMC3    C3 6084   3.885   1.151  13.640  0.0655  0.0976 -0.4473
  404TMC3    C4 6085   3.927   1.208  13.376 -0.1573  0.1213  0.3006
  404TMC3    C5 6086   3.898   1.083  13.419 -0.6376 -0.5415 -0.2337
  404TMC3    C6 6087   3.878   1.049  13.545  0.8004  0.1215 -0.4997
  404TMC3     C 6088   4.001   1.430  13.430 -0.2220  0.6314 -0.3805
  404TMC3     O 6089   4.081   1.464  13.513 -0.0034 -0.2414 -0.4568
  404TMC3     H 6090   3.900   1.350  13.680 -3.3332 -1.3688  0.9927
  404TMC3    H1 6091   3.956   1.239  13.276  2.1466 -1.9486  0.3300
  404TMC3    H2 6092   3.868   0.945  13.574  0.2305  1.0996  2.8266
  404TMC3    C7 6093   3.878   0.978  13.319 -0.0147 -0.3845 -0.0489
  404TMC3    C8 6094   3.929   1.104  13.771  0.0887 -0.5214  0.0165
  404TMC3    O1 6095   3.858   0.861  13.347 -0.6004  0.4306  0.5466
  404TMC3    O2 6096   3.990   0.997  13.771 -0.5553  0.3607  0.3093
  405MPD2     C 6097   4.337   2.047  15.349 -0.1566  0.2007 -0.4885
  405MPD2    C1 6098   4.218   2.005  15.301 -0.3602 -0.2275  0.0351
  405MPD2    C2 6099   4.162   2.066  15.188  0.1196  0.0918  0.2119
  405MPD2    C3 6100   4.231   2.169  15.130 -0.2689 -0.2024  0.3802
  405MPD2    C4 6101   4.352   2.209  15.174 -0.7705  0.4492  0.2151
  405MPD2    C5 6102   4.407   2.139  15.281 -0.1767  0.4270 -0.2539
  405MPD2     H 6103   4.072   2.020  15.149  0.9085 -1.6774  0.4668
  405MPD2    H1 6104   4.414   2.284  15.124 -0.6572  1.0182  1.2027
  405MPD2    H2 6105   4.377   2.020  15.446  0.1750  0.9337 -0.4234
  405MPD2    H3 6106   4.502   2.176  15.317  0.1498 -1.0316  0.4164
  405MPD2     N 6107   4.165   2.237  15.028  0.6752 -0.4416  0.0251
  405MPD2    H5 6108   4.076   2.198  15.001 -2.0522  4.1500  2.4959
  405MPD2    N1 6109   4.151   1.912  15.384  0.2131  0.0262 -0.0742
  405MPD2    H7 6110   4.204   1.871  15.460 -0.6915 -0.0027  0.5413
  406TMC3    C1 6111   3.958   2.449  14.703 -0.0228  0.2115  0.6680
  406TMC3    C2 6112   3.842   2.438  14.773  0.2286 -0.7779  0.2933
  406TMC3    C3 6113   3.843   2.388  14.898 -0.2544  0.1463 -0.0907
  406TMC3    C4 6114   4.076   2.422  14.762 -0.2653  0.2108  0.1859
  406TMC3    C5 6115   4.079   2.398  14.894  0.2108  0.3625 -0.0960
  406TMC3    C6 6116   3.964   2.368  14.966 -0.0163 -0.7492  0.0418
  406TMC3     C 6117   3.971   2.537  14.588 -0.1101  0.4997 -0.1392
  406TMC3     O 6118   4.063   2.529  14.508  0.9377 -0.3751 -0.4905
  406TMC3     H 6119   3.749   2.443  14.718  0.3262 -0.7120  0.1309
  406TMC3    H1 6120   4.167   2.445  14.708 -2.0140  1.0890 -2.3727
  406TMC3    H2 6121   3.959   2.359  15.074 -0.0782 -3.5954 -0.1821
  406TMC3    C7 6122   4.197   2.348  14.956 -0.0352  0.4569 -0.0674
  406TMC3    C8 6123   3.715   2.353  14.964 -0.2091 -0.1913 -0.1109
  406TMC3    O1 6124   4.303   2.411  14.946  0.1892 -0.7293  0.1115
  406TMC3    O2 6125   3.615   2.423  14.950 -0.2388  0.2809  0.3508
  407MPD2     C 6126   1.931   3.607   9.997 -0.1747  0.5954 -0.3267
  407MPD2    C1 6127   2.011   3.635  10.106 -0.0923 -0.3027  0.1529
  407MPD2    C2 6128   1.982   3.739  10.192  0.6639 -0.2187 -0.2689
  407MPD2    C3 6129   1.866   3.812  10.170 -0.1306 -0.8415  0.2093
  407MPD2    C4 6130   1.790   3.788  10.060 -0.3504 -0.5233  0.1937
  407MPD2    C5 6131   1.822   3.690   9.966  0.4041 -0.0354 -0.2777
  407MPD2     H 6132   2.061   3.768  10.260  0.8552  0.1526 -0.6534
  407MPD2    H1 6133   1.706   3.851  10.033 -1.9578 -1.7336  2.4627
  407MPD2    H2 6134   1.953   3.535   9.919  0.4724 -0.8753  1.2107
  407MPD2    H3 6135   1.769   3.669   9.874 -1.0578  0.1209  0.5254
  407MPD2     N 6136   1.831   3.925  10.246  0.8751 -0.1211 -0.4302
  407MPD2    H5 6137   1.749   3.979  10.222  0.8764  0.1681  0.2097
  407MPD2    N1 6138   2.129   3.559  10.141 -0.1887  0.1656  0.5088
  407MPD2    H7 6139   2.182   3.598  10.218  0.8860  0.4797 -0.4059
  408TMC3    C1 6140   2.304   3.430  10.091  0.0507 -0.1491 -0.2539
  408TMC3    C2 6141   2.388   3.539  10.085 -0.6166  0.0400  0.4383
  408TMC3    C3 6142   2.524   3.519  10.070  0.5952 -0.1023  0.5638
  408TMC3    C4 6143   2.346   3.299  10.059  0.1935  0.6233 -0.0433
  408TMC3    C5 6144   2.484   3.284  10.043 -0.1825  0.7433 -0.0649
  408TMC3    C6 6145   2.570   3.392  10.063 -0.6934 -0.0899 -0.5386
  408TMC3     C 6146   2.165   3.446  10.080 -0.6012  1.2860  0.3395
  408TMC3     O 6147   2.102   3.361  10.016 -1.0862  0.2221  0.0209
  408TMC3     H 6148   2.352   3.638  10.112  0.4827  0.7830 -0.7878
  408TMC3    H1 6149   2.278   3.215  10.047 -1.4568  1.7322  1.6331
  408TMC3    H2 6150   2.675   3.369  10.076  0.3192  3.6857 -2.0226
  408TMC3    C7 6151   2.540   3.149  10.038  0.9410 -0.6146  0.1984
  408TMC3    C8 6152   2.613   3.616  10.117 -0.0983 -0.3655 -0.9362
  408TMC3    O1 6153   2.648   3.149   9.987  0.8041  0.2443 -0.1468
  408TMC3    O2 6154   2.714   3.570  10.160 -0.4928  0.0953  0.4961
  409MPD2     C 6155   1.354   4.130  17.015  0.8669  0.2928 -0.8784
  409MPD2    C1 6156   1.449   4.158  17.115  0.5871  0.3237  0.3468
  409MPD2    C2 6157   1.546   4.253  17.084  0.4590 -0.1089 -0.7708
  409MPD2    C3 6158   1.548   4.321  16.973  0.8015  0.2201 -0.2119
  409MPD2    C4 6159   1.445   4.304  16.884  0.4202 -0.1025 -0.4940
  409MPD2    C5 6160   1.351   4.212  16.908  0.2745 -0.2487  0.7018
  409MPD2     H 6161   1.616   4.276  17.164  0.9088 -2.9129 -0.3654
  409MPD2    H1 6162   1.443   4.350  16.785 -1.4961 -0.0900 -0.4502
  409MPD2    H2 6163   1.274   4.057  17.028 -0.9970  2.7647  1.3423
  409MPD2    H3 6164   1.284   4.191  16.825 -0.7707 -2.1953  2.0391
  409MPD2     N 6165   1.655   4.410  16.942 -0.0073  0.1871 -0.1578
  409MPD2    H5 6166   1.650   4.457  16.851 -1.2280  1.6262  0.6448
  409MPD2    N1 6167   1.439   4.090  17.234 -0.6063 -0.2276  0.5694
  409MPD2    H7 6168   1.513   4.099  17.303  1.1766  2.0859 -1.6750
  410TMC3    C1 6169   1.848   4.535  16.955 -0.0571 -0.4055 -0.0078
  410TMC3    C2 6170   1.967   4.558  17.022  0.0443  0.4929 -0.7539
  410TMC3    C3 6171   2.038   4.671  16.987  0.1551 -0.0828  0.3813
  410TMC3    C4 6172   1.802   4.616  16.845  0.5438 -0.7102 -0.5021
  410TMC3    C5 6173   1.882   4.724  16.822 -0.5689  1.2292  0.0668
  410TMC3    C6 6174   1.998   0.016  16.888 -0.9428  0.0440  0.1631
  410TMC3     C 6175   1.758   4.444  17.023 -0.0771  0.4536 -0.3185
  410TMC3     O 6176   1.800   4.388  17.122 -0.4693 -0.3785  0.1734
  410TMC3     H 6177   1.986   4.506  17.115  1.4020 -0.0260 -1.3295
  410TMC3    H1 6178   1.703   4.606  16.801 -0.1143  0.5266  0.6955
  410TMC3    H2 6179   2.072   0.082  16.844  0.0277 -1.4026 -0.3618
  410TMC3    C7 6180   1.866   0.039  16.698 -0.5168  0.7198  0.0490
  410TMC3    C8 6181   2.184   4.677  17.012  0.5309  0.4078 -0.1550
  410TMC3    O1 6182   1.825   4.699  16.616 -0.2785  0.0193 -0.1217
  410TMC3    O2 6183   2.230   0.045  17.055  0.1036 -0.1071 -0.2498
  411MPD2     C 6184   2.608   0.463  14.648  0.6430 -0.1935 -1.1772
  411MPD2    C1 6185   2.499   0.508  14.573  0.2622  0.7774  0.8104
  411MPD2    C2 6186   2.429   0.418  14.495 -0.2969 -0.1597  0.4251
  411MPD2    C3 6187   2.463   0.286  14.487 -0.6584  0.2703  0.7686
  411MPD2    C4 6188   2.571   0.236  14.561  0.8900 -0.0139  0.2836
  411MPD2    C5 6189   2.639   0.328  14.639 -0.7322 -0.4182  0.5796
  411MPD2     H 6190   2.352   0.459  14.430  0.7646 -0.4674 -1.0146
  411MPD2    H1 6191   2.572   0.130  14.584 -2.1753 -0.1166  0.0263
  411MPD2    H2 6192   2.664   0.524  14.719 -0.0622 -0.0166 -0.7696
  411MPD2    H3 6193   2.725   0.300  14.699  0.8275 -1.5507 -2.1681
  411MPD2     N 6194   2.379   0.196  14.414  0.5555 -0.2111  0.3721
  411MPD2    H5 6195   2.412   0.101  14.408  0.1040 -0.3851  0.6713
  411MPD2    N1 6196   2.455   0.650  14.580  0.6655  0.0263  0.3097
  411MPD2    H7 6197   2.518   0.709  14.634  1.9091 -0.1182 -0.9745
  412TMC3    C1 6198   2.198   0.128  14.289 -0.1685 -0.8233 -0.3036
  412TMC3    C2 6199   2.057   0.127  14.300  0.8322  0.3252  0.3660
  412TMC3    C3 6200   1.978   0.066  14.214  1.0236  0.3899  0.7450
  412TMC3    C4 6201   2.261   0.095  14.168 -0.7393  0.3332 -0.8157
  412TMC3    C5 6202   2.171   0.037  14.077 -1.1858 -0.7328  0.0206
  412TMC3    C6 6203   2.037   0.020  14.098  0.3105  0.4683  0.7470
  412TMC3     C 6204   2.255   0.231  14.370 -0.0699  0.7121 -0.3909
  412TMC3     O 6205   2.173   0.320  14.392 -0.1321  0.3078 -0.6899
  412TMC3     H 6206   2.002   0.177  14.379 -0.0959 -0.3499  0.1479
  412TMC3    H1 6207   2.359   0.127  14.136  0.1336  0.6709  2.2242
  412TMC3    H2 6208   1.982   4.700  14.025  1.0612 -0.0125  0.5594
  412TMC3    C7 6209   2.192   0.073  13.942 -0.1245  0.9260 -0.7954
  412TMC3    C8 6210   1.846   0.117  14.186 -0.2489  0.0769  0.4608
  412TMC3    O1 6211   2.304   0.064  13.898 -0.2535 -0.3916 -0.3984
  412TMC3    O2 6212   1.810   0.099  14.070  0.0543 -0.6529  0.3954
  413MPD2     C 6213   3.605   3.691  15.987 -0.2618  0.1030 -0.0313
  413MPD2    C1 6214   3.558   3.673  15.857  0.0745 -0.4701 -0.4327
  413MPD2    C2 6215   3.641   3.615  15.758  0.1358 -0.0275 -0.1650
  413MPD2    C3 6216   3.778   3.617  15.775  0.7267  0.6469 -0.3579
  413MPD2    C4 6217   3.826   3.644  15.900  0.0419 -0.7409 -0.2152
  413MPD2    C5 6218   3.738   3.676  16.006 -0.1919  0.3831  0.5175
  413MPD2     H 6219   3.600   3.582  15.663  1.0807 -0.4266 -0.4378
  413MPD2    H1 6220   3.933   3.651  15.919 -0.2005  0.4467  0.7596
  413MPD2    H2 6221   3.540   3.727  16.066 -0.5221 -0.6665  0.1065
  413MPD2    H3 6222   3.785   3.707  16.098  0.3265  0.0370  0.3713
  413MPD2     N 6223   3.855   3.549  15.674  0.4261 -0.0815  0.2415
  413MPD2    H5 6224   3.797   3.496  15.609  1.1461 -0.4043 -0.1290
  413MPD2    N1 6225   3.418   3.680  15.836  0.0351  0.1086  0.0198
  413MPD2    H7 6226   3.355   3.696  15.914 -1.5122 -2.7661 -0.6264
  414TMC3    C1 6227   4.027   3.441  15.559 -0.3449 -0.0645  0.2416
  414TMC3    C2 6228   4.123   3.344  15.589 -0.2941 -0.5070 -0.0473
  414TMC3    C3 6229   4.127   3.238  15.503 -0.4099  0.2474 -0.2265
  414TMC3    C4 6230   3.941   3.430  15.450  0.6898  0.8429  0.0184
  414TMC3    C5 6231   3.958   3.325  15.370 -0.1158  0.0740 -0.3116
  414TMC3    C6 6232   4.042   3.228  15.399 -0.3862  0.6119 -0.0389
  414TMC3     C 6233   3.993   3.533  15.672  0.1865  0.0234  0.2049
  414TMC3     O 6234   4.074   3.556  15.762 -0.0201  0.0325  0.6010
  414TMC3     H 6235   4.188   3.345  15.676  3.6224  1.3901 -3.0313
  414TMC3    H1 6236   3.862   3.498  15.419  0.7022  1.2688  0.8974
  414TMC3    H2 6237   4.045   3.142  15.334  0.0036 -0.4791  1.4063
  414TMC3    C7 6238   3.860   3.296  15.270 -0.7625 -0.2962 -0.1344
  414TMC3    C8 6239   4.250   3.159  15.490 -0.3147  1.0918  0.2436
  414TMC3    O1 6240   3.743   3.286  15.306  0.2716  0.2200  0.1396
  414TMC3    O2 6241   4.247   3.055  15.421 -0.3416  0.3740  0.1097
  415TMC3    C1 6242   4.047   1.206  10.330  0.9541 -0.0697  0.4540
  415TMC3    C2 6243   4.166   1.181  10.274 -0.2941  0.2898  0.5471
  415TMC3    C3 6244   4.204   1.260  10.172  0.8721 -0.7591 -1.3115
  415TMC3    C4 6245   3.981   1.327  10.314 -0.1086  0.1266  0.1468
  415TMC3    C5 6246   4.022   1.409  10.207  0.7868  0.3203 -0.3620
  415TMC3    C6 6247   4.139   1.376  10.138 -0.0579  0.6716 -0.5649
  415TMC3     C 6248   4.009   1.145  10.457  0.4806  0.0391 -0.2636
  415TMC3     O 6249   3.898   1.155  10.505 -0.3134  0.8466 -0.3143
  415TMC3     H 6250   4.209   1.083  10.291  1.8404  1.4006  1.4800
  415TMC3    H1 6251   3.894   1.351  10.375 -0.5052 -1.6838  0.2908
  415TMC3    H2 6252   4.158   1.427  10.044  0.7743  2.9207  0.8129
  415TMC3    C7 6253   3.917   1.476  10.130 -0.7752  0.4232 -0.4256
  415TMC3    C8 6254   4.323   1.229  10.106  0.0060 -0.4342 -0.6986
  415TMC3    O1 6255   3.946   1.571  10.058 -0.2512 -0.2291  0.0068
  415TMC3    O2 6256   4.343   1.117  10.070  0.2375 -0.0058  0.0947
  416MPD2     C 6257   1.243   0.470  11.339  0.5531 -0.6962  0.0154
  416MPD2    C1 6258   1.168   0.367  11.398  0.3082 -0.4178  0.5455
  416MPD2    C2 6259   1.186   0.238  11.348  0.2345  0.4234 -0.6344
  416MPD2    C3 6260   1.270   0.206  11.242 -0.0115  0.1937  0.6078
  416MPD2    C4 6261   1.341   0.311  11.182  0.5209 -0.2573 -0.3271
  416MPD2    C5 6262   1.326   0.436  11.234  0.5692 -0.3385 -0.6228
  416MPD2     H 6263   1.129   0.157  11.391  0.8076 -1.0982 -2.7859
  416MPD2    H1 6264   1.422   0.294  11.112 -0.6357 -3.0930 -0.9825
  416MPD2    H2 6265   1.241   0.572  11.376 -1.4332  0.6586 -3.7514
  416MPD2    H3 6266   1.380   0.516  11.184  1.9872  0.2467  1.8458
  416MPD2     N 6267   1.285   0.072  11.207 -0.1273  0.7180 -0.1835
  416MPD2    H5 6268   1.236   0.002  11.261  1.1330 -2.3453 -2.9863
  416MPD2    N1 6269   1.073   0.394  11.499 -0.7014  0.5498  0.1594
  416MPD2    H7 6270   1.061   0.489  11.532 -0.2243  0.1597  1.4477
  417TMC3    C1 6271   0.888   0.374  11.635 -0.3256  0.4295 -0.4924
  417TMC3    C2 6272   0.927   0.494  11.689 -1.0511  0.5409  0.6601
  417TMC3    C3 6273   0.833   0.589  11.704 -1.0184  1.3317  0.0446
  417TMC3    C4 6274   0.763   0.345  11.598 -0.5174  0.0008 -0.0209
  417TMC3    C5 6275   0.669   0.440  11.610 -0.2142 -0.6281 -0.6161
  417TMC3    C6 6276   0.707   0.563  11.660 -0.4593 -0.6256 -0.0771
  417TMC3     C 6277   0.987   0.307  11.558  0.1343  0.2561 -0.4772
  417TMC3     O 6278   0.967   0.187  11.536  0.1045  0.7897  0.4531
  417TMC3     H 6279   1.026   0.510  11.731  0.1676 -2.0059 -1.2539
  417TMC3    H1 6280   0.737   0.254  11.546  2.1829  0.6728 -2.5366
  417TMC3    H2 6281   0.627   0.632  11.685 -0.7010 -0.6303 -0.8239
  417TMC3    C7 6282   0.583   0.459  11.494 -0.7251  0.5243 -0.0103
  417TMC3    C8 6283   0.852   0.671  11.822 -0.7037  0.4285  0.5413
  417TMC3    O1 6284   0.561   0.579  11.466  0.4503  0.9069  0.1598
  417TMC3    O2 6285   0.753   0.668  11.898 -0.5302 -0.2424 -0.2622
  418TMC3    C1 6286   0.008   2.677   0.713  0.0761  0.1563 -0.0820
  418TMC3    C2 6287   4.637   2.733   0.659 -0.1096 -0.3118  0.0168
  418TMC3    C3 6288   4.552   2.798   0.742  0.6286 -0.2010  0.3988
  418TMC3    C4 6289   0.028   2.672   0.854 -0.1818  0.8582 -0.5180
  418TMC3    C5 6290   4.678   2.740   0.932  0.9164 -0.2903 -0.3851
  418TMC3    C6 6291   4.572   2.810   0.871 -0.4646  0.1814  0.0716
  418TMC3     C 6292   0.093   2.595   0.633  0.1743  0.0856  0.0375
  418TMC3     O 6293   0.156   2.507   0.687 -0.2114 -0.4732  0.0592
  418TMC3     H 6294   4.612   2.709   0.556  0.1817 -0.8197  0.0692
  418TMC3    H1 6295   0.119   2.632   0.899 -1.7462 -1.4713  0.5846
  418TMC3    H2 6296   4.493   2.852   0.933  0.7680  1.2916  0.8828
  418TMC3    C7 6297   4.661   2.697   1.068 -0.0743  0.0437  0.0865
  418TMC3    C8 6298   4.412   2.789   0.715 -0.6679  0.4163 -0.2818
  418TMC3    O1 6299   4.594   2.760   1.149 -0.6869  0.1408 -0.3328
  418TMC3    O2 6300   4.338   2.884   0.739  0.3084 -0.1988  0.3178
  419MPD2     C 6301   3.680   4.625  12.673 -0.4500  0.1636  0.7827
  419MPD2    C1 6302   3.570   4.701  12.635  0.3569 -0.3943  0.3509
  419MPD2    C2 6303   3.488   0.018  12.729 -0.1851 -0.8021  0.1095
  419MPD2    C3 6304   3.504   4.731  12.864  0.3646 -0.4706  0.0763
  419MPD2    C4 6305   3.614   4.652  12.903 -0.3985 -0.4122  0.1626
  419MPD2    C5 6306   3.697   4.606  12.808  0.1725 -0.5483  0.4795
  419MPD2     H 6307   3.402   0.078  12.700  0.2483  0.1573  0.7893
  419MPD2    H1 6308   3.650   4.633  13.004  0.3734  0.3334  0.0330
  419MPD2    H2 6309   3.751   4.580  12.606  0.1086 -1.1309  2.2428
  419MPD2    H3 6310   3.782   4.553  12.850  0.9599  1.2786  1.1795
  419MPD2     N 6311   3.414   0.055  12.951 -0.5504 -0.8294 -0.7410
  419MPD2    H5 6312   3.345   0.112  12.904 -0.5741  1.2385  1.7846
  419MPD2    N1 6313   3.536   4.731  12.498  0.5671 -0.2888  0.0102
  419MPD2    H7 6314   3.459   0.057  12.486  1.8034  1.3750  1.1338
  420TMC3    C1 6315   3.334   0.170  13.140 -0.4361 -0.3795  0.6572
  420TMC3    C2 6316   3.228   0.213  13.065  0.4203  0.2132  0.0644
  420TMC3    C3 6317   3.155   0.322  13.111 -0.2928  0.3178 -0.9355
  420TMC3    C4 6318   3.371   0.229  13.258  0.1759 -0.8583  0.1282
  420TMC3    C5 6319   3.296   0.336  13.301  0.3149 -0.6060  0.5337
  420TMC3    C6 6320   3.182   0.387  13.232 -0.4800 -0.2683  0.0811
  420TMC3     C 6321   3.420   0.067  13.087 -0.7259 -0.3155 -0.7659
  420TMC3     O 6322   3.508   0.030  13.163  0.2450  0.4598  0.4749
  420TMC3     H 6323   3.190   0.156  12.980 -1.3858 -0.5635  1.4082
  420TMC3    H1 6324   3.430   0.179  13.334  2.3937  0.3781 -0.7728
  420TMC3    H2 6325   3.102   0.446  13.276  0.5959  1.0394  0.2678
  420TMC3    C7 6326   3.342   0.410  13.418 -0.1052  0.0139 -0.4874
  420TMC3    C8 6327   3.077   0.403  13.017 -0.8474  0.0175 -0.2775
  420TMC3    O1 6328   3.427   0.365  13.492 -0.0006  0.3602 -0.5555
  420TMC3    O2 6329   3.002   0.483  13.072  0.0033  0.4405 -0.5075
  421TMC3    C1 6330   4.320   2.083  13.432 -0.0587 -0.0692  0.5920
  421TMC3    C2 6331   4.302   2.191  13.511 -0.1480 -0.5921 -0.0903
  421TMC3    C3 6332   4.395   2.201  13.616 -0.4733 -0.1484 -0.1208
  421TMC3    C4 6333   4.436   2.003  13.436  0.2743  0.5200 -0.0982
  421TMC3    C5 6334   4.521   2.019  13.544  0.4562  0.1745 -0.4707
  421TMC3    C6 6335   4.498   2.115  13.639  0.3802 -0.3842 -0.3661
  421TMC3     C 6336   4.214   2.041  13.350  0.2072 -1.1501  0.1835
  421TMC3     O 6337   4.137   2.123  13.300 -0.5983 -0.4205 -0.5225
  421TMC3     H 6338   4.215   2.254  13.499 -0.3712 -0.8690  0.0654
  421TMC3    H1 6339   4.445   1.918  13.370  1.7035  0.2694  0.4391
  421TMC3    H2 6340   4.557   2.126  13.729 -1.2191  0.3636  0.5827
  421TMC3    C7 6341   4.606   1.912  13.589  0.3090  0.5062 -0.3280
  421TMC3    C8 6342   4.379   2.315  13.697  1.7668  0.7357  0.4132
  421TMC3    O1 6343   4.641   1.910  13.706  0.2711 -0.0201 -0.2309
  421TMC3    O2 6344   4.350   2.418  13.638  0.1604  0.2497  0.6938
  422TMC3    C1 6345   2.316   3.365  12.932  0.5258 -0.3235 -0.3391
  422TMC3    C2 6346   2.309   3.502  12.931 -0.2226 -0.2507 -0.1568
  422TMC3    C3 6347   2.198   3.551  12.992 -0.3196 -0.0360 -0.5741
  422TMC3    C4 6348   2.226   3.287  12.999 -0.3591 -0.0146 -0.0647
  422TMC3    C5 6349   2.116   3.345  13.050  0.6871 -0.4129  0.3508
  422TMC3    C6 6350   2.097   3.479  13.059 -0.0360  0.6873 -0.4577
  422TMC3     C 6351   2.422   3.303  12.853 -0.0721  1.1581  0.4955
  422TMC3     O 6352   2.492   3.382  12.784 -0.5266 -0.2198 -0.3355
  422TMC3     H 6353   2.387   3.564  12.888  0.8354 -1.9890 -0.7046
  422TMC3    H1 6354   2.239   3.180  13.013 -1.2545  0.0862  1.4575
  422TMC3    H2 6355   2.023   3.525  13.123  0.0326  2.3749 -1.5886
  422TMC3    C7 6356   2.051   3.259  13.138 -0.2076 -0.0705  0.2280
  422TMC3    C8 6357   2.190   3.687  13.006  0.4700 -0.8063  0.4943
  422TMC3    O1 6358   2.110   3.168  13.191 -0.9465  0.0204  0.0591
  422TMC3    O2 6359   2.300   3.745  12.987 -0.2391 -0.9832 -0.3134
  423MPD2     C 6360   3.371   4.691   0.574 -0.0363 -0.0024  0.3556
  423MPD2    C1 6361   3.407   4.564   0.629  0.0387  0.6202  0.1754
  423MPD2    C2 6362   3.451   4.471   0.537  0.1241 -0.3902  0.8308
  423MPD2    C3 6363   3.481   4.502   0.406 -0.1207  0.4071  0.2203
  423MPD2    C4 6364   3.463   4.628   0.359  0.2495  0.5841  1.6010
  423MPD2    C5 6365   3.402   4.718   0.444 -0.3852  0.2620 -0.2128
  423MPD2     H 6366   3.471   4.368   0.566  0.7357 -0.9050 -1.3803
  423MPD2    H1 6367   3.477   4.653   0.255  2.8539  0.1310  1.8372
  423MPD2    H2 6368   3.318   0.026   0.633 -3.0130 -1.3127 -0.6631
  423MPD2    H3 6369   3.367   0.069   0.394 -3.6642 -0.9823 -0.1600
  423MPD2     N 6370   3.537   4.412   0.309  0.5269 -0.4031  0.1399
  423MPD2    H5 6371   3.558   4.456   0.219 -0.0053 -1.4492 -0.5010
  423MPD2    N1 6372   3.384   4.526   0.763 -0.0932  0.1198 -0.0439
  423MPD2    H7 6373   3.445   4.450   0.790  1.5835  1.5663  0.2703
  424TMC3    C1 6374   3.314   4.526   0.987  0.7067  0.0787 -0.1939
  424TMC3    C2 6375   3.429   4.455   1.016  0.4781 -0.4234 -0.1789
  424TMC3    C3 6376   3.430   4.385   1.136 -0.9080 -0.0243  0.7135
  424TMC3    C4 6377   3.201   4.520   1.059  0.1136  0.4734 -0.2592
  424TMC3    C5 6378   3.201   4.437   1.167  0.0604  0.0214  0.5763
  424TMC3    C6 6379   3.315   4.362   1.210  0.0284  0.5461 -1.3221
  424TMC3     C 6380   3.312   4.596   0.858 -0.2843 -0.2639 -0.0699
  424TMC3     O 6381   3.235   4.690   0.842 -0.5682 -0.5795  0.2991
  424TMC3     H 6382   3.519   4.479   0.959  0.2352 -2.3237 -1.3631
  424TMC3    H1 6383   3.114   4.581   1.034 -0.8149 -1.4255 -1.6314
  424TMC3    H2 6384   3.307   4.287   1.288 -0.1828 -1.8687 -3.6755
  424TMC3    C7 6385   3.078   4.394   1.222 -0.1256 -0.3890 -0.2322
  424TMC3    C8 6386   3.539   4.294   1.161  0.4269  0.2335 -0.0259
  424TMC3    O1 6387   3.086   4.341   1.332 -0.1157 -0.0950  0.2746
  424TMC3    O2 6388   3.517   4.195   1.235  0.2125 -0.7008 -0.1534
  425MPD2     C 6389   2.414   3.328  17.466  0.4942 -0.0925 -0.1595
  425MPD2    C1 6390   2.339   3.210  17.476 -0.6881 -0.4070  0.9777
  425MPD2    C2 6391   2.217   3.214  17.543  0.4867 -0.1831  0.3967
  425MPD2    C3 6392   2.164   3.335  17.586 -0.1375  0.3905 -0.1204
  425MPD2    C4 6393   2.238   3.453  17.584 -0.0309  0.5590 -0.3812
  425MPD2    C5 6394   2.363   3.442  17.525 -0.5571 -0.3033 -0.7002
  425MPD2     H 6395   2.159   3.125  17.567 -0.6938  1.1520  2.4722
  425MPD2    H1 6396   2.210   3.554  17.611 -0.2809  0.5767 -0.7154
  425MPD2    H2 6397   2.511   3.330  17.419  1.3833 -1.1070  1.6105
  425MPD2    H3 6398   2.416   3.536  17.516  0.4279 -0.7049  0.9158
  425MPD2     N 6399   2.028   3.334  17.619  0.3015  0.5903  0.0211
  425MPD2    H5 6400   1.980   3.246  17.604  0.4873  0.3619  0.7954
  425MPD2    N1 6401   2.392   3.089  17.411  0.1714 -0.2127  0.1284
  425MPD2    H7 6402   2.482   3.102  17.366 -0.2576 -1.2483 -1.0153
  426TMC3    C1 6403   2.403   2.851  17.344  0.5154  0.1908 -0.2571
  426TMC3    C2 6404   2.441   2.878  17.216  0.1484  0.6017 -0.1795
  426TMC3    C3 6405   2.448   2.775  17.128 -0.0457 -0.3332  0.5686
  426TMC3    C4 6406   2.391   2.723  17.392  0.0340  0.2943 -0.2114
  426TMC3    C5 6407   2.385   2.626  17.296 -0.2483 -0.4380 -0.1458
  426TMC3    C6 6408   2.433   2.647  17.168  1.1321 -0.7822  0.1930
  426TMC3     C 6409   2.340   2.962  17.421 -0.6758 -0.0368  0.2224
  426TMC3     O 6410   2.254   2.926  17.506  0.1768  0.3465  0.3245
  426TMC3     H 6411   2.454   2.979  17.181  0.0868 -0.4470 -3.1827
  426TMC3    H1 6412   2.374   2.721  17.499  3.7131  1.3442  0.3950
  426TMC3    H2 6413   2.446   2.569  17.093 -1.0326 -2.5149  1.6094
  426TMC3    C7 6414   2.332   2.500  17.342  0.0235 -0.4850  0.5662
  426TMC3    C8 6415   2.499   2.782  16.991  0.0805  0.2213 -0.3138
  426TMC3    O1 6416   2.369   2.403  17.281  0.3964 -0.0290 -0.3373
  426TMC3    O2 6417   2.552   2.685  16.947  0.0024 -0.4021  0.6116
  427MPD2     C 6418   1.515   0.568  14.494 -0.2504 -0.6779 -0.9453
  427MPD2    C1 6419   1.494   0.545  14.624  0.9711 -0.4453 -0.3540
  427MPD2    C2 6420   1.370   0.576  14.678  0.6298  0.2497  0.2488
  427MPD2    C3 6421   1.271   0.633  14.609  0.2254 -0.6783 -0.7551
  427MPD2    C4 6422   1.294   0.652  14.476 -0.3080 -0.0979 -1.0554
  427MPD2    C5 6423   1.411   0.612  14.419 -0.5170 -0.0926  0.5719
  427MPD2     H 6424   1.364   0.559  14.785  1.0775  3.4361  0.7827
  427MPD2    H1 6425   1.226   0.705  14.410 -0.1258 -0.1723 -1.3043
  427MPD2    H2 6426   1.602   0.543  14.435  1.8519  0.4813  1.6433
  427MPD2    H3 6427   1.431   0.619  14.312 -2.1397 -0.8231  0.2294
  427MPD2     N 6428   1.154   0.688  14.662 -0.2784 -0.0604  0.3980
  427MPD2    H5 6429   1.090   0.732  14.596 -0.1933 -0.4921  0.0282
  427MPD2    N1 6430   1.597   0.484  14.700  0.4834 -0.3446 -0.6528
  427MPD2    H7 6431   1.561   0.444  14.785 -0.6542  0.1005 -0.9220
  428TMC3    C1 6432   1.778   0.367  14.759 -0.2486  0.9721  0.0148
  428TMC3    C2 6433   1.689   0.274  14.812 -0.0994 -0.6664 -0.6918
  428TMC3    C3 6434   1.712   0.221  14.934  0.9193  0.7433  0.0098
  428TMC3    C4 6435   1.893   0.397  14.824  0.0469 -0.3700 -0.2706
  428TMC3    C5 6436   1.921   0.331  14.945  0.0440 -0.3086 -0.4163
  428TMC3    C6 6437   1.833   0.237  14.997  0.0881 -0.1401  0.1853
  428TMC3     C 6438   1.724   0.461  14.673 -0.6802 -0.7147 -0.1085
  428TMC3     O 6439   1.802   0.510  14.596  0.5938  0.1509  0.1336
  428TMC3     H 6440   1.593   0.250  14.767 -1.5561  2.3826  0.7919
  428TMC3    H1 6441   1.951   0.470  14.769 -0.9073  0.8739  0.3750
  428TMC3    H2 6442   1.845   0.172  15.083  0.7598 -1.0568 -0.6040
  428TMC3    C7 6443   2.021   0.378  15.037 -0.1913  0.2264  0.9867
  428TMC3    C8 6444   1.639   0.103  14.975 -0.3353 -0.5622  0.4759
  428TMC3    O1 6445   2.028   0.336  15.148  0.4960  0.2911  0.5380
  428TMC3    O2 6446   1.603   0.022  14.893  0.9561 -0.1700  0.2467
  429MPD2     C 6447   1.993   0.574   0.035 -0.7691 -0.3498 -0.2782
  429MPD2    C1 6448   2.095   0.516  17.709  0.2206  0.0860  0.8786
  429MPD2    C2 6449   2.193   0.594  17.652  0.4131 -0.2383  0.1053
  429MPD2    C3 6450   2.189   0.729  17.671  0.4096 -0.0660  0.1337
  429MPD2    C4 6451   2.096   0.790  17.752 -0.0365 -0.2808  0.5809
  429MPD2    C5 6452   2.000   0.711   0.058  0.0753 -0.6665  0.0356
  429MPD2     H 6453   2.269   0.545  17.592  0.2743  1.0561 -1.1179
  429MPD2    H1 6454   2.108   0.896   0.019 -2.4108 -0.0432  0.7524
  429MPD2    H2 6455   1.909   0.515   0.070  0.6328 -1.1506  1.6809
  429MPD2    H3 6456   1.937   0.753   0.135  1.2343  1.8369 -0.3842
  429MPD2     N 6457   2.290   0.801  17.599 -0.7250  0.1305 -1.2554
  429MPD2    H5 6458   2.368   0.754  17.554 -0.7923  1.0458 -2.3159
  429MPD2    N1 6459   2.095   0.377  17.677 -0.5021 -0.2546  0.0643
  429MPD2    H7 6460   2.153   0.348  17.600  1.2722  1.3619  0.7978
  430TMC3    C1 6461   2.396   0.982  17.499  0.4463  0.0610 -0.3403
  430TMC3    C2 6462   2.368   1.081  17.409  0.2335  0.0176 -0.3205
  430TMC3    C3 6463   2.442   1.098  17.295  0.4333  0.0417 -0.1689
  430TMC3    C4 6464   2.501   0.892  17.480 -0.4707 -0.2974 -0.2092
  430TMC3    C5 6465   2.584   0.920  17.375  0.2715  0.0618 -0.1646
  430TMC3    C6 6466   2.555   1.023  17.279 -0.6553  0.6308  0.1468
  430TMC3     C 6467   2.279   0.932  17.563  0.6573  0.0261 -0.5521
  430TMC3     O 6468   2.181   1.004  17.568  0.0487 -0.8587  0.5445
  430TMC3     H 6469   2.275   1.136  17.422  0.6726  0.5381  0.6681
  430TMC3    H1 6470   2.533   0.818  17.552 -0.7921  0.8039  1.0672
  430TMC3    H2 6471   2.610   1.019  17.186  1.7951 -4.8234  1.8200
  430TMC3    C7 6472   2.642   0.804  17.315 -0.0018 -0.5673 -0.3239
  430TMC3    C8 6473   2.349   1.103  17.175  0.7795  0.7019 -0.3675
  430TMC3    O1 6474   2.579   0.701  17.333  0.4735  0.3887  0.1247
  430TMC3    O2 6475   2.250   1.032  17.173 -0.3789 -0.2587  0.3861
  431MPD2     C 6476   3.198   0.724  12.411  0.1922  0.3807  0.5999
  431MPD2    C1 6477   3.252   0.626  12.487  0.1173  0.3565 -0.1348
  431MPD2    C2 6478   3.299   0.507  12.439 -0.3478  0.5279  0.2565
  431MPD2    C3 6479   3.292   0.488  12.307  0.1888  0.0772  0.8947
  431MPD2    C4 6480   3.250   0.588  12.221 -0.3512 -0.1982 -0.4505
  431MPD2    C5 6481   3.204   0.711  12.273  0.7996  0.8670  0.0880
  431MPD2     H 6482   3.319   0.427  12.509 -0.5081  0.6219  0.4097
  431MPD2    H1 6483   3.262   0.580  12.114 -0.0281 -1.8141 -0.2938
  431MPD2    H2 6484   3.152   0.814  12.448 -2.3685 -0.4479 -0.5786
  431MPD2    H3 6485   3.167   0.783  12.201 -0.0606 -1.9177 -2.2930
  431MPD2     N 6486   3.335   0.372  12.246  0.6469  0.5196  0.4039
  431MPD2    H5 6487   3.326   0.361  12.145  0.2156  1.0896  0.3822
  431MPD2    N1 6488   3.249   0.616  12.625 -0.1332  0.0060  0.7238
  431MPD2    H7 6489   3.284   0.529  12.666  0.9246 -0.6048 -1.4847
  432TMC3    C1 6490   3.379   0.141  12.218  0.2993 -0.3937 -0.0873
  432TMC3    C2 6491   3.451   0.178  12.114  0.1934 -0.7734  0.1709
  432TMC3    C3 6492   3.563   0.107  12.081  0.6298 -0.3383  0.3596
  432TMC3    C4 6493   3.402   0.024  12.286 -0.3801  0.4842  0.6407
  432TMC3    C5 6494   3.526   4.714  12.261  0.7931 -0.6469 -0.1455
  432TMC3    C6 6495   3.608   0.008  12.162 -0.6242 -0.0655  0.0262
  432TMC3     C 6496   3.354   0.249  12.313 -0.4770 -0.9054  0.4126
  432TMC3     O 6497   3.356   0.219  12.433 -0.0113  0.5534  0.0305
  432TMC3     H 6498   3.415   0.247  12.038  0.3795 -1.3872 -0.4699
  432TMC3    H1 6499   3.333   4.725  12.360  1.1127 -0.9759  1.2745
  432TMC3    H2 6500   3.701   4.693  12.150 -0.9233 -0.8902  1.4413
  432TMC3    C7 6501   3.597   4.674  12.387  0.1972  0.3143  0.4281
  432TMC3    C8 6502   3.633   0.148  11.962 -0.8984 -0.1483  0.5660
  432TMC3    O1 6503   3.708   4.624  12.372  0.2546 -0.3709  0.2265
  432TMC3    O2 6504   3.601   0.253  11.914  0.2743  0.3062  0.1673
  433MPD2     C 6505   1.971   4.396  11.347  0.0174 -0.2396  0.0911
  433MPD2    C1 6506   1.982   4.272  11.401  0.3098  0.0401  0.1496
  433MPD2    C2 6507   2.036   4.261  11.525 -0.0604  0.4059  0.4595
  433MPD2    C3 6508   2.086   4.366  11.597 -0.3962  0.0842 -0.2005
  433MPD2    C4 6509   2.077   4.491  11.542  0.4480 -0.5562  0.5700
  433MPD2    C5 6510   2.019   4.503  11.420 -0.1179 -0.2223 -0.4440
  433MPD2     H 6511   2.030   4.169  11.581  0.6206  0.0542 -0.0533
  433MPD2    H1 6512   2.101   4.584  11.593 -1.3494 -0.8590  1.9278
  433MPD2    H2 6513   1.929   4.413  11.249  0.7263  1.4340  0.0720
  433MPD2    H3 6514   2.009   4.604  11.381 -0.4760  0.4162  1.3094
  433MPD2     N 6515   2.132   4.333  11.725 -0.4218  0.5666 -0.1703
  433MPD2    H5 6516   2.090   4.253  11.772 -0.5809  0.5866 -0.2758
  433MPD2    N1 6517   1.918   4.169  11.332 -0.3182 -0.2605 -0.3285
  433MPD2    H7 6518   1.903   4.191  11.234 -1.1257 -1.0891 -0.4022
  434TMC3    C1 6519   1.826   3.956  11.279  0.1844  1.3426 -0.5888
  434TMC3    C2 6520   1.850   3.825  11.319 -0.3291  0.7095 -0.1133
  434TMC3    C3 6521   1.885   3.741  11.211 -0.4141  0.2659 -0.3581
  434TMC3    C4 6522   1.833   4.006  11.152 -0.2656  0.2033  0.2461
  434TMC3    C5 6523   1.859   3.914  11.052 -0.1220 -0.3447  0.1574
  434TMC3    C6 6524   1.890   3.784  11.083 -0.1331  0.3795  0.3541
  434TMC3     C 6525   1.889   4.042  11.383  0.1456  0.5710 -0.3152
  434TMC3     O 6526   1.912   3.994  11.493 -0.0533 -0.0922 -0.0143
  434TMC3     H 6527   1.851   3.792  11.422 -0.2219 -1.9134 -0.9450
  434TMC3    H1 6528   1.793   4.103  11.126 -1.2176 -0.3247 -0.2519
  434TMC3    H2 6529   1.925   3.722  11.002 -0.5531  2.6543 -1.5741
  434TMC3    C7 6530   1.793   3.936  10.927  0.0929 -0.1926 -0.2404
  434TMC3    C8 6531   1.980   3.629  11.234  0.1485 -0.5455 -0.0808
  434TMC3    O1 6532   1.828   4.033  10.857  0.0465 -0.2780 -0.5166
  434TMC3    O2 6533   1.944   3.539  11.309  0.1164  0.5118  0.2848
  435MPD2     C 6534   4.336   4.686  15.479 -0.9045 -0.0974  0.0931
  435MPD2    C1 6535   4.288   4.710  15.609  0.6657 -0.2518 -0.2549
  435MPD2    C2 6536   4.373   4.673  15.713 -0.3044 -0.5989  0.0790
  435MPD2    C3 6537   4.482   4.596  15.696  0.6524  0.4672  0.4685
  435MPD2    C4 6538   4.526   4.570  15.570  0.0086 -0.4125 -0.1762
  435MPD2    C5 6539   4.460   4.625  15.460 -0.3451 -0.0408  0.3242
  435MPD2     H 6540   4.349   4.700  15.815 -0.5489  1.7531 -0.6107
  435MPD2    H1 6541   4.612   4.507  15.554  0.8908  0.7378 -0.0214
  435MPD2    H2 6542   4.289   4.703  15.383  0.7441 -0.7914 -0.8395
  435MPD2    H3 6543   4.493   4.598  15.360 -2.6136 -2.0605  0.1228
  435MPD2     N 6544   4.527   4.523  15.812  0.3957  0.2560  0.9191
  435MPD2    H5 6545   4.475   4.534  15.898 -0.4791  2.0915  0.1552
  435MPD2    N1 6546   4.157   0.014  15.636  0.2873 -0.8801 -0.1985
  435MPD2    H7 6547   4.134   0.029  15.733  0.7815  0.2940 -0.2599
  436TMC3    C1 6548   3.810   0.161  15.785  0.6549 -0.5625 -0.1363
  436TMC3    C2 6549   3.932   0.127  15.729 -0.3277 -0.0233 -0.8895
  436TMC3    C3 6550   3.931   0.058  15.608 -0.8643  0.3384 -0.2201
  436TMC3    C4 6551   3.685   0.118  15.738  0.3714 -0.1138 -0.4518
  436TMC3    C5 6552   3.693   0.044  15.616  0.0850 -0.2363 -0.4794
  436TMC3    C6 6553   3.818   0.017  15.556 -0.2076  0.5073  0.1781
  436TMC3     C 6554   3.802   0.260  15.891 -0.4039  0.3106 -0.0611
  436TMC3     O 6555   3.906   0.324  15.906 -0.7023  0.4797 -0.6232
  436TMC3     H 6556   4.023   0.162  15.776 -0.1603  0.9573 -1.9620
  436TMC3    H1 6557   3.591   0.148  15.783  1.7165  1.7191  1.2206
  436TMC3    H2 6558   3.820   4.698  15.464 -3.4546 -0.1916  0.5588
  436TMC3    C7 6559   3.605   4.675  15.607  0.3164 -0.4910  0.2067
  436TMC3    C8 6560   4.057   0.006  15.543  1.0999  0.3579  0.1783
  436TMC3    O1 6561   3.647   4.578  15.545 -0.1728  0.5356  0.2963
  436TMC3    O2 6562   4.047   4.712  15.426  0.0251 -0.6973  0.0122
  437TMC3    C1 6563   2.701   1.765  12.535  0.5544  0.1307  0.6614
  437TMC3    C2 6564   2.639   1.816  12.419 -0.0429 -0.8894 -0.1255
  437TMC3    C3 6565   2.705   1.921  12.363  0.1264 -0.0040 -0.2111
  437TMC3    C4 6566   2.808   1.825  12.602  0.1099 -0.3683  0.5881
  437TMC3    C5 6567   2.854   1.939  12.537  0.7334 -0.7045  0.3115
  437TMC3    C6 6568   2.810   1.987  12.419  0.2210 -0.4805  0.0523
  437TMC3     C 6569   2.626   1.665  12.594 -0.1949  0.0428 -0.2180
  437TMC3     O 6570   2.510   1.689  12.613 -0.4902 -0.6300 -0.7211
  437TMC3     H 6571   2.551   1.770  12.377 -0.6968  1.5294 -1.4227
  437TMC3    H1 6572   2.836   1.789  12.700  3.7515 -0.9193 -0.6684
  437TMC3    H2 6573   2.841   2.086  12.385 -2.0234  0.3734  0.5023
  437TMC3    C7 6574   2.982   1.991  12.581 -0.1974  0.3543 -0.5015
  437TMC3    C8 6575   2.671   1.944  12.216 -0.5052 -0.4792 -0.1852
  437TMC3    O1 6576   3.010   2.102  12.539  0.2120 -0.1200 -0.5561
  437TMC3    O2 6577   2.563   1.897  12.177 -0.2557  0.2721 -0.2275
  438MPD2     C 6578   0.062   2.533  17.091 -0.5699 -0.3974  0.2542
  438MPD2    C1 6579   0.105   2.409  17.140  0.2199  0.2184 -0.6393
  438MPD2    C2 6580   0.097   2.381  17.272  0.0704 -0.2616  0.0661
  438MPD2    C3 6581   0.027   2.465  17.358 -0.3133  0.2479 -0.3625
  438MPD2    C4 6582   4.707   2.578  17.304  0.4785  0.0271 -0.1866
  438MPD2    C5 6583   4.732   2.614  17.176  0.6045 -0.0502 -0.3309
  438MPD2     H 6584   0.140   2.287  17.303  0.3816 -0.1929 -0.1500
  438MPD2    H1 6585   4.641   2.640  17.364  1.8320 -0.3126  1.6413
  438MPD2    H2 6586   0.081   2.566  16.990  2.1743  1.4616  1.3544
  438MPD2    H3 6587   4.686   2.707  17.145  0.3111  1.1019  3.6131
  438MPD2     N 6588   4.738   2.437  17.498  0.1338  0.5467  0.2399
  438MPD2    H5 6589   4.676   2.501  17.545  0.3417  0.5719  0.4800
  438MPD2    N1 6590   0.164   2.310  17.061  0.0923  0.1798 -0.0862
  438MPD2    H7 6591   0.180   2.222  17.109 -0.5490  0.8179  1.3245
  439TMC3    C1 6592   0.242   2.178  16.882 -0.8339  0.4833  0.7524
  439TMC3    C2 6593   0.196   2.135  16.761 -0.0519  1.0283  0.0391
  439TMC3    C3 6594   0.252   2.015  16.726  0.1914 -0.1985 -0.1775
  439TMC3    C4 6595   0.326   2.110  16.970  0.5549  0.0706  0.6043
  439TMC3    C5 6596   0.367   1.987  16.934  0.2015 -1.0352  0.6269
  439TMC3    C6 6597   0.330   1.936  16.810 -0.1115 -0.3031 -0.3659
  439TMC3     C 6598   0.178   2.302  16.929  0.2437 -0.2277 -0.1203
  439TMC3     O 6599   0.133   2.377  16.844  0.2838 -0.5341  0.1824
  439TMC3     H 6600   0.130   2.193  16.697  0.4254 -0.7526 -2.0344
  439TMC3    H1 6601   0.360   2.149  17.065  2.9949  0.8099 -0.5814
  439TMC3    H2 6602   0.365   1.840  16.775  0.3789 -0.3186  0.1601
  439TMC3    C7 6603   0.489   1.935  16.994  0.0346  0.2101 -0.4837
  439TMC3    C8 6604   0.284   1.978  16.589 -1.3725 -0.0829 -0.3959
  439TMC3    O1 6605   0.495   1.924  17.114 -0.8994  0.6047  0.3272
  439TMC3    O2 6606   0.398   1.926  16.579 -0.2785 -0.5651 -1.2349
  440MPD2     C 6607   4.059   2.788  15.002 -0.7059 -0.0784  0.0091
  440MPD2    C1 6608   4.132   2.829  15.112  0.4855 -0.2192  0.0084
  440MPD2    C2 6609   4.267   2.820  15.111 -0.0667 -0.1144  0.1761
  440MPD2    C3 6610   4.335   2.777  15.001 -0.3916  0.5248  0.1682
  440MPD2    C4 6611   4.261   2.739  14.890  0.4223 -0.3005  0.3801
  440MPD2    C5 6612   4.117   2.749  14.887 -0.3449 -0.2952 -0.7253
  440MPD2     H 6613   4.324   2.843  15.201  1.4316 -2.6875 -0.1199
  440MPD2    H1 6614   4.313   2.686  14.810 -0.1055  1.5907 -1.2140
  440MPD2    H2 6615   3.952   2.776  15.013 -0.6413 -0.1101  0.6271
  440MPD2    H3 6616   4.062   2.716  14.799 -2.4096  1.4435 -0.0855
  440MPD2     N 6617   4.472   2.748  14.997  0.1564 -0.0701  0.6964
  440MPD2    H5 6618   4.505   2.682  14.928  1.4776  1.8177 -0.4785
  440MPD2    N1 6619   4.074   2.866  15.232 -0.1392 -0.6286  0.5040
  440MPD2    H7 6620   4.140   2.907  15.298  1.0447 -1.7589  0.0066
  441TMC3    C1 6621   4.683   2.725  15.101  0.2396 -0.5951  0.2454
  441TMC3    C2 6622   0.034   2.801  15.180 -0.0932 -0.8431 -0.5240
  441TMC3    C3 6623   0.075   2.742  15.298  0.6172 -0.7939 -0.1380
  441TMC3    C4 6624   4.645   2.601  15.136 -0.4923  0.4304  0.1896
  441TMC3    C5 6625   4.684   2.551  15.257 -0.4062 -0.5355  0.0303
  441TMC3    C6 6626   0.041   2.615  15.332  0.0243 -0.4343 -0.3404
  441TMC3     C 6627   4.558   2.803  15.083  0.0575 -0.2630  0.1269
  441TMC3     O 6628   4.549   2.886  15.172 -0.0948  0.4718  0.1647
  441TMC3     H 6629   0.036   2.907  15.159 -0.5324 -1.1799 -2.2596
  441TMC3    H1 6630   4.575   2.541  15.079 -0.4195 -0.4140  0.9820
  441TMC3    H2 6631   0.063   2.584  15.433  2.1109  1.5145 -0.2137
  441TMC3    C7 6632   4.577   2.486  15.335  0.2403  0.3836 -1.0231
  441TMC3    C8 6633   0.064   2.818  15.411 -0.7804 -0.8452 -0.2269
  441TMC3    O1 6634   4.607   2.429  15.437  0.3973  0.4839 -0.3804
  441TMC3    O2 6635   0.109   2.780  15.521 -0.2025  0.3591 -0.2107
  442MPD2     C 6636   2.178   2.803  16.371 -0.3165  0.0027 -0.1856
  442MPD2    C1 6637   2.091   2.734  16.442 -0.1348  0.0522 -0.6427
  442MPD2    C2 6638   2.028   2.623  16.381  0.1323 -0.5100  0.5693
  442MPD2    C3 6639   2.045   2.601  16.251  0.3057 -0.4029  0.9842
  442MPD2    C4 6640   2.124   2.680  16.175  0.5221  0.0446 -0.1483
  442MPD2    C5 6641   2.198   2.777  16.241  0.7034 -0.2170 -0.7152
  442MPD2     H 6642   1.953   2.575  16.444  0.4859  0.5445  1.8165
  442MPD2    H1 6643   2.150   2.654  16.073 -2.3798 -0.9005 -0.6418
  442MPD2    H2 6644   2.240   2.878  16.419  1.0531 -1.5078  0.4357
  442MPD2    H3 6645   2.283   2.822  16.191  0.1899 -1.3369 -2.5941
  442MPD2     N 6646   1.983   2.489  16.186 -0.2371 -0.1748 -0.1865
  442MPD2    H5 6647   2.007   2.478  16.088  1.8413  1.7942  0.1263
  442MPD2    N1 6648   2.065   2.756  16.584 -0.2773  1.0157 -0.4751
  442MPD2    H7 6649   2.002   2.685  16.623  1.8442  0.3591  1.7382
  443TMC3    C1 6650   2.023   2.883  16.778  0.2753  0.1111 -0.8188
  443TMC3    C2 6651   2.007   3.006  16.833  1.1465  0.1378 -0.1818
  443TMC3    C3 6652   1.894   3.024  16.920  0.0123 -0.4782  0.2657
  443TMC3    C4 6653   1.951   2.775  16.820 -0.2258  0.3700 -0.3170
  443TMC3    C5 6654   1.844   2.795  16.910 -0.0923 -0.6473 -0.0299
  443TMC3    C6 6655   1.819   2.920  16.958 -0.0713  0.2590 -0.2288
  443TMC3     C 6656   2.084   2.871  16.646  0.5894  0.4386  0.0197
  443TMC3     O 6657   2.144   2.968  16.611  0.1451 -0.3314  0.4990
  443TMC3     H 6658   2.065   3.091  16.800  0.8730 -0.0646 -1.1654
  443TMC3    H1 6659   1.969   2.674  16.784 -2.4795  0.2818 -1.2140
  443TMC3    H2 6660   1.730   2.948  17.013  1.3139  0.6271  1.7813
  443TMC3    C7 6661   1.772   2.678  16.939 -0.2385  0.1471  0.1930
  443TMC3    C8 6662   1.801   3.112  16.855  0.7939  0.0331  0.1102
  443TMC3    O1 6663   1.782   2.578  16.872 -0.7244 -0.6023  0.1676
  443TMC3    O2 6664   1.692   3.062  16.824 -0.2327 -0.2356 -0.2754
  444MPD2     C 6665   2.174   2.524  16.897  0.3650  0.3192 -0.7730
  444MPD2    C1 6666   2.136   2.394  16.937 -0.4748  0.6664 -0.2354
  444MPD2    C2 6667   2.181   2.289  16.854 -0.2354  0.3138  0.0558
  444MPD2    C3 6668   2.271   2.303  16.752  0.5351 -0.2246 -0.4822
  444MPD2    C4 6669   2.295   2.434  16.709 -0.1379 -0.2216  0.4921
  444MPD2    C5 6670   2.253   2.543  16.781 -0.6330 -0.2522 -0.0177
  444MPD2     H 6671   2.160   2.195  16.904  0.2179  0.6023  0.8019
  444MPD2    H1 6672   2.355   2.446  16.619 -0.0107  0.5137  0.6781
  444MPD2    H2 6673   2.140   2.615  16.945  0.4914  0.8968 -1.7597
  444MPD2    H3 6674   2.271   2.648  16.758 -0.1719 -0.3637 -0.1622
  444MPD2     N 6675   2.342   2.189  16.708  0.3035  0.2392  0.1767
  444MPD2    H5 6676   2.302   2.101  16.739  0.6529 -1.0694 -3.0585
  444MPD2    N1 6677   2.054   2.367  17.044  0.5604  0.6232 -0.2175
  444MPD2    H7 6678   1.996   2.283  17.045  2.9899 -1.0544 -0.4826
  445TMC3    C1 6679   2.518   2.055  16.607 -0.0823  0.5192  0.2096
  445TMC3    C2 6680   2.438   1.943  16.583 -0.1166  0.6790  0.0332
  445TMC3    C3 6681   2.490   1.811  16.591  0.4465 -0.4547 -0.8474
  445TMC3    C4 6682   2.651   2.037  16.635 -0.5862 -0.3184 -0.2826
  445TMC3    C5 6683   2.691   1.906  16.638 -0.5867 -0.5893  0.2203
  445TMC3    C6 6684   2.619   1.794  16.616 -0.2192 -0.1284 -0.3011
  445TMC3     C 6685   2.469   2.190  16.653  0.3484  0.3004  0.7892
  445TMC3     O 6686   2.546   2.285  16.642  0.0597  0.1374  0.5286
  445TMC3     H 6687   2.332   1.960  16.565  0.4302  1.6279 -2.2920
  445TMC3    H1 6688   2.718   2.117  16.664 -0.9252  0.4831 -1.6756
  445TMC3    H2 6689   2.663   1.698  16.589 -0.6335 -0.9254  1.8402
  445TMC3    C7 6690   2.839   1.879  16.632  0.3029  0.2169  0.2066
  445TMC3    C8 6691   2.418   1.708  16.518  0.0952  0.1016 -0.0921
  445TMC3    O1 6692   2.907   1.963  16.582 -0.4841  0.3964 -0.4863
  445TMC3    O2 6693   2.463   1.595  16.531 -0.3655 -0.5420 -0.5782
  446MPD2     C 6694   1.971   3.489  11.806  0.5566 -0.2341 -0.3118
  446MPD2    C1 6695   1.952   3.514  11.670 -0.3654  0.1997  0.2892
  446MPD2    C2 6696   2.021   3.623  11.613  0.3057  0.7445  0.5295
  446MPD2    C3 6697   2.107   3.701  11.682 -0.0810  0.2957  0.0478
  446MPD2    C4 6698   2.123   3.680  11.814  0.2175  0.0130 -0.4651
  446MPD2    C5 6699   2.061   3.574  11.873  0.0580  0.5306  0.4062
  446MPD2     H 6700   2.010   3.640  11.506 -0.8990  1.3474  0.7543
  446MPD2    H1 6701   2.181   3.752  11.871  0.5842 -2.8461  2.7597
  446MPD2    H2 6702   1.928   3.402  11.855  1.3807  0.2632  1.2851
  446MPD2    H3 6703   2.067   3.560  11.980  0.3883 -1.1991  0.1719
  446MPD2     N 6704   2.172   3.802  11.602 -0.0167 -0.2075  0.2909
  446MPD2    H5 6705   2.147   3.811  11.504 -0.1915  1.2120  0.4638
  446MPD2    N1 6706   1.880   3.434  11.587  0.1613 -0.2509 -0.2261
  446MPD2    H7 6707   1.875   3.462  11.489 -1.3732 -2.3578 -0.7519
  447TMC3    C1 6708   2.352   3.928  11.522  0.3296 -0.1075  0.2978
  447TMC3    C2 6709   2.263   3.976  11.426  0.2835 -0.3597  0.4141
  447TMC3    C3 6710   2.319   4.062  11.332 -0.2956 -0.2479 -0.5529
  447TMC3    C4 6711   2.485   3.970  11.522 -0.6361 -0.3508  0.6076
  447TMC3    C5 6712   2.533   4.047  11.424 -0.2820  0.3665  0.3799
  447TMC3    C6 6713   2.450   4.089  11.328 -0.1887  0.0354  0.4082
  447TMC3     C 6714   2.299   3.842  11.635 -0.0944 -0.1621 -1.2401
  447TMC3     O 6715   2.363   3.819  11.739  0.0488 -0.2413 -0.6092
  447TMC3     H 6716   2.155   3.980  11.428  0.2777  1.3274 -3.3489
  447TMC3    H1 6717   2.545   3.952  11.611 -1.8218 -1.1669  1.2520
  447TMC3    H2 6718   2.486   4.165  11.259 -1.0956  1.6217  1.6799
  447TMC3    C7 6719   2.673   4.045  11.392  0.1068 -0.0101  0.3404
  447TMC3    C8 6720   2.250   4.082  11.211  0.2851  0.1656  0.0605
  447TMC3    O1 6721   2.698   4.109  11.291 -0.3344  0.4380  0.0635
  447TMC3    O2 6722   2.181   3.995  11.161 -0.3099  0.1846  0.2811
  448TMC3    C1 6723   0.402   3.486  17.453  0.0129  0.4319  0.5007
  448TMC3    C2 6724   0.374   3.442  17.324  0.6106 -0.4471 -0.4717
  448TMC3    C3 6725   0.422   3.315  17.292  0.2924  0.2104  0.5378
  448TMC3    C4 6726   0.469   3.404  17.542  0.0825  0.3593  0.0175
  448TMC3    C5 6727   0.491   3.274  17.505 -0.1627 -0.4207  0.3458
  448TMC3    C6 6728   0.477   3.229  17.380 -0.2751  0.3844  0.3000
  448TMC3     C 6729   0.361   3.618  17.491  0.3917  0.3759  0.1959
  448TMC3     O 6730   0.325   3.692  17.405 -0.3880  0.3060 -0.3451
  448TMC3     H 6731   0.319   3.500  17.251  0.4834  0.5027  0.3925
  448TMC3    H1 6732   0.493   3.434  17.643  1.6734  2.3961 -0.9681
  448TMC3    H2 6733   0.509   3.131  17.345  0.0771 -0.7777  3.9090
  448TMC3    C7 6734   0.551   3.181  17.599  0.6362 -0.4705  0.3430
  448TMC3    C8 6735   0.362   3.247  17.181 -0.9844  0.1614 -0.1419
  448TMC3    O1 6736   0.625   3.089  17.565  0.9295  0.1154  0.1043
  448TMC3    O2 6737   0.347   3.125  17.198  0.0656 -0.2598 -0.1655
  449MPD2     C 6738   1.559   1.801  13.087  1.0748 -1.1192  0.1170
  449MPD2    C1 6739   1.506   1.676  13.107 -0.5136  0.4945  0.4699
  449MPD2    C2 6740   1.383   1.666  13.165 -0.4833  0.6710 -0.1444
  449MPD2    C3 6741   1.315   1.778  13.212 -0.2968  0.0632  0.0191
  449MPD2    C4 6742   1.367   1.906  13.198 -0.1436  0.4563 -0.3726
  449MPD2    C5 6743   1.483   1.911  13.122 -0.4833 -0.1187 -0.9079
  449MPD2     H 6744   1.336   1.568  13.172  0.7562  0.2318  2.0673
  449MPD2    H1 6745   1.309   1.996  13.218 -2.7341 -1.1212 -0.8442
  449MPD2    H2 6746   1.654   1.813  13.034 -0.7713 -1.5967 -3.3191
  449MPD2    H3 6747   1.536   2.003  13.099  0.5367 -0.2003  1.0771
  449MPD2     N 6748   1.197   1.751  13.276  0.0284 -0.2276  0.1897
  449MPD2    H5 6749   1.179   1.651  13.280  2.6065 -0.6894 -0.2970
  449MPD2    N1 6750   1.568   1.550  13.069  0.6280 -0.3246  0.5207
  449MPD2    H7 6751   1.512   1.466  13.077  1.2536 -0.6798  1.1683
  450TMC3    C1 6752   1.711   1.393  12.988  0.4839  1.1934  0.1179
  450TMC3    C2 6753   1.813   1.354  13.068 -0.0481 -0.0820 -0.4736
  450TMC3    C3 6754   1.789   1.238  13.137  0.1675 -0.5702 -0.2354
  450TMC3    C4 6755   1.589   1.330  12.983  0.1390  1.0419 -0.3852
  450TMC3    C5 6756   1.566   1.225  13.068 -0.6312  0.1549  0.4144
  450TMC3    C6 6757   1.670   1.173  13.143 -0.3743  0.6140  0.1067
  450TMC3     C 6758   1.694   1.536  13.015 -0.1178  0.1376 -0.2359
  450TMC3     O 6759   1.785   1.618  13.024  0.3294 -0.8116  0.1106
  450TMC3     H 6760   1.909   1.405  13.075  0.4514 -0.6547 -3.1329
  450TMC3    H1 6761   1.501   1.365  12.930 -0.8475  0.4037  0.8279
  450TMC3    H2 6762   1.666   1.080  13.199 -0.4017  1.4399  1.4899
  450TMC3    C7 6763   1.434   1.222  13.119 -0.0761  0.3836 -0.4524
  450TMC3    C8 6764   1.901   1.149  13.181 -0.0802  0.0823 -0.1685
  450TMC3    O1 6765   1.372   1.325  13.097 -0.3237 -0.1364  0.8076
  450TMC3    O2 6766   1.882   1.030  13.204  0.0826 -0.9374  0.2180
  451MPD2     C 6767   3.456   1.714   1.082  0.0491 -0.0614  0.2805
  451MPD2    C1 6768   3.388   1.761   0.977  0.2191  0.7264  0.3134
  451MPD2    C2 6769   3.412   1.710   0.850 -0.3005  0.0681 -0.1673
  451MPD2    C3 6770   3.504   1.608   0.833  0.0303 -0.0803  1.1695
  451MPD2    C4 6771   3.566   1.558   0.942 -0.0814  0.8621  0.2784
  451MPD2    C5 6772   3.552   1.616   1.061  0.7443  0.3587  0.2047
  451MPD2     H 6773   3.363   1.750   0.763 -2.9889 -1.9797  0.3901
  451MPD2    H1 6774   3.636   1.475   0.938 -0.0062  0.9045  0.7170
  451MPD2    H2 6775   3.441   1.760   1.179 -1.5025  1.5505 -0.7145
  451MPD2    H3 6776   3.598   1.576   1.150 -0.8666 -0.9011  0.4933
  451MPD2     N 6777   3.528   1.541   0.714 -0.0912  0.4221  0.0559
  451MPD2    H5 6778   3.602   1.473   0.707 -0.3231  0.3197 -1.4873
  451MPD2    N1 6779   3.283   1.859   0.998  0.6709  0.7649 -0.2633
  451MPD2    H7 6780   3.258   1.871   1.096  0.2988 -0.4840 -0.2035
  452TMC3    C1 6781   3.473   1.453   0.502  0.4974  0.4207  0.3333
  452TMC3    C2 6782   3.351   1.407   0.453  0.3020  0.7236 -0.6623
  452TMC3    C3 6783   3.352   1.314   0.359 -0.0502  0.0733  0.2523
  452TMC3    C4 6784   3.596   1.393   0.474 -0.0609  0.3062 -0.0929
  452TMC3    C5 6785   3.588   1.295   0.377  0.1634 -0.2104  0.1747
  452TMC3    C6 6786   3.476   1.259   0.317 -0.4585  0.0369 -0.4892
  452TMC3     C 6787   3.454   1.562   0.600 -0.4766 -0.0374  0.2162
  452TMC3     O 6788   3.350   1.621   0.597  0.7253  0.2580 -0.2879
  452TMC3     H 6789   3.258   1.451   0.487 -0.6707 -0.5013 -1.7491
  452TMC3    H1 6790   3.686   1.430   0.521  1.0293  0.0214 -1.9845
  452TMC3    H2 6791   3.476   1.174   0.251  2.5533  0.2682 -0.7648
  452TMC3    C7 6792   3.703   1.235   0.318  0.2200 -0.8624 -0.1564
  452TMC3    C8 6793   3.232   1.248   0.319  0.1039 -0.5311  0.4940
  452TMC3    O1 6794   3.688   1.181   0.208 -0.1024  0.7289 -0.0869
  452TMC3    O2 6795   3.247   1.129   0.288  0.4366 -0.2417  0.0417
  453TMC3    C1 6796   4.586   2.474  11.868  0.2512 -0.4348 -0.2627
  453TMC3    C2 6797   4.518   2.387  11.940  0.8940  0.0882 -0.3075
  453TMC3    C3 6798   4.483   2.270  11.876 -0.0131 -0.1340 -0.1031
  453TMC3    C4 6799   4.639   2.453  11.745 -0.4781  0.5759 -0.7730
  453TMC3    C5 6800   4.584   2.347  11.677 -0.5337  0.9325  0.2634
  453TMC3    C6 6801   4.508   2.250  11.736 -0.5019 -0.2885  0.2292
  453TMC3     C 6802   4.675   2.554  11.952  0.3022  0.3015  0.3248
  453TMC3     O 6803   0.050   2.571  11.911  0.1623 -0.3439 -0.0360
  453TMC3     H 6804   4.483   2.402  12.042 -0.6127 -0.1123 -0.7906
  453TMC3    H1 6805   4.702   2.527  11.697  0.3587  0.8449  0.7548
  453TMC3    H2 6806   4.489   2.156  11.686 -2.1518 -0.7192  1.6609
  453TMC3    C7 6807   4.680   2.281  11.597  0.5903 -0.4523  0.9900
  453TMC3    C8 6808   4.398   2.176  11.945 -0.1058 -0.1340 -0.7311
  453TMC3    O1 6809   4.678   2.160  11.590 -0.0055 -0.2989 -0.4861
  453TMC3    O2 6810   4.410   2.182  12.068 -0.0336 -0.1582  0.0692
  454MPD2     C 6811   3.118   2.231  16.219 -0.7650 -0.5272  0.0087
  454MPD2    C1 6812   3.030   2.222  16.114  0.7679 -0.8507 -0.7742
  454MPD2    C2 6813   2.939   2.328  16.103 -0.5382  0.0748 -0.6066
  454MPD2    C3 6814   2.931   2.423  16.198 -0.0280  0.3275 -0.7686
  454MPD2    C4 6815   3.026   2.432  16.293  0.5677  0.0934  0.1103
  454MPD2    C5 6816   3.116   2.331  16.307  0.5879  0.7419  0.2872
  454MPD2     H 6817   2.865   2.318  16.025 -0.5936  1.2018 -0.6924
  454MPD2    H1 6818   3.029   2.522  16.354  1.3096  1.8284 -2.5092
  454MPD2    H2 6819   3.189   2.149  16.227 -1.6812 -1.5814 -2.7807
  454MPD2    H3 6820   3.199   2.328  16.376 -0.1023 -1.7957  1.0208
  454MPD2     N 6821   2.828   2.514  16.198 -0.0188  0.0176  0.0408
  454MPD2    H5 6822   2.804   2.555  16.288  0.4106 -1.3481  0.7745
  454MPD2    N1 6823   3.023   2.123  16.013  0.2227  0.3239  0.0474
  454MPD2    H7 6824   2.981   2.159  15.928 -0.4138 -2.3730 -0.7747
  455TMC3    C1 6825   2.624   2.589  16.150 -0.4531 -0.2733 -0.1525
  455TMC3    C2 6826   2.619   2.665  16.263  0.1117  0.4239 -0.2022
  455TMC3    C3 6827   2.521   2.642  16.353 -0.0302 -0.7858 -0.2708
  455TMC3    C4 6828   2.536   2.491  16.124  0.0572  1.2148  0.2681
  455TMC3    C5 6829   2.437   2.461  16.214  0.2162  0.2151  0.5958
  455TMC3    C6 6830   2.428   2.537  16.326  0.0983  0.7104 -0.0636
  455TMC3     C 6831   2.746   2.553  16.095 -0.2908  0.2264 -0.0321
  455TMC3     O 6832   2.752   2.514  15.976 -0.8743 -0.5235 -0.2665
  455TMC3     H 6833   2.696   2.738  16.283  1.2738 -0.7381 -0.4393
  455TMC3    H1 6834   2.556   2.416  16.047  0.5993  1.0576  0.5632
  455TMC3    H2 6835   2.348   2.511  16.393  0.1722 -2.9979 -1.4176
  455TMC3    C7 6836   2.436   2.316  16.237 -0.1790 -0.3165 -0.4650
  455TMC3    C8 6837   2.501   2.714  16.478 -0.0280 -0.0325  0.2965
  455TMC3    O1 6838   2.337   2.256  16.284 -0.1859  0.3309  0.0586
  455TMC3    O2 6839   2.427   2.662  16.555 -0.8205  0.4450  0.4697
  456MPD2     C 6840   0.351   2.432  15.951  0.3537 -0.2082  0.8279
  456MPD2    C1 6841   0.451   2.393  16.035  0.4212 -0.5342 -0.0792
  456MPD2    C2 6842   0.446   2.445  16.166  0.2493 -0.0078 -1.0950
  456MPD2    C3 6843   0.346   2.529  16.211  0.3650  0.7126 -0.2212
  456MPD2    C4 6844   0.246   2.569  16.118 -0.5306  0.4930  0.3636
  456MPD2    C5 6845   0.259   2.525  15.988 -0.4898  0.1108  0.0013
  456MPD2     H 6846   0.532   2.442  16.231 -0.1597  1.7524 -0.4892
  456MPD2    H1 6847   0.168   2.643  16.138  1.0872  1.9138  1.4106
  456MPD2    H2 6848   0.344   2.399  15.848 -0.7614 -0.3735  0.9587
  456MPD2    H3 6849   0.182   2.559  15.919 -0.2469 -0.5751 -0.6147
  456MPD2     N 6850   0.340   2.566  16.341 -0.4788  0.2657  0.0708
  456MPD2    H5 6851   0.413   2.532  16.403  0.8008  0.9313 -1.0430
  456MPD2    N1 6852   0.557   2.305  15.990  0.2675  0.6861 -0.3977
  456MPD2    H7 6853   0.553   2.278  15.892  3.0332 -0.6008 -0.1521
  457TMC3    C1 6854   0.283   2.678  16.536  0.5171 -0.6137 -0.4680
  457TMC3    C2 6855   0.208   2.778  16.593 -0.8159  0.2802 -0.3099
  457TMC3    C3 6856   0.208   2.779  16.732  0.0996 -0.4203  0.2184
  457TMC3    C4 6857   0.367   2.593  16.608 -1.0453 -0.6787  0.5662
  457TMC3    C5 6858   0.349   2.591  16.748 -0.4696 -0.5553  0.0713
  457TMC3    C6 6859   0.261   2.677  16.806 -0.4491  0.0797 -0.1590
  457TMC3     C 6860   0.274   2.671  16.391 -0.1647  0.5328  0.7805
  457TMC3     O 6861   0.214   2.763  16.339  0.3437 -0.0164  0.3397
  457TMC3     H 6862   0.145   2.850  16.544  0.3216  0.9434 -0.7953
  457TMC3    H1 6863   0.433   2.522  16.559 -2.2796 -0.5730 -1.2578
  457TMC3    H2 6864   0.264   2.684  16.914 -0.0502 -2.7598  0.0144
  457TMC3    C7 6865   0.464   2.567  16.834  0.1122  0.1333  0.4946
  457TMC3    C8 6866   0.236   2.900  16.796  0.0016  0.0983  0.4487
  457TMC3    O1 6867   0.436   2.519  16.947 -0.4543 -0.2017  0.1446
  457TMC3    O2 6868   0.333   2.892  16.867 -0.1774 -0.1915  0.1651
  458MPD2     C 6869   3.454   1.923  12.776 -0.4977 -0.1562  0.2596
  458MPD2    C1 6870   3.375   1.816  12.805 -0.2254 -0.6176 -0.3008
  458MPD2    C2 6871   3.241   1.821  12.776 -0.1322 -0.2498  0.6747
  458MPD2    C3 6872   3.179   1.928  12.711 -1.0296 -0.2845 -0.3671
  458MPD2    C4 6873   3.259   2.040  12.684 -0.2680 -0.0869  0.0394
  458MPD2    C5 6874   3.394   2.036  12.725  0.1451  0.3942  0.4766
  458MPD2     H 6875   3.182   1.734  12.802  0.0434 -0.6640 -0.3188
  458MPD2    H1 6876   3.211   2.125  12.638  0.1062 -0.7555 -1.5641
  458MPD2    H2 6877   3.557   1.929  12.808  0.2950 -0.1060 -2.2887
  458MPD2    H3 6878   3.458   2.122  12.709  0.2882 -0.1629 -1.9195
  458MPD2     N 6879   3.049   1.906  12.661  0.4806  0.0805 -0.3718
  458MPD2    H5 6880   3.002   1.817  12.675  1.0109 -0.0956  0.2746
  458MPD2    N1 6881   3.450   1.706  12.856 -0.7809  0.1468 -0.5154
  458MPD2    H7 6882   3.551   1.710  12.854 -0.7485 -0.2328  0.2373
  459TMC3    C1 6883   3.469   1.480  12.920 -0.3585  0.4537  0.2084
  459TMC3    C2 6884   3.551   1.465  12.815 -0.1578  0.0047  0.5885
  459TMC3    C3 6885   3.586   1.342  12.785 -0.4357 -0.1148  0.2666
  459TMC3    C4 6886   3.418   1.370  12.982  0.1841  0.8713  0.4337
  459TMC3    C5 6887   3.468   1.244  12.956  0.4601 -0.0098 -0.6490
  459TMC3    C6 6888   3.565   1.230  12.856  0.4230  0.6060 -0.1586
  459TMC3     C 6889   3.384   1.600  12.921  0.2521 -0.6418 -0.5481
  459TMC3     O 6890   3.270   1.602  12.965 -0.5923  0.5323  0.4976
  459TMC3     H 6891   3.596   1.545  12.757 -0.2421 -1.1063 -0.9908
  459TMC3    H1 6892   3.334   1.384  13.048  0.2459  1.0132  0.4834
  459TMC3    H2 6893   3.609   1.134  12.828  1.3057  0.2782  2.3950
  459TMC3    C7 6894   3.467   1.145  13.066  0.6904  0.5369  0.3110
  459TMC3    C8 6895   3.685   1.336  12.680 -0.2179 -0.3561 -0.4123
  459TMC3    O1 6896   3.542   1.050  13.038 -0.0657 -0.5439  0.5621
  459TMC3    O2 6897   3.772   1.422  12.675 -0.6696  0.3480 -0.9247
  460MPD2     C 6898   2.181   4.425  11.096 -0.2907 -0.0780 -0.1275
  460MPD2    C1 6899   2.170   4.288  11.089  0.2426  0.0146  0.1434
  460MPD2    C2 6900   2.087   4.231  10.987  0.5559  0.3728  0.4101
  460MPD2    C3 6901   2.045   4.309  10.888 -0.6061 -0.1144  0.2463
  460MPD2    C4 6902   2.067   4.447  10.892  0.6125 -0.1945  0.1324
  460MPD2    C5 6903   2.135   4.504  10.999 -0.0502 -0.1196  0.7126
  460MPD2     H 6904   2.054   4.127  10.993 -0.0961  0.6823  2.1106
  460MPD2    H1 6905   2.034   4.516  10.816  1.3568  0.2621  0.2223
  460MPD2    H2 6906   2.239   4.469  11.176  1.5737  0.2457 -1.6534
  460MPD2    H3 6907   2.160   4.609  11.014 -1.3054  0.4551 -1.3049
  460MPD2     N 6908   1.964   4.256  10.776  0.2439  0.1525 -0.1915
  460MPD2    H5 6909   1.930   4.163  10.795 -1.1220  1.1346  2.1178
  460MPD2    N1 6910   2.241   4.219  11.193 -0.2531 -0.1311 -0.6110
  460MPD2    H7 6911   2.302   4.275  11.252 -2.7823  1.6482  0.3221
  461TMC3    C1 6912   1.818   4.249  10.581 -0.0979  0.0155 -0.6786
  461TMC3    C2 6913   1.857   4.129  10.534  0.2983  0.0990 -0.3758
  461TMC3    C3 6914   1.827   4.091  10.407  0.1788 -0.3608 -0.4192
  461TMC3    C4 6915   1.753   4.337  10.501  0.2798 -0.3195 -0.6809
  461TMC3    C5 6916   1.739   4.309  10.368 -0.0530 -0.7816 -0.4936
  461TMC3    C6 6917   1.784   4.188  10.319  0.4008 -0.3939 -0.6382
  461TMC3     C 6918   1.910   4.324  10.667 -0.1848 -0.3730  0.0177
  461TMC3     O 6919   1.929   4.435  10.621 -0.3238  0.2043  0.0812
  461TMC3     H 6920   1.892   4.055  10.605 -2.1460  1.2478  2.0059
  461TMC3    H1 6921   1.706   4.425  10.544 -1.7115 -1.0935 -1.2874
  461TMC3    H2 6922   1.779   4.173  10.212 -0.7100  0.1429 -0.6653
  461TMC3    C7 6923   1.736   4.422  10.276  0.7047 -0.4519 -1.4332
  461TMC3    C8 6924   1.891   3.967  10.363 -0.2166 -0.1602 -0.2948
  461TMC3    O1 6925   1.684   4.411  10.166 -0.8744  0.2046 -0.2107
  461TMC3    O2 6926   1.954   3.904  10.449 -0.7071  0.1338 -0.1453
  462TMC3    C1 6927   2.186   0.605   0.331  0.5031  0.0740  0.1015
  462TMC3    C2 6928   2.285   0.557   0.260 -0.6820 -0.6371 -0.8854
  462TMC3    C3 6929   2.298   0.420   0.247 -0.2678 -0.2041  0.2444
  462TMC3    C4 6930   2.087   0.527   0.384  0.1781 -0.3306  0.3902
  462TMC3    C5 6931   2.102   0.392   0.365  0.1050  0.0452 -0.1863
  462TMC3    C6 6932   2.211   0.334   0.306 -0.5361 -0.2376 -0.4113
  462TMC3     C 6933   2.171   0.751   0.355 -0.1833 -0.1512 -0.1695
  462TMC3     O 6934   2.275   0.814   0.349 -0.1898 -0.0455  0.4986
  462TMC3     H 6935   2.354   0.628   0.217  1.4872 -2.7173 -0.8660
  462TMC3    H1 6936   2.010   0.567   0.449  0.1710  1.2229 -0.5637
  462TMC3    H2 6937   2.215   0.226   0.303 -0.9134 -0.2876  0.7881
  462TMC3    C7 6938   1.994   0.289   0.394  0.4575  0.2073  0.3204
  462TMC3    C8 6939   2.364   0.373   0.127 -0.4484  0.4520  0.2439
  462TMC3    O1 6940   2.028   0.177   0.433 -0.1991  0.4155 -0.3779
  462TMC3    O2 6941   2.411   0.462   0.055  0.1436  0.2350  0.6300
  463MPD2     C 6942   4.003   3.224   1.501  0.2283  0.0562  0.1621
  463MPD2    C1 6943   3.893   3.308   1.508  0.3230  0.1774 -0.3893
  463MPD2    C2 6944   3.910   3.448   1.503  0.0095 -0.3167  0.3708
  463MPD2    C3 6945   4.030   3.509   1.508 -0.2520 -0.1152 -0.5582
  463MPD2    C4 6946   4.139   3.429   1.498 -0.0183 -0.5942 -0.1643
  463MPD2    C5 6947   4.125   3.286   1.485  0.1491  0.3480 -0.0637
  463MPD2     H 6948   3.823   3.513   1.504  1.2375  1.3393 -0.9443
  463MPD2    H1 6949   4.238   3.472   1.512 -0.3841  0.1415  0.1682
  463MPD2    H2 6950   4.011   3.116   1.500 -0.4367  0.0223 -1.7989
  463MPD2    H3 6951   4.219   3.232   1.486 -0.8319 -1.3802 -0.8401
  463MPD2     N 6952   4.053   3.655   1.513  0.4613 -0.0392 -0.0581
  463MPD2    H5 6953   4.149   3.687   1.525  0.0349  0.9024  0.8901
  463MPD2    N1 6954   3.760   3.263   1.524  0.3705  0.6952  0.1625
  463MPD2    H7 6955   3.685   3.331   1.527  1.3486  1.7076  1.6709
  464TMC3    C1 6956   3.582   3.112   1.536  0.0747 -0.1410 -0.5225
  464TMC3    C2 6957   3.492   3.214   1.559  0.1288 -0.0491  0.2383
  464TMC3    C3 6958   3.358   3.180   1.569  0.1158 -0.7567 -0.3862
  464TMC3    C4 6959   3.540   2.984   1.518 -0.6880 -0.2727  0.4737
  464TMC3    C5 6960   3.406   2.958   1.523  0.3478  0.3568 -0.2742
  464TMC3    C6 6961   3.306   3.055   1.545 -0.3290  0.2198  0.4563
  464TMC3     C 6962   3.717   3.134   1.494 -0.2261 -0.0821  0.0028
  464TMC3     O 6963   3.783   3.041   1.450  0.0133 -0.5439 -0.2094
  464TMC3     H 6964   3.518   3.319   1.557 -1.4432  0.3401  0.5894
  464TMC3    H1 6965   3.606   2.897   1.516 -1.7770 -1.1046  0.9631
  464TMC3    H2 6966   3.204   3.024   1.566 -0.2094  0.1506  0.9504
  464TMC3    C7 6967   3.360   2.842   1.444  0.5533 -0.1777 -0.9062
  464TMC3    C8 6968   3.268   3.268   1.631 -0.1033 -0.1036  0.7369
  464TMC3    O1 6969   3.449   2.772   1.391 -0.6663  0.1292  0.2287
  464TMC3    O2 6970   3.149   3.250   1.613  0.2074  0.6486 -0.1863
  465MPD2     C 6971   4.619   3.033  17.139  0.2558  0.0294 -0.1623
  465MPD2    C1 6972   4.524   2.930  17.138 -0.9424 -1.1325 -0.0789
  465MPD2    C2 6973   4.491   2.868  17.017 -0.1304 -0.4736  0.8511
  465MPD2    C3 6974   4.544   2.902  16.896  0.1258 -0.4506 -0.2100
  465MPD2    C4 6975   4.632   3.007  16.894  0.3812  0.2715  0.3348
  465MPD2    C5 6976   4.662   3.069  17.008  0.4702  0.4169  0.7110
  465MPD2     H 6977   4.422   2.785  17.021 -2.5278  1.4568  0.0072
  465MPD2    H1 6978   4.675   3.042  16.801 -0.7079 -3.0101 -1.3824
  465MPD2    H2 6979   4.655   3.090  17.223  1.5311 -0.7742 -0.1610
  465MPD2    H3 6980   4.737   3.147  17.004 -0.8621  1.7489  1.3291
  465MPD2     N 6981   4.497   2.826  16.781 -0.2783 -0.1873  0.9895
  465MPD2    H5 6982   4.405   2.783  16.788 -0.3868 -0.0201  0.6078
  465MPD2    N1 6983   4.464   2.883  17.251 -0.5689 -0.3073  0.1633
  465MPD2    H7 6984   4.400   2.804  17.242  1.2432 -1.7104 -0.5240
  466TMC3    C1 6985   4.230   2.790  16.487  0.1502 -0.5805  0.8564
  466TMC3    C2 6986   4.235   2.879  16.383 -0.3947 -0.1027 -0.2172
  466TMC3    C3 6987   4.344   2.964  16.376 -1.0310  0.5677 -1.0715
  466TMC3    C4 6988   4.341   2.765  16.567  0.7098  0.1775  0.7563
  466TMC3    C5 6989   4.453   2.843  16.545  0.4998 -0.4456 -0.4681
  466TMC3    C6 6990   4.458   2.946  16.453 -0.2910 -0.2128  0.3772
  466TMC3     C 6991   4.105   2.755  16.549 -0.7756 -0.0574 -0.1502
  466TMC3     O 6992   4.114   2.706  16.661  0.2078  0.2427 -0.0909
  466TMC3     H 6993   4.146   2.905  16.326  0.1469 -0.6136 -1.2815
  466TMC3    H1 6994   4.353   2.684  16.638  0.1465 -1.9469 -1.6016
  466TMC3    H2 6995   4.541   3.015  16.444  1.2292 -2.2305 -0.7710
  466TMC3    C7 6996   4.543   2.859  16.653 -0.3957  0.0146  0.5258
  466TMC3    C8 6997   4.316   3.100  16.342  0.1893 -0.0864  0.0450
  466TMC3    O1 6998   4.658   2.897  16.623 -0.0474  0.0852  0.3977
  466TMC3    O2 6999   4.277   3.116  16.230  0.4957  0.0273  0.1783
  467TMC3    C1 7000   0.946   1.098  13.998  0.3032 -0.4212 -0.6809
  467TMC3    C2 7001   0.911   1.106  13.869  0.8513  0.1257 -0.6476
  467TMC3    C3 7002   0.800   1.037  13.837  0.1035  0.4449  0.0204
  467TMC3    C4 7003   0.882   1.020  14.084 -0.0962  0.1842 -0.5358
  467TMC3    C5 7004   0.768   0.958  14.045 -0.4772  0.0479  0.6573
  467TMC3    C6 7005   0.718   0.967  13.922 -0.1662  0.5305  0.5832
  467TMC3     C 7006   1.050   1.190  14.050  0.2457  0.0196 -0.2032
  467TMC3     O 7007   1.097   1.167  14.162 -0.8378 -0.3846 -0.1294
  467TMC3     H 7008   0.966   1.162  13.794 -1.5082  1.7100 -1.1922
  467TMC3    H1 7009   0.940   0.995  14.172  0.3006  1.8696 -0.3094
  467TMC3    H2 7010   0.627   0.916  13.892  0.6622 -0.8350  0.4257
  467TMC3    C7 7011   0.721   0.842  14.130 -0.1601  0.4645 -0.0506
  467TMC3    C8 7012   0.758   1.053  13.703 -0.3408 -0.2522 -0.3599
  467TMC3    O1 7013   0.807   0.766  14.167  0.2883 -0.2278 -0.6667
  467TMC3    O2 7014   0.695   0.955  13.659  0.2749 -0.7118  0.4899
  468MPD2     C 7015   4.695   3.424  10.424 -0.6297 -0.0001 -0.2989
  468MPD2    C1 7016   4.613   3.447  10.536  0.5434 -0.2204  0.0959
  468MPD2    C2 7017   4.573   3.339  10.612  0.7649 -0.4892 -0.1879
  468MPD2    C3 7018   4.601   3.207  10.576  0.2429 -0.0648 -0.2224
  468MPD2    C4 7019   4.684   3.191  10.463  0.0374  0.9080 -0.8412
  468MPD2    C5 7020   4.721   3.298  10.383 -0.3781 -0.4188 -0.2852
  468MPD2     H 7021   4.510   3.349  10.700  0.2363  0.9221 -0.7440
  468MPD2    H1 7022   4.713   3.089  10.438 -0.4121  0.4946  0.3400
  468MPD2    H2 7023   4.722   3.501  10.352  1.4307  1.2898  1.8842
  468MPD2    H3 7024   0.031   3.287  10.286  0.5350  1.9775 -0.1029
  468MPD2     N 7025   4.558   3.092  10.652 -0.2686 -0.5033 -0.7763
  468MPD2    H5 7026   4.607   3.004  10.641  1.1740 -0.0340  1.8348
  468MPD2    N1 7027   4.592   3.578  10.583 -0.5861  0.0553 -0.6749
  468MPD2    H7 7028   4.532   3.597  10.663  1.6255  2.0378  0.5037
  469TMC3    C1 7029   4.629   3.809  10.619 -0.7093  0.6029  0.7130
  469TMC3    C2 7030   4.731   3.899  10.627  0.7789  0.0435 -0.3203
  469TMC3    C3 7031   4.738   3.982  10.730  0.0315  0.0890 -0.9733
  469TMC3    C4 7032   4.517   3.813  10.694  0.2836  1.1999 -0.5901
  469TMC3    C5 7033   4.520   3.908  10.797  0.3036  0.1998 -0.6113
  469TMC3    C6 7034   4.634   3.987  10.819 -0.2643 -0.3736 -0.3312
  469TMC3     C 7035   4.650   3.690  10.539  0.3276  0.3071  0.5178
  469TMC3     O 7036   0.003   3.702  10.457  0.1091  0.4923 -0.3915
  469TMC3     H 7037   0.079   3.882  10.563 -0.1624  0.4727 -1.7217
  469TMC3    H1 7038   4.429   3.751  10.678  1.7567 -1.2765  0.9080
  469TMC3    H2 7039   4.624   4.081  10.870  0.2206  0.7495 -2.2955
  469TMC3    C7 7040   4.394   3.921  10.876  0.3622 -0.2377  0.8626
  469TMC3    C8 7041   0.133   4.009  10.776 -0.4421  0.2478  0.1245
  469TMC3    O1 7042   4.293   3.869  10.839  0.3947  0.1656 -0.3387
  469TMC3    O2 7043   0.211   4.029  10.685  0.3417 -0.5532  0.4871
  470TMC3    C1 7044   1.336   0.452   0.498 -0.4118 -1.0385 -0.2825
  470TMC3    C2 7045   1.444   0.524   0.551 -0.5943 -0.2886 -0.2439
  470TMC3    C3 7046   1.519   0.469   0.651  0.1124  0.4633  0.2874
  470TMC3    C4 7047   1.307   0.329   0.540  0.3070  0.9386  0.3768
  470TMC3    C5 7048   1.381   0.284   0.650  0.4807  0.4850 -0.3718
  470TMC3    C6 7049   1.495   0.344   0.693  0.3595 -0.0940 -0.0675
  470TMC3     C 7050   1.268   0.505   0.384  0.9754  1.1816  0.5721
  470TMC3     O 7051   1.227   0.427   0.304 -0.1569 -0.1301  0.5666
  470TMC3     H 7052   1.475   0.621   0.515 -0.1942  0.0462  1.0044
  470TMC3    H1 7053   1.233   0.274   0.484 -1.2119  1.8451  1.4807
  470TMC3    H2 7054   1.556   0.287   0.763 -3.1434 -1.0907  2.2175
  470TMC3    C7 7055   1.303   0.204   0.739  0.6452 -0.4323  1.2717
  470TMC3    C8 7056   1.652   0.536   0.667  0.0019 -0.4793 -0.1925
  470TMC3    O1 7057   1.180   0.197   0.723  0.0374  0.6769  0.0859
  470TMC3    O2 7058   1.679   0.636   0.603 -0.4223 -0.0487 -0.2904
  471MPD2     C 7059   2.214   1.287  16.711  0.6834 -0.4326  0.1743
  471MPD2    C1 7060   2.157   1.193  16.794 -0.1429  0.2678  0.6328
  471MPD2    C2 7061   2.208   1.159  16.920  0.2309  0.4089  0.1996
  471MPD2    C3 7062   2.331   1.208  16.952  0.0732 -0.6318  0.1784
  471MPD2    C4 7063   2.389   1.305  16.867  0.6571 -0.2836 -0.7596
  471MPD2    C5 7064   2.330   1.342  16.748 -0.1906  0.6952  0.4576
  471MPD2     H 7065   2.161   1.085  16.983 -1.3495 -0.1264 -1.5957
  471MPD2    H1 7066   2.483   1.344  16.904 -0.4983 -0.0541  1.9618
  471MPD2    H2 7067   2.190   1.295  16.606 -1.2677  2.9255  0.8636
  471MPD2    H3 7068   2.386   1.409  16.685  1.6976  1.1182  2.5731
  471MPD2     N 7069   2.404   1.177  17.071  0.1244  0.3630  0.1196
  471MPD2    H5 7070   2.495   1.222  17.073  0.7578 -0.8535 -1.6106
  471MPD2    N1 7071   2.041   1.122  16.746 -0.1121  0.6282  0.1160
  471MPD2    H7 7072   2.022   1.040  16.803  1.9135 -0.1922 -0.3949
  472TMC3    C1 7073   1.882   1.041  16.596  0.4456  0.2963  0.2153
  472TMC3    C2 7074   1.774   1.081  16.513  0.2467 -0.1134 -0.8512
  472TMC3    C3 7075   1.689   0.981  16.467 -0.8299 -0.4141  0.1969
  472TMC3    C4 7076   1.918   0.914  16.623  0.6188  0.3034  0.5897
  472TMC3    C5 7077   1.839   0.818  16.568 -0.3027  0.1901 -0.7632
  472TMC3    C6 7078   1.727   0.846  16.492  0.7503 -0.0669  0.4320
  472TMC3     C 7079   1.969   1.146  16.633  0.2991  0.2731  0.1395
  472TMC3     O 7080   1.963   1.246  16.564  0.6482  0.0062 -0.4154
  472TMC3     H 7081   1.743   1.181  16.486  1.1622  0.0379 -1.3542
  472TMC3    H1 7082   2.007   0.886  16.678  1.5108  1.6811 -0.1595
  472TMC3    H2 7083   1.661   0.766  16.460  0.3749  0.6448 -0.5715
  472TMC3    C7 7084   1.867   0.683  16.601  0.2498  0.1357 -0.4186
  472TMC3    C8 7085   1.582   1.017  16.373  0.0500  0.0457  0.4897
  472TMC3    O1 7086   1.940   0.654  16.704  0.6253 -0.0367 -0.2025
  472TMC3    O2 7087   1.603   1.104  16.287 -0.5778  0.1977 -0.1948
  473MPD2     C 7088   1.993   3.442  14.323  0.2850 -0.2986 -0.0740
  473MPD2    C1 7089   2.050   3.522  14.226  1.2126  0.1599 -0.5353
  473MPD2    C2 7090   2.134   3.624  14.269  0.5414  0.0891 -0.4097
  473MPD2    C3 7091   2.141   3.655  14.403  0.1422 -0.4159 -0.1323
  473MPD2    C4 7092   2.073   3.583  14.497  0.1392  0.5893  0.2107
  473MPD2    C5 7093   2.011   3.468  14.457 -0.2617  0.4693  0.1522
  473MPD2     H 7094   2.181   3.690  14.197  0.6009 -0.0548 -0.5016
  473MPD2    H1 7095   2.081   3.608  14.602  2.5600 -0.0840  0.1853
  473MPD2    H2 7096   1.938   3.351  14.303 -2.4620  1.4607 -0.5799
  473MPD2    H3 7097   1.979   3.391  14.526  2.4980  0.0399  0.9569
  473MPD2     N 7098   2.220   3.762  14.453  0.0185 -0.1765  0.4282
  473MPD2    H5 7099   2.201   3.780  14.551  0.8135 -0.7598  0.6825
  473MPD2    N1 7100   2.042   3.486  14.087  0.0932  0.4111  0.3717
  473MPD2    H7 7101   2.076   3.554  14.020 -0.7529  0.0789 -0.3847
  474TMC3    C1 7102   2.382   3.936  14.466  0.3073  0.5424 -0.5169
  474TMC3    C2 7103   2.457   4.022  14.396 -0.7628 -0.6403  0.0740
  474TMC3    C3 7104   2.508   4.136  14.450 -0.4604  0.1513 -0.9994
  474TMC3    C4 7105   2.334   3.962  14.590  0.3771  0.7145  0.3475
  474TMC3    C5 7106   2.385   4.081  14.638 -0.0751 -0.1294 -0.2840
  474TMC3    C6 7107   2.474   4.170  14.578 -0.3409  0.0695  0.2026
  474TMC3     C 7108   2.308   3.843  14.383 -0.2189  0.6695 -0.1305
  474TMC3     O 7109   2.338   3.835  14.264 -0.1717  0.1223 -0.5353
  474TMC3     H 7110   2.484   3.987  14.297 -0.1285  0.8212 -0.2716
  474TMC3    H1 7111   2.262   3.902  14.644 -0.4792 -0.0230 -1.6295
  474TMC3    H2 7112   2.495   4.268  14.620 -0.2594 -1.6451  4.1473
  474TMC3    C7 7113   2.345   4.114  14.776 -0.6415 -0.2548 -0.2756
  474TMC3    C8 7114   2.594   4.212  14.364  0.5139 -0.2235 -0.3493
  474TMC3    O1 7115   2.246   4.060  14.824  0.2185 -0.2330  0.0726
  474TMC3    O2 7116   2.607   4.168  14.250 -0.5744 -0.3808 -0.6368
  475MPD2     C 7117   0.648   1.111  10.324 -0.2676 -0.2179  0.1893
  475MPD2    C1 7118   0.664   1.226  10.401  0.0944 -0.4220 -0.1091
  475MPD2    C2 7119   0.564   1.259  10.489  0.0618  0.8142 -0.2536
  475MPD2    C3 7120   0.445   1.193  10.494  0.0721  0.4608  0.0341
  475MPD2    C4 7121   0.427   1.080  10.413  0.0005 -0.0955  0.2172
  475MPD2    C5 7122   0.529   1.040  10.331 -0.6892  0.4348  0.0255
  475MPD2     H 7123   0.586   1.333  10.565  0.2722  0.6318 -0.1363
  475MPD2    H1 7124   0.338   1.018  10.416  2.3010 -3.4659 -0.8917
  475MPD2    H2 7125   0.731   1.071  10.267 -0.2931  0.4816 -0.3397
  475MPD2    H3 7126   0.525   0.954  10.266 -1.2760  0.0371  0.5906
  475MPD2     N 7127   0.351   1.240  10.584  0.1527 -0.8599 -0.6549
  475MPD2    H5 7128   0.380   1.313  10.648  0.6343 -0.8741 -0.8597
  475MPD2    N1 7129   0.784   1.294  10.407  0.7388  0.9108  0.2440
  475MPD2    H7 7130   0.790   1.374  10.469  2.2680 -0.1616  1.4790
  476TMC3    C1 7131   0.941   1.425  10.318 -0.6225  0.4663 -0.2050
  476TMC3    C2 7132   0.840   1.517  10.285 -0.3171 -0.5205 -0.4953
  476TMC3    C3 7133   0.840   1.632  10.362 -0.3002  0.2562 -1.0887
  476TMC3    C4 7134   1.023   1.440  10.421  0.1775 -0.1465  0.8345
  476TMC3    C5 7135   1.010   1.560  10.494  0.2197 -0.6643 -0.1231
  476TMC3    C6 7136   0.924   1.657  10.466 -0.0081  0.3740  1.1108
  476TMC3     C 7137   0.889   1.291  10.314 -0.6758  0.0202  0.9323
  476TMC3     O 7138   0.904   1.216  10.221  0.5965 -0.0789 -0.2185
  476TMC3     H 7139   0.783   1.509  10.194 -1.9035  0.7789  0.3814
  476TMC3    H1 7140   1.084   1.355  10.449 -0.2219 -1.0346 -1.0318
  476TMC3    H2 7141   0.907   1.742  10.531 -2.1977  0.8055 -0.0347
  476TMC3    C7 7142   1.125   1.592  10.569 -0.1009  0.1376  0.2614
  476TMC3    C8 7143   0.712   1.695  10.378 -0.1183 -0.8134  0.3167
  476TMC3    O1 7144   1.228   1.522  10.547  0.5264 -0.2829 -0.1742
  476TMC3    O2 7145   0.698   1.793  10.446 -0.1419 -0.3527 -0.6810
  477MPD2     C 7146   2.985   3.119  11.891  0.1697 -0.2242  0.3657
  477MPD2    C1 7147   2.879   3.065  11.957 -0.2455  0.4909  0.2820
  477MPD2    C2 7148   2.895   2.961  12.055 -0.0691 -0.4492 -0.5263
  477MPD2    C3 7149   3.023   2.926  12.100 -1.4316  0.2099 -0.7503
  477MPD2    C4 7150   3.133   2.985  12.035 -0.2127 -0.4631 -0.5311
  477MPD2    C5 7151   3.105   3.071  11.927 -0.2727  0.1675 -0.1612
  477MPD2     H 7152   2.812   2.906  12.098  0.3796  0.5720  1.6353
  477MPD2    H1 7153   3.237   2.970  12.062 -0.3260  0.4458  0.4259
  477MPD2    H2 7154   2.975   3.190  11.810 -1.1059 -1.8681 -0.9506
  477MPD2    H3 7155   3.187   3.097  11.861  1.7983  0.2799  2.4165
  477MPD2     N 7156   3.040   2.828  12.200 -0.1710 -0.1484  0.4810
  477MPD2    H5 7157   2.961   2.813  12.262 -1.6533 -0.5318 -1.4966
  477MPD2    N1 7158   2.753   3.104  11.908 -0.0766 -0.0248  0.6586
  477MPD2    H7 7159   2.754   3.181  11.843 -1.2347 -2.1374 -1.8424
  478TMC3    C1 7160   2.520   3.149  11.901  0.3610 -0.2601 -0.4836
  478TMC3    C2 7161   2.434   3.194  12.000 -0.3082  0.2523  0.0404
  478TMC3    C3 7162   2.363   3.309  11.969 -0.7178 -0.2302 -0.0262
  478TMC3    C4 7163   2.539   3.222  11.789 -0.1274 -0.6983  0.3911
  478TMC3    C5 7164   2.441   3.307  11.755 -0.1772 -0.0984 -0.7178
  478TMC3    C6 7165   2.364   3.365  11.849 -0.2861  0.7613 -0.4100
  478TMC3     C 7166   2.628   3.062  11.953 -0.1083 -1.0664  0.4587
  478TMC3     O 7167   2.606   2.977  12.045 -0.3877 -0.1924 -0.3814
  478TMC3     H 7168   2.439   3.145  12.097 -0.3667  0.6132  0.2241
  478TMC3    H1 7169   2.607   3.182  11.714 -0.7566 -0.0902 -0.4999
  478TMC3    H2 7170   2.306   3.451  11.818 -0.0382  1.0006 -0.2035
  478TMC3    C7 7171   2.461   3.369  11.628  0.2364 -0.2223  0.1309
  478TMC3    C8 7172   2.288   3.377  12.080  0.3353  0.2904  0.1404
  478TMC3    O1 7173   2.577   3.372  11.588  0.1130 -0.6605  0.6205
  478TMC3    O2 7174   2.219   3.306  12.148 -0.2111 -0.4347 -0.8014
  479MPD2     C 7175   2.316   0.587  14.951 -0.2052 -0.9239 -0.2213
  479MPD2    C1 7176   2.227   0.513  15.036 -0.0557  0.3550 -0.5076
  479MPD2    C2 7177   2.230   0.538  15.171 -0.2438 -0.3774  0.7706
  479MPD2    C3 7178   2.326   0.627  15.228  0.0513  0.0118  1.0051
  479MPD2    C4 7179   2.414   0.692  15.143 -0.0013 -0.1646 -0.0638
  479MPD2    C5 7180   2.406   0.672  15.008 -0.0920 -0.4230  0.0375
  479MPD2     H 7181   2.156   0.506  15.243 -0.1204 -0.6487  0.7807
  479MPD2    H1 7182   2.479   0.769  15.182  2.2484 -0.1896 -3.7935
  479MPD2    H2 7183   2.311   0.581  14.843  0.2329  1.4212 -0.3776
  479MPD2    H3 7184   2.468   0.736  14.946 -1.4108 -1.5708 -2.4639
  479MPD2     N 7185   2.334   0.661  15.365  0.3528  0.1413  0.6676
  479MPD2    H5 7186   2.394   0.739  15.393  1.1125 -0.3722  0.4559
  479MPD2    N1 7187   2.126   0.435  14.976  0.0671 -0.3449  0.8104
  479MPD2    H7 7188   2.131   0.430  14.874 -1.5724  0.0161  0.7189
  480TMC3    C1 7189   2.052   0.694  15.724 -0.5457 -0.4118  0.0024
  480TMC3    C2 7190   2.017   0.819  15.678  0.1188  0.0700  0.0228
  480TMC3    C3 7191   2.097   0.877  15.581  0.5514 -1.0389  0.2514
  480TMC3    C4 7192   2.163   0.632  15.673 -0.5107  0.3683  0.3280
  480TMC3    C5 7193   2.238   0.692  15.581 -0.0819 -0.0765 -0.3629
  480TMC3    C6 7194   2.203   0.813  15.533 -0.2624  0.8140 -0.5658
  480TMC3     C 7195   1.954   0.609  15.787  0.4826  1.0124 -0.6163
  480TMC3     O 7196   1.967   0.489  15.770  0.2893  0.0147 -0.9061
  480TMC3     H 7197   1.920   0.865  15.692  0.4211  1.5564 -2.7625
  480TMC3    H1 7198   2.183   0.530  15.702  0.8606  0.2694 -0.9417
  480TMC3    H2 7199   2.264   0.861  15.457 -1.4220 -0.6748 -2.4407
  480TMC3    C7 7200   2.273   0.597  15.472 -0.0895  0.0373 -0.5731
  480TMC3    C8 7201   2.012   0.954  15.488  0.2221  0.0627 -0.0634
  480TMC3    O1 7202   2.219   0.490  15.477 -0.2951 -0.4495 -0.4284
  480TMC3    O2 7203   1.925   1.029  15.530  0.0494 -0.0730 -0.0502
  481MPD2     C 7204   3.832   0.490  14.380  0.1240 -0.1767  0.1165
  481MPD2    C1 7205   3.711   0.463  14.451  0.7262 -0.2364 -0.1371
  481MPD2    C2 7206   3.708   0.397  14.575  0.5100 -0.3088 -0.6760
  481MPD2    C3 7207   3.826   0.355  14.625 -0.4205 -0.3454  0.2140
  481MPD2    C4 7208   3.945   0.385  14.566 -0.0940  0.2972 -0.0651
  481MPD2    C5 7209   3.943   0.449  14.445  0.1525 -1.0421 -0.2779
  481MPD2     H 7210   3.615   0.388  14.630  1.4230 -0.0936  0.8988
  481MPD2    H1 7211   4.037   0.350  14.611  0.2537  1.5559  0.1872
  481MPD2    H2 7212   3.830   0.537  14.283  0.6550 -0.0088  0.1909
  481MPD2    H3 7213   4.041   0.466  14.402  0.2662  0.9867  0.7729
  481MPD2     N 7214   3.829   0.269  14.735  0.1735 -0.6807 -0.1499
  481MPD2    H5 7215   3.922   0.233  14.756  0.6606  0.1244 -0.9577
  481MPD2    N1 7216   3.590   0.493  14.384  0.0170  0.3603  0.2987
  481MPD2    H7 7217   3.610   0.542  14.297 -0.5994 -2.3720 -1.3818
  482TMC3    C1 7218   3.365   0.504  14.329  0.6621  0.1717  0.0892
  482TMC3    C2 7219   3.258   0.423  14.322 -0.5298 -0.1078  0.5191
  482TMC3    C3 7220   3.175   0.422  14.210 -0.6211  0.6279 -0.5337
  482TMC3    C4 7221   3.393   0.591  14.229 -0.2605  0.5301 -0.1404
  482TMC3    C5 7222   3.309   0.582  14.118 -0.0478  0.1413  0.0680
  482TMC3    C6 7223   3.209   0.494  14.101  0.6763 -0.1564 -0.6956
  482TMC3     C 7224   3.464   0.454  14.421 -0.0397  0.0992 -0.4348
  482TMC3     O 7225   3.432   0.355  14.484 -0.2156  0.4466 -0.4600
  482TMC3     H 7226   3.230   0.353  14.400 -3.8531  0.2410 -0.3762
  482TMC3    H1 7227   3.471   0.665  14.240 -0.4819  0.6550  0.6522
  482TMC3    H2 7228   3.169   0.479  14.001 -4.7018  0.8343  1.3466
  482TMC3    C7 7229   3.336   0.670  14.006 -0.3105 -0.3579 -0.1144
  482TMC3    C8 7230   3.109   0.295  14.196 -0.0992 -0.0591 -0.2797
  482TMC3    O1 7231   3.345   0.787  14.042 -0.2221 -0.3773  0.0210
  482TMC3    O2 7232   3.145   0.204  14.272  0.7347  0.3946 -0.5099
  483TMC3    C1 7233   1.114   3.827   1.233 -0.1659 -0.3149 -0.0179
  483TMC3    C2 7234   1.196   3.917   1.184  0.2857  0.5472 -0.6173
  483TMC3    C3 7235   1.333   3.908   1.210 -0.3939 -0.7726 -0.5617
  483TMC3    C4 7236   1.159   3.736   1.322  0.6149 -0.2662 -0.1952
  483TMC3    C5 7237   1.294   3.733   1.358 -0.1731 -0.2909 -0.2901
  483TMC3    C6 7238   1.384   3.818   1.304 -0.1096  0.2651 -0.7215
  483TMC3     C 7239   0.969   3.828   1.195 -0.1937 -0.5222 -0.8704
  483TMC3     O 7240   0.915   3.937   1.162  0.1147  0.0990 -0.3782
  483TMC3     H 7241   1.154   3.992   1.118  1.0376  2.0969  0.6547
  483TMC3    H1 7242   1.083   3.675   1.369  1.1842 -1.2792 -0.5944
  483TMC3    H2 7243   1.490   3.798   1.314 -0.3866 -1.5138 -1.2730
  483TMC3    C7 7244   1.333   3.599   1.392  0.1458 -0.1439 -0.8225
  483TMC3    C8 7245   1.418   3.985   1.120  0.2177 -0.2017 -0.2316
  483TMC3    O1 7246   1.442   3.565   1.347 -0.3866  0.0620 -0.5381
  483TMC3    O2 7247   1.358   4.052   1.037  0.3798 -0.1788 -0.2982
  484MPD2     C 7248   3.694   1.079  12.420  0.2702  0.6368  0.5490
  484MPD2    C1 7249   3.742   1.192  12.487  0.6187 -0.1343  0.1831
  484MPD2    C2 7250   3.853   1.262  12.443  0.2527 -0.3081  0.2253
  484MPD2    C3 7251   3.913   1.221  12.325  0.1363 -0.1838  0.4473
  484MPD2    C4 7252   3.859   1.107  12.254  0.2818 -0.2455  0.1598
  484MPD2    C5 7253   3.746   1.041  12.302  0.3443  0.3366 -0.2766
  484MPD2     H 7254   3.887   1.349  12.497 -1.0311  0.8017 -0.7376
  484MPD2    H1 7255   3.904   1.068  12.164  0.0750 -0.0877 -0.0117
  484MPD2    H2 7256   3.620   1.018  12.469  0.4506  0.0794  0.1186
  484MPD2    H3 7257   3.711   0.955  12.245 -1.1286  0.0425  1.0812
  484MPD2     N 7258   4.019   1.284  12.259 -0.0020 -0.0730 -0.6266
  484MPD2    H5 7259   4.054   1.244  12.173  0.2334 -1.5659  0.1616
  484MPD2    N1 7260   3.662   1.229  12.596 -0.5051 -0.6033  0.6813
  484MPD2    H7 7261   3.579   1.172  12.612 -1.6303  0.4978 -1.1694
  485TMC3    C1 7262   4.181   1.449  12.222 -0.5882 -0.0199 -0.1572
  485TMC3    C2 7263   4.261   1.538  12.284  0.2226  0.4318  0.4960
  485TMC3    C3 7264   4.341   1.617  12.204  0.4040  0.4952 -0.7435
  485TMC3    C4 7265   4.195   1.419  12.089 -0.3004  0.1442 -0.3475
  485TMC3    C5 7266   4.281   1.500  12.013  0.3860  0.3078  0.6968
  485TMC3    C6 7267   4.340   1.609  12.064 -1.1784 -0.1715  0.3586
  485TMC3     C 7268   4.073   1.402  12.299  0.1438  0.4934 -0.8378
  485TMC3     O 7269   4.051   1.464  12.404 -0.7721  0.5656  0.3133
  485TMC3     H 7270   4.266   1.553  12.392 -0.5097  2.7311  0.2043
  485TMC3    H1 7271   4.146   1.336  12.039  0.7194  0.4157 -1.7858
  485TMC3    H2 7272   4.411   1.677  12.018  0.9512 -0.9405  2.5142
  485TMC3    C7 7273   4.339   1.445  11.894  0.9658 -0.0781  0.9296
  485TMC3    C8 7274   4.421   1.714  12.279  0.2493 -0.4951  0.2244
  485TMC3    O1 7275   4.320   1.328  11.863 -0.2142 -0.1330 -0.4035
  485TMC3    O2 7276   4.359   1.772  12.369 -0.3472 -0.4049 -0.2159
  486MPD2     C 7277   1.747   0.925  12.692 -0.1707 -0.1265  0.1392
  486MPD2    C1 7278   1.613   0.883  12.679  0.5406  0.0416  0.5507
  486MPD2    C2 7279   1.517   0.986  12.676  0.2449 -0.4994  0.5079
  486MPD2    C3 7280   1.545   1.116  12.683 -0.4770  0.0292  0.0148
  486MPD2    C4 7281   1.679   1.154  12.679 -0.2994  0.2401  0.1430
  486MPD2    C5 7282   1.775   1.055  12.693  0.5377 -0.7913  0.3749
  486MPD2     H 7283   1.415   0.951  12.675  0.1915 -0.2894 -1.9003
  486MPD2    H1 7284   1.713   1.255  12.701 -0.8447  0.7277 -1.2260
  486MPD2    H2 7285   1.821   0.848  12.709 -0.7462 -0.9022 -0.8374
  486MPD2    H3 7286   1.879   1.085  12.704 -0.0121  0.6590  1.6740
  486MPD2     N 7287   1.438   1.207  12.708 -0.4121 -0.4733  0.2575
  486MPD2    H5 7288   1.342   1.176  12.720 -0.2205 -0.7463  1.1166
  486MPD2    N1 7289   1.588   0.749  12.680  0.9358  0.3422  0.2951
  486MPD2    H7 7290   1.674   0.697  12.671  0.2358 -0.8664  0.5443
  487TMC3    C1 7291   1.482   0.539  12.662  0.6448 -0.3011 -0.7544
  487TMC3    C2 7292   1.384   0.473  12.595  0.3787 -0.0425 -0.5889
  487TMC3    C3 7293   1.381   0.335  12.604 -0.0153  0.1710 -0.1390
  487TMC3    C4 7294   1.548   0.478  12.763  0.3530 -0.4879 -0.4721
  487TMC3    C5 7295   1.532   0.337  12.779 -0.6606 -0.0476 -0.1571
  487TMC3    C6 7296   1.460   0.267  12.691  0.7116 -0.2647 -0.0006
  487TMC3     C 7297   1.468   0.681  12.675 -0.0886  0.1634  0.6372
  487TMC3     O 7298   1.355   0.729  12.667 -0.0966  0.3214  0.0876
  487TMC3     H 7299   1.320   0.532  12.532 -1.1252  0.0414  1.0227
  487TMC3    H1 7300   1.608   0.536  12.832  1.5007 -1.4076 -0.6969
  487TMC3    H2 7301   1.496   0.165  12.682  3.8770  0.9666 -1.1447
  487TMC3    C7 7302   1.509   0.308  12.923  0.5820  0.2416  0.1768
  487TMC3    C8 7303   1.242   0.293  12.624 -0.7707  0.0188  0.2737
  487TMC3    O1 7304   1.564   0.386  13.000 -0.1495  0.1587 -0.8101
  487TMC3    O2 7305   1.158   0.380  12.643  0.0466 -0.2310 -0.1464
  488MPD2     C 7306   1.385   2.374  16.156  0.1739  0.0256  0.0867
  488MPD2    C1 7307   1.488   2.413  16.238 -0.5889 -0.5671  1.0266
  488MPD2    C2 7308   1.496   2.351  16.366  0.1959 -0.2735 -0.5663
  488MPD2    C3 7309   1.413   2.245  16.405 -0.1605  0.2091 -0.7595
  488MPD2    C4 7310   1.313   2.222  16.316 -0.0039  0.0977 -0.6291
  488MPD2    C5 7311   1.294   2.282  16.192  0.0698 -0.2409 -0.0363
  488MPD2     H 7312   1.575   2.384  16.432  0.7758 -1.2738 -0.7561
  488MPD2    H1 7313   1.236   2.150  16.340  1.1634 -0.8159  0.3976
  488MPD2    H2 7314   1.372   2.421  16.059  0.5572  0.0274  0.0376
  488MPD2    H3 7315   1.212   2.257  16.126  2.0659 -0.4854 -2.4434
  488MPD2     N 7316   1.430   2.184  16.534 -0.0860  0.2814  0.4944
  488MPD2    H5 7317   1.493   2.229  16.600 -1.3854 -0.9371  2.5515
  488MPD2    N1 7318   1.583   2.517  16.212 -0.5668  0.1882 -0.3251
  488MPD2    H7 7319   1.645   2.544  16.287  1.9543  1.0153 -2.7222
  489TMC3    C1 7320   1.358   2.054  16.724  0.8769  0.6899 -0.1225
  489TMC3    C2 7321   1.463   2.091  16.792  0.1693  0.5331  0.5104
  489TMC3    C3 7322   1.461   2.091  16.930 -0.2860 -0.0503 -0.4276
  489TMC3    C4 7323   1.252   1.990  16.788  0.2417 -0.2294  0.0292
  489TMC3    C5 7324   1.256   1.988  16.922  0.6096  0.0110  0.1351
  489TMC3    C6 7325   1.356   2.043  16.994 -0.1766  0.5254  0.2727
  489TMC3     C 7326   1.335   2.092  16.590  0.1004 -0.6949 -0.0959
  489TMC3     O 7327   1.236   2.039  16.544 -0.0709  0.2694 -0.3695
  489TMC3     H 7328   1.552   2.132  16.744 -0.6467 -2.4336 -3.5409
  489TMC3    H1 7329   1.178   1.938  16.728 -0.1670 -0.2047  0.5117
  489TMC3    H2 7330   1.347   2.046  17.102  0.6489  1.5984  0.3125
  489TMC3    C7 7331   1.123   2.012  16.985  0.6184 -0.0533 -0.4893
  489TMC3    C8 7332   1.554   2.185  16.986 -0.7480  0.5556  0.5374
  489TMC3    O1 7333   1.112   2.017  17.104  0.4115 -0.1461  0.8541
  489TMC3    O2 7334   1.646   2.228  16.916 -0.8718  0.1206  0.7584
  490MPD2     C 7335   2.127   1.867  17.132 -0.5252 -0.4300 -0.2833
  490MPD2    C1 7336   2.193   1.797  17.231  0.0659  0.1284  0.4679
  490MPD2    C2 7337   2.288   1.863  17.306 -0.6422 -1.2641 -0.9180
  490MPD2    C3 7338   2.322   1.995  17.278  0.8213 -0.3233 -0.4059
  490MPD2    C4 7339   2.250   2.064  17.184  0.0829 -0.5164 -0.8861
  490MPD2    C5 7340   2.155   2.001  17.112 -0.9066 -0.3367  0.7255
  490MPD2     H 7341   2.345   1.803  17.376 -1.7757 -0.5954  0.5763
  490MPD2    H1 7342   2.272   2.164  17.150  1.9508 -0.4596  0.4745
  490MPD2    H2 7343   2.054   1.827  17.063 -0.1908 -2.3371  0.4773
  490MPD2    H3 7344   2.089   2.048  17.039  0.3394  0.6471  0.2239
  490MPD2     N 7345   2.435   2.065  17.328  0.7393  0.1169 -0.0676
  490MPD2    H5 7346   2.455   2.157  17.292  0.7121  0.9395  2.0377
  490MPD2    N1 7347   2.173   1.658  17.248  0.6425  0.2263  0.1438
  490MPD2    H7 7348   2.212   1.622  17.335  1.6170  1.9195  0.4143
  491TMC3    C1 7349   2.090   1.445  17.232  0.9898 -0.6327  0.2282
  491TMC3    C2 7350   2.080   1.418  17.359 -0.6499  0.6167 -0.1238
  491TMC3    C3 7351   2.031   1.299  17.405  0.0681 -0.5231 -0.1399
  491TMC3    C4 7352   2.045   1.358  17.136  0.3127 -0.0971 -0.7165
  491TMC3    C5 7353   2.012   1.235  17.175 -0.5710  0.4563 -0.0850
  491TMC3    C6 7354   2.009   1.200  17.312  0.2128  0.2828  0.1813
  491TMC3     C 7355   2.100   1.573  17.174 -0.6345 -0.9455  0.0364
  491TMC3     O 7356   2.050   1.599  17.064 -0.2516 -0.9034  0.0568
  491TMC3     H 7357   2.111   1.497  17.427 -0.0015 -1.9459  2.6047
  491TMC3    H1 7358   2.043   1.388  17.032 -1.1227  0.9385 -0.3904
  491TMC3    H2 7359   1.962   1.107  17.344  1.9508  0.0493  2.0290
  491TMC3    C7 7360   1.919   1.164  17.092  0.0675 -0.0815 -0.4737
  491TMC3    C8 7361   1.964   1.306  17.536  0.3122  0.3556  0.1095
  491TMC3    O1 7362   1.867   1.228  17.007 -0.4753 -0.1961 -0.1744
  491TMC3    O2 7363   1.932   1.422  17.574  0.4715  0.0407  0.1855
  492MPD2     C 7364   2.345   1.809  11.834  0.7608  0.7185  0.8881
  492MPD2    C1 7365   2.325   1.741  11.716  0.5393  0.7692 -0.1276
  492MPD2    C2 7366   2.263   1.619  11.723 -0.2518  0.2817 -0.6341
  492MPD2    C3 7367   2.227   1.562  11.848 -0.2981  0.2481  0.1116
  492MPD2    C4 7368   2.254   1.633  11.962  0.3942  0.3077 -0.2669
  492MPD2    C5 7369   2.307   1.761  11.956 -0.4311  0.2123 -0.3635
  492MPD2     H 7370   2.241   1.570  11.628  4.1581 -1.8171 -0.5621
  492MPD2    H1 7371   2.227   1.591  12.058  0.1068  0.4786 -0.2733
  492MPD2    H2 7372   2.381   1.911  11.835  0.0344  0.9635  1.7786
  492MPD2    H3 7373   2.329   1.811  12.050  1.5368  0.0071 -0.7060
  492MPD2     N 7374   2.158   1.435  11.863  0.0107  0.7284 -0.1156
  492MPD2    H5 7375   2.141   1.404  11.958  0.3020  0.0001 -0.3003
  492MPD2    N1 7376   2.370   1.806  11.601  0.3657  0.0279 -0.4068
  492MPD2    H7 7377   2.423   1.892  11.610 -1.2284  0.9314  0.2870
  493TMC3    C1 7378   2.428   1.856  11.385  0.1575  0.1621  0.3322
  493TMC3    C2 7379   2.432   1.989  11.416  0.8432 -0.2382 -0.1624
  493TMC3    C3 7380   2.509   2.075  11.335 -0.3250 -0.2754 -0.2131
  493TMC3    C4 7381   2.483   1.815  11.264 -0.6035 -0.2184  0.6515
  493TMC3    C5 7382   2.551   1.904  11.181  0.9209  0.5085 -0.1852
  493TMC3    C6 7383   2.562   2.037  11.216 -0.3884  0.0548  0.2863
  493TMC3     C 7384   2.376   1.752  11.476  0.5129 -0.1485  0.4054
  493TMC3     O 7385   2.347   1.639  11.436  0.2898  0.1696 -0.9220
  493TMC3     H 7386   2.393   2.033  11.507 -0.3302 -0.2869 -0.6407
  493TMC3    H1 7387   2.479   1.707  11.252  0.1498 -0.4874  2.9716
  493TMC3    H2 7388   2.611   2.102  11.145 -0.0556 -0.5376 -0.0321
  493TMC3    C7 7389   2.564   1.870  11.039 -0.2099 -0.5637  0.5585
  493TMC3    C8 7390   2.536   2.207  11.382 -0.7024  0.3811  0.0346
  493TMC3    O1 7391   2.632   1.947  10.973  0.3852  0.0791  0.2561
  493TMC3    O2 7392   2.543   2.219  11.507 -0.3730  0.1654  0.1346
  494TMC3    C1 7393   2.945   3.858   0.562 -0.1989 -0.6201  0.3027
  494TMC3    C2 7394   2.894   3.738   0.533  0.8347 -0.5434 -0.1586
  494TMC3    C3 7395   2.891   3.700   0.401  0.5633  0.3757 -0.0353
  494TMC3    C4 7396   2.983   3.950   0.471  0.6159 -0.0085 -0.0569
  494TMC3    C5 7397   2.974   3.907   0.343 -0.1171 -0.7634 -0.2095
  494TMC3    C6 7398   2.929   3.784   0.302  0.3292  0.2257  0.5894
  494TMC3     C 7399   2.942   3.896   0.699  0.6375 -0.3171  0.6774
  494TMC3     O 7400   2.862   3.847   0.775  0.0617 -0.1034  0.3320
  494TMC3     H 7401   2.851   3.680   0.614 -0.2872  2.9133  1.7073
  494TMC3    H1 7402   3.014   4.052   0.490 -0.5551  0.7097 -1.8896
  494TMC3    H2 7403   2.909   3.757   0.199 -0.4315 -1.5881  1.1965
  494TMC3    C7 7404   3.051   3.973   0.241  0.0548  0.5395  0.2412
  494TMC3    C8 7405   2.837   3.570   0.364 -0.1280 -0.5721  0.1076
  494TMC3    O1 7406   3.030   3.938   0.128 -0.4956  0.0181  0.1894
  494TMC3    O2 7407   2.780   3.567   0.257  0.1225 -0.3117  0.1564
  495TMC3    C1 7408   2.311   0.842  14.548 -0.3768  0.6761  0.3935
  495TMC3    C2 7409   2.233   0.905  14.451 -0.1369 -0.4465  0.3711
  495TMC3    C3 7410   2.149   1.008  14.494  0.9501  0.3065 -0.0151
  495TMC3    C4 7411   2.316   0.876  14.682  0.6596  0.2837 -0.4317
  495TMC3    C5 7412   2.224   0.980  14.712 -0.0125  0.2744  0.3354
  495TMC3    C6 7413   2.140   1.041  14.624 -0.0814  0.3833  0.3381
  495TMC3     C 7414   2.352   0.711  14.509 -0.2877 -0.9517 -0.0315
  495TMC3     O 7415   2.285   0.661  14.417 -0.2713  0.3383 -0.1897
  495TMC3     H 7416   2.222   0.862  14.352  0.6174 -2.4643  1.1613
  495TMC3    H1 7417   2.378   0.833  14.760 -0.7557 -1.4010 -0.2287
  495TMC3    H2 7418   2.080   1.128  14.647  0.6528  1.3520 -1.4633
  495TMC3    C7 7419   2.197   0.988  14.856 -0.0341  0.2878 -0.2364
  495TMC3    C8 7420   2.028   1.012  14.422 -0.1968 -0.1663  0.2661
  495TMC3    O1 7421   2.272   0.926  14.927 -0.2320  0.1434  0.5579
  495TMC3    O2 7422   1.924   1.006  14.480  0.7272 -0.4168  0.1773
  496MPD2     C 7423   4.653   1.282  15.845  0.2136 -0.3027 -0.4095
  496MPD2    C1 7424   4.577   1.233  15.744  0.2648 -0.7213  0.8663
  496MPD2    C2 7425   4.445   1.199  15.761  0.2498  0.8375  0.5849
  496MPD2    C3 7426   4.373   1.225  15.878  0.8981 -0.0762 -0.1309
  496MPD2    C4 7427   4.455   1.280  15.982 -0.0806  0.5510  0.7171
  496MPD2    C5 7428   4.592   1.304  15.958  0.4731  0.4007  0.1070
  496MPD2     H 7429   4.391   1.148  15.682  1.2258 -0.7877  0.9569
  496MPD2    H1 7430   4.413   1.301  16.079 -2.1844 -4.5727  0.9412
  496MPD2    H2 7431   0.013   1.324  15.836  0.3355 -0.2801  0.9917
  496MPD2    H3 7432   4.653   1.341  16.040  0.4841 -0.3177  0.4211
  496MPD2     N 7433   4.236   1.200  15.894 -0.5071  0.2240 -0.2252
  496MPD2    H5 7434   4.197   1.225  15.984  0.6591  0.3719  0.2476
  496MPD2    N1 7435   4.645   1.212  15.620  0.4136 -0.2959 -0.1484
  496MPD2    H7 7436   0.007   1.205  15.611  0.4966 -0.0333  0.6353
  497TMC3    C1 7437   4.017   1.156  15.839 -0.1129 -0.5936 -0.6551
  497TMC3    C2 7438   3.929   1.136  15.736 -0.3608 -0.4867  0.1754
  497TMC3    C3 7439   3.798   1.138  15.770 -0.1943 -0.1289  0.0661
  497TMC3    C4 7440   3.978   1.164  15.970  0.0616  0.3985 -0.4000
  497TMC3    C5 7441   3.850   1.167  15.997  0.4391 -0.2314  0.1471
  497TMC3    C6 7442   3.758   1.158  15.898 -0.9917  0.7319  0.1498
  497TMC3     C 7443   4.151   1.156  15.795 -0.4883 -0.8236 -0.9660
  497TMC3     O 7444   4.174   1.127  15.683 -0.2047  0.0953 -0.1670
  497TMC3     H 7445   3.960   1.128  15.633 -0.4302 -3.5720  0.3945
  497TMC3    H1 7446   4.052   1.161  16.049  1.5388 -1.8031 -1.8615
  497TMC3    H2 7447   3.653   1.159  15.925 -1.0021 -0.1568  0.1309
  497TMC3    C7 7448   3.814   1.196  16.134  0.2351 -0.1396  0.1253
  497TMC3    C8 7449   3.700   1.087  15.680 -0.5154 -0.4572  0.1322
  497TMC3    O1 7450   3.706   1.157  16.172  0.1214 -0.4130  0.4054
  497TMC3    O2 7451   3.733   1.091  15.564 -0.2229  1.1177  0.9440
  498MPD2     C 7452   0.031   1.395   9.922  0.3799  0.5896  0.0297
  498MPD2    C1 7453   4.719   1.498   9.995 -0.8238  0.0897  0.1272
  498MPD2    C2 7454   4.596   1.479  10.055 -0.2188 -0.5753  0.1712
  498MPD2    C3 7455   4.526   1.356  10.038 -0.1660  0.3772  0.1187
  498MPD2    C4 7456   4.585   1.252   9.966  0.1695 -0.2865  0.7483
  498MPD2    C5 7457   4.705   1.275   9.905 -0.4525 -0.2710 -1.0768
  498MPD2     H 7458   4.555   1.558  10.117  1.8528 -0.0681  0.8832
  498MPD2    H1 7459   4.533   1.162   9.934  2.5483 -1.1462 -0.6281
  498MPD2    H2 7460   0.115   1.404   9.854  0.9407  0.4501  0.7160
  498MPD2    H3 7461   0.007   1.196   9.843 -0.7596 -0.2883 -1.2568
  498MPD2     N 7462   4.403   1.345  10.099 -0.1099 -0.0628  0.2787
  498MPD2    H5 7463   4.364   1.427  10.144 -0.4367 -0.2258  0.2932
  498MPD2    N1 7464   0.051   1.619  10.027 -0.0474 -0.5193 -0.0313
  498MPD2    H7 7465   0.000   1.673  10.097  1.6386 -0.2497  0.9843
  499TMC3    C1 7466   0.236   1.771  10.056 -0.7306 -0.9560  0.8472
  499TMC3    C2 7467   0.369   1.789  10.050  0.5601  0.3470 -0.4318
  499TMC3    C3 7468   0.424   1.895  10.119  0.3099 -0.2561 -0.4587
  499TMC3    C4 7469   0.153   1.864  10.117 -0.8994 -0.1447  0.0209
  499TMC3    C5 7470   0.210   1.974  10.173  0.0773  0.6872  0.1258
  499TMC3    C6 7471   0.350   1.994  10.177 -0.3825 -0.2093 -0.0077
  499TMC3     C 7472   0.181   1.647   9.996  0.5297 -0.6717 -0.1481
  499TMC3     O 7473   0.248   1.592   9.911  0.0431 -0.6339 -0.1277
  499TMC3     H 7474   0.436   1.708  10.022  1.0542  1.0852 -1.3822
  499TMC3    H1 7475   0.046   1.849  10.112 -0.6192 -1.8585 -0.8467
  499TMC3    H2 7476   0.381   2.083  10.231  1.1227 -1.2947  0.9207
  499TMC3    C7 7477   0.125   2.090  10.216  0.1402  0.4945  0.0269
  499TMC3    C8 7478   0.563   1.915  10.094  0.5862  1.1680  0.6605
  499TMC3    O1 7479   0.174   2.202  10.227 -0.6945 -0.2314  0.6274
  499TMC3    O2 7480   0.609   1.856   9.999  0.0114  0.0694  0.3086
  500MPD2     C 7481   1.522   2.900  10.179  0.1189 -0.2807 -0.1170
  500MPD2    C1 7482   1.437   2.938  10.275  0.8799 -0.0075 -0.2008
  500MPD2    C2 7483   1.299   2.921  10.261  0.1220 -0.0774  0.1368
  500MPD2    C3 7484   1.245   2.866  10.145  0.4893 -0.2593  0.4966
  500MPD2    C4 7485   1.340   2.822  10.053  0.1890  0.1820  0.2949
  500MPD2    C5 7486   1.475   2.836  10.068  0.0802 -0.7133  0.6026
  500MPD2     H 7487   1.227   2.947  10.338  0.4120 -2.6079  1.2764
  500MPD2    H1 7488   1.302   2.786   9.958  3.3433 -1.6178 -0.2866
  500MPD2    H2 7489   1.631   2.903  10.182  0.1007  1.6936 -1.6843
  500MPD2    H3 7490   1.538   2.810   9.983  0.3740 -0.4854  0.7528
  500MPD2     N 7491   1.106   2.841  10.124 -0.3589  0.1098  1.2667
  500MPD2    H5 7492   1.078   2.788  10.042  1.3603  0.8648  0.1956
  500MPD2    N1 7493   1.487   3.005  10.398 -0.2930  0.5797  0.4953
  500MPD2    H7 7494   1.411   3.039  10.455 -0.6065 -0.7134  0.8477
  501TMC3    C1 7495   1.636   3.072  10.563  0.1847 -0.5561 -0.5678
  501TMC3    C2 7496   1.578   3.187  10.568  0.9476 -0.2460 -0.7593
  501TMC3    C3 7497   1.575   3.244  10.688 -0.1366  0.3782 -0.5179
  501TMC3    C4 7498   1.682   2.997  10.671  0.3934 -0.2069  0.1563
  501TMC3    C5 7499   1.666   3.054  10.793 -0.1108 -0.4842 -0.0816
  501TMC3    C6 7500   1.624   3.182  10.795  0.5641 -0.8671 -0.8988
  501TMC3     C 7501   1.623   2.997  10.440 -0.2838 -0.1938  0.5142
  501TMC3     O 7502   1.721   2.937  10.398 -0.4123 -0.2690  0.1018
  501TMC3     H 7503   1.560   3.237  10.473  1.4882  1.8174  0.2203
  501TMC3    H1 7504   1.722   2.897  10.659  1.0259 -0.1726  2.0425
  501TMC3    H2 7505   1.631   3.246  10.882  1.6926 -1.1389 -0.7950
  501TMC3    C7 7506   1.763   3.014  10.883  0.0778  0.3189  0.4284
  501TMC3    C8 7507   1.641   3.367  10.681 -0.2793  0.8617 -0.1396
  501TMC3    O1 7508   1.785   2.898  10.914 -0.4291  0.2573  0.1691
  501TMC3    O2 7509   1.757   3.369  10.725  0.3152  0.4165 -0.2601
  502TMC3    C1 7510   0.950   2.206  15.154  0.1556  0.6032  0.1591
  502TMC3    C2 7511   1.017   2.299  15.081  0.1723  0.2960  0.3393
  502TMC3    C3 7512   0.948   2.375  14.988 -0.3549 -0.4682  0.1076
  502TMC3    C4 7513   0.816   2.187  15.135  0.1829  0.1740 -0.0668
  502TMC3    C5 7514   0.751   2.259  15.036 -1.1222  0.3094 -0.0560
  502TMC3    C6 7515   0.814   2.358  14.965 -0.2025  0.8927  0.3372
  502TMC3     C 7516   1.025   2.123  15.253  0.5541  0.0764  0.1392
  502TMC3     O 7517   1.150   2.140  15.261  0.0671 -0.0581 -0.1184
  502TMC3     H 7518   1.124   2.313  15.089  0.5885 -1.4520 -2.2801
  502TMC3    H1 7519   0.758   2.107  15.179 -0.0803  0.7526  0.6631
  502TMC3    H2 7520   0.761   2.398  14.879 -1.6755  1.0135  1.2949
  502TMC3    C7 7521   0.673   2.174  14.955  0.2963  0.3376 -0.7833
  502TMC3    C8 7522   1.029   2.443  14.893 -0.2984 -0.5214 -0.1809
  502TMC3    O1 7523   0.724   2.149  14.846  0.4628 -0.7122  0.3308
  502TMC3    O2 7524   1.150   2.409  14.877  0.5521  0.0981  0.1900
  503MPD2     C 7525   3.250   2.724  17.098  0.3306  0.3002  0.2903
  503MPD2    C1 7526   3.282   2.751  17.230  0.2925  0.0689 -0.5681
  503MPD2    C2 7527   3.327   2.647  17.312  0.0918  0.2984 -0.4745
  503MPD2    C3 7528   3.360   2.521  17.264  0.1293 -0.0361 -0.3496
  503MPD2    C4 7529   3.332   2.498  17.130  0.8437 -0.1930 -0.0760
  503MPD2    C5 7530   3.270   2.594  17.057 -0.1523 -0.0618 -0.5399
  503MPD2     H 7531   3.356   2.670  17.414  1.9001 -1.5716 -0.5696
  503MPD2    H1 7532   3.349   2.405  17.078  0.3427  0.5670 -1.5782
  503MPD2    H2 7533   3.220   2.802  17.029 -0.2290 -0.2828 -0.1227
  503MPD2    H3 7534   3.245   2.573  16.954 -0.2656 -0.0274 -0.5203
  503MPD2     N 7535   3.416   2.426  17.354  0.2111 -0.1355 -0.0042
  503MPD2    H5 7536   3.436   2.456  17.449 -0.3713  2.2487 -0.6312
  503MPD2    N1 7537   3.257   2.870  17.295  0.0800  0.5996 -0.2919
  503MPD2    H7 7538   3.283   2.888  17.391 -1.5719  1.6114 -0.0380
  504TMC3    C1 7539   3.478   2.228  17.452  0.4562 -0.1999 -0.4640
  504TMC3    C2 7540   3.417   2.265  17.565 -0.0490  0.1406 -0.6771
  504TMC3    C3 7541   3.495   2.262  17.682 -0.0534 -0.6707 -0.5199
  504TMC3    C4 7542   3.608   2.183  17.445 -0.3724 -0.0941 -0.0194
  504TMC3    C5 7543   3.688   2.206  17.552  0.6009  0.0747 -0.6510
  504TMC3    C6 7544   3.632   2.244  17.677  0.7982  0.0040 -0.1310
  504TMC3     C 7545   3.444   2.300  17.326  0.0372 -0.0588  0.7615
  504TMC3     O 7546   3.449   2.238  17.220 -0.4719  0.5084 -0.1613
  504TMC3     H 7547   3.313   2.295  17.565 -0.1257 -0.1034  4.0859
  504TMC3    H1 7548   3.648   2.187  17.344  1.1535 -0.6533  0.5581
  504TMC3    H2 7549   3.698   2.274   0.005  0.8642  0.9159 -0.5354
  504TMC3    C7 7550   3.822   2.248  17.522  0.0854  0.7873  0.4609
  504TMC3    C8 7551   3.428   2.293   0.057  0.3744  0.7595  0.9239
  504TMC3    O1 7552   3.870   2.191  17.429  1.2439  0.1966  0.2614
  504TMC3    O2 7553   3.326   2.364   0.042 -0.0935  0.6952 -0.3511
  505MPD2     C 7554   3.164   1.484  10.935 -0.1031 -0.2035 -0.3785
  505MPD2    C1 7555   3.169   1.377  10.844 -0.0236 -0.8399 -0.1949
  505MPD2    C2 7556   3.241   1.276  10.893 -0.0747 -0.9182  0.1545
  505MPD2    C3 7557   3.304   1.274  11.023 -0.0376  0.4143 -0.0592
  505MPD2    C4 7558   3.295   1.384  11.105  0.0876  0.3446 -0.1371
  505MPD2    C5 7559   3.223   1.484  11.060  0.0736  0.4320 -0.3860
  505MPD2     H 7560   3.267   1.195  10.826 -2.0870 -1.8252  0.4652
  505MPD2    H1 7561   3.337   1.377  11.205  0.2326 -2.8617 -0.4112
  505MPD2    H2 7562   3.108   1.571  10.902 -1.9086 -1.0178  0.5395
  505MPD2    H3 7563   3.194   1.563  11.128  0.0906 -0.7516  1.0095
  505MPD2     N 7564   3.382   1.164  11.067 -0.2353 -0.1845 -0.2862
  505MPD2    H5 7565   3.420   1.174  11.161 -1.0694 -1.2602  0.1664
  505MPD2    N1 7566   3.103   1.380  10.727 -0.3340  0.0658 -0.4406
  505MPD2    H7 7567   3.049   1.463  10.704 -1.2042  0.3536  2.6208
  506TMC3    C1 7568   3.037   1.299  10.500  0.7748 -0.3594 -0.2373
  506TMC3    C2 7569   3.072   1.410  10.429  0.3615  0.2373 -0.1259
  506TMC3    C3 7570   3.116   1.388  10.296  0.3838 -0.1012  0.7511
  506TMC3    C4 7571   3.026   1.172  10.448 -0.2029 -0.3039 -0.0456
  506TMC3    C5 7572   3.066   1.163  10.321  0.0157  0.3020 -0.0177
  506TMC3    C6 7573   3.127   1.263  10.250  1.1166 -0.1490  0.5688
  506TMC3     C 7574   3.100   1.275  10.633  0.4608 -0.1329  0.5617
  506TMC3     O 7575   3.170   1.174  10.628 -0.0421 -0.1822  0.0258
  506TMC3     H 7576   3.082   1.509  10.471  1.9467 -0.0637  0.1951
  506TMC3    H1 7577   2.987   1.089  10.505  0.5249  0.7110  1.9681
  506TMC3    H2 7578   3.150   1.243  10.146 -0.3941  0.7882  0.0502
  506TMC3    C7 7579   3.144   1.041  10.303 -0.6934 -0.1602 -0.8424
  506TMC3    C8 7580   3.211   1.484  10.244  0.0238 -0.6113 -0.1587
  506TMC3    O1 7581   3.157   0.995  10.191  0.1203  0.3614 -0.0888
  506TMC3    O2 7582   3.179   1.601  10.267  0.6005 -0.4941  0.8159
  507TMC3    C1 7583   3.896   1.807  15.668 -0.3382 -0.2623 -0.0812
  507TMC3    C2 7584   3.768   1.795  15.628  1.3555  1.1715 -0.2085
  507TMC3    C3 7585   3.749   1.754  15.502  0.4573  0.2229 -0.0772
  507TMC3    C4 7586   4.001   1.792  15.587  0.0967 -0.5225  0.2345
  507TMC3    C5 7587   3.982   1.757  15.457 -0.4753 -0.5438  0.2330
  507TMC3    C6 7588   3.851   1.723  15.416  0.1050 -0.5971 -0.6403
  507TMC3     C 7589   3.918   1.899  15.783  0.0721 -0.4806 -0.0651
  507TMC3     O 7590   4.014   1.866  15.855  0.2299  0.2420  0.1145
  507TMC3     H 7591   3.685   1.806  15.696  0.9443 -2.1704 -0.1786
  507TMC3    H1 7592   4.093   1.833  15.628 -0.5214  1.0236  0.0819
  507TMC3    H2 7593   3.834   1.697  15.313  1.9933 -0.4843 -0.9859
  507TMC3    C7 7594   4.034   1.853  15.348  0.6194 -0.7878  0.0307
  507TMC3    C8 7595   3.636   1.818  15.439  0.1439 -0.2177 -0.3667
  507TMC3    O1 7596   3.952   1.876  15.265  0.0672 -0.1053  0.1638
  507TMC3    O2 7597   3.539   1.841  15.512  0.0969  0.1263 -0.2709
  508MPD2     C 7598   0.283   4.560  16.258  0.1870 -0.2322 -0.1930
  508MPD2    C1 7599   0.407   4.623  16.271  0.2947  0.1153  0.7735
  508MPD2    C2 7600   0.486   4.626  16.160  0.0378  0.2348  0.0781
  508MPD2    C3 7601   0.445   4.572  16.038 -0.2870 -0.5226  0.2514
  508MPD2    C4 7602   0.320   4.517  16.033 -0.3851 -0.2476  0.0025
  508MPD2    C5 7603   0.237   4.514  16.140  0.9250 -0.3740  0.2663
  508MPD2     H 7604   0.585   4.670  16.151 -0.4493  1.7782  2.0946
  508MPD2    H1 7605   0.280   4.477  15.941 -2.9579 -0.6400  1.2955
  508MPD2    H2 7606   0.219   4.545  16.343 -0.2553  0.7040 -0.3602
  508MPD2    H3 7607   0.139   4.468  16.137  2.4716 -3.6547 -0.0125
  508MPD2     N 7608   0.531   4.598  15.929 -0.8031 -0.2445  0.1799
  508MPD2    H5 7609   0.627   4.618  15.956 -2.1039  3.8739  1.9444
  508MPD2    N1 7610   0.458   4.673  16.386 -0.3514 -0.3942  0.0581
  508MPD2    H7 7611   0.554   4.705  16.378 -1.1176  1.7029 -0.7356
  509TMC3    C1 7612   0.584   0.034  15.513  0.8746 -1.1165  0.2892
  509TMC3    C2 7613   0.698   0.104  15.545  0.0978  0.8650  0.5370
  509TMC3    C3 7614   0.736   0.081  15.671 -0.8826  0.2128  0.7007
  509TMC3    C4 7615   0.531   4.680  15.589  0.1304 -0.3286 -0.3829
  509TMC3    C5 7616   0.587   4.645  15.706  0.9351 -0.0852  0.1167
  509TMC3    C6 7617   0.687   4.721  15.757 -0.4039  0.0903  0.3121
  509TMC3     C 7618   0.507   0.064  15.397  0.2474 -0.1396 -0.5371
  509TMC3     O 7619   0.406   0.001  15.373 -0.1190  0.3005 -0.0823
  509TMC3     H 7620   0.740   0.182  15.482 -0.4252  0.5596 -0.1825
  509TMC3    H1 7621   0.435   4.634  15.571 -0.2103 -0.4434  1.7163
  509TMC3    H2 7622   0.742   4.680  15.840 -2.1348 -0.8056  1.0108
  509TMC3    C7 7623   0.496   4.586  15.799  0.1997 -0.2264 -0.1483
  509TMC3    C8 7624   0.853   0.144  15.719 -0.2764  0.0965 -0.2241
  509TMC3    O1 7625   0.391   4.541  15.756 -0.3871  0.1225 -0.0018
  509TMC3    O2 7626   0.918   0.083  15.802  0.0971  0.5032 -0.2274
  510MPD2     C 7627   3.133   1.470  14.953 -0.4195 -0.1163 -0.0357
  510MPD2    C1 7628   3.227   1.390  15.015  0.1198  0.0735  0.0955
  510MPD2    C2 7629   3.354   1.371  14.959 -0.1630 -0.9108 -0.2952
  510MPD2    C3 7630   3.392   1.449  14.853  0.3765 -0.2269 -0.3212
  510MPD2    C4 7631   3.308   1.549  14.807  0.4075  0.5584  0.6159
  510MPD2    C5 7632   3.180   1.559  14.855  0.4262 -0.1831  0.5770
  510MPD2     H 7633   3.424   1.295  14.991  1.0726  0.1544 -0.4746
  510MPD2    H1 7634   3.340   1.615  14.728  2.2615  0.1477  1.0205
  510MPD2    H2 7635   3.038   1.477  15.004 -0.4274  0.9130 -0.1788
  510MPD2    H3 7636   3.108   1.637  14.831  1.1132  0.4808  0.6688
  510MPD2     N 7637   3.516   1.410  14.803 -0.3916 -0.5531 -0.5027
  510MPD2    H5 7638   3.566   1.333  14.845 -2.0612 -1.1375  0.4003
  510MPD2    N1 7639   3.181   1.294  15.113 -0.1588  0.3868 -0.8309
  510MPD2    H7 7640   3.081   1.279  15.122  0.0871 -0.2936  0.8043
  511TMC3    C1 7641   3.166   1.095  15.230 -0.3501 -0.3903 -0.5510
  511TMC3    C2 7642   3.091   1.134  15.338  0.0595  0.1031 -0.2529
  511TMC3    C3 7643   3.030   1.035  15.411 -1.0707 -0.3183  1.0561
  511TMC3    C4 7644   3.198   0.964  15.213 -0.2502 -0.6720  0.1197
  511TMC3    C5 7645   3.148   0.868  15.294  0.1999 -0.3605  0.1515
  511TMC3    C6 7646   3.061   0.899  15.390 -0.2291 -0.1682  0.6901
  511TMC3     C 7647   3.254   1.196  15.176  0.2060  0.5787  0.5290
  511TMC3     O 7648   3.369   1.185  15.212  0.9177 -0.1616 -0.6394
  511TMC3     H 7649   3.057   1.237  15.340 -3.7518 -1.0992 -3.6508
  511TMC3    H1 7650   3.267   0.937  15.134 -0.8226 -0.3446 -0.4980
  511TMC3    H2 7651   3.031   0.821  15.459 -1.6735 -1.4334 -1.3519
  511TMC3    C7 7652   3.173   0.729  15.253 -0.4072  1.1630 -0.4226
  511TMC3    C8 7653   2.952   1.076  15.517 -0.7550 -0.0519  0.0226
  511TMC3    O1 7654   3.247   0.716  15.154 -0.2750 -0.2754 -0.8915
  511TMC3    O2 7655   2.903   1.192  15.512 -0.5584 -0.2990 -0.2552
  512TMC3    C1 7656   2.220   0.900  13.567  0.2090 -0.8922 -0.3858
  512TMC3    C2 7657   2.355   0.917  13.591  0.6693 -0.6095 -0.6885
  512TMC3    C3 7658   2.446   0.823  13.558 -0.2610 -0.3724  0.4301
  512TMC3    C4 7659   2.188   0.801  13.478  0.0109  0.6470  0.0470
  512TMC3    C5 7660   2.286   0.709  13.443  0.6452  0.7127 -0.5543
  512TMC3    C6 7661   2.415   0.718  13.478  0.0301 -1.0272  0.6355
  512TMC3     C 7662   2.138   1.023  13.574 -0.2261  0.1384 -0.7204
  512TMC3     O 7663   2.205   1.127  13.589 -0.1844 -0.2340 -0.6999
  512TMC3     H 7664   2.395   1.009  13.631 -0.7095 -0.4935  0.4327
  512TMC3    H1 7665   2.087   0.783  13.444 -0.8298  2.2724  1.7018
  512TMC3    H2 7666   2.487   0.645  13.441 -0.0274 -0.7576 -0.0069
  512TMC3    C7 7667   2.259   0.606  13.340  0.8117 -0.9765  0.3016
  512TMC3    C8 7668   2.582   0.826  13.605 -0.6812 -0.5366 -0.2262
  512TMC3    O1 7669   2.155   0.634  13.279 -0.1349 -0.3663  0.3812
  512TMC3    O2 7670   2.652   0.739  13.550 -0.1662 -0.5321  0.5113
  513MPD2     C 7671   3.919   0.698  12.403  1.0898 -0.0838  0.2203
  513MPD2    C1 7672   3.917   0.585  12.484 -0.2924  0.5955 -0.4887
  513MPD2    C2 7673   3.985   0.593  12.605  0.2653 -0.2752 -0.1959
  513MPD2    C3 7674   4.042   0.707  12.651 -0.1736 -0.2333  0.6879
  513MPD2    C4 7675   4.037   0.814  12.573  0.2971 -0.3104  0.1324
  513MPD2    C5 7676   3.981   0.817  12.451  0.0179  0.0240 -0.5373
  513MPD2     H 7677   3.980   0.502  12.663 -1.8499  0.1539  0.2895
  513MPD2    H1 7678   4.073   0.908  12.613  1.0639  0.3689 -2.1165
  513MPD2    H2 7679   3.877   0.690  12.303  0.0024  0.3363  0.6354
  513MPD2    H3 7680   3.982   0.905  12.389 -0.4228 -0.4006 -1.1528
  513MPD2     N 7681   4.094   0.705  12.780 -0.4794 -0.6470  0.2564
  513MPD2    H5 7682   4.086   0.620  12.836 -1.9881 -2.0303 -2.0647
  513MPD2    N1 7683   3.846   0.463  12.453  0.7852 -0.3043 -0.0962
  513MPD2    H7 7684   3.851   0.394  12.528  0.0189 -0.8219 -0.5189
  514TMC3    C1 7685   3.795   0.287  12.330 -0.0270 -0.6059  0.1474
  514TMC3    C2 7686   3.885   0.222  12.249 -0.2559  0.8928 -0.2717
  514TMC3    C3 7687   3.962   0.118  12.306  0.0762 -0.5063 -0.4563
  514TMC3    C4 7688   3.767   0.237  12.455 -0.2459  0.2371 -0.0138
  514TMC3    C5 7689   3.856   0.147  12.512  0.8161  0.6331  0.2209
  514TMC3    C6 7690   3.950   0.084  12.438  0.0638 -0.0842  0.7210
  514TMC3     C 7691   3.801   0.429  12.327 -0.1507  0.5454 -0.5254
  514TMC3     O 7692   3.787   0.480  12.219  0.2216  0.1542  0.1449
  514TMC3     H 7693   3.906   0.256  12.148  0.8868 -4.3193 -1.7806
  514TMC3    H1 7694   3.699   0.293  12.519  0.3252  0.6703  0.2096
  514TMC3    H2 7695   4.019   0.022  12.494  2.3964  0.4884 -1.5249
  514TMC3    C7 7696   3.888   0.177  12.653  0.2669  0.4854  0.2007
  514TMC3    C8 7697   4.076   0.071  12.232  0.2376  0.6333 -0.0136
  514TMC3    O1 7698   3.860   0.291  12.683  0.2086 -0.0534 -0.9659
  514TMC3    O2 7699   4.050   0.060  12.111 -0.0403 -0.2569 -0.1642
  515MPD2     C 7700   2.284   2.456  14.171  0.5566  0.2218  0.2984
  515MPD2    C1 7701   2.232   2.388  14.279  0.5293 -0.2244 -0.2955
  515MPD2    C2 7702   2.306   2.378  14.392  0.1088 -0.4236  0.2129
  515MPD2    C3 7703   2.423   2.448  14.409  1.0245 -0.1966  0.0648
  515MPD2    C4 7704   2.471   2.514  14.303 -1.3322  0.3130  0.7537
  515MPD2    C5 7705   2.411   2.504  14.180 -0.2705  0.2029  0.1125
  515MPD2     H 7706   2.258   2.326  14.474 -0.0827 -0.3608  0.1411
  515MPD2    H1 7707   2.566   2.566  14.302 -0.1733 -1.8077  0.5545
  515MPD2    H2 7708   2.227   2.456  14.079 -0.2693  0.1610  0.8075
  515MPD2    H3 7709   2.461   2.538  14.089 -0.2328  1.3161  0.5424
  515MPD2     N 7710   2.491   2.450  14.528 -0.3494  0.0115  0.0589
  515MPD2    H5 7711   2.574   2.508  14.521 -0.8283  0.7284  0.4399
  515MPD2    N1 7712   2.103   2.336  14.284  0.1094  0.5643 -0.0820
  515MPD2    H7 7713   2.068   2.289  14.367 -0.2492 -1.5990 -1.4617
  516TMC3    C1 7714   1.885   2.288  14.210  0.7136 -0.4541 -0.5878
  516TMC3    C2 7715   1.766   2.337  14.163  0.7866 -0.5593 -0.2071
  516TMC3    C3 7716   1.654   2.270  14.188  0.3436 -0.1447  0.7207
  516TMC3    C4 7717   1.891   2.179  14.299  0.3489  0.1444 -1.0096
  516TMC3    C5 7718   1.775   2.107  14.316  0.3349  0.0516  0.5696
  516TMC3    C6 7719   1.659   2.159  14.264 -0.0458  0.4822  0.2412
  516TMC3     C 7720   2.009   2.368  14.191 -0.7367 -0.9616 -0.0085
  516TMC3     O 7721   2.004   2.460  14.106  0.0180  0.2366  0.0001
  516TMC3     H 7722   1.768   2.428  14.104 -0.1849 -0.9412 -0.8189
  516TMC3    H1 7723   1.977   2.138  14.351  0.3346  2.3913  0.7675
  516TMC3    H2 7724   1.560   2.121  14.284 -0.4291  1.1524 -0.3734
  516TMC3    C7 7725   1.757   1.985  14.391 -0.0662 -0.2275 -0.8976
  516TMC3    C8 7726   1.526   2.344  14.186  0.1390  0.0870 -0.7728
  516TMC3    O1 7727   1.840   1.968  14.477 -0.4300 -0.6353 -0.2569
  516TMC3    O2 7728   1.421   2.284  14.189  0.0506 -0.2627 -0.7118
  517MPD2     C 7729   1.319   3.791   0.037  0.2701 -0.5090 -0.6868
  517MPD2    C1 7730   1.441   3.761   0.088  0.4039  0.4597 -0.3493
  517MPD2    C2 7731   1.506   3.854   0.171 -0.0477  0.8428 -0.2823
  517MPD2    C3 7732   1.439   3.967   0.219 -0.1964  0.9025 -0.1387
  517MPD2    C4 7733   1.313   3.985   0.179  0.0990 -0.8529  0.5366
  517MPD2    C5 7734   1.247   3.897   0.098  0.8620 -0.0863 -0.3928
  517MPD2     H 7735   1.605   3.831   0.207 -0.7079 -0.2115  0.8815
  517MPD2    H1 7736   1.256   4.064   0.227  0.1038  0.4687 -1.6246
  517MPD2    H2 7737   1.266   3.721  17.726 -0.1127 -0.2507 -0.6543
  517MPD2    H3 7738   1.142   3.921   0.087  1.0647  2.8386  4.2083
  517MPD2     N 7739   1.508   4.057   0.301 -0.5680  0.1252  0.0874
  517MPD2    H5 7740   1.607   4.037   0.317 -1.4705 -1.8978  3.1307
  517MPD2    N1 7741   1.506   3.642   0.052  0.1026 -0.5195  0.2621
  517MPD2    H7 7742   1.593   3.623   0.101  1.6598  1.0414 -1.8516
  518TMC3    C1 7743   1.570   3.431  17.717  0.7053 -0.4653 -0.2927
  518TMC3    C2 7744   1.531   3.318  17.650  0.5082  0.0877 -0.3407
  518TMC3    C3 7745   1.625   3.246  17.585 -0.0235  0.5777  0.3076
  518TMC3    C4 7746   1.704   3.474  17.715 -0.3903 -0.1825  0.0196
  518TMC3    C5 7747   1.799   3.396  17.653 -0.9897  0.7122  0.5802
  518TMC3    C6 7748   1.758   3.284  17.582  0.2559 -0.1226  1.0425
  518TMC3     C 7749   1.468   3.532  17.730  0.3716  0.2516  0.0245
  518TMC3     O 7750   1.356   3.512  17.686 -0.1359  0.0648 -0.0693
  518TMC3     H 7751   1.426   3.290  17.649  0.6281 -0.3312 -1.5308
  518TMC3    H1 7752   1.740   3.563   0.014  0.2419 -0.3439 -0.1468
  518TMC3    H2 7753   1.831   3.213  17.544 -1.5753 -1.5559  0.2310
  518TMC3    C7 7754   1.944   3.429  17.668 -0.9137 -0.2275 -0.3444
  518TMC3    C8 7755   1.608   3.109  17.528 -0.1022  0.9048  0.4195
  518TMC3    O1 7756   1.969   3.533  17.725 -0.2889 -0.3126 -0.1275
  518TMC3    O2 7757   1.668   3.080  17.428  0.6091  0.3196 -0.8456
  519MPD2     C 7758   3.883   2.387  14.232  0.2066 -0.4898 -0.9379
  519MPD2    C1 7759   3.793   2.318  14.153 -0.0771 -0.0017 -0.6841
  519MPD2    C2 7760   3.832   2.225  14.061 -0.1584  0.3195  0.4990
  519MPD2    C3 7761   3.967   2.196  14.044  0.5619  0.3147 -1.2639
  519MPD2    C4 7762   4.056   2.266  14.124  0.5388  0.0108 -0.4768
  519MPD2    C5 7763   4.018   2.364  14.214  0.1788 -1.3104  0.0948
  519MPD2     H 7764   3.754   2.171  14.008  0.9926  2.5579 -3.4097
  519MPD2    H1 7765   4.163   2.257  14.105 -0.0706 -2.8298 -2.7289
  519MPD2    H2 7766   3.843   2.463  14.297  3.8304 -0.0465  0.7371
  519MPD2    H3 7767   4.094   2.423  14.264 -1.0395  1.1584 -0.9487
  519MPD2     N 7768   4.020   2.095  13.964 -0.1234 -0.1151  0.1636
  519MPD2    H5 7769   4.109   2.051  13.986  0.0002  0.2400  0.3662
  519MPD2    N1 7770   3.656   2.353  14.177  0.5789 -0.6580 -0.2897
  519MPD2    H7 7771   3.636   2.418  14.252 -0.8966  1.0829 -2.1781
  520TMC3    C1 7772   4.006   1.943  13.785 -1.2360 -0.0386 -0.1095
  520TMC3    C2 7773   3.930   1.918  13.671  0.1602 -0.0020  0.5957
  520TMC3    C3 7774   3.908   1.783  13.636 -0.4119  0.5085 -0.2557
  520TMC3    C4 7775   4.062   1.842  13.858 -0.2780 -0.3392  0.0155
  520TMC3    C5 7776   4.046   1.718  13.807 -0.0593  0.1797  0.4289
  520TMC3    C6 7777   3.961   1.683  13.708  0.5154 -0.0526  0.4613
  520TMC3     C 7778   3.941   2.055  13.850  0.3159  1.2102  0.0427
  520TMC3     O 7779   3.842   2.098  13.801  0.4743  0.4491  0.1969
  520TMC3     H 7780   3.875   1.997  13.621  1.9171  0.8366  0.0201
  520TMC3    H1 7781   4.126   1.858  13.944  0.1717  1.1090 -0.5994
  520TMC3    H2 7782   3.928   1.581  13.690  0.7686  0.4241 -2.7059
  520TMC3    C7 7783   4.138   1.616  13.862  0.4201  0.0830 -0.2577
  520TMC3    C8 7784   3.776   1.765  13.590  0.3648 -0.1200 -0.6772
  520TMC3    O1 7785   4.185   1.644  13.975 -0.8887 -0.1842 -0.2978
  520TMC3    O2 7786   3.710   1.683  13.657  0.1088  0.4301  0.4948
  521MPD2     C 7787   4.346   0.718  17.514  0.1618 -0.1211 -0.4165
  521MPD2    C1 7788   4.384   0.627  17.415 -0.0519  0.1101  0.2802
  521MPD2    C2 7789   4.479   0.662  17.321  0.6074  0.3750 -0.3139
  521MPD2    C3 7790   4.545   0.785  17.323 -0.0583  0.7777  0.4657
  521MPD2    C4 7791   4.509   0.874  17.420 -0.3208 -0.1028 -0.4940
  521MPD2    C5 7792   4.405   0.843  17.507  0.1328  0.2529 -0.4788
  521MPD2     H 7793   4.509   0.585  17.251  0.1731 -0.6433  0.6246
  521MPD2    H1 7794   4.551   0.972  17.439 -2.5690  0.9792 -1.0358
  521MPD2    H2 7795   4.275   0.700  17.594 -1.2752 -0.0973 -1.6882
  521MPD2    H3 7796   4.376   0.911  17.586 -1.3792 -1.0266  0.0785
  521MPD2     N 7797   4.628   0.826  17.215  0.4844 -0.3420 -0.3723
  521MPD2    H5 7798   4.672   0.918  17.212  0.8585 -0.4357  3.0544
  521MPD2    N1 7799   4.327   0.496  17.410 -0.0335 -0.5816  0.1243
  521MPD2    H7 7800   4.281   0.466  17.495  0.8387 -1.3486  0.3412
  522TMC3    C1 7801   0.032   0.832  17.040 -0.3481 -0.0066 -0.5017
  522TMC3    C2 7802   0.159   0.794  17.017  0.2036  0.4623 -0.4005
  522TMC3    C3 7803   0.244   0.872  16.945 -0.0495 -0.1439 -0.3430
  522TMC3    C4 7804   4.711   0.949  16.998  0.1874  0.3971  0.4736
  522TMC3    C5 7805   0.058   1.017  16.911 -0.4956  0.0386 -0.4684
  522TMC3    C6 7806   0.193   0.986  16.887 -0.5128 -0.0139 -0.3276
  522TMC3     C 7807   4.703   0.747  17.142  0.2143 -0.6884 -0.4168
  522TMC3     O 7808   4.728   0.626  17.136  0.1604 -0.5935  0.2176
  522TMC3     H 7809   0.186   0.699  17.064  0.1698 -0.4141 -2.1728
  522TMC3    H1 7810   4.614   0.988  17.025  1.1333  2.0566  1.5185
  522TMC3    H2 7811   0.260   1.063  16.849  0.8457 -2.4372 -2.7446
  522TMC3    C7 7812   0.000   1.139  16.844 -0.5488 -0.2577 -0.4013
  522TMC3    C8 7813   0.383   0.833  16.924  0.3149  0.0186  0.0825
  522TMC3    O1 7814   0.084   1.206  16.785 -0.2768 -0.4617 -0.4870
  522TMC3    O2 7815   0.465   0.921  16.900 -0.2274 -0.1610  0.2513
  523MPD2     C 7816   1.876   0.021  10.359 -0.2601 -0.4561  0.9036
  523MPD2    C1 7817   1.792   4.670  10.306  0.4268 -0.2669 -0.7151
  523MPD2    C2 7818   1.712   4.715  10.195 -0.6042 -0.4546 -0.4947
  523MPD2    C3 7819   1.704   0.112  10.166  0.0153  0.0385 -0.3316
  523MPD2    C4 7820   1.805   0.194  10.223 -0.1029  0.4598  0.6803
  523MPD2    C5 7821   1.895   0.149  10.320  0.2892  0.4188 -0.0625
  523MPD2     H 7822   1.643   4.650  10.144 -1.7593  0.4678 -0.1072
  523MPD2    H1 7823   1.798   0.298  10.194 -0.2791 -0.5085 -2.7460
  523MPD2    H2 7824   1.933   4.727  10.445  0.8820 -1.9220 -0.4046
  523MPD2    H3 7825   1.971   0.214  10.362  0.2343 -1.6485  3.2301
  523MPD2     N 7826   1.616   0.177  10.080  0.6776 -0.5106  0.1331
  523MPD2    H5 7827   1.622   0.278  10.068  0.2700 -0.1741  2.5772
  523MPD2    N1 7828   1.794   4.529  10.338 -0.2592  0.1058  0.1988
  523MPD2    H7 7829   1.851   4.505  10.418 -1.2198 -1.6469  0.3711
  524TMC3    C1 7830   1.399   0.222   9.988 -0.0573  0.1504  0.4032
  524TMC3    C2 7831   1.299   0.186   9.907  0.5827 -0.3811  0.0756
  524TMC3    C3 7832   1.215   0.289   9.861  0.6844 -0.0025  0.6108
  524TMC3    C4 7833   1.415   0.353  10.022  0.6897  0.4687 -0.1509
  524TMC3    C5 7834   1.332   0.451   9.977 -1.0393 -0.0024  0.0413
  524TMC3    C6 7835   1.223   0.416   9.901 -0.3535 -0.3778  0.3667
  524TMC3     C 7836   1.501   0.123  10.022  0.1665 -0.1376  0.2736
  524TMC3     O 7837   1.464   0.005  10.017 -0.4712  0.6008  0.1258
  524TMC3     H 7838   1.266   0.083   9.900  1.5164 -0.4822 -2.7993
  524TMC3    H1 7839   1.493   0.387  10.089 -0.5111  1.6105  0.6784
  524TMC3    H2 7840   1.152   0.490   9.864 -0.7501 -0.2216  1.4460
  524TMC3    C7 7841   1.362   0.592   9.971 -0.4104  0.7919 -0.4534
  524TMC3    C8 7842   1.096   0.251   9.788  0.7670  0.4632 -0.2721
  524TMC3    O1 7843   1.281   0.673   9.929  0.1039 -0.1415 -0.2452
  524TMC3    O2 7844   0.992   0.313   9.806 -0.1087 -0.4151 -0.2486
  525MPD2     C 7845   0.387   1.564  14.387  0.1862  0.5145  0.0729
  525MPD2    C1 7846   0.484   1.564  14.478 -0.0508 -0.5742 -0.3714
  525MPD2    C2 7847   0.567   1.682  14.479 -0.2500  0.0000  0.1840
  525MPD2    C3 7848   0.548   1.781  14.388 -0.1829 -0.1154 -0.5915
  525MPD2    C4 7849   0.444   1.773  14.297  0.8826 -0.5041 -0.2121
  525MPD2    C5 7850   0.382   1.655  14.289 -0.0380 -0.0790 -0.3530
  525MPD2     H 7851   0.637   1.693  14.561  0.1435  1.2844 -0.3305
  525MPD2    H1 7852   0.420   1.845  14.220  0.3020 -0.6557 -0.1728
  525MPD2    H2 7853   0.319   1.483  14.363 -1.4338  2.2280 -1.1603
  525MPD2    H3 7854   0.320   1.634  14.203 -3.1530 -0.4611  1.9921
  525MPD2     N 7855   0.615   1.907  14.408  0.4005  0.6148  0.1050
  525MPD2    H5 7856   0.569   1.977  14.350  0.3319  1.2246  0.8858
  525MPD2    N1 7857   0.503   1.472  14.583  0.3629 -0.0067 -0.7641
  525MPD2    H7 7858   0.588   1.489  14.636 -0.3145  0.4784  0.1666
  526TMC3    C1 7859   0.452   1.319  14.742 -0.0312  0.4411  0.6288
  526TMC3    C2 7860   0.352   1.330  14.839  0.3062 -0.3808  0.4624
  526TMC3    C3 7861   0.399   1.320  14.968  0.3373  0.2448  0.4479
  526TMC3    C4 7862   0.577   1.266  14.761  0.1082  0.5440 -0.1769
  526TMC3    C5 7863   0.613   1.250  14.894 -0.6136  0.9105  0.0603
  526TMC3    C6 7864   0.531   1.290  15.001 -0.2170 -1.3275 -0.0551
  526TMC3     C 7865   0.417   1.371  14.613 -0.5166  0.0647  0.5571
  526TMC3     O 7866   0.303   1.351  14.577 -0.8564 -0.1024 -0.2355
  526TMC3     H 7867   0.263   1.389  14.820  0.2598 -0.5039  0.3014
  526TMC3    H1 7868   0.639   1.230  14.680  2.4270  1.2130  1.2810
  526TMC3    H2 7869   0.579   1.274  15.096  2.1636  0.5610 -0.9446
  526TMC3    C7 7870   0.731   1.173  14.935  0.9725 -0.1373  0.4069
  526TMC3    C8 7871   0.333   1.398  15.072 -0.1614  0.0824  0.4162
  526TMC3    O1 7872   0.738   1.131  15.048 -0.4191 -0.1454 -0.9339
  526TMC3    O2 7873   0.401   1.453  15.158 -0.2286 -0.0290  0.2286
  527MPD2     C 7874   2.563   4.351   1.214  0.9866 -0.0893 -0.7089
  527MPD2    C1 7875   2.605   4.381   1.085  0.4123  0.4565 -0.0212
  527MPD2    C2 7876   2.743   4.392   1.069  0.9611  0.2420  0.4522
  527MPD2    C3 7877   2.839   4.369   1.160  0.6548  0.2982  0.3089
  527MPD2    C4 7878   2.784   4.346   1.295 -0.0302 -0.0196  0.6726
  527MPD2    C5 7879   2.655   4.335   1.316  0.1799 -0.7770  0.1063
  527MPD2     H 7880   2.778   4.412   0.969  0.0702  1.4191  0.3853
  527MPD2    H1 7881   2.848   4.348   1.382 -2.0615  0.2504  2.1525
  527MPD2    H2 7882   2.456   4.347   1.234  1.0312 -0.0530 -0.4546
  527MPD2    H3 7883   2.615   4.322   1.416  1.4561  0.4602  0.7908
  527MPD2     N 7884   2.981   4.392   1.131  0.5776 -0.8125 -0.5176
  527MPD2    H5 7885   2.998   4.420   1.035  1.0272 -2.6887 -0.9738
  527MPD2    N1 7886   2.516   4.412   0.980  0.2586  0.1534 -0.2687
  527MPD2    H7 7887   2.563   4.469   0.910  0.6327 -0.0266 -0.1691
  528TMC3    C1 7888   2.303   4.430   0.868 -0.2628  0.3739 -0.6180
  528TMC3    C2 7889   2.360   4.523   0.786  0.1009  0.0674 -0.9199
  528TMC3    C3 7890   2.280   4.610   0.715 -0.2334 -0.5133 -0.4946
  528TMC3    C4 7891   2.168   4.418   0.886  0.1835 -1.0677  0.1862
  528TMC3    C5 7892   2.093   4.494   0.800 -0.9066 -0.1483 -0.0814
  528TMC3    C6 7893   2.145   4.596   0.722  0.0075 -0.3848  1.0800
  528TMC3     C 7894   2.387   4.367   0.970 -0.7358 -0.1534  0.2611
  528TMC3     O 7895   2.318   4.293   1.042 -0.2782  0.1083 -0.7213
  528TMC3     H 7896   2.462   4.515   0.752  1.3770  1.3535  2.6064
  528TMC3    H1 7897   2.117   4.339   0.941  0.2371 -1.3991 -0.2403
  528TMC3    H2 7898   2.080   4.671   0.679 -0.9619 -0.8355  1.7530
  528TMC3    C7 7899   1.955   4.515   0.818  0.4012 -0.0472  0.2020
  528TMC3    C8 7900   2.343   4.731   0.668  0.3560 -0.2780 -0.2554
  528TMC3    O1 7901   1.894   4.551   0.719 -0.3854  0.0960  0.1359
  528TMC3    O2 7902   2.451   4.715   0.614 -0.1050 -0.5036 -0.3553
  529MPD2     C 7903   0.180   2.912   1.410 -0.5301 -0.8281  0.4434
  529MPD2    C1 7904   0.280   2.862   1.328 -0.4512 -0.0444 -0.1815
  529MPD2    C2 7905   0.268   2.894   1.200 -0.2891  0.1090  0.3444
  529MPD2    C3 7906   0.173   2.986   1.147  0.3667 -0.1816  0.9541
  529MPD2    C4 7907   0.074   3.021   1.236  0.2960  0.3399 -0.2743
  529MPD2    C5 7908   0.079   2.994   1.370 -0.0898 -0.1962 -0.3752
  529MPD2     H 7909   0.333   2.859   1.120  0.9130  2.2231  0.3979
  529MPD2    H1 7910   4.725   3.075   1.202  0.1641  0.0944 -0.3226
  529MPD2    H2 7911   0.175   2.887   1.515 -0.7603 -1.0960  0.3671
  529MPD2    H3 7912   0.007   3.041   1.437 -1.8117 -2.2164 -0.8048
  529MPD2     N 7913   0.169   3.019   1.010  1.0440 -0.0394 -0.3375
  529MPD2    H5 7914   0.242   2.970   0.960  0.3078 -0.8189 -0.6386
  529MPD2    N1 7915   0.380   2.767   1.362  0.0929 -0.3971 -0.3215
  529MPD2    H7 7916   0.430   2.712   1.293 -0.0318 -0.4474 -0.3704
  530TMC3    C1 7917   0.534   2.652   1.503 -0.1528 -0.3681  0.0545
  530TMC3    C2 7918   0.619   2.677   1.605 -0.5825  0.0115 -0.2007
  530TMC3    C3 7919   0.716   2.587   1.624  0.5436  0.4263  0.4950
  530TMC3    C4 7920   0.532   2.538   1.434  0.7390 -1.0653  0.2143
  530TMC3    C5 7921   0.635   2.455   1.453  0.9138  0.0362  0.1332
  530TMC3    C6 7922   0.721   2.472   1.556 -0.6666  0.0071  0.4106
  530TMC3     C 7923   0.411   2.735   1.490  0.5046 -0.9499 -0.0625
  530TMC3     O 7924   0.374   2.790   1.592 -0.3729 -0.4334  0.3459
  530TMC3     H 7925   0.626   2.765   1.669  1.6116 -1.1820  1.2110
  530TMC3    H1 7926   0.446   2.523   1.370  0.9797 -0.1330 -0.3220
  530TMC3    H2 7927   0.809   2.408   1.564 -1.5892 -1.4630 -1.3286
  530TMC3    C7 7928   0.611   2.319   1.418 -0.1447 -0.2478 -0.0907
  530TMC3    C8 7929   0.809   2.608   1.740 -0.4465  0.2673  0.3152
  530TMC3    O1 7930   0.705   2.245   1.413 -0.5301 -0.1122 -0.8734
  530TMC3    O2 7931   0.771   2.669   1.837  0.5199 -0.7270 -0.7565
  531MPD2     C 7932   4.100   0.093  13.096  0.1921 -0.4425  0.6238
  531MPD2    C1 7933   4.073   0.212  13.028 -0.5467 -0.0436 -0.5198
  531MPD2    C2 7934   4.038   0.203  12.897  0.0302  0.0182  0.1682
  531MPD2    C3 7935   4.009   0.080  12.842 -0.3768 -0.2469  0.2435
  531MPD2    C4 7936   4.042   4.702  12.908  0.3016  0.0039 -0.3662
  531MPD2    C5 7937   4.087   4.708  13.040  0.2465 -0.0344  0.0303
  531MPD2     H 7938   4.024   0.287  12.831  0.3372  0.5603  0.8033
  531MPD2    H1 7939   4.034   4.606  12.860  1.0403 -0.3883  0.2966
  531MPD2    H2 7940   4.142   0.099  13.196  0.5438  1.1671  0.3793
  531MPD2    H3 7941   4.113   4.617  13.093  0.7749 -1.1840 -2.1790
  531MPD2     N 7942   3.955   0.069  12.712  0.7497  0.4874 -0.8023
  531MPD2    H5 7943   3.947   4.716  12.668 -0.7825  0.8438 -1.2664
  531MPD2    N1 7944   4.116   0.335  13.080 -0.5481  0.4830  0.8361
  531MPD2    H7 7945   4.177   0.334  13.160  0.9867  0.1357 -0.3479
  532TMC3    C1 7946   4.139   0.578  13.087 -0.5452  0.2010  0.5695
  532TMC3    C2 7947   4.094   0.687  13.015  0.2201 -0.0755 -0.3270
  532TMC3    C3 7948   4.187   0.776  12.977  0.1664  0.4536 -0.0927
  532TMC3    C4 7949   4.272   0.564  13.110 -0.2261  0.6060 -0.0431
  532TMC3    C5 7950   4.356   0.663  13.074 -0.3964 -0.0423  1.0500
  532TMC3    C6 7951   4.312   0.779  13.021 -0.8561 -0.6294  0.1449
  532TMC3     C 7952   4.076   0.459  13.032  1.4801  0.1065  0.4754
  532TMC3     O 7953   3.982   0.484  12.954 -0.2272  0.0935  0.5151
  532TMC3     H 7954   3.990   0.708  12.992  1.0553  3.1127 -1.2459
  532TMC3    H1 7955   4.298   0.480  13.173 -1.1002  0.3415 -0.0266
  532TMC3    H2 7956   4.385   0.846  12.978  0.5265 -0.7509  2.3179
  532TMC3    C7 7957   4.492   0.657  13.128  0.1844  0.9708 -0.6165
  532TMC3    C8 7958   4.169   0.809  12.842  0.0919  1.1756  0.0595
  532TMC3    O1 7959   4.560   0.755  13.141 -0.2415 -0.2058  0.0363
  532TMC3    O2 7960   4.243   0.890  12.788  0.0627  0.4636 -0.5143
  533TMC3    C1 7961   0.733   2.079  14.513  0.4247 -0.0706 -0.4775
  533TMC3    C2 7962   0.863   2.109  14.512 -0.3489  0.1547  0.4156
  533TMC3    C3 7963   0.888   2.240  14.534  0.1778  0.2894 -0.7246
  533TMC3    C4 7964   0.633   2.163  14.557 -0.3817  0.2612  0.0537
  533TMC3    C5 7965   0.664   2.290  14.579  0.1837 -0.4910 -0.8073
  533TMC3    C6 7966   0.788   2.329  14.561  0.2508 -0.3532 -1.0193
  533TMC3     C 7967   0.714   1.937  14.497  0.5244  0.1270  0.0918
  533TMC3     O 7968   0.792   1.864  14.561  0.0951  0.2075  0.2959
  533TMC3     H 7969   0.936   2.037  14.476 -1.5726 -1.6335  1.4594
  533TMC3    H1 7970   0.533   2.123  14.567  0.8474 -2.5538  1.1986
  533TMC3    H2 7971   0.813   2.432  14.586 -0.5867  0.4699 -3.5882
  533TMC3    C7 7972   0.579   2.375  14.662 -0.1196 -0.0463 -0.5472
  533TMC3    C8 7973   1.023   2.280  14.535  0.1496 -0.1107  0.5681
  533TMC3    O1 7974   0.621   2.486  14.683 -0.1715 -0.4867  0.6814
  533TMC3    O2 7975   1.045   2.394  14.505  0.1410 -0.0198  0.0212
  534MPD2     C 7976   3.209   2.644   1.274  0.1999 -0.5568 -0.5834
  534MPD2    C1 7977   3.158   2.768   1.317  0.1051 -0.3560 -0.0147
  534MPD2    C2 7978   3.039   2.819   1.286 -0.9758 -0.0776  0.5123
  534MPD2    C3 7979   2.963   2.751   1.196  0.5066  0.6133  0.5768
  534MPD2    C4 7980   3.011   2.642   1.125  0.7405 -0.8916 -0.2806
  534MPD2    C5 7981   3.127   2.587   1.179  0.3307 -0.0037  0.3755
  534MPD2     H 7982   3.006   2.911   1.334 -1.0355  0.1118  0.1107
  534MPD2    H1 7983   2.968   2.599   1.036 -0.6555  0.8652 -0.4320
  534MPD2    H2 7984   3.298   2.586   1.295 -1.0047 -2.3419 -0.3857
  534MPD2    H3 7985   3.157   2.503   1.117  0.2094  1.2041 -1.3225
  534MPD2     N 7986   2.835   2.800   1.160 -0.3918  0.0746 -0.3492
  534MPD2    H5 7987   2.776   2.745   1.098  1.8416 -1.6851 -0.9121
  534MPD2    N1 7988   3.225   2.847   1.411 -0.5641  0.1795  0.4266
  534MPD2    H7 7989   3.171   2.923   1.452 -1.6399  0.4202 -1.4717
  535TMC3    C1 7990   2.631   2.913   1.157 -0.4101  0.6332  0.0121
  535TMC3    C2 7991   2.534   2.916   1.250 -0.0981  0.1363  0.6138
  535TMC3    C3 7992   2.405   2.939   1.212  0.7469  0.3248 -1.0483
  535TMC3    C4 7993   2.608   2.924   1.022 -0.1854  0.7005  0.3930
  535TMC3    C5 7994   2.473   2.952   0.985 -0.0315 -0.0547  0.3210
  535TMC3    C6 7995   2.376   2.962   1.078  0.2330  0.1266 -0.5846
  535TMC3     C 7996   2.764   2.907   1.215 -0.2060 -0.1292 -0.4689
  535TMC3     O 7997   2.786   2.987   1.300 -0.4237 -0.0386  0.3107
  535TMC3     H 7998   2.553   2.895   1.355 -0.6540  1.0536  0.8998
  535TMC3    H1 7999   2.689   2.923   0.950 -0.5182 -0.2876  0.0401
  535TMC3    H2 8000   2.271   2.970   1.052 -0.1674  0.9558  1.2656
  535TMC3    C7 8001   2.459   3.028   0.858  0.0947 -0.5924  0.2643
  535TMC3    C8 8002   2.283   2.899   1.286 -0.0701 -0.4784 -0.0039
  535TMC3    O1 8003   2.554   3.021   0.782 -0.2803  0.0470  0.6640
  535TMC3    O2 8004   2.189   2.844   1.228 -0.0509 -0.1859 -0.1543
  536MPD2     C 8005   1.355   1.370  16.301 -0.1455 -0.2221  0.5363
  536MPD2    C1 8006   1.228   1.327  16.336 -0.1443  0.5252 -0.2690
  536MPD2    C2 8007   1.118   1.370  16.262 -0.7465  0.0115 -0.1844
  536MPD2    C3 8008   1.139   1.455  16.155 -0.1111  0.7137  0.8287
  536MPD2    C4 8009   1.270   1.493  16.125  0.3181 -0.5303 -0.1068
  536MPD2    C5 8010   1.375   1.443  16.193 -0.7648  0.9987  0.6378
  536MPD2     H 8011   1.023   1.339  16.304 -0.6456 -0.9719 -0.6796
  536MPD2    H1 8012   1.295   1.562  16.046 -0.8286 -0.0577 -0.0504
  536MPD2    H2 8013   1.441   1.336  16.358  0.5211 -0.8014 -0.8084
  536MPD2    H3 8014   1.474   1.477  16.164 -0.9381  0.9648 -0.0008
  536MPD2     N 8015   1.030   1.510  16.073  0.2221 -0.5645 -0.2928
  536MPD2    H5 8016   1.055   1.573  15.997  2.6390 -1.3673 -0.1647
  536MPD2    N1 8017   1.228   1.234  16.440  0.4326 -0.2344 -0.0872
  536MPD2    H7 8018   1.316   1.232  16.490  1.4498  1.2583 -1.8183
  537TMC3    C1 8019   1.168   1.087  16.611 -0.3315 -0.0490 -0.1895
  537TMC3    C2 8020   1.301   1.074  16.639  0.0923 -0.2445 -0.0833
  537TMC3    C3 8021   1.330   1.011  16.759  0.6342 -0.1644 -0.5898
  537TMC3    C4 8022   1.068   1.035  16.689 -0.0992  0.1086  0.0741
  537TMC3    C5 8023   1.103   0.975  16.808 -0.1985  0.5019 -0.3043
  537TMC3    C6 8024   1.238   0.954  16.839  0.3264 -0.6574 -0.3800
  537TMC3     C 8025   1.122   1.166  16.499  0.0510  0.4019  0.1043
  537TMC3     O 8026   1.003   1.186  16.472  0.2366  0.0674  0.1356
  537TMC3     H 8027   1.383   1.113  16.580 -0.0018  0.2067  0.0885
  537TMC3    H1 8028   0.966   1.057  16.659 -0.9821 -4.0019  0.1732
  537TMC3    H2 8029   1.268   0.921  16.938  3.1166  1.0113 -0.6590
  537TMC3    C7 8030   1.001   0.974  16.910 -0.9444 -0.7772  0.8038
  537TMC3    C8 8031   1.471   1.009  16.799  0.9532  0.2714  0.3823
  537TMC3    O1 8032   0.909   1.055  16.901  0.7472  0.4137 -0.3242
  537TMC3    O2 8033   1.538   1.106  16.770 -0.7977 -0.3883  0.1744
  538TMC3    C1 8034   2.664   4.494  11.261 -0.5021  0.4557 -0.2794
  538TMC3    C2 8035   2.798   4.512  11.228  0.2169  0.0077 -0.4120
  538TMC3    C3 8036   2.819   4.580  11.114 -0.4984  0.1944 -0.2783
  538TMC3    C4 8037   2.566   4.537  11.176  0.3428 -0.0901 -0.2284
  538TMC3    C5 8038   2.600   4.599  11.060  0.0781  0.1787  0.3801
  538TMC3    C6 8039   2.724   4.619  11.020  0.1196 -0.0828  0.0380
  538TMC3     C 8040   2.639   4.483  11.400  0.0148  0.1661  0.1687
  538TMC3     O 8041   2.542   4.540  11.449  0.1423  0.6591 -0.4409
  538TMC3     H 8042   2.879   4.482  11.294  2.1276  0.0147 -2.7321
  538TMC3    H1 8043   2.465   4.557  11.211 -0.6872 -2.4920 -1.8236
  538TMC3    H2 8044   2.744   4.683  10.934  1.7105 -1.3032 -0.5073
  538TMC3    C7 8045   2.496   4.672  10.991 -0.2718 -0.0009 -0.2513
  538TMC3    C8 8046   2.953   4.581  11.059 -0.5455  0.2294 -0.0968
  538TMC3    O1 8047   2.389   4.624  10.964  0.4970 -0.0360  0.7160
  538TMC3    O2 8048   3.032   4.511  11.117  0.7027 -0.3567  0.1277
  539MPD2     C 8049   2.113   3.564  12.253 -0.9194  0.6449  0.5002
  539MPD2    C1 8050   2.217   3.603  12.168  0.1908 -0.1293 -0.0258
  539MPD2    C2 8051   2.231   3.737  12.138  0.6724  0.0296 -0.5201
  539MPD2    C3 8052   2.163   3.835  12.209 -0.2648  0.0920  0.4075
  539MPD2    C4 8053   2.067   3.795  12.298 -0.1230 -0.3792 -0.0938
  539MPD2    C5 8054   2.048   3.662  12.316 -0.6658  1.0788 -0.2623
  539MPD2     H 8055   2.302   3.763  12.061  0.6100 -1.2371 -1.0006
  539MPD2    H1 8056   2.003   3.866  12.349  0.0774 -1.2544  1.3756
  539MPD2    H2 8057   2.099   3.459  12.276  0.8952 -0.0221 -1.4292
  539MPD2    H3 8058   1.973   3.636  12.391  2.5792 -1.1769  2.2044
  539MPD2     N 8059   2.166   3.977  12.181  0.1835  0.5202 -0.0405
  539MPD2    H5 8060   2.098   4.035  12.229 -0.2636 -1.1699  1.3680
  539MPD2    N1 8061   2.296   3.516  12.085 -0.7134  0.5458 -0.0030
  539MPD2    H7 8062   2.371   3.556  12.030  0.0875 -1.0136 -0.0358
  540TMC3    C1 8063   2.215   4.178  12.073 -0.2529  0.2428 -0.1296
  540TMC3    C2 8064   2.242   4.237  11.952  0.1331 -0.4021  0.5834
  540TMC3    C3 8065   2.224   4.371  11.937  0.7125  0.3311 -0.4519
  540TMC3    C4 8066   2.155   4.256  12.172  0.3746 -0.4464 -0.2750
  540TMC3    C5 8067   2.142   4.393  12.151 -0.1724  0.7062  0.3172
  540TMC3    C6 8068   2.175   4.451  12.036  0.6273  1.4711 -0.2439
  540TMC3     C 8069   2.257   4.038  12.103  0.4758 -0.2656 -0.2622
  540TMC3     O 8070   2.340   3.993  12.028  0.4079  0.4430 -0.1921
  540TMC3     H 8071   2.285   4.178  11.871 -0.5460 -0.4319  0.2465
  540TMC3    H1 8072   2.129   4.215  12.269  2.4432  2.2031  1.3979
  540TMC3    H2 8073   2.138   4.549  12.008 -2.6929  0.4154  0.5352
  540TMC3    C7 8074   2.018   4.454  12.192  0.6645  0.1284 -0.0582
  540TMC3    C8 8075   2.211   4.417  11.797 -0.4408  0.2038  0.1751
  540TMC3    O1 8076   1.953   4.494  12.099  0.0629  0.0799  0.4473
  540TMC3    O2 8077   2.248   4.526  11.769  1.0075 -0.2188  0.4151
  541MPD2     C 8078   0.987   0.814  13.282 -0.4118 -0.0781  0.4324
  541MPD2    C1 8079   0.969   0.719  13.186 -0.1817  0.2576 -0.6982
  541MPD2    C2 8080   0.952   0.760  13.049  0.0566 -0.7503  0.1979
  541MPD2    C3 8081   0.956   0.895  13.017  0.0726 -0.2166  0.1781
  541MPD2    C4 8082   0.963   0.991  13.114 -0.3138 -0.1361  0.2552
  541MPD2    C5 8083   0.979   0.944  13.242 -0.4864 -0.1200  0.3740
  541MPD2     H 8084   0.951   0.676  12.981 -2.2870  0.0501 -0.7533
  541MPD2    H1 8085   0.964   1.099  13.102  2.2794 -0.1419  0.2224
  541MPD2    H2 8086   1.003   0.788  13.386  0.1076  0.2801  0.4413
  541MPD2    H3 8087   0.991   1.027  13.311 -2.0600 -0.6527  1.2881
  541MPD2     N 8088   0.918   0.948  12.889  0.1612 -0.3878 -0.2488
  541MPD2    H5 8089   0.882   1.043  12.888  1.2443  0.0285  0.5167
  541MPD2    N1 8090   0.975   0.580  13.215  0.1315 -0.4265 -0.2158
  541MPD2    H7 8091   0.953   0.523  13.135 -0.3410  0.6436 -0.8539
  542TMC3    C1 8092   0.846   0.934  12.663  0.2624 -0.0066  0.6388
  542TMC3    C2 8093   0.869   0.900  12.533  0.0961 -0.4872 -0.3244
  542TMC3    C3 8094   0.776   0.939  12.443 -0.1377 -0.4225  0.4018
  542TMC3    C4 8095   0.741   1.019  12.701 -0.3463 -0.8765  0.3898
  542TMC3    C5 8096   0.645   1.053  12.613 -0.2591  0.0331  0.0473
  542TMC3    C6 8097   0.664   1.004  12.480  0.5551  0.1320 -0.1759
  542TMC3     C 8098   0.923   0.879  12.774 -0.2587  0.2817 -0.0970
  542TMC3     O 8099   0.982   0.775  12.749  0.5058 -0.1989 -0.3433
  542TMC3     H 8100   0.937   0.816  12.520  1.0036  0.3562 -1.0369
  542TMC3    H1 8101   0.720   1.054  12.802  0.7536 -1.0231  0.6720
  542TMC3    H2 8102   0.596   1.041  12.404  0.3576  1.4733  0.6671
  542TMC3    C7 8103   0.537   1.134  12.653  0.5565  0.4528  0.1305
  542TMC3    C8 8104   0.805   0.909  12.303 -0.4045  0.7877 -0.5577
  542TMC3    O1 8105   0.538   1.185  12.762  0.1207 -0.1069  0.5560
  542TMC3    O2 8106   0.717   0.929  12.219  0.4278 -0.3091 -0.4942
  543TMC3    C1 8107   4.734   2.300  17.692  0.0543  0.0272  0.1030
  543TMC3    C2 8108   0.017   2.181  17.749 -0.3288 -0.2871 -0.0312
  543TMC3    C3 8109   4.714   2.163   0.127 -0.0173 -0.8879  0.2956
  543TMC3    C4 8110   4.680   2.403   0.012 -0.3834 -0.1697  0.1088
  543TMC3    C5 8111   4.661   2.394   0.147 -0.5890 -0.0466  0.3830
  543TMC3    C6 8112   4.672   2.267   0.200 -0.3114 -0.1421  0.7299
  543TMC3     C 8113   0.038   2.314  17.555 -0.6845 -0.2456  0.1427
  543TMC3     O 8114   0.111   2.226  17.518 -0.1087 -0.4713  0.1787
  543TMC3     H 8115   0.061   2.097  17.698 -1.0533  0.6463 -2.2093
  543TMC3    H1 8116   4.661   2.501  17.723 -0.6284  0.7699  2.4521
  543TMC3    H2 8117   4.664   2.252   0.307  0.7864  0.3156  0.8858
  543TMC3    C7 8118   4.584   2.493   0.229  0.4302  0.1611 -0.5930
  543TMC3    C8 8119   4.736   2.032   0.182  0.3610  0.3493 -0.3015
  543TMC3    O1 8120   4.533   2.451   0.337 -0.1188 -0.2035  0.2675
  543TMC3    O2 8121   0.071   1.969   0.107  0.1277 -0.0969 -0.7874
  544MPD2     C 8122   4.717   1.669   0.537 -0.6027  0.0342  0.3776
  544MPD2    C1 8123   0.041   1.666   0.417 -0.5135 -0.1203 -0.6827
  544MPD2    C2 8124   0.027   1.778   0.333 -0.3954 -0.2348  0.8939
  544MPD2    C3 8125   4.675   1.884   0.364 -0.1867  0.1066 -0.1814
  544MPD2    C4 8126   4.606   1.878   0.482  0.1313 -0.4053  0.1242
  544MPD2    C5 8127   4.620   1.764   0.563 -0.7563  0.1016 -0.0650
  544MPD2     H 8128   0.092   1.793   0.248  0.0907 -3.1514  0.7378
  544MPD2    H1 8129   4.539   1.957   0.513 -0.0877 -1.4775  2.4233
  544MPD2    H2 8130   4.727   1.594   0.615 -0.4826 -0.3218  0.0143
  544MPD2    H3 8131   4.569   1.763   0.658  1.1028  1.2935  0.9336
  544MPD2     N 8132   4.665   2.003   0.293 -0.5052 -0.0265  0.3405
  544MPD2    H5 8133   4.600   2.071   0.331  0.4176  1.8843 -1.5502
  544MPD2    N1 8134   0.119   1.548   0.388 -0.3441 -0.1214 -0.0448
  544MPD2    H7 8135   0.121   1.464   0.446  1.5773  0.0442  0.1316
  545TMC3    C1 8136   0.260   1.404   0.257 -1.0571  0.5403 -0.1530
  545TMC3    C2 8137   0.345   1.385   0.360  0.9704  0.0634  0.2424
  545TMC3    C3 8138   0.442   1.288   0.343 -0.6436  1.2996  0.2210
  545TMC3    C4 8139   0.281   1.343   0.133  0.1813  0.4468  0.6399
  545TMC3    C5 8140   0.359   1.232   0.131 -0.1905  0.0357  0.3177
  545TMC3    C6 8141   0.457   1.214   0.230 -0.3903  0.7717  0.5387
  545TMC3     C 8142   0.180   1.532   0.270  0.1796  0.2691 -0.1648
  545TMC3     O 8143   0.184   1.599   0.168 -0.2920  0.2816  0.3218
  545TMC3     H 8144   0.326   1.433   0.456  0.7084 -0.9984  0.7232
  545TMC3    H1 8145   0.212   1.366   0.052 -0.2682  1.3634  1.2899
  545TMC3    H2 8146   0.525   1.130   0.224  0.5380  1.5130  0.7373
  545TMC3    C7 8147   0.347   1.147   0.018  0.8610 -0.4580 -0.1988
  545TMC3    C8 8148   0.539   1.259   0.442  0.1994  0.0945  0.3875
  545TMC3    O1 8149   0.272   1.181  17.676  0.7820 -0.0131  0.5214
  545TMC3    O2 8150   0.573   1.142   0.439 -1.0019 -0.4264 -0.3609
  546MPD2     C 8151   1.543   1.695  17.023  0.2219 -0.0397 -0.0285
  546MPD2    C1 8152   1.529   1.735  17.155  0.1671  0.4068 -0.4066
  546MPD2    C2 8153   1.613   1.839  17.198 -0.2670 -0.0538 -0.2960
  546MPD2    C3 8154   1.709   1.893  17.122  0.4269 -0.2796  0.8471
  546MPD2    C4 8155   1.720   1.850  16.993  0.2173  0.5072  0.4168
  546MPD2    C5 8156   1.635   1.757  16.940  0.7500  0.1912 -0.0765
  546MPD2     H 8157   1.595   1.876  17.298 -0.9433 -2.5929  0.5118
  546MPD2    H1 8158   1.792   1.905  16.934  0.1429  1.5114  1.2373
  546MPD2    H2 8159   1.484   1.615  16.981 -0.3598  1.0782 -1.3348
  546MPD2    H3 8160   1.647   1.722  16.837 -2.2891  1.4219 -0.8410
  546MPD2     N 8161   1.787   2.001  17.175 -0.4361 -0.2586  0.1909
  546MPD2    H5 8162   1.808   2.062  17.097  0.3947  0.0901  0.6836
  546MPD2    N1 8163   1.425   1.678  17.234 -0.4722 -0.1447  0.2457
  546MPD2    H7 8164   1.346   1.641  17.182  0.2272 -0.1764 -0.7800
  547TMC3    C1 8165   1.269   1.691  17.406 -0.3667  0.3799 -0.2485
  547TMC3    C2 8166   1.172   1.725  17.314  0.2647  0.3567  0.5380
  547TMC3    C3 8167   1.048   1.715  17.349  0.1024 -0.0138  0.4063
  547TMC3    C4 8168   1.240   1.649  17.532 -0.0532  1.2166 -0.0713
  547TMC3    C5 8169   1.104   1.634  17.554  0.2859  0.3596 -0.2220
  547TMC3    C6 8170   1.001   1.666  17.469 -1.2784 -0.1097 -0.3273
  547TMC3     C 8171   1.411   1.685  17.372 -0.3447  0.1636  0.1437
  547TMC3     O 8172   1.496   1.696  17.458  0.2302 -0.5876  0.5172
  547TMC3     H 8173   1.198   1.766  17.217  0.6348 -2.0186 -0.3855
  547TMC3    H1 8174   1.316   1.631  17.607  0.9579  2.2922 -0.8410
  547TMC3    H2 8175   0.899   1.636  17.488 -1.3621  1.4561  1.6031
  547TMC3    C7 8176   1.067   1.570  17.677 -0.2913  1.0358  0.2886
  547TMC3    C8 8177   0.945   1.762  17.260  0.6061 -0.2518 -0.3008
  547TMC3    O1 8178   0.953   1.586  17.714 -0.2206 -0.1582  0.2158
  547TMC3    O2 8179   0.837   1.797  17.304 -0.3548 -0.3133 -0.1125
  548MPD2     C 8180   1.556   2.420  12.357  1.1773 -0.1312  0.1894
  548MPD2    C1 8181   1.516   2.342  12.464  0.1742  0.3857 -0.3888
  548MPD2    C2 8182   1.551   2.212  12.457  0.7807 -0.0666  0.3957
  548MPD2    C3 8183   1.620   2.154  12.348 -0.2109 -0.6880  0.6786
  548MPD2    C4 8184   1.646   2.236  12.239 -0.3244  0.1853  0.5206
  548MPD2    C5 8185   1.619   2.372  12.244  0.4167  0.2345 -0.4179
  548MPD2     H 8186   1.509   2.149  12.534 -1.2051  1.3794  0.5074
  548MPD2    H1 8187   1.698   2.207  12.148  2.3894  1.5178  1.6552
  548MPD2    H2 8188   1.513   2.520  12.352  1.7673  0.1056 -0.2487
  548MPD2    H3 8189   1.656   2.427  12.158 -0.5072  2.4968  0.6365
  548MPD2     N 8190   1.652   2.020  12.354 -0.1805  0.0879  0.0574
  548MPD2    H5 8191   1.634   1.970  12.440  0.7317  1.0225  0.7754
  548MPD2    N1 8192   1.418   2.384  12.565 -0.3777 -0.5019 -0.5217
  548MPD2    H7 8193   1.373   2.317  12.626 -2.8229  1.5348 -0.0736
  549TMC3    C1 8194   1.248   2.532  12.649 -0.0911  0.1307 -0.1963
  549TMC3    C2 8195   1.165   2.632  12.623 -0.6972  0.2410 -0.9016
  549TMC3    C3 8196   1.029   2.614  12.652  0.0816 -0.4306 -0.5443
  549TMC3    C4 8197   1.209   2.428  12.734 -0.3124 -0.4254  0.1902
  549TMC3    C5 8198   1.077   2.425  12.769 -0.0869 -0.3002 -0.7832
  549TMC3    C6 8199   0.984   2.502  12.709  1.0264 -0.0049 -0.2712
  549TMC3     C 8200   1.373   2.518  12.574 -0.2923  0.2649  0.1680
  549TMC3     O 8201   1.421   2.620  12.521  0.0735 -0.3710  0.5528
  549TMC3     H 8202   1.198   2.709  12.554 -1.4026  2.5835  1.3728
  549TMC3    H1 8203   1.279   2.368  12.792 -0.2658  1.0714  1.6648
  549TMC3    H2 8204   0.877   2.497  12.730  0.9697 -0.4990 -0.6637
  549TMC3    C7 8205   1.018   2.322  12.848 -0.3486  0.0857  0.7899
  549TMC3    C8 8206   0.940   2.718  12.614 -0.2259  0.6956  0.1338
  549TMC3    O1 8207   0.903   2.324  12.874 -1.1552 -0.3744 -0.3151
  549TMC3    O2 8208   0.826   2.681  12.581  0.2029 -0.5061  0.2980
  550TMC3    C1 8209   0.569   0.199  12.210 -0.0292  1.1463 -0.2724
  550TMC3    C2 8210   0.499   0.287  12.296 -0.3731 -0.4365 -0.4870
  550TMC3    C3 8211   0.447   0.398  12.243  0.4095 -0.5809  0.2339
  550TMC3    C4 8212   0.596   0.231  12.078  0.1990 -0.3289 -0.7548
  550TMC3    C5 8213   0.525   0.335  12.026  0.5584  0.4477 -0.6906
  550TMC3    C6 8214   0.462   0.418  12.108 -0.5099 -0.1524  0.2763
  550TMC3     C 8215   0.495   0.071  12.228  0.7430 -0.4215 -0.5557
  550TMC3     O 8216   0.450   0.039  12.339 -0.1894  0.7590 -0.1335
  550TMC3     H 8217   0.496   0.251  12.398 -2.5334  1.9269  0.2941
  550TMC3    H1 8218   0.655   0.172  12.008  2.3135 -0.8408  1.4383
  550TMC3    H2 8219   0.396   0.495  12.068  0.0598 -0.3906 -1.1030
  550TMC3    C7 8220   0.473   0.305  11.900  0.2577 -1.0128  0.9787
  550TMC3    C8 8221   0.311   0.424  12.271  0.2019 -0.0509 -0.2869
  550TMC3    O1 8222   0.483   0.187  11.862 -0.0814  0.0224 -0.3290
  550TMC3    O2 8223   0.245   0.515  12.223  0.1688 -0.4879  0.5443
  551TMC3    C1 8224   2.632   3.210  13.765  0.4496  0.9387 -0.2515
  551TMC3    C2 8225   2.738   3.271  13.706  0.3401  0.0569 -0.0033
  551TMC3    C3 8226   2.798   3.369  13.787 -0.2409  0.5431 -0.0692
  551TMC3    C4 8227   2.583   3.244  13.891 -0.1670  0.0027  0.0990
  551TMC3    C5 8228   2.639   3.351  13.964  0.3257 -0.9867 -0.1624
  551TMC3    C6 8229   2.755   3.408  13.915 -0.3056  0.5387 -0.1576
  551TMC3     C 8230   2.559   3.114  13.683 -0.6182 -0.4566  0.4358
  551TMC3     O 8231   2.549   3.133  13.563  0.6269  0.8973  0.0848
  551TMC3     H 8232   2.775   3.249  13.607  0.7917  1.3064 -0.1116
  551TMC3    H1 8233   2.486   3.201  13.913  0.0632 -0.3604  0.4274
  551TMC3    H2 8234   2.796   3.492  13.971 -0.2409 -0.6340  1.5525
  551TMC3    C7 8235   2.583   3.380  14.099  0.5041  0.1903 -0.0670
  551TMC3    C8 8236   2.894   3.463  13.728  0.7600 -1.0386  0.0097
  551TMC3    O1 8237   2.654   3.463  14.157  0.1531  0.1557  0.2851
  551TMC3    O2 8238   2.875   3.480  13.609 -0.0594 -0.3184  0.3987
  552MPD2     C 8239   4.672   0.559  13.831  0.4015  0.2753  0.1469
  552MPD2    C1 8240   4.665   0.435  13.880 -0.9511 -0.1436  0.2309
  552MPD2    C2 8241   0.037   0.364  13.922 -0.5073 -0.7455 -0.5657
  552MPD2    C3 8242   0.165   0.420  13.905  0.2409 -0.0650 -0.5710
  552MPD2    C4 8243   0.170   0.544  13.840  1.0109  0.2296  0.6067
  552MPD2    C5 8244   0.061   0.612  13.816 -0.2400  0.3628  0.4899
  552MPD2     H 8245   0.026   0.267  13.968  1.0821 -1.4224 -1.6257
  552MPD2    H1 8246   0.263   0.594  13.817 -0.2717  1.8277 -1.1130
  552MPD2    H2 8247   4.589   0.623  13.802  0.7006  0.3707 -0.5029
  552MPD2    H3 8248   0.075   0.710  13.772 -0.3076  0.0139 -0.3118
  552MPD2     N 8249   0.288   0.361  13.942 -0.2048 -0.5525  0.4355
  552MPD2    H5 8250   0.367   0.424  13.929  0.2377 -0.9996  0.9505
  552MPD2    N1 8251   4.534   0.375  13.902 -0.0680  0.1651 -0.3897
  552MPD2    H7 8252   4.547   0.279  13.933 -0.4665  0.0259 -0.6532
  553TMC3    C1 8253   4.306   0.324  13.884  0.2986  0.0652 -0.4444
  553TMC3    C2 8254   4.227   0.312  13.779 -0.0006  0.3186 -0.0021
  553TMC3    C3 8255   4.167   0.190  13.762  0.5623 -0.2317 -0.2682
  553TMC3    C4 8256   4.335   0.219  13.970  0.5853  0.6343 -0.2621
  553TMC3    C5 8257   4.286   0.093  13.946  0.0154  0.4803  0.7077
  553TMC3    C6 8258   4.196   0.079  13.848 -0.4293 -0.0689 -0.0565
  553TMC3     C 8259   4.413   0.425  13.861 -0.1570 -0.1100 -0.6524
  553TMC3     O 8260   4.385   0.516  13.782  0.6251 -0.2665  0.0062
  553TMC3     H 8261   4.214   0.399  13.716 -1.3394 -0.9639 -1.5127
  553TMC3    H1 8262   4.411   0.225  14.047 -0.1887 -1.6461  0.6754
  553TMC3    H2 8263   4.174   4.716  13.819  1.2309 -0.6109  0.5824
  553TMC3    C7 8264   4.398   0.008  13.950  0.0214 -0.2494 -0.0834
  553TMC3    C8 8265   4.171   0.143  13.623  0.5593 -0.3471 -1.0779
  553TMC3    O1 8266   4.451   4.728  14.059 -0.3232  0.4214 -0.9282
  553TMC3    O2 8267   4.263   0.192  13.558  0.0843 -0.1032  0.3155
  554TMC3    C1 8268   1.582   4.356  11.866 -0.0946  0.1661  0.5308
  554TMC3    C2 8269   1.598   4.239  11.798 -0.2263  0.2823 -0.9799
  554TMC3    C3 8270   1.642   4.241  11.675 -0.5430  0.1845 -0.7705
  554TMC3    C4 8271   1.619   4.481  11.812 -0.3928 -0.0584 -0.5169
  554TMC3    C5 8272   1.671   4.475  11.681 -0.3013 -0.1639  0.2356
  554TMC3    C6 8273   1.682   4.357  11.615  0.3657 -0.0920  0.1627
  554TMC3     C 8274   1.590   4.353  12.014  0.2989 -0.2726 -0.5510
  554TMC3     O 8275   1.596   4.462  12.070 -0.4017  0.0804 -0.0773
  554TMC3     H 8276   1.568   4.144  11.842  3.8060 -0.4535  0.1232
  554TMC3    H1 8277   1.621   4.575  11.867  0.7747 -1.9797  2.6967
  554TMC3    H2 8278   1.736   4.354  11.521 -2.2325  0.0715 -1.3460
  554TMC3    C7 8279   1.668   4.601  11.594  0.0260 -0.4829  0.1506
  554TMC3    C8 8280   1.599   4.142  11.572  0.7103  0.3457 -0.0160
  554TMC3    O1 8281   1.601   4.592  11.487 -0.1025  0.0696  0.4197
  554TMC3    O2 8282   1.613   4.180  11.455  0.1915  0.2421 -0.6961
  555TMC3    C1 8283   0.913   3.951  15.621  0.7412  0.4012  0.6462
  555TMC3    C2 8284   0.986   3.968  15.735  0.4179  0.3059  0.0185
  555TMC3    C3 8285   1.014   3.864  15.813 -0.2041  0.8531 -0.3343
  555TMC3    C4 8286   0.899   3.827  15.569  0.3376 -0.3965 -0.2238
  555TMC3    C5 8287   0.936   3.718  15.647 -0.0816  0.5194 -0.0795
  555TMC3    C6 8288   0.990   3.737  15.772  0.0873 -0.9110 -0.0821
  555TMC3     C 8289   0.928   4.061  15.528  0.3144  0.3770 -0.5292
  555TMC3     O 8290   1.001   4.153  15.562 -0.9472 -0.1441  0.2145
  555TMC3     H 8291   1.009   4.067  15.772  0.0994  0.6838 -0.7973
  555TMC3    H1 8292   0.855   3.811  15.472 -2.1605  2.3674  0.4691
  555TMC3    H2 8293   1.033   3.654  15.827 -0.2070 -0.1945  1.2272
  555TMC3    C7 8294   0.879   3.589  15.626 -0.4692  0.0436 -0.5701
  555TMC3    C8 8295   1.087   3.891  15.938 -0.0017  0.3694 -1.1114
  555TMC3    O1 8296   0.883   3.516  15.723 -0.7230 -0.7649 -0.0213
  555TMC3    O2 8297   1.110   4.011  15.962  0.0845  0.4607  0.0810
  556MPD2     C 8298   3.070   1.059  11.313 -0.6051 -0.0109  0.2620
  556MPD2    C1 8299   3.079   0.921  11.330 -0.2892 -0.5887  0.4424
  556MPD2    C2 8300   3.076   0.840  11.222 -0.7442  0.2406 -0.4119
  556MPD2    C3 8301   3.063   0.891  11.091  0.0075 -0.6710  0.2766
  556MPD2    C4 8302   3.047   1.028  11.070 -0.0722  0.3732  0.3693
  556MPD2    C5 8303   3.050   1.110  11.182  0.9658 -0.6038  1.0664
  556MPD2     H 8304   3.098   0.735  11.239  0.4942  0.9892  2.7902
  556MPD2    H1 8305   3.042   1.077  10.973 -3.2587 -0.3909  0.1461
  556MPD2    H2 8306   3.097   1.129  11.391 -1.7173 -1.3747  1.8631
  556MPD2    H3 8307   3.033   1.217  11.178 -2.8968 -1.2281  0.7750
  556MPD2     N 8308   3.071   0.801  10.989  0.3553 -0.2673  0.1410
  556MPD2    H5 8309   3.097   0.708  11.020  0.8368  0.1372  0.9433
  556MPD2    N1 8310   3.099   0.875  11.462  0.1000 -0.1613  0.3376
  556MPD2    H7 8311   3.131   0.946  11.528  0.8478  2.3404 -2.7195
  557TMC3    C1 8312   3.050   0.699  10.781 -0.0016 -0.3573 -0.1220
  557TMC3    C2 8313   2.991   0.698  10.657 -0.2003  0.8577  0.1631
  557TMC3    C3 8314   3.035   0.607  10.564 -0.4320 -0.4475  0.6779
  557TMC3    C4 8315   3.155   0.614  10.811 -0.0493 -0.2178  0.3928
  557TMC3    C5 8316   3.191   0.513  10.721  0.0134  0.2463  0.1983
  557TMC3    C6 8317   3.132   0.511  10.594 -0.7318 -0.1013 -0.4998
  557TMC3     C 8318   3.026   0.816  10.865  0.3644 -0.0400 -0.1995
  557TMC3     O 8319   2.968   0.910  10.813 -0.4723 -0.2238 -0.4004
  557TMC3     H 8320   2.893   0.745  10.653 -0.0143  0.8989 -3.3014
  557TMC3    H1 8321   3.215   0.619  10.901  0.4524  0.0579  0.0449
  557TMC3    H2 8322   3.150   0.435  10.518 -0.6398  0.3215 -0.8993
  557TMC3    C7 8323   3.185   0.390  10.800 -0.0555 -0.1451 -0.1049
  557TMC3    C8 8324   2.947   0.596  10.451  0.2264 -0.1260  0.6621
  557TMC3    O1 8325   3.119   0.399  10.902  0.3090  0.3786 -0.5922
  557TMC3    O2 8326   2.920   0.703  10.397 -0.5057  0.5312 -0.6214
  558TMC3    C1 8327   0.884   2.798  10.190  0.1967 -1.1680 -1.2417
  558TMC3    C2 8328   0.815   2.758  10.300 -0.6012 -0.9174  0.4953
  558TMC3    C3 8329   0.705   2.676  10.284 -0.2713  0.4421  0.1515
  558TMC3    C4 8330   0.844   2.767  10.069  1.0570 -0.0910 -0.3044
  558TMC3    C5 8331   0.736   2.680  10.054 -0.2956  0.0269  0.1922
  558TMC3    C6 8332   0.669   2.629  10.162  0.1078 -0.0708 -0.0415
  558TMC3     C 8333   1.011   2.859  10.217  0.0280 -0.5426 -0.2790
  558TMC3     O 8334   1.012   2.925  10.321  0.2167 -0.2961  0.3642
  558TMC3     H 8335   0.851   2.773  10.402  1.8537 -2.1499 -0.1891
  558TMC3    H1 8336   0.898   2.808   9.984  1.0805 -0.7337 -0.6000
  558TMC3    H2 8337   0.588   2.557  10.153 -1.1357  1.3022 -0.0024
  558TMC3    C7 8338   0.667   2.699   9.926  0.6940  0.1101 -0.7168
  558TMC3    C8 8339   0.643   2.622  10.402  0.2937 -0.6021  0.7095
  558TMC3    O1 8340   0.742   2.736   9.834  0.1986 -0.7132  0.3719
  558TMC3    O2 8341   0.525   2.591  10.386 -0.4388  0.2614  0.1411
  559MPD2     C 8342   1.239   3.411  10.858  1.7096 -0.8277 -0.3753
  559MPD2    C1 8343   1.210   3.301  10.931  0.7503  0.6471  0.4015
  559MPD2    C2 8344   1.305   3.254  11.022  0.4937  0.1112 -0.2894
  559MPD2    C3 8345   1.425   3.315  11.041  0.0364  0.7218 -0.1850
  559MPD2    C4 8346   1.448   3.431  10.969  0.0016 -0.3367 -0.3129
  559MPD2    C5 8347   1.362   3.470  10.867 -0.3497 -0.3391 -0.7214
  559MPD2     H 8348   1.280   3.166  11.080  1.9371  0.0040  0.1670
  559MPD2    H1 8349   1.543   3.482  10.976 -0.1704 -0.0920  0.2410
  559MPD2    H2 8350   1.178   3.450  10.777 -1.6809 -0.9531  2.1472
  559MPD2    H3 8351   1.385   3.562  10.815  2.5956 -1.9418 -2.2023
  559MPD2     N 8352   1.522   3.247  11.118  0.1889 -0.4579 -0.4439
  559MPD2    H5 8353   1.493   3.175  11.183  0.0468  2.0347  2.2713
  559MPD2    N1 8354   1.087   3.239  10.900 -0.3412 -0.0533  0.2152
  559MPD2    H7 8355   1.035   3.293  10.831  1.3252  0.8383 -0.3578
  560TMC3    C1 8356   1.691   3.242  11.281  0.6464 -0.1777 -0.3749
  560TMC3    C2 8357   1.700   3.110  11.275  0.7616  0.7375  0.0778
  560TMC3    C3 8358   1.736   3.042  11.390 -0.1669 -0.6455 -0.3805
  560TMC3    C4 8359   1.740   3.318  11.380 -0.8401  0.2640  0.2500
  560TMC3    C5 8360   1.767   3.250  11.498  0.5196  0.0088  0.4391
  560TMC3    C6 8361   1.760   3.112  11.501 -0.5995 -0.3061 -0.1662
  560TMC3     C 8362   1.631   3.311  11.168 -0.0305 -0.2643  0.2617
  560TMC3     O 8363   1.691   3.411  11.133  0.7146 -0.1566 -0.4226
  560TMC3     H 8364   1.675   3.064  11.180 -1.9824  0.5844  0.8724
  560TMC3    H1 8365   1.713   3.421  11.359  0.2923  0.3743 -0.6181
  560TMC3    H2 8366   1.767   3.061  11.597 -0.8218 -0.5072 -0.2562
  560TMC3    C7 8367   1.817   3.314  11.618  0.0628 -0.3547  0.3848
  560TMC3    C8 8368   1.670   2.912  11.395 -1.4977  0.2324 -0.3876
  560TMC3    O1 8369   1.819   3.257  11.724  0.0525 -0.3893  0.0716
  560TMC3    O2 8370   1.613   2.870  11.295 -0.0951  0.4140  0.6693
  561TMC3    C1 8371   4.093   2.290  11.608  0.2849  0.4249 -0.1452
  561TMC3    C2 8372   4.069   2.270  11.743 -0.1165  0.2631  0.1086
  561TMC3    C3 8373   3.982   2.355  11.804 -0.1636  0.0884  0.8113
  561TMC3    C4 8374   4.025   2.374  11.532 -0.7782  0.1766  0.2877
  561TMC3    C5 8375   3.937   2.454  11.596 -0.0954  0.2925  0.4900
  561TMC3    C6 8376   3.909   2.447  11.735  0.0394  0.2650 -0.1047
  561TMC3     C 8377   4.203   2.212  11.550  0.0736 -0.8818  0.4613
  561TMC3     O 8378   4.225   2.098  11.590  0.0229  0.3456  0.1839
  561TMC3     H 8379   4.117   2.189  11.797 -3.0238 -0.0251  2.2964
  561TMC3    H1 8380   4.046   2.374  11.426 -1.4605  0.4621  0.1496
  561TMC3    H2 8381   3.844   2.512  11.792 -1.2977 -1.3134  0.1595
  561TMC3    C7 8382   3.889   2.581  11.543 -0.8099  0.0803 -0.2378
  561TMC3    C8 8383   3.964   2.331  11.952 -0.0109  1.0147 -0.1686
  561TMC3    O1 8384   3.807   2.639  11.609 -0.5887  0.3095 -0.3237
  561TMC3    O2 8385   4.050   2.270  12.013 -0.0628 -0.5636 -0.0042
  562TMC3    C1 8386   0.867   4.095  16.184  0.8565 -0.1492 -0.4505
  562TMC3    C2 8387   0.882   4.208  16.110  0.0113  0.3015 -0.0433
  562TMC3    C3 8388   0.813   4.213  15.988  0.7670 -0.3662 -0.6094
  562TMC3    C4 8389   0.780   3.996  16.154 -0.3449  0.5452 -0.9523
  562TMC3    C5 8390   0.713   4.005  16.032 -0.3744  0.3119  0.3951
  562TMC3    C6 8391   0.729   4.116  15.950  0.5969  0.2276  0.3929
  562TMC3     C 8392   0.953   4.073  16.300 -0.3259 -0.7963 -1.2010
  562TMC3     O 8393   0.922   3.990  16.379  0.4334  0.5766  0.3352
  562TMC3     H 8394   0.938   4.297  16.134  3.5987 -1.4427 -1.9430
  562TMC3    H1 8395   0.788   3.899  16.202  5.0423  1.3961 -0.1451
  562TMC3    H2 8396   0.675   4.106  15.856 -1.1138  0.3925  1.3485
  562TMC3    C7 8397   0.668   3.886  15.968  0.1107 -0.1358  0.1099
  562TMC3    C8 8398   0.843   4.327  15.892  0.2470  0.5070  0.9312
  562TMC3    O1 8399   0.677   3.872  15.847 -0.5451  0.2741  0.5301
  562TMC3    O2 8400   0.942   4.391  15.921  0.6740 -0.4098  0.0993
  563MPD2     C 8401   2.559   0.600  15.799  0.2507 -0.1924 -0.4029
  563MPD2    C1 8402   2.603   0.565  15.931  0.8525  0.8287  0.4087
  563MPD2    C2 8403   2.738   0.526  15.951 -0.7009  0.6526  0.6701
  563MPD2    C3 8404   2.822   0.536  15.839  0.0084  0.0090  0.6174
  563MPD2    C4 8405   2.772   0.575  15.718 -0.1417 -0.3739 -0.5938
  563MPD2    C5 8406   2.644   0.600  15.692 -0.0666 -0.2499 -0.0991
  563MPD2     H 8407   2.784   0.490  16.043 -1.0919 -0.3749  0.4632
  563MPD2    H1 8408   2.834   0.567  15.630 -0.5742  1.4020 -1.0588
  563MPD2    H2 8409   2.456   0.631  15.781  0.3723 -0.9425 -2.3701
  563MPD2    H3 8410   2.596   0.618  15.597 -1.2822  0.9232  0.7373
  563MPD2     N 8411   2.953   0.474  15.852 -0.8058  0.2913 -0.2171
  563MPD2    H5 8412   2.986   0.429  15.937 -2.4898  0.4592  0.5168
  563MPD2    N1 8413   2.506   0.560  16.027 -0.4544 -0.1357 -0.1001
  563MPD2    H7 8414   2.407   0.564  16.004 -0.3126  1.1077 -0.4670
  564TMC3    C1 8415   2.411   0.489  16.243  0.1795 -0.0457 -0.2710
  564TMC3    C2 8416   2.341   0.382  16.194  0.0427  1.1806  0.8320
  564TMC3    C3 8417   2.283   0.283  16.275 -0.6550  0.7344  0.3763
  564TMC3    C4 8418   2.443   0.488  16.376 -0.5126 -0.3861  0.4009
  564TMC3    C5 8419   2.404   0.378  16.450  0.3611 -0.8162 -0.6849
  564TMC3    C6 8420   2.312   0.281  16.411 -0.6174 -0.7889  0.1652
  564TMC3     C 8421   2.528   0.543  16.166 -0.1465 -0.7822  0.2978
  564TMC3     O 8422   2.633   0.560  16.224 -0.0071 -0.2106  0.5323
  564TMC3     H 8423   2.340   0.367  16.086  0.4728 -1.4602  1.2037
  564TMC3    H1 8424   2.509   0.563  16.418 -0.5349 -0.6814  0.9635
  564TMC3    H2 8425   2.254   0.217  16.477  1.5292 -1.0318  1.8252
  564TMC3    C7 8426   2.520   0.320  16.516  0.0698  0.0874 -0.6388
  564TMC3    C8 8427   2.286   0.144  16.223  0.1549 -0.0821 -0.2814
  564TMC3    O1 8428   2.604   0.395  16.565 -0.3037  0.4838  0.3338
  564TMC3    O2 8429   2.307   0.058  16.306 -0.0497  0.1224 -0.3406
  565TMC3    C1 8430   3.330   2.216  10.553  0.4855 -0.6072  0.2618
  565TMC3    C2 8431   3.351   2.152  10.672 -0.3533 -0.4584  0.2121
  565TMC3    C3 8432   3.245   2.110  10.738 -0.5485 -0.5987  0.0635
  565TMC3    C4 8433   3.209   2.213  10.494 -0.1444 -0.1426 -0.8285
  565TMC3    C5 8434   3.104   2.165  10.557  1.0035 -0.4422 -0.0754
  565TMC3    C6 8435   3.118   2.116  10.684  0.4898 -0.1489  0.5669
  565TMC3     C 8436   3.438   2.288  10.483 -0.0441 -0.1083  0.7404
  565TMC3     O 8437   3.411   2.357  10.385  0.3605 -0.0831  0.2220
  565TMC3     H 8438   3.449   2.149  10.718 -0.1330  0.3017 -0.2114
  565TMC3    H1 8439   3.192   2.274  10.405 -1.7946  3.7260  2.1070
  565TMC3    H2 8440   3.043   2.050  10.726  2.4178 -1.9275  1.2245
  565TMC3    C7 8441   2.966   2.218  10.536  0.2005 -1.1414  0.4970
  565TMC3    C8 8442   3.260   2.057  10.874  0.1986  0.0802  0.6077
  565TMC3    O1 8443   2.886   2.186  10.623 -0.1107 -0.7160  0.0710
  565TMC3    O2 8444   3.379   2.061  10.905 -0.3351  0.1798  0.3284
  566MPD2     C 8445   4.681   3.010  14.599 -0.7052 -0.2631 -0.0203
  566MPD2    C1 8446   4.717   3.079  14.485 -0.2789  0.1580 -0.0187
  566MPD2    C2 8447   4.616   3.129  14.401  0.0152 -0.5514  0.7124
  566MPD2    C3 8448   4.485   3.104  14.428 -0.3255  0.2129 -0.4344
  566MPD2    C4 8449   4.457   3.021  14.530 -0.0591  0.0269 -0.7446
  566MPD2    C5 8450   4.555   2.970  14.617 -0.2439  0.0207 -0.6978
  566MPD2     H 8451   4.640   3.192  14.317  2.6857 -2.2527  0.2105
  566MPD2    H1 8452   4.351   3.004  14.547 -0.1858  1.8386  0.2115
  566MPD2    H2 8453   0.029   2.980  14.657 -0.1540  1.4144  0.0041
  566MPD2    H3 8454   4.529   2.912  14.705 -1.6341  0.7929 -0.6040
  566MPD2     N 8455   4.374   3.162  14.359 -0.0163  0.9279 -0.5399
  566MPD2    H5 8456   4.281   3.135  14.387  0.8262 -0.3756  1.0469
  566MPD2    N1 8457   0.117   3.107  14.463  0.2644  0.2225  0.4764
  566MPD2    H7 8458   0.187   3.090  14.534 -1.5921  0.2831  2.3317
  567TMC3    C1 8459   0.298   3.232  14.370  0.3593  0.3754 -0.3378
  567TMC3    C2 8460   0.344   3.293  14.261  0.7062 -0.1242 -0.3538
  567TMC3    C3 8461   0.416   3.409  14.267  0.2637  0.1145  0.0793
  567TMC3    C4 8462   0.354   3.264  14.490  0.2166 -0.3367 -0.6607
  567TMC3    C5 8463   0.435   3.378  14.500 -0.4397  0.0536  0.6265
  567TMC3    C6 8464   0.463   3.453  14.391  0.1626 -0.5141  0.5554
  567TMC3     C 8465   0.167   3.180  14.356 -0.7613  0.2180  0.6489
  567TMC3     O 8466   0.113   3.185  14.249  0.3696  0.2344 -0.3019
  567TMC3     H 8467   0.303   3.268  14.164 -2.4062  1.5706  0.5028
  567TMC3    H1 8468   0.328   3.211  14.581 -0.8525  0.3976 -0.5349
  567TMC3    H2 8469   0.520   3.545  14.394 -1.0693  0.3103 -1.1632
  567TMC3    C7 8470   0.488   3.432  14.628 -0.1907  0.3580 -0.0843
  567TMC3    C8 8471   0.385   3.511  14.164 -0.0348  0.6625 -0.6081
  567TMC3    O1 8472   0.593   3.498  14.618 -0.2147  0.3344 -0.6241
  567TMC3    O2 8473   0.296   3.481  14.085 -0.3521 -0.1017  0.3923
  568MPD2     C 8474   2.268   3.476  16.459 -0.3275 -0.2450 -0.2573
  568MPD2    C1 8475   2.319   3.571  16.546 -0.0104 -0.1012  0.6194
  568MPD2    C2 8476   2.373   3.684  16.497 -0.3127 -0.1641  0.1723
  568MPD2    C3 8477   2.381   3.714  16.365  0.2785 -0.8587  0.3318
  568MPD2    C4 8478   2.341   3.614  16.278  0.1121 -0.0609  0.2454
  568MPD2    C5 8479   2.287   3.499  16.328 -0.1609  1.3525  0.0693
  568MPD2     H 8480   2.397   3.761  16.570  1.2383  0.0591 -0.5866
  568MPD2    H1 8481   2.323   3.616  16.171  0.7078 -3.9851  0.0906
  568MPD2    H2 8482   2.223   3.381  16.482  0.8398 -0.7252  0.0455
  568MPD2    H3 8483   2.255   3.424  16.256  0.9885 -1.1994  2.1765
  568MPD2     N 8484   2.424   3.838  16.328  0.0784  0.2304 -0.2419
  568MPD2    H5 8485   2.451   3.896  16.407 -0.9778  1.0664 -0.4932
  568MPD2    N1 8486   2.322   3.534  16.684 -0.0393  0.3878  0.2801
  568MPD2    H7 8487   2.284   3.442  16.704  1.0946 -0.3823 -1.1272
  569TMC3    C1 8488   2.468   4.030  16.203 -0.2258  1.3272 -0.1030
  569TMC3    C2 8489   2.489   4.088  16.326 -0.1148 -0.2716 -0.4858
  569TMC3    C3 8490   2.530   4.212  16.320 -0.6882  0.8331  0.2145
  569TMC3    C4 8491   2.477   4.098  16.088  0.1323 -0.4079 -0.9364
  569TMC3    C5 8492   2.538   4.222  16.085  0.1025  0.3676 -0.4786
  569TMC3    C6 8493   2.562   4.285  16.209  0.5165  0.9280  0.5470
  569TMC3     C 8494   2.431   3.893  16.198  0.4136 -0.3371 -0.3757
  569TMC3     O 8495   2.410   3.838  16.090  0.1174  0.0503 -0.1558
  569TMC3     H 8496   2.455   4.051  16.422 -0.6924  2.3197  0.3177
  569TMC3    H1 8497   2.449   4.053  15.993 -0.2122 -0.4513 -0.8138
  569TMC3    H2 8498   2.610   4.382  16.212 -1.9667  2.1080  1.6392
  569TMC3    C7 8499   2.490   4.305  15.979  0.1503 -0.0534  1.1798
  569TMC3    C8 8500   2.522   4.278  16.451  0.0739  0.5264 -0.4013
  569TMC3    O1 8501   2.476   4.265  15.860 -0.0702 -0.1758  0.0093
  569TMC3    O2 8502   2.561   4.227  16.554  0.4472 -0.2146  0.2043
  570TMC3    C1 8503   1.677   2.702  16.112  0.4957 -0.0838  1.1136
  570TMC3    C2 8504   1.763   2.730  16.013 -0.0484  0.0521  0.1364
  570TMC3    C3 8505   1.838   2.844  16.026 -0.1037  0.6507  0.2826
  570TMC3    C4 8506   1.658   2.780  16.216  0.4446  0.1728 -0.1585
  570TMC3    C5 8507   1.724   2.896  16.225 -0.1783  0.1125 -0.1212
  570TMC3    C6 8508   1.820   2.932  16.132 -0.3328  0.3132  0.1375
  570TMC3     C 8509   1.586   2.591  16.090  0.6264  0.2412  0.1166
  570TMC3     O 8510   1.540   2.564  15.981 -0.4462  0.4772 -0.1469
  570TMC3     H 8511   1.764   2.664  15.927 -2.0565 -0.7973  0.7844
  570TMC3    H1 8512   1.577   2.764  16.286 -0.3203  0.3311 -1.0222
  570TMC3    H2 8513   1.878   3.024  16.131  0.4565 -0.1727  0.7948
  570TMC3    C7 8514   1.730   2.962  16.351 -0.3154 -0.1758 -0.0061
  570TMC3    C8 8515   1.952   2.863  15.940 -0.0482 -0.1250 -0.7308
  570TMC3    O1 8516   1.700   2.897  16.451  0.0444  0.4632 -0.5429
  570TMC3    O2 8517   2.012   2.970  15.961 -0.1870  0.4505 -0.3699
  571MPD2     C 8518   4.703   0.503  17.596 -0.0926 -0.0566  0.4213
  571MPD2    C1 8519   4.716   0.428  17.706  0.5055  0.4629  0.3373
  571MPD2    C2 8520   0.040   0.489   0.068 -0.4881  0.2717 -0.1477
  571MPD2    C3 8521   0.078   0.623   0.075 -0.5279 -0.4234  0.2527
  571MPD2    C4 8522   0.069   0.688  17.706 -0.6007  0.1619  0.3163
  571MPD2    C5 8523   0.002   0.633  17.598  0.5935 -0.4452  0.5526
  571MPD2     H 8524   0.054   0.431   0.158 -1.8399  2.1197  1.2444
  571MPD2    H1 8525   0.125   0.779  17.691 -0.9467  0.2635 -0.3364
  571MPD2    H2 8526   4.665   0.453  17.507 -1.1582  0.7337  0.4310
  571MPD2    H3 8527   4.735   0.698  17.511  1.7336 -0.2363  0.6383
  571MPD2     N 8528   0.143   0.687   0.185 -0.1129 -0.1844  0.1806
  571MPD2    H5 8529   0.149   0.789   0.184 -1.3629 -0.0967  1.6746
  571MPD2    N1 8530   4.666   0.292  17.701 -0.3943 -0.0787  0.3778
  571MPD2    H7 8531   4.631   0.258  17.612  0.9589  1.6929 -0.8262
  572TMC3    C1 8532   0.227   0.747   0.396 -0.9536  0.3808  0.0447
  572TMC3    C2 8533   0.313   0.718   0.503 -0.2450  0.1005  0.4044
  572TMC3    C3 8534   0.361   0.820   0.583  0.2705  0.6493  0.6860
  572TMC3    C4 8535   0.193   0.879   0.373 -0.6268 -0.4721 -0.2189
  572TMC3    C5 8536   0.243   0.978   0.450 -0.8516 -0.2783  0.5067
  572TMC3    C6 8537   0.316   0.949   0.559  0.4599 -0.3262  0.1392
  572TMC3     C 8538   0.180   0.636   0.308  0.5540  0.7795  0.0936
  572TMC3     O 8539   0.169   0.523   0.350  0.5133  0.2914 -0.4632
  572TMC3     H 8540   0.362   0.621   0.509 -1.7286 -0.7339 -1.0208
  572TMC3    H1 8541   0.128   0.898   0.288 -1.4578  0.5370  0.6394
  572TMC3    H2 8542   0.349   1.030   0.624  0.0640 -1.5039  1.8260
  572TMC3    C7 8543   0.163   1.095   0.462 -0.6135  0.1154  0.6972
  572TMC3    C8 8544   0.417   0.801   0.716  0.0436 -0.5724  0.5655
  572TMC3    O1 8545   0.145   1.150   0.353  0.2178 -0.3022 -0.4367
  572TMC3    O2 8546   0.490   0.892   0.761 -0.0101  0.2830  0.4367
  573MPD2     C 8547   0.512   0.105   0.874  0.6185 -0.0424 -0.4781
  573MPD2    C1 8548   0.540   0.225   0.815  0.7381 -0.7095  0.1639
  573MPD2    C2 8549   0.501   0.241   0.680 -0.0147  0.0506 -0.1297
  573MPD2    C3 8550   0.433   0.142   0.608  0.1159 -0.0601  0.0125
  573MPD2    C4 8551   0.404   0.023   0.677 -0.2290 -0.6148  0.0006
  573MPD2    C5 8552   0.438   0.008   0.809  0.2596  0.3841 -0.4001
  573MPD2     H 8553   0.535   0.329   0.627 -0.6930  0.4197  0.0532
  573MPD2    H1 8554   0.341   4.685   0.633  0.9153 -1.3124 -0.4226
  573MPD2    H2 8555   0.550   0.062   0.966 -2.4793 -0.5224  0.5805
  573MPD2    H3 8556   0.426   4.651   0.859  2.1055  0.5549  0.3473
  573MPD2     N 8557   0.385   0.154   0.472  0.0507 -0.0452  0.2225
  573MPD2    H5 8558   0.328   0.080   0.431 -0.0473  1.3225 -2.0719
  573MPD2    N1 8559   0.630   0.313   0.880  0.1662  0.6355 -0.2056
  573MPD2    H7 8560   0.648   0.293   0.978  0.0185 -1.2259 -0.5742
  574TMC3    C1 8561   0.371   0.249   0.260  1.2719  0.1316 -0.2406
  574TMC3    C2 8562   0.406   0.349   0.166  0.5466 -0.2240  0.5691
  574TMC3    C3 8563   0.357   0.334   0.039 -0.0035  0.3899 -0.1644
  574TMC3    C4 8564   0.299   0.139   0.219  0.2490  0.6272  0.9527
  574TMC3    C5 8565   0.269   0.126   0.084 -0.0062  0.9155  0.3963
  574TMC3    C6 8566   0.295   0.225  17.742  0.1162  0.3906  0.1252
  574TMC3     C 8567   0.416   0.264   0.396 -0.0999  0.3099  0.0687
  574TMC3     O 8568   0.455   0.373   0.424  0.3773  0.3377 -0.0984
  574TMC3     H 8569   0.465   0.433   0.201 -0.4757 -0.0659  1.9371
  574TMC3    H1 8570   0.286   0.050   0.280  0.6992 -0.0801  0.0265
  574TMC3    H2 8571   0.248   0.226  17.644  1.0780  1.8145 -0.3235
  574TMC3    C7 8572   0.214   0.007   0.027 -0.0538  0.4876 -0.3422
  574TMC3    C8 8573   0.387   0.433  17.691  0.4478  0.1544  0.5340
  574TMC3    O1 8574   0.162   4.666   0.107  0.0723  0.3309  0.1399
  574TMC3    O2 8575   0.397   0.399  17.576 -0.1356 -0.1865  0.5647
  575TMC3    C1 8576   3.740   1.649  11.378  0.3158 -0.5133 -0.3575
  575TMC3    C2 8577   3.767   1.662  11.515  0.2224  0.1310 -0.6404
  575TMC3    C3 8578   3.658   1.659  11.598  0.2501  0.3824 -0.5986
  575TMC3    C4 8579   3.614   1.632  11.323 -0.7292  0.9093  0.2905
  575TMC3    C5 8580   3.512   1.644  11.415  0.5225 -0.5544 -0.2227
  575TMC3    C6 8581   3.533   1.640  11.550  0.1387  0.6549  0.6903
  575TMC3     C 8582   3.862   1.662  11.293  0.3836 -0.4183 -0.7354
  575TMC3     O 8583   3.972   1.666  11.342 -0.0041  0.4001  0.7974
  575TMC3     H 8584   3.869   1.660  11.554 -0.3625  1.3743  0.9767
  575TMC3    H1 8585   3.589   1.635  11.218  0.4965  1.4575  0.0100
  575TMC3    H2 8586   3.451   1.640  11.620 -0.3941  0.7634  0.0690
  575TMC3    C7 8587   3.375   1.673  11.378  0.1483  0.0847  0.2210
  575TMC3    C8 8588   3.689   1.669  11.738 -0.2740  0.8216 -0.3383
  575TMC3    O1 8589   3.291   1.632  11.460 -0.0756  0.2440 -0.3865
  575TMC3    O2 8590   3.784   1.605  11.780 -0.1450 -0.6770 -0.0626
  576MPD2     C 8591   2.975   2.747  12.898  1.0502 -0.1857  0.2111
  576MPD2    C1 8592   3.062   2.810  12.811  0.3120 -0.2714 -0.9083
  576MPD2    C2 8593   3.125   2.930  12.847  0.3607 -0.5282  0.6619
  576MPD2    C3 8594   3.112   2.989  12.973  0.2357 -0.1010 -0.4602
  576MPD2    C4 8595   3.032   2.923  13.065 -0.3715  0.6082 -0.1055
  576MPD2    C5 8596   2.965   2.805  13.025 -0.2616  0.1136  0.1372
  576MPD2     H 8597   3.181   2.977  12.767 -1.2906 -0.1756 -0.2905
  576MPD2    H1 8598   3.032   2.956  13.169 -0.1700  0.3472 -0.0231
  576MPD2    H2 8599   2.920   2.655  12.883  0.5185 -0.0918  1.5704
  576MPD2    H3 8600   2.900   2.759  13.099  0.9917 -0.4755  0.8681
  576MPD2     N 8601   3.173   3.117  12.991 -0.5983 -0.2062 -0.6863
  576MPD2    H5 8602   3.252   3.143  12.932 -0.9104 -0.1729 -1.0878
  576MPD2    N1 8603   3.095   2.750  12.687  0.0251 -0.1114  0.0042
  576MPD2    H7 8604   3.147   2.810  12.624  2.0273 -2.3018 -0.4201
  577TMC3    C1 8605   3.128   2.600  12.528  0.2598 -0.2023  0.4935
  577TMC3    C2 8606   3.222   2.498  12.522 -0.7873 -0.6442  0.3516
  577TMC3    C3 8607   3.279   2.486  12.402  0.3738 -0.2741  0.0159
  577TMC3    C4 8608   3.084   2.673  12.422 -0.1431 -0.4681  0.0258
  577TMC3    C5 8609   3.142   2.648  12.306 -1.0200 -0.3408  0.1043
  577TMC3    C6 8610   3.245   2.557  12.295  0.1037 -0.4595  0.4145
  577TMC3     C 8611   3.060   2.621  12.651 -0.3004  0.0338  0.6369
  577TMC3     O 8612   3.024   2.526  12.717  0.1853 -0.0489 -0.0736
  577TMC3     H 8613   3.238   2.439  12.612  0.6229 -0.8833 -0.0601
  577TMC3    H1 8614   3.019   2.757  12.441 -1.2200 -0.7633 -2.4218
  577TMC3    H2 8615   3.288   2.527  12.200  0.7608  1.3476  0.1324
  577TMC3    C7 8616   3.155   2.754  12.212 -0.4816  0.3161 -0.7448
  577TMC3    C8 8617   3.384   2.387  12.385  0.1662  0.5210  0.6271
  577TMC3    O1 8618   3.245   2.742  12.134  0.1349  0.3420  0.0519
  577TMC3    O2 8619   3.402   2.320  12.489  0.5882  0.0331 -0.3012
  578MPD2     C 8620   0.816   3.021   1.683 -0.2748  0.7772 -0.0006
  578MPD2    C1 8621   0.850   2.947   1.571  0.5957 -0.1862 -0.3896
  578MPD2    C2 8622   0.968   2.877   1.560 -0.2364 -0.2205  0.8416
  578MPD2    C3 8623   1.058   2.869   1.665  0.4108  0.1442 -0.6837
  578MPD2    C4 8624   1.023   2.938   1.776  0.4630 -0.1571  0.0683
  578MPD2    C5 8625   0.906   3.010   1.783 -1.0703  0.0598  0.3118
  578MPD2     H 8626   0.994   2.828   1.467  1.0812 -1.6358  1.9490
  578MPD2    H1 8627   1.088   2.954   1.862 -2.3170  2.0102  1.8050
  578MPD2    H2 8628   0.731   3.087   1.691  0.3446  1.7901 -1.9049
  578MPD2    H3 8629   0.894   3.082   1.863  2.7079  1.8179 -0.6634
  578MPD2     N 8630   1.181   2.806   1.640  0.2406  0.4257 -0.1551
  578MPD2    H5 8631   1.184   2.755   1.553  0.2912 -0.4344  0.3466
  578MPD2    N1 8632   0.753   2.950   1.468 -0.5405  0.0635 -0.0966
  578MPD2    H7 8633   0.678   3.015   1.491 -0.1401  0.9521 -1.3003
  579TMC3    C1 8634   1.407   2.743   1.661  0.5590  0.4658 -0.3383
  579TMC3    C2 8635   1.530   2.792   1.691 -0.2785  0.0047  0.5806
  579TMC3    C3 8636   1.636   2.744   1.631  0.4910  0.2991 -0.2194
  579TMC3    C4 8637   1.392   2.650   1.561 -0.2802 -0.1330 -0.8657
  579TMC3    C5 8638   1.504   2.616   1.483  0.2940 -0.7770 -0.4569
  579TMC3    C6 8639   1.629   2.658   1.523 -0.0224 -1.0348 -0.7601
  579TMC3     C 8640   1.294   2.807   1.725 -0.2596 -0.3172 -0.2385
  579TMC3     O 8641   1.319   2.889   1.812  0.3104  0.1216  0.7395
  579TMC3     H 8642   1.556   2.864   1.767  1.1425  1.5058 -1.3490
  579TMC3    H1 8643   1.303   2.590   1.544 -0.9536  0.5361  0.3176
  579TMC3    H2 8644   1.720   2.618   1.481  0.8287  1.9994 -1.8293
  579TMC3    C7 8645   1.489   2.501   1.389  0.3086 -0.1593  0.9180
  579TMC3    C8 8646   1.766   2.794   1.682  0.6976 -0.0341  0.9815
  579TMC3    O1 8647   1.593   2.459   1.351  0.4354  0.3561  0.7614
  579TMC3    O2 8648   1.780   2.845   1.791 -0.6187 -0.3020 -0.1464
  580TMC3    C1 8649   0.338   1.991  12.417  0.0987  1.1828  0.6450
  580TMC3    C2 8650   0.435   2.087  12.434 -0.0890  0.1570  0.5030
  580TMC3    C3 8651   0.499   2.077  12.561  0.3753 -0.7591 -0.2282
  580TMC3    C4 8652   0.314   1.886  12.508  0.3166 -0.0165  0.2794
  580TMC3    C5 8653   0.391   1.878  12.624 -0.0318  0.8249 -0.0534
  580TMC3    C6 8654   0.476   1.980  12.653  0.1390  0.0429  0.2742
  580TMC3     C 8655   0.252   2.016  12.307  1.0519  0.1508  0.3524
  580TMC3     O 8656   0.127   2.011  12.323 -0.0577 -0.0420  0.0714
  580TMC3     H 8657   0.452   2.180  12.381 -0.7122 -0.1037 -0.1634
  580TMC3    H1 8658   0.235   1.812  12.501 -1.3646  1.7550  0.1852
  580TMC3    H2 8659   0.542   1.983  12.739 -0.6142  0.2866  0.8428
  580TMC3    C7 8660   0.449   1.747  12.643  0.5388  0.4885 -0.9039
  580TMC3    C8 8661   0.628   2.125  12.573  0.5157  0.0909 -0.5440
  580TMC3    O1 8662   0.503   1.722  12.754 -0.3525  0.0603  0.1836
  580TMC3    O2 8663   0.670   2.161  12.683  0.6528  0.3637 -0.7369
  581MPD2     C 8664   3.680   1.612  15.125  0.0725  0.3663 -0.5800
  581MPD2    C1 8665   3.543   1.629  15.140 -0.7260 -0.3042 -0.0113
  581MPD2    C2 8666   3.481   1.730  15.071 -0.4854 -0.2628  0.3972
  581MPD2    C3 8667   3.554   1.803  14.980  0.5989  0.4019  0.0261
  581MPD2    C4 8668   3.688   1.776  14.956  0.3820  0.0584  0.2662
  581MPD2    C5 8669   3.748   1.680  15.027 -0.1792 -0.2180  0.2748
  581MPD2     H 8670   3.373   1.745  15.070 -0.2794  1.2663  0.1180
  581MPD2    H1 8671   3.744   1.830  14.881 -0.4239  0.6310  0.0696
  581MPD2    H2 8672   3.732   1.544  15.192  0.0951  1.0047  0.0561
  581MPD2    H3 8673   3.854   1.662  15.010  0.4822  1.4717  2.4422
  581MPD2     N 8674   3.489   1.906  14.924  0.2241  0.0615 -0.2420
  581MPD2    H5 8675   3.396   1.916  14.965 -0.1131 -0.9343 -0.7667
  581MPD2    N1 8676   3.483   1.554  15.243 -1.1040 -0.0645  0.9731
  581MPD2    H7 8677   3.539   1.475  15.271 -1.0644 -0.0683  0.8808
  582TMC3    C1 8678   3.348   1.502  15.430 -0.0926  0.2994 -0.0021
  582TMC3    C2 8679   3.445   1.410  15.463 -0.5808 -0.2694  0.4258
  582TMC3    C3 8680   3.444   1.372  15.594 -0.0472  0.6901 -0.5402
  582TMC3    C4 8681   3.268   1.563  15.529  0.0607  0.8226  0.4763
  582TMC3    C5 8682   3.274   1.519  15.657  0.3639  0.4868 -0.0306
  582TMC3    C6 8683   3.355   1.416  15.686 -0.7252 -0.2580  0.1638
  582TMC3     C 8684   3.359   1.571  15.306  0.0447 -0.8384 -1.0674
  582TMC3     O 8685   3.287   1.666  15.294  0.0196  0.1278 -0.0534
  582TMC3     H 8686   3.519   1.368  15.397  0.2146  2.9764 -0.7181
  582TMC3    H1 8687   3.199   1.639  15.492 -0.3483 -0.2955 -1.0543
  582TMC3    H2 8688   3.338   1.369  15.782  0.3918  0.5710  0.7651
  582TMC3    C7 8689   3.289   1.635  15.745  0.4189 -0.6089  0.2492
  582TMC3    C8 8690   3.575   1.391  15.649  0.3311 -0.0409  0.8822
  582TMC3    O1 8691   3.338   1.599  15.853  0.2340  0.0726  0.3511
  582TMC3    O2 8692   3.672   1.383  15.573 -0.4125 -0.5288  0.1885
  583MPD2     C 8693   3.702   3.743  16.948 -0.1378  0.5060  0.0523
  583MPD2    C1 8694   3.650   3.840  16.866 -0.1604  0.8661 -0.4150
  583MPD2    C2 8695   3.557   3.923  16.923 -0.4876  0.4529 -0.0248
  583MPD2    C3 8696   3.530   3.915  17.058  0.4886 -0.0661  0.3991
  583MPD2    C4 8697   3.590   3.821  17.140  0.4959 -0.2480  0.3633
  583MPD2    C5 8698   3.677   3.732  17.081 -0.4969  0.1706  0.0383
  583MPD2     H 8699   3.483   3.981  16.870 -0.3368  1.9066  1.3537
  583MPD2    H1 8700   3.568   3.808  17.246 -1.8980  1.3981  0.0846
  583MPD2    H2 8701   3.769   3.670  16.904  0.5446  1.2995 -0.2487
  583MPD2    H3 8702   3.723   3.657  17.144 -0.0920 -0.2902 -0.8148
  583MPD2     N 8703   3.432   4.003  17.104  0.4479  1.1488  0.0304
  583MPD2    H5 8704   3.372   4.041  17.031  0.3493  0.2535 -0.3643
  583MPD2    N1 8705   3.699   3.861  16.731  0.4197  0.6921 -0.2354
  583MPD2    H7 8706   3.657   3.935  16.676  0.5421  0.5197 -0.5558
  584TMC3    C1 8707   3.337   4.166  17.249 -0.0318 -0.4258  0.0820
  584TMC3    C2 8708   3.318   4.254  17.138 -0.7023 -0.1974  0.3142
  584TMC3    C3 8709   3.299   4.389  17.169  0.1042  0.1559  0.3757
  584TMC3    C4 8710   3.313   4.211  17.376 -0.3019  0.4360 -0.2223
  584TMC3    C5 8711   3.300   4.345  17.403 -0.4769  0.3934 -0.0352
  584TMC3    C6 8712   3.300   4.439  17.298  0.3010  0.5757  0.4564
  584TMC3     C 8713   3.412   4.041  17.234 -0.0306 -0.7797  0.5145
  584TMC3     O 8714   3.464   3.998  17.339 -0.1564  0.1361 -0.4931
  584TMC3     H 8715   3.339   4.220  17.037  1.3475  1.4220  0.2054
  584TMC3    H1 8716   3.338   4.139  17.453  1.8697  1.9451  0.4850
  584TMC3    H2 8717   3.267   4.539  17.322  0.3964  1.2937 -2.4949
  584TMC3    C7 8718   3.260   4.387  17.536 -0.3485 -0.6315  0.5257
  584TMC3    C8 8719   3.347   4.478  17.072 -0.6391  0.6837  0.5530
  584TMC3    O1 8720   3.259   4.508  17.557 -0.1942  0.6232 -0.8042
  584TMC3    O2 8721   3.331   4.458  16.951  0.2145  0.4045  0.2220
  585MPD2     C 8722   2.314   2.607   0.183 -0.1624 -0.0675  0.9025
  585MPD2    C1 8723   2.402   2.675   0.102  0.5730  0.1119 -0.0286
  585MPD2    C2 8724   2.489   2.588   0.027 -0.4354 -0.3899 -0.1752
  585MPD2    C3 8725   2.474   2.454   0.025  0.6223  0.2285  0.3616
  585MPD2    C4 8726   2.383   2.393   0.101  0.1788  0.3076  0.1940
  585MPD2    C5 8727   2.297   2.471   0.171 -1.0165 -0.4803 -0.0827
  585MPD2     H 8728   2.575   2.640  17.738  0.4760 -0.4403  1.6756
  585MPD2    H1 8729   2.380   2.287   0.083 -1.1868  0.4425 -0.3425
  585MPD2    H2 8730   2.241   2.661   0.243  1.2008  0.6474  1.9194
  585MPD2    H3 8731   2.219   2.428   0.232 -0.5784 -2.4336 -0.8911
  585MPD2     N 8732   2.555   2.367  17.699 -0.9983  0.2959 -0.3016
  585MPD2    H5 8733   2.534   2.268  17.695  1.7831 -0.2646 -1.1513
  585MPD2    N1 8734   2.415   2.816   0.112  0.3224  0.3149  0.3865
  585MPD2    H7 8735   2.375   2.865   0.192 -0.2841 -1.4349  1.1615
  586TMC3    C1 8736   2.698   2.305  17.527  0.3270 -0.0886  0.0254
  586TMC3    C2 8737   2.824   2.263  17.552 -0.3413 -0.1782  0.1487
  586TMC3    C3 8738   2.852   2.129  17.531  0.3370 -0.0473 -0.3236
  586TMC3    C4 8739   2.602   2.230  17.469 -0.2925 -0.0501  0.0472
  586TMC3    C5 8740   2.631   2.099  17.448  0.6322  0.8323  0.8538
  586TMC3    C6 8741   2.753   2.041  17.483  0.3605 -0.0194 -0.3383
  586TMC3     C 8742   2.663   2.404  17.622  0.1248 -0.6234  0.3082
  586TMC3     O 8743   2.736   2.502  17.640 -0.0620 -0.5969 -0.6518
  586TMC3     H 8744   2.895   2.324  17.608  0.6986 -0.0488 -1.2929
  586TMC3    H1 8745   2.502   2.269  17.452  0.1594  0.3627 -1.6156
  586TMC3    H2 8746   2.777   1.940  17.452 -0.3470  0.1412 -1.4300
  586TMC3    C7 8747   2.529   2.007  17.415  0.2597 -0.1799 -0.7650
  586TMC3    C8 8748   2.977   2.070  17.585  0.1202  0.5089 -1.0019
  586TMC3    O1 8749   2.553   1.892  17.449  0.7034  0.6361 -0.5103
  586TMC3    O2 8750   3.070   2.153  17.613 -0.2895 -0.0049  0.0058
  587TMC3    C1 8751   0.454   1.537  16.990 -0.6946 -0.4316  0.3666
  587TMC3    C2 8752   0.399   1.634  17.071 -0.0444  0.0300 -0.2927
  587TMC3    C3 8753   0.456   1.647  17.195 -0.3145  0.0512 -0.3452
  587TMC3    C4 8754   0.572   1.477  17.018 -0.3632 -0.4744  0.9970
  587TMC3    C5 8755   0.632   1.500  17.141  0.0708  0.1894  1.2041
  587TMC3    C6 8756   0.567   1.577  17.233 -0.4190 -0.3855 -0.7835
  587TMC3     C 8757   0.399   1.524  16.858  0.6618 -0.1701  1.1562
  587TMC3     O 8758   0.480   1.494  16.770 -0.3324 -0.1453  0.4951
  587TMC3     H 8759   0.314   1.694  17.040 -0.1962 -0.6089 -1.1242
  587TMC3    H1 8760   0.613   1.404  16.948  0.0751  0.5431  0.2041
  587TMC3    H2 8761   0.615   1.615  17.323  0.4711  0.2034 -1.5169
  587TMC3    C7 8762   0.751   1.423  17.166 -0.2507 -0.2357 -0.1415
  587TMC3    C8 8763   0.376   1.711  17.299 -0.4444 -0.7431  0.4291
  587TMC3    O1 8764   0.825   1.392  17.072 -0.9828 -0.1301 -0.0994
  587TMC3    O2 8765   0.422   1.728  17.410  0.2333 -0.4115 -0.5885
  588TMC3    C1 8766   2.299   3.975  10.450  0.6060  0.6286  0.7703
  588TMC3    C2 8767   2.288   3.843  10.440 -0.8014  0.7109 -0.3481
  588TMC3    C3 8768   2.381   3.766  10.506 -0.0696 -0.2049  0.1899
  588TMC3    C4 8769   2.398   4.032  10.520 -0.0668  0.7810  0.3170
  588TMC3    C5 8770   2.499   3.956  10.575 -0.4023 -0.2470 -0.1838
  588TMC3    C6 8771   2.490   3.817  10.576  0.4599  0.3814  0.6117
  588TMC3     C 8772   2.219   4.064  10.368 -0.5185 -0.3460  0.7170
  588TMC3     O 8773   2.191   4.024  10.259  0.0065  0.4396  0.5842
  588TMC3     H 8774   2.199   3.804  10.391 -0.9994  2.1831 -1.1456
  588TMC3    H1 8775   2.421   4.137  10.506 -0.7619  1.0301  1.0543
  588TMC3    H2 8776   2.568   3.758  10.622 -0.2692 -1.0545  0.0101
  588TMC3    C7 8777   2.622   4.030  10.619 -0.3097 -0.1175 -0.2345
  588TMC3    C8 8778   2.368   3.623  10.475  0.3558 -0.3991  0.4590
  588TMC3    O1 8779   2.728   3.974  10.644  0.0139  0.0610  0.1042
  588TMC3    O2 8780   2.272   3.601  10.400 -0.2798 -0.1143 -0.2224
  589TMC3    C1 8781   2.012   1.304   0.932 -0.1890 -0.6446 -0.5687
  589TMC3    C2 8782   2.145   1.313   0.969 -0.3599 -0.3010  0.4805
  589TMC3    C3 8783   2.214   1.196   0.960  0.6876 -0.5025  0.8697
  589TMC3    C4 8784   1.953   1.189   0.887 -0.2686  0.3640 -0.6712
  589TMC3    C5 8785   2.024   1.073   0.892  0.3984  0.0055 -0.3877
  589TMC3    C6 8786   2.158   1.078   0.926  0.0862 -0.0470  0.0912
  589TMC3     C 8787   1.915   1.402   0.969  0.7643  0.3319 -0.3767
  589TMC3     O 8788   1.819   1.408   0.895 -0.1452  0.3100  0.2255
  589TMC3     H 8789   2.192   1.403   1.007 -0.9823  0.4520 -0.5307
  589TMC3    H1 8790   1.845   1.175   0.880 -0.4689  1.2369  0.5274
  589TMC3    H2 8791   2.230   0.999   0.913  0.8220  0.4847  0.9020
  589TMC3    C7 8792   1.957   0.947   0.868 -0.1897  0.1070  0.1266
  589TMC3    C8 8793   2.338   1.184   1.034 -0.3048  0.1899 -0.3989
  589TMC3    O1 8794   1.849   0.950   0.809  0.0484 -0.0677  0.3242
  589TMC3    O2 8795   2.352   1.098   1.123 -0.6888  0.8180 -0.3906
  590MPD2     C 8796   1.150   4.607  16.837 -0.2731 -0.0926  0.0073
  590MPD2    C1 8797   1.086   4.647  16.727  0.3446 -0.2473 -0.4597
  590MPD2    C2 8798   1.153   4.678  16.613 -0.5307 -0.2118 -0.0184
  590MPD2    C3 8799   1.287   4.653  16.602  0.1855 -0.2275 -0.1928
  590MPD2    C4 8800   1.354   4.605  16.714  0.1809 -0.6883  0.5977
  590MPD2    C5 8801   1.282   4.585  16.830  1.2386  1.2249  0.2225
  590MPD2     H 8802   1.098   4.704  16.523  0.0872 -0.2955 -0.4206
  590MPD2    H1 8803   1.459   4.579  16.724  1.2247  2.5808 -1.5727
  590MPD2    H2 8804   1.107   4.589  16.935  0.6045 -0.7407  0.2824
  590MPD2    H3 8805   1.334   4.551  16.920 -1.5833 -0.5508  1.1753
  590MPD2     N 8806   1.358   4.674  16.481 -0.6223 -0.1216 -0.8164
  590MPD2    H5 8807   1.320   4.707  16.393 -0.4662 -0.2822 -0.9435
  590MPD2    N1 8808   0.949   4.658  16.735 -0.1611  0.4223 -0.5332
  590MPD2    H7 8809   0.911   4.644  16.828  2.5496 -4.1025 -0.0723
  591TMC3    C1 8810   1.534   4.697  16.325 -0.1341 -0.0309  0.1783
  591TMC3    C2 8811   1.604   4.615  16.244 -0.2720 -1.0193 -0.1830
  591TMC3    C3 8812   1.623   4.658  16.117  0.2219 -0.6470 -0.7749
  591TMC3    C4 8813   1.499   0.084  16.287  0.4209 -0.4168 -0.1723
  591TMC3    C5 8814   1.541   0.128  16.163  1.5867  0.1697 -0.0995
  591TMC3    C6 8815   1.602   0.047  16.077 -0.0816  0.5246 -0.3008
  591TMC3     C 8816   1.492   4.649  16.456  0.2970  0.1819 -0.2041
  591TMC3     O 8817   1.556   4.553  16.505  0.3775  0.3885  0.4241
  591TMC3     H 8818   1.636   4.519  16.283  0.7604 -0.6005  0.0081
  591TMC3    H1 8819   1.437   0.148  16.349  1.8474 -0.5114  1.3530
  591TMC3    H2 8820   1.612   0.080  15.974 -0.0127 -0.3181 -0.5611
  591TMC3    C7 8821   1.506   0.263  16.136 -0.5155 -0.4764  0.5851
  591TMC3    C8 8822   1.689   4.562  16.027 -0.0818  0.1144  0.6345
  591TMC3    O1 8823   1.415   0.321  16.198  0.1987  0.2256  0.5495
  591TMC3    O2 8824   1.729   4.458  16.079 -0.4605 -0.7020 -0.4624
  592MPD2     C 8825   1.556   1.451  11.434  0.4557  0.4891 -0.7961
  592MPD2    C1 8826   1.542   1.468  11.568 -0.4372 -0.3569 -0.3691
  592MPD2    C2 8827   1.439   1.401  11.633  0.7581 -0.4168 -0.9841
  592MPD2    C3 8828   1.348   1.321  11.564  0.0828  0.4156  0.0535
  592MPD2    C4 8829   1.371   1.292  11.431  0.1800  0.1751 -0.0971
  592MPD2    C5 8830   1.482   1.353  11.373 -1.0938 -0.0283  0.0362
  592MPD2     H 8831   1.408   1.429  11.733  2.0196 -0.4966 -0.5790
  592MPD2    H1 8832   1.307   1.222  11.379 -0.1245 -0.7505  1.5164
  592MPD2    H2 8833   1.642   1.487  11.378  2.3540 -1.8566  0.6019
  592MPD2    H3 8834   1.508   1.326  11.271 -0.4369 -1.0949  0.4871
  592MPD2     N 8835   1.237   1.284  11.641 -0.1306 -0.6525  0.1330
  592MPD2    H5 8836   1.211   1.333  11.726  1.8147  1.8295 -0.7218
  592MPD2    N1 8837   1.637   1.555  11.632  0.0745 -0.5758  0.6263
  592MPD2    H7 8838   1.717   1.586  11.577 -2.1896  3.1356 -0.5795
  593TMC3    C1 8839   1.769   1.648  11.807  0.8773  0.0751 -0.2119
  593TMC3    C2 8840   1.813   1.627  11.929  0.5700 -0.2240  0.7739
  593TMC3    C3 8841   1.913   1.703  11.976 -0.6051 -0.1819 -0.0379
  593TMC3    C4 8842   1.815   1.750  11.729 -0.1649 -1.0905  0.7776
  593TMC3    C5 8843   1.911   1.833  11.783  0.4301  0.4043 -0.2728
  593TMC3    C6 8844   1.959   1.819  11.910  0.4987 -1.1995 -0.5726
  593TMC3     C 8845   1.655   1.571  11.770 -0.0697  0.4270 -0.0196
  593TMC3     O 8846   1.589   1.520  11.859 -0.1664 -0.3362  0.2557
  593TMC3     H 8847   1.777   1.541  11.985  0.8315 -0.8375  0.0016
  593TMC3    H1 8848   1.765   1.771  11.635 -0.0708  0.6349  1.1249
  593TMC3    H2 8849   2.042   1.884  11.936 -1.2325  0.9783 -0.5532
  593TMC3    C7 8850   1.980   1.928  11.700  0.1236  0.4672 -0.0283
  593TMC3    C8 8851   1.944   1.689  12.114 -0.0973 -0.3583  0.7416
  593TMC3    O1 8852   2.051   2.004  11.758 -0.5057 -0.1733 -0.2048
  593TMC3    O2 8853   1.931   1.575  12.159  0.0220 -0.7371 -1.0587
  594MPD2     C 8854   0.826   0.613  13.751 -0.5572  0.2652  1.3509
  594MPD2    C1 8855   0.853   0.546  13.868 -0.4254  0.2685  0.7383
  594MPD2    C2 8856   0.948   0.598  13.956  0.1524  0.2413  0.2895
  594MPD2    C3 8857   1.018   0.708  13.923 -0.5249 -0.3766 -0.0551
  594MPD2    C4 8858   0.997   0.769  13.802 -0.0788 -0.4223  0.0739
  594MPD2    C5 8859   0.908   0.716  13.713  0.3757 -0.0192  0.6286
  594MPD2     H 8860   0.954   0.562  14.058  0.5906 -2.0496 -0.5546
  594MPD2    H1 8861   1.057   0.852  13.768  0.8637 -0.9708  0.4065
  594MPD2    H2 8862   0.750   0.563  13.692  0.9906 -0.9043  0.3351
  594MPD2    H3 8863   0.883   0.769  13.621 -0.7871 -2.2409 -0.3338
  594MPD2     N 8864   1.097   0.761  14.032  0.0641  0.4320 -0.0648
  594MPD2    H5 8865   1.080   0.725  14.125  0.5794 -0.4869 -0.3253
  594MPD2    N1 8866   0.770   0.441  13.911  0.6200 -0.0048  0.6264
  594MPD2    H7 8867   0.686   0.429  13.856  0.7545 -0.1870  0.4587
  595TMC3    C1 8868   1.411   1.019  14.243 -0.2681 -0.1263  0.0524
  595TMC3    C2 8869   1.374   0.950  14.137 -0.0649  0.2032  0.0451
  595TMC3    C3 8870   1.254   0.884  14.145  0.2505 -0.2946 -0.4902
  595TMC3    C4 8871   1.337   1.011  14.358 -0.2916  0.1675 -0.1297
  595TMC3    C5 8872   1.221   0.954  14.361 -0.0950  0.7563  0.5051
  595TMC3    C6 8873   1.171   0.891  14.252 -0.1785  0.8548 -0.1288
  595TMC3     C 8874   1.538   1.076  14.252 -0.4379 -0.3159  0.1376
  595TMC3     O 8875   1.574   1.124  14.357 -0.1815  0.4508 -0.3332
  595TMC3     H 8876   1.433   0.951  14.046 -0.2426  1.3580 -0.0636
  595TMC3    H1 8877   1.371   1.075  14.439 -1.7989 -0.3487  0.8917
  595TMC3    H2 8878   1.069   0.855  14.258  0.6240 -1.5164 -0.3888
  595TMC3    C7 8879   1.133   0.982  14.475 -0.3889 -0.3581 -0.0043
  595TMC3    C8 8880   1.191   0.854  14.017 -0.1941  0.9466  0.0035
  595TMC3    O1 8881   1.013   0.948  14.468  0.0851 -0.7079  0.5242
  595TMC3    O2 8882   1.249   0.880  13.912 -0.1911 -0.5651 -0.5267
  596MPD2     C 8883   4.582   3.597  16.899 -0.6760 -0.6528  0.2750
  596MPD2    C1 8884   4.590   3.720  16.847 -0.4326  0.2328 -0.0117
  596MPD2    C2 8885   4.588   3.742  16.710  0.0382 -0.2113  0.1747
  596MPD2    C3 8886   4.581   3.636  16.625  0.0041  0.2060 -0.6740
  596MPD2    C4 8887   4.593   3.510  16.679  0.4404 -0.2549  0.4619
  596MPD2    C5 8888   4.595   3.488  16.816 -0.6258  0.2324  0.5934
  596MPD2     H 8889   4.581   3.844  16.673 -1.8078 -0.6226 -0.5875
  596MPD2    H1 8890   4.586   3.418  16.623  0.2696 -0.6603  1.1446
  596MPD2    H2 8891   4.600   3.578  17.005 -1.5226 -3.2740 -0.0432
  596MPD2    H3 8892   4.599   3.385  16.852  2.2154  0.1948  0.1562
  596MPD2     N 8893   4.574   3.659  16.481  0.0618  0.0868 -0.1953
  596MPD2    H5 8894   4.573   3.577  16.421  0.1754 -0.2035  0.1959
  596MPD2    N1 8895   4.573   3.831  16.927  0.4104 -0.0171  0.3604
  596MPD2    H7 8896   4.588   3.924  16.889 -1.2994  0.4662  0.8675
  597TMC3    C1 8897   4.500   3.961  17.109 -0.1701  0.0836  0.1226
  597TMC3    C2 8898   4.583   4.064  17.088 -0.6231 -0.0705  0.1409
  597TMC3    C3 8899   4.541   4.191  17.131 -0.4756  0.1517 -0.4898
  597TMC3    C4 8900   4.390   3.975  17.187 -1.0567 -0.5526  0.5150
  597TMC3    C5 8901   4.339   4.102  17.222  0.4956 -0.5267  0.5403
  597TMC3    C6 8902   4.415   4.211  17.188  0.4985  0.0302  0.1706
  597TMC3     C 8903   4.526   3.828  17.055  0.5858 -0.6136 -0.0313
  597TMC3     O 8904   4.486   3.726  17.115 -0.1525 -0.2489 -0.3060
  597TMC3     H 8905   4.672   4.065  17.026 -2.7785  4.4614 -2.9670
  597TMC3    H1 8906   4.326   3.891  17.210 -0.2823 -0.9684  1.1450
  597TMC3    H2 8907   4.386   4.314  17.204 -1.4147 -0.9438  2.9458
  597TMC3    C7 8908   4.206   4.109  17.278 -0.1587  0.4368 -0.4757
  597TMC3    C8 8909   4.609   4.297  17.071  0.6108 -1.4452  0.0539
  597TMC3    O1 8910   4.160   4.002  17.315  0.7269  0.5598 -0.1136
  597TMC3    O2 8911   4.730   4.284  17.088  0.4129  0.6238 -0.3550
  598TMC3    C1 8912   2.603   4.708  15.492  0.8301  0.1219  0.5434
  598TMC3    C2 8913   2.520   4.634  15.410  0.5458  0.4506  0.5223
  598TMC3    C3 8914   2.532   4.633  15.275  0.3458 -0.2318  0.0749
  598TMC3    C4 8915   2.712   0.036  15.438  0.7201  0.6474 -0.7965
  598TMC3    C5 8916   2.729   0.027  15.300 -0.0644  0.0225 -0.8633
  598TMC3    C6 8917   2.636   4.704  15.218 -0.1037  0.0342 -0.6855
  598TMC3     C 8918   2.633   4.644  15.621 -0.8712  0.2712 -0.3287
  598TMC3     O 8919   2.629   4.519  15.618  0.5101 -0.2057  0.6395
  598TMC3     H 8920   2.435   4.588  15.458  0.1724 -0.3717 -0.9265
  598TMC3    H1 8921   2.793   0.070  15.501 -0.6422  1.2364  0.6409
  598TMC3    H2 8922   2.656   4.717  15.112  0.7256  0.9357 -0.4175
  598TMC3    C7 8923   2.841   0.090  15.243 -0.1222  0.4999 -0.1524
  598TMC3    C8 8924   2.429   4.582  15.188  0.8234 -0.2018  0.0720
  598TMC3    O1 8925   2.873   0.057  15.130 -0.1793  0.1639  0.0297
  598TMC3    O2 8926   2.445   4.596  15.069  0.0033  0.0776  0.1755
  599MPD2     C 8927   2.574   2.260  15.746 -0.1255 -0.4214 -0.0269
  599MPD2    C1 8928   2.550   2.132  15.787 -0.1100 -0.1336  0.7665
  599MPD2    C2 8929   2.431   2.107  15.844  0.4955 -0.3146  0.2517
  599MPD2    C3 8930   2.337   2.204  15.871  0.0126  0.4883 -0.5025
  599MPD2    C4 8931   2.367   2.335  15.837 -0.2162  0.2975  0.1338
  599MPD2    C5 8932   2.487   2.364  15.775  0.2981  0.1895  0.5556
  599MPD2     H 8933   2.406   2.006  15.874 -2.7740  1.2232  2.7430
  599MPD2    H1 8934   2.296   2.415  15.851 -0.2160  0.0569  1.4722
  599MPD2    H2 8935   2.674   2.289  15.718 -0.3547 -1.0153 -1.4274
  599MPD2    H3 8936   2.509   2.464  15.741  0.4468  0.9374  2.8379
  599MPD2     N 8937   2.214   2.184  15.940 -0.0109 -0.0070  0.1932
  599MPD2    H5 8938   2.148   2.260  15.940 -1.2417 -1.0804 -1.1161
  599MPD2    N1 8939   2.654   2.041  15.780  0.3197 -0.4625  0.0884
  599MPD2    H7 8940   2.747   2.080  15.764 -0.3215  1.2643  0.6748
  600TMC3    C1 8941   2.061   2.101  16.098 -0.0944  0.2139  0.7194
  600TMC3    C2 8942   1.965   2.007  16.101  0.6194 -0.0773  0.2567
  600TMC3    C3 8943   1.840   2.046  16.141  0.1688 -0.4307  0.3602
  600TMC3    C4 8944   2.042   2.231  16.133 -0.3422  0.2606  0.1030
  600TMC3    C5 8945   1.917   2.266  16.167 -0.8095  0.6445  0.2301
  600TMC3    C6 8946   1.813   2.174  16.170  0.1675  0.4828 -0.3212
  600TMC3     C 8947   2.173   2.067  16.011  0.3362  0.6360 -0.1104
  600TMC3     O 8948   2.223   1.957  16.015  0.4474  0.3505 -0.1952
  600TMC3     H 8949   1.990   1.910  16.059 -0.6504 -0.4758  0.4168
  600TMC3    H1 8950   2.121   2.306  16.126 -0.0302 -0.1793 -1.2408
  600TMC3    H2 8951   1.715   2.209  16.201  0.1163 -0.6937  0.8499
  600TMC3    C7 8952   1.902   2.393  16.236  0.3020 -0.4048 -0.1753
  600TMC3    C8 8953   1.741   1.953  16.185 -0.0521  0.7331  0.2816
  600TMC3    O1 8954   1.832   2.389  16.337  0.2126 -0.0348  0.1317
  600TMC3    O2 8955   1.778   1.843  16.216  0.0697 -0.0230 -0.0115
  601MPD2     C 8956   4.555   1.370   0.705  0.1924 -0.7472  0.4192
  601MPD2    C1 8957   4.583   1.352   0.569  0.4211 -0.0432  0.2167
  601MPD2    C2 8958   4.698   1.292   0.534  0.0929  0.0975  0.0871
  601MPD2    C3 8959   0.026   1.216   0.627 -0.7120 -0.0192  0.3375
  601MPD2    C4 8960   4.732   1.225   0.761 -0.2694 -0.0304  0.3665
  601MPD2    C5 8961   4.635   1.307   0.798 -0.5063  0.0930 -0.1706
  601MPD2     H 8962   0.004   1.307   0.436  0.6239 -0.3341  0.2622
  601MPD2    H1 8963   0.039   1.169   0.842  2.0832  1.2981 -0.0592
  601MPD2    H2 8964   4.468   1.427   0.735  0.7971  0.7496 -0.6194
  601MPD2    H3 8965   4.619   1.319   0.904 -0.5397  0.8981 -0.2685
  601MPD2     N 8966   0.119   1.113   0.584 -0.7695  0.1974  0.1613
  601MPD2    H5 8967   0.145   1.041   0.650  0.4712 -0.9302 -1.5655
  601MPD2    N1 8968   4.502   1.412   0.470 -0.0607  0.1391 -0.5293
  601MPD2    H7 8969   4.546   1.417   0.379 -0.3309  3.2489 -0.4815
  602TMC3    C1 8970   4.325   1.503   0.364  0.3719  0.6360  0.3072
  602TMC3    C2 8971   4.263   1.621   0.364 -0.3933 -0.3894  0.1607
  602TMC3    C3 8972   4.229   1.667   0.243 -0.5761  0.1722 -0.0624
  602TMC3    C4 8973   4.363   1.433   0.248  0.5602 -0.3647 -0.7095
  602TMC3    C5 8974   4.321   1.486   0.127 -0.3990 -0.6809  0.0053
  602TMC3    C6 8975   4.251   1.602   0.119  0.4122  0.4875  0.2928
  602TMC3     C 8976   4.382   1.470   0.494  0.0586 -0.1692 -0.0340
  602TMC3     O 8977   4.318   1.480   0.591  0.2039 -0.1723 -0.3934
  602TMC3     H 8978   4.255   1.685   0.451 -2.7324  0.7574 -0.8874
  602TMC3    H1 8979   4.400   1.331   0.247 -0.0132 -0.5661 -1.3418
  602TMC3    H2 8980   4.213   1.654   0.032 -0.1659 -1.7179 -0.7542
  602TMC3    C7 8981   4.322   1.407   0.006  0.1545 -0.3929  0.7308
  602TMC3    C8 8982   4.142   1.786   0.245 -0.2017  0.1905 -0.0832
  602TMC3    O1 8983   4.377   1.299   0.003  0.2898  0.2038 -0.2987
  602TMC3    O2 8984   4.158   1.871   0.330 -0.0352  0.3804  0.2918
  603TMC3    C1 8985   2.710   0.849  11.388  0.7625 -0.5199 -0.0646
  603TMC3    C2 8986   2.715   0.840  11.524  0.2652  0.2917 -0.1711
  603TMC3    C3 8987   2.703   0.952  11.597 -0.5218 -0.4259 -0.4893
  603TMC3    C4 8988   2.699   0.965  11.316  1.3683  0.7087  0.2138
  603TMC3    C5 8989   2.679   1.081  11.393 -0.4036 -0.0732  0.6379
  603TMC3    C6 8990   2.673   1.073  11.528 -0.0069 -0.0187  0.2576
  603TMC3     C 8991   2.696   0.721  11.316 -0.5475 -0.4264 -0.0788
  603TMC3     O 8992   2.650   0.719  11.203  0.8865 -0.2211 -0.0952
  603TMC3     H 8993   2.716   0.744  11.573  0.4228  1.2712  1.7345
  603TMC3    H1 8994   2.705   0.956  11.208 -0.6677 -0.1659  0.1647
  603TMC3    H2 8995   2.688   1.168  11.579  2.8841 -0.1474 -0.3450
  603TMC3    C7 8996   2.719   1.213  11.345 -0.4328  0.4318  0.0449
  603TMC3    C8 8997   2.637   0.927  11.724  1.0177  0.1258 -0.1168
  603TMC3    O1 8998   2.795   1.281  11.411  0.1854  0.1158  0.2255
  603TMC3    O2 8999   2.642   0.814  11.769  0.5672 -0.3667  0.6440
  604MPD2     C 9000   3.652   0.421  16.360  0.8711  0.5632 -0.3826
  604MPD2    C1 9001   3.594   0.300  16.331  0.0699 -0.4867 -0.1970
  604MPD2    C2 9002   3.617   0.241  16.213  0.5465  0.4042 -0.5834
  604MPD2    C3 9003   3.682   0.297  16.111 -0.1363 -0.7240 -0.3102
  604MPD2    C4 9004   3.737   0.419  16.135  0.2688 -0.0918 -0.0399
  604MPD2    C5 9005   3.731   0.475  16.258  1.0360 -0.0549  0.2943
  604MPD2     H 9006   3.570   0.146  16.191 -0.9628  0.9783  0.1354
  604MPD2    H1 9007   3.786   0.472  16.054  2.0476 -0.8378  0.5320
  604MPD2    H2 9008   3.654   0.465  16.459  1.5591 -3.6580  1.4683
  604MPD2    H3 9009   3.787   0.566  16.280 -1.2958  1.0668  1.5343
  604MPD2     N 9010   3.706   0.229  15.989 -0.6485  0.3214  0.0206
  604MPD2    H5 9011   3.657   0.141  15.974 -0.8018  0.9440 -3.1226
  604MPD2    N1 9012   3.526   0.240  16.441 -0.7688  0.1133 -0.9205
  604MPD2    H7 9013   3.533   0.290  16.529  1.4748 -0.9092 -0.5085
  605TMC3    C1 9014   3.386   0.108  16.569  0.6011  0.0940  0.4196
  605TMC3    C2 9015   3.445   0.183  16.664  0.2448 -0.5611 -1.1098
  605TMC3    C3 9016   3.383   0.252  16.761 -0.8706 -0.9396  0.4674
  605TMC3    C4 9017   3.252   0.100  16.567 -0.3028 -0.3209  0.2691
  605TMC3    C5 9018   3.184   0.173  16.662 -0.6195  0.9355 -0.5312
  605TMC3    C6 9019   3.243   0.249  16.757 -0.0485  0.0376  0.1166
  605TMC3     C 9020   3.441   0.133  16.436 -0.6286  0.6982 -0.1247
  605TMC3     O 9021   3.399   0.066  16.344  0.0533  0.2039  0.0984
  605TMC3     H 9022   3.553   0.183  16.670  0.1639  1.2325  0.5505
  605TMC3    H1 9023   3.206   0.046  16.485 -0.0276 -1.8707  1.1396
  605TMC3    H2 9024   3.177   0.294  16.831 -0.1044  0.7625 -0.3758
  605TMC3    C7 9025   3.032   0.174  16.666 -0.6753 -0.0287  0.0036
  605TMC3    C8 9026   3.451   0.379  16.780  0.1144  0.0787 -0.0318
  605TMC3    O1 9027   2.976   0.269  16.721 -0.2868 -0.0735 -0.2196
  605TMC3    O2 9028   3.546   0.397  16.702 -0.1804 -0.5362  0.1316
  606TMC3    C1 9029   4.208   3.687  17.676  0.0290  0.9316  0.0679
  606TMC3    C2 9030   4.202   3.609   0.040 -0.2168 -0.6208  0.3495
  606TMC3    C3 9031   4.223   3.473   0.031  0.2352  0.3678 -0.8007
  606TMC3    C4 9032   4.242   3.632  17.560  0.4715  0.0814 -0.3672
  606TMC3    C5 9033   4.256   3.495  17.560 -0.1702  0.2633 -0.2789
  606TMC3    C6 9034   4.235   3.414  17.663 -0.5096 -0.1008 -0.2866
  606TMC3     C 9035   4.216   3.829  17.688  0.0416  0.7348  0.3423
  606TMC3     O 9036   4.142   3.883   0.013  0.3640  0.2870 -0.1698
  606TMC3     H 9037   4.187   3.669   0.129  1.2234  1.7053 -0.9827
  606TMC3    H1 9038   4.253   3.689  17.469  0.6734 -0.0260 -0.4092
  606TMC3    H2 9039   4.247   3.307  17.670 -1.2652 -0.1678  0.0224
  606TMC3    C7 9040   4.250   3.430  17.433 -0.3144 -0.3272  0.9174
  606TMC3    C8 9041   4.274   3.406   0.142 -0.2830  0.1255 -0.0541
  606TMC3    O1 9042   4.319   3.478  17.344  0.1443  0.2464 -0.6067
  606TMC3    O2 9043   4.345   3.309   0.129 -0.3295  0.8159  1.1407
  607MPD2     C 9044   2.142   0.555  11.768  0.0765 -0.7068  0.9443
  607MPD2    C1 9045   2.028   0.621  11.791  0.4164 -0.4641 -0.0472
  607MPD2    C2 9046   1.925   0.552  11.854  0.2842  0.0532  0.4492
  607MPD2    C3 9047   1.927   0.414  11.882  0.3281  0.8601 -0.5592
  607MPD2    C4 9048   2.043   0.345  11.861 -0.3035 -0.0046  0.0595
  607MPD2    C5 9049   2.146   0.417  11.798  0.8023  0.4663  1.8035
  607MPD2     H 9050   1.831   0.598  11.879  0.5212  0.2071  1.0525
  607MPD2    H1 9051   2.054   0.240  11.881  2.0751  0.3564  0.6981
  607MPD2    H2 9052   2.227   0.604  11.721 -0.5482 -2.5477 -2.1493
  607MPD2    H3 9053   2.233   0.354  11.786 -0.7174 -1.0022 -1.6237
  607MPD2     N 9054   1.809   0.361  11.939  0.1455 -0.4681  0.2225
  607MPD2    H5 9055   1.740   0.434  11.958  1.6328  1.2073 -0.7415
  607MPD2    N1 9056   2.019   0.756  11.784 -0.5880 -0.3429  0.8049
  607MPD2    H7 9057   1.939   0.809  11.817 -1.0383 -0.8193  0.4783
  608TMC3    C1 9058   2.099   0.972  11.832 -0.9924  0.5002  0.1923
  608TMC3    C2 9059   2.017   0.966  11.939  1.1360  0.3791 -0.3748
  608TMC3    C3 9060   1.971   1.088  11.987 -0.0165  0.6600 -0.4517
  608TMC3    C4 9061   2.142   1.091  11.776  0.0454 -0.9686 -0.3793
  608TMC3    C5 9062   2.092   1.212  11.819 -0.3866 -0.4183 -0.7532
  608TMC3    C6 9063   2.006   1.211  11.928 -0.6051 -0.5670 -0.3407
  608TMC3     C 9064   2.123   0.843  11.761 -0.2280  0.9771  0.5926
  608TMC3     O 9065   2.233   0.828  11.712  0.4971 -0.0099 -0.2320
  608TMC3     H 9066   1.998   0.874  11.993  1.3252  0.2601 -0.5114
  608TMC3    H1 9067   2.213   1.079  11.694 -0.4207 -1.0813 -0.7661
  608TMC3    H2 9068   1.964   1.303  11.966 -0.9422 -0.2843 -1.3805
  608TMC3    C7 9069   2.149   1.336  11.764  0.4053  0.0654  0.6300
  608TMC3    C8 9070   1.865   1.092  12.080 -0.2073  0.1459  1.1646
  608TMC3    O1 9071   2.179   1.338  11.648  0.5828  0.3306 -0.1798
  608TMC3    O2 9072   1.860   1.174  12.173 -0.2388  0.1681 -0.4364
  609TMC3    C1 9073   0.015   0.305   9.574 -0.4067  1.0325 -0.0371
  609TMC3    C2 9074   0.040   0.441   9.580 -0.0496 -0.1616 -0.1247
  609TMC3    C3 9075   0.118   0.504   9.484  0.2365  0.2704  1.3915
  609TMC3    C4 9076   0.094   0.226   9.498 -0.1168 -0.0838 -0.5624
  609TMC3    C5 9077   0.167   0.282   9.399  0.6854 -0.4470  0.1399
  609TMC3    C6 9078   0.173   0.420   9.389  0.1451 -0.3181  0.0491
  609TMC3     C 9079   4.687   0.236   9.679  0.3681  0.3512  0.1410
  609TMC3     O 9080   0.000   0.137   9.729 -0.3133  0.2932  0.1249
  609TMC3     H 9081   0.006   0.500   9.665  0.5923  2.1679 -1.4697
  609TMC3    H1 9082   0.091   0.118   9.508 -0.7495 -0.4039 -4.0393
  609TMC3    H2 9083   0.240   0.459   9.314 -2.3007  2.1128 -0.8794
  609TMC3    C7 9084   0.254   0.213   9.310  0.3240  0.8431 -0.0810
  609TMC3    C8 9085   0.191   0.637   9.508 -0.0993 -0.0022  0.7058
  609TMC3    O1 9086   0.349   0.276   9.271  0.1627 -0.4341 -0.7388
  609TMC3    O2 9087   0.272   0.677   9.420 -0.3936 -0.4863  0.3239
  610TMC3    C1 9088   2.386   0.917  12.786  0.6097 -0.3991 -0.2779
  610TMC3    C2 9089   2.407   1.013  12.691  0.0786 -0.9195 -0.1110
  610TMC3    C3 9090   2.521   1.000  12.616 -0.5448  0.4895 -0.2465
  610TMC3    C4 9091   2.474   0.811  12.812 -0.0013 -0.1357 -0.5928
  610TMC3    C5 9092   2.586   0.806  12.736 -0.4222  0.1330  0.9353
  610TMC3    C6 9093   2.608   0.897  12.640 -0.8126 -0.6587 -0.1051
  610TMC3     C 9094   2.240   0.886  12.795  0.3762  0.3021 -0.5475
  610TMC3     O 9095   2.159   0.958  12.735  0.3640  0.0520  0.0601
  610TMC3     H 9096   2.332   1.077  12.647 -0.1064 -1.1390 -0.1143
  610TMC3    H1 9097   2.467   0.749  12.900 -1.6920  0.3138 -0.4061
  610TMC3    H2 9098   2.704   0.895  12.590 -0.2807  0.6413  0.8828
  610TMC3    C7 9099   2.687   0.708  12.776  0.0356  0.2307 -0.1172
  610TMC3    C8 9100   2.541   1.056  12.485 -0.0134  0.1090 -0.7061
  610TMC3    O1 9101   2.708   0.685  12.896  0.4140 -0.0173  0.4761
  610TMC3    O2 9102   2.625   1.002  12.414 -0.2099 -0.0067 -0.0535
  611MPD2     C 9103   2.185   0.728  10.312  0.0430 -0.1364  0.2680
  611MPD2    C1 9104   2.122   0.844  10.351 -0.0721 -0.3059 -0.0911
  611MPD2    C2 9105   2.205   0.957  10.362 -0.4660 -0.4348 -0.2309
  611MPD2    C3 9106   2.338   0.954  10.346 -0.0651  0.0408  0.1011
  611MPD2    C4 9107   2.395   0.842  10.297  0.1897  0.2010 -0.0547
  611MPD2    C5 9108   2.320   0.734  10.278 -0.1818  0.0988  0.2846
  611MPD2     H 9109   2.158   1.052  10.387 -0.5703 -0.7063  0.6002
  611MPD2    H1 9110   2.500   0.823  10.281  0.2978 -0.3971  1.3776
  611MPD2    H2 9111   2.143   0.628  10.309 -0.9382  0.3061 -0.8563
  611MPD2    H3 9112   2.361   0.639  10.246 -2.1790 -0.2587 -1.2322
  611MPD2     N 9113   2.435   1.058  10.366  0.2970  0.0591 -0.1573
  611MPD2    H5 9114   2.530   1.034  10.338  0.5650 -0.8782  1.5948
  611MPD2    N1 9115   1.984   0.837  10.365 -0.0280  0.1332  0.8667
  611MPD2    H7 9116   1.945   0.744  10.352 -1.8727  1.0043  0.0847
  612TMC3    C1 9117   2.514   1.268  10.420 -0.1371  0.5802  0.2510
  612TMC3    C2 9118   2.544   1.333  10.538 -0.0814 -0.0385 -0.3140
  612TMC3    C3 9119   2.651   1.412  10.527  0.4733 -0.1247  0.7851
  612TMC3    C4 9120   2.590   1.276  10.300  0.6141 -0.0920  0.5527
  612TMC3    C5 9121   2.687   1.363  10.298 -0.5769 -0.1858 -0.2357
  612TMC3    C6 9122   2.718   1.431  10.412  0.1005 -0.4927  0.9065
  612TMC3     C 9123   2.396   1.184  10.418 -0.2973 -0.2362 -0.1061
  612TMC3     O 9124   2.293   1.214  10.473 -0.0791 -0.2453  0.5133
  612TMC3     H 9125   2.483   1.314  10.625  2.4090 -2.6048  0.8675
  612TMC3    H1 9126   2.544   1.246  10.206 -0.5993  1.4915  0.6587
  612TMC3    H2 9127   2.812   1.485  10.417 -0.4105  0.4548  0.2719
  612TMC3    C7 9128   2.776   1.356  10.182 -0.1254 -0.6396 -0.1575
  612TMC3    C8 9129   2.725   1.441  10.648 -0.4455 -0.0570  0.2450
  612TMC3    O1 9130   2.764   1.252  10.116 -0.0975  0.4573 -0.3862
  612TMC3    O2 9131   2.831   1.504  10.640 -0.4052 -0.3406 -0.2809
  613MPD2     C 9132   0.857   3.014  17.038 -0.1640 -0.5050 -0.6284
  613MPD2    C1 9133   0.875   3.101  16.934 -0.4093 -0.1246 -0.3344
  613MPD2    C2 9134   0.768   3.144  16.851  0.5910  0.1139  0.2827
  613MPD2    C3 9135   0.641   3.088  16.871 -0.7987 -0.1701  1.2991
  613MPD2    C4 9136   0.623   3.001  16.977 -0.2937 -0.1379 -0.1116
  613MPD2    C5 9137   0.729   2.962  17.054  0.1334  0.7094  0.6094
  613MPD2     H 9138   0.785   3.207  16.765  2.5262 -0.8531 -0.0450
  613MPD2    H1 9139   0.532   2.943  16.990 -0.5828  0.4739  0.6558
  613MPD2    H2 9140   0.941   2.963  17.083  0.6196  0.9356 -0.4467
  613MPD2    H3 9141   0.716   2.879  17.122  1.2597  0.0138 -0.0176
  613MPD2     N 9142   0.525   3.121  16.787 -0.0956 -0.3429 -0.6810
  613MPD2    H5 9143   0.442   3.063  16.797 -2.1539  2.8721  1.1375
  613MPD2    N1 9144   1.004   3.131  16.901 -0.5590 -0.2420 -0.9797
  613MPD2    H7 9145   1.070   3.057  16.926  0.4381  0.5296 -1.3079
  614TMC3    C1 9146   1.171   3.223  16.752  0.3886 -0.2648  0.5232
  614TMC3    C2 9147   1.158   3.104  16.674 -0.4742 -0.0498 -0.3983
  614TMC3    C3 9148   1.163   3.114  16.536  0.9139  0.7231 -0.2946
  614TMC3    C4 9149   1.210   3.336  16.687 -0.2014  0.5454 -0.4381
  614TMC3    C5 9150   1.242   3.333  16.554  0.4484  0.0171  0.3906
  614TMC3    C6 9151   1.208   3.231  16.470  0.8326  0.1032 -0.5320
  614TMC3     C 9152   1.049   3.243  16.826 -0.5863  0.3793 -0.1947
  614TMC3     O 9153   0.987   3.347  16.795 -0.3427  0.3325 -0.2635
  614TMC3     H 9154   1.135   3.006  16.712 -0.7307 -0.3433 -1.3167
  614TMC3    H1 9155   1.223   3.433  16.733 -2.0245  0.4089  0.3765
  614TMC3    H2 9156   1.199   3.246  16.363 -0.6038  2.0146 -0.1457
  614TMC3    C7 9157   1.294   3.461  16.496 -0.8759  0.3982  0.0061
  614TMC3    C8 9158   1.067   3.024  16.467  0.0074  0.8063 -0.0590
  614TMC3    O1 9159   1.366   3.523  16.568  0.2368 -0.0380  0.5121
  614TMC3    O2 9160   0.991   2.963  16.541  0.5200  0.5439 -0.1926
  615MPD2     C 9161   4.536   0.133  16.396 -0.4394  0.2170 -0.4315
  615MPD2    C1 9162   4.633   0.235  16.404 -0.1169 -0.9155 -0.0249
  615MPD2    C2 9163   0.017   0.216  16.344 -0.0985  0.0001  0.3294
  615MPD2    C3 9164   0.047   0.112  16.262  0.1952 -0.3388 -0.7462
  615MPD2    C4 9165   4.685   0.012  16.241  0.0897  0.1418 -0.1727
  615MPD2    C5 9166   4.572   0.029  16.312 -0.0326 -0.5371  0.1182
  615MPD2     H 9167   0.071   0.309  16.353  0.2651 -0.0891 -0.9503
  615MPD2    H1 9168   4.707   4.667  16.175  3.7123  0.2917  0.8141
  615MPD2    H2 9169   4.442   0.131  16.449 -0.7197 -2.0020 -1.0429
  615MPD2    H3 9170   4.499   4.689  16.295  0.0928 -1.3335  3.2393
  615MPD2     N 9171   0.163   0.106  16.173  0.1788  0.0718  0.2537
  615MPD2    H5 9172   0.172   0.038  16.098 -0.2782 -1.7713  1.8837
  615MPD2    N1 9173   4.621   0.349  16.492 -0.3814  0.1009 -0.2667
  615MPD2    H7 9174   4.697   0.416  16.483 -2.8558  2.5444 -3.0627
  616TMC3    C1 9175   4.540   0.510  16.631 -0.0469 -0.2236 -0.5969
  616TMC3    C2 9176   4.659   0.581  16.603  0.0544  0.0374 -0.0712
  616TMC3    C3 9177   4.666   0.703  16.663  0.5520  0.3708 -0.0471
  616TMC3    C4 9178   4.439   0.567  16.708  0.2787  0.3209 -0.0987
  616TMC3    C5 9179   4.458   0.692  16.766  0.1434  0.1946 -0.0312
  616TMC3    C6 9180   4.574   0.756  16.747 -0.0922  0.6725 -0.4228
  616TMC3     C 9181   4.513   0.381  16.570  0.1500  0.8332  0.1179
  616TMC3     O 9182   4.400   0.334  16.573  0.1395  0.1978  0.6726
  616TMC3     H 9183   0.003   0.552  16.539  0.0598 -1.8507  0.8075
  616TMC3    H1 9184   4.345   0.515  16.720 -0.3319  1.0204 -1.8465
  616TMC3    H2 9185   4.569   0.859  16.782  0.3932  0.9670 -1.2270
  616TMC3    C7 9186   4.360   0.747  16.859 -0.5501  0.0630  0.3320
  616TMC3    C8 9187   0.034   0.792  16.631 -0.2457  0.2866 -0.5223
  616TMC3    O1 9188   4.382   0.859  16.890  0.1401  0.2741 -0.0826
  616TMC3    O2 9189   0.003   0.909  16.618 -0.6122 -0.0580  0.1425
  617MPD2     C 9190   3.213   3.172  13.526 -0.1515 -0.2570  0.1233
  617MPD2    C1 9191   3.208   3.222  13.651  0.0278 -0.2275  0.1077
  617MPD2    C2 9192   3.122   3.161  13.735 -0.3695  0.0451 -0.9772
  617MPD2    C3 9193   3.045   3.054  13.697  0.2180 -0.4261  0.3163
  617MPD2    C4 9194   3.065   2.992  13.579 -0.1349 -0.0910  0.6510
  617MPD2    C5 9195   3.145   3.058  13.489 -0.0569  0.2537  0.6672
  617MPD2     H 9196   3.121   3.183  13.842  2.0143  1.8440 -1.3048
  617MPD2    H1 9197   3.011   2.905  13.544 -2.8300  0.6890  2.8960
  617MPD2    H2 9198   3.297   3.199  13.463 -0.7934  1.8321  0.1737
  617MPD2    H3 9199   3.160   3.021  13.389 -1.1256 -0.5750  0.8158
  617MPD2     N 9200   2.953   2.986  13.785 -0.0566  0.0905 -0.0854
  617MPD2    H5 9201   2.919   2.901  13.742  2.0354  0.1049 -1.7666
  617MPD2    N1 9202   3.303   3.324  13.691 -0.0055 -0.2223  0.1813
  617MPD2    H7 9203   3.355   3.360  13.611 -1.8736  0.0814 -0.8954
  618TMC3    C1 9204   3.471   3.422  13.827  0.4948  0.3521 -0.4369
  618TMC3    C2 9205   3.547   3.339  13.902 -0.5076 -0.6869 -0.3797
  618TMC3    C3 9206   3.656   3.281  13.842 -0.2523 -0.4606 -0.4748
  618TMC3    C4 9207   3.517   3.468  13.714 -0.7763  0.2561  0.4557
  618TMC3    C5 9208   3.622   3.408  13.655  0.1528  0.4306 -0.3213
  618TMC3    C6 9209   3.694   3.307  13.711 -0.2155 -0.0435  0.3880
  618TMC3     C 9210   3.335   3.367  13.820  0.1179  0.4872 -0.0383
  618TMC3     O 9211   3.294   3.324  13.927 -0.2928  0.3199 -0.2111
  618TMC3     H 9212   3.531   3.315  14.007 -0.1337 -1.3064 -0.4624
  618TMC3    H1 9213   3.457   3.535  13.653 -0.5176 -0.4882 -0.6160
  618TMC3    H2 9214   3.749   3.237  13.648  1.3156 -0.1405  1.8512
  618TMC3    C7 9215   3.601   3.400  13.512  0.2994 -0.0287  1.0117
  618TMC3    C8 9216   3.710   3.160  13.914 -0.4372 -0.0988 -0.3078
  618TMC3    O1 9217   3.487   3.392  13.470  0.0704  0.3161 -0.8285
  618TMC3    O2 9218   3.727   3.172  14.032 -0.0796  0.4066  0.2260
  619MPD2     C 9219   0.161   4.290  13.819 -0.6996 -0.1873  0.0162
  619MPD2    C1 9220   0.034   4.324  13.769  0.0644  0.2393  0.3396
  619MPD2    C2 9221   4.668   4.311  13.856  0.3236 -0.5156  0.3498
  619MPD2    C3 9222   4.686   4.288  13.988 -0.4118  0.6091 -0.2873
  619MPD2    C4 9223   0.074   4.260  14.037 -0.6629 -0.3521  0.3532
  619MPD2    C5 9224   0.179   4.251  13.947 -0.2353 -0.6487 -0.2997
  619MPD2     H 9225   4.569   4.339  13.822  0.3743 -0.9895 -0.2008
  619MPD2    H1 9226   0.100   4.247  14.141 -1.2892  3.6789  0.9988
  619MPD2    H2 9227   0.249   4.280  13.757  0.7229  0.0444  2.0088
  619MPD2    H3 9228   0.277   4.218  13.980 -0.2159  0.0417  0.3208
  619MPD2     N 9229   4.584   4.307  14.086 -0.1573  0.3858  0.7041
  619MPD2    H5 9230   4.606   4.284  14.182 -1.5577  1.9276  1.3990
  619MPD2    N1 9231   0.000   4.374  13.640  0.4318  0.2890 -0.2062
  619MPD2    H7 9232   4.641   4.394  13.624  0.7137  4.6866  3.3358
  620TMC3    C1 9233   0.043   4.475  13.435 -0.2935  0.3068  1.2559
  620TMC3    C2 9234   4.656   4.448  13.388  0.3026 -0.0543  0.5248
  620TMC3    C3 9235   4.605   4.531  13.294  0.0092 -0.1528 -0.9106
  620TMC3    C4 9236   0.121   4.567  13.368  0.0694 -0.8353  0.1168
  620TMC3    C5 9237   0.072   4.649  13.268 -0.7498  0.2662  0.2270
  620TMC3    C6 9238   4.682   4.626  13.230  0.4458 -0.1582  0.3542
  620TMC3     C 9239   0.096   4.415  13.550  0.5717 -0.1039 -0.0938
  620TMC3     O 9240   0.219   4.409  13.552  0.1276  0.5973 -0.6621
  620TMC3     H 9241   4.591   4.372  13.429 -0.8849  1.0494  0.6885
  620TMC3    H1 9242   0.220   4.589  13.405 -0.2008  0.0041  0.3364
  620TMC3    H2 9243   4.640   4.674  13.142  0.1393  0.4644  0.8445
  620TMC3    C7 9244   0.127   0.049  13.263  0.4769  0.0517 -0.5248
  620TMC3    C8 9245   4.484   4.603  13.319 -0.5943  0.6986  0.2708
  620TMC3    O1 9246   0.243   0.073  13.291  0.4358 -0.6708 -0.1358
  620TMC3    O2 9247   4.490   4.721  13.348  0.0179 -0.1179  0.1623
  621MPD2     C 9248   0.006   4.076   9.346 -0.0100  0.4425 -0.3478
  621MPD2    C1 9249   4.734   4.163   9.448  0.0868 -0.1541 -0.5445
  621MPD2    C2 9250   0.097   4.249   9.482  0.2881  0.0895 -0.2470
  621MPD2    C3 9251   0.220   4.238   9.417  0.2883 -0.3896 -0.0410
  621MPD2    C4 9252   0.239   4.141   9.320  0.0327  0.4464  0.0555
  621MPD2    C5 9253   0.127   4.065   9.286 -0.2681  0.1917  0.8336
  621MPD2     H 9254   0.083   4.315   9.567 -0.1998  2.3948 -2.1244
  621MPD2    H1 9255   0.334   4.130   9.270 -0.7512 -1.0146 -1.1065
  621MPD2    H2 9256   4.663   4.015   9.311 -0.3372 -0.6776  2.3196
  621MPD2    H3 9257   0.152   3.982   9.220  0.7306  1.4079 -0.3178
  621MPD2     N 9258   0.322   4.324   9.456  0.0251 -0.1845  0.1851
  621MPD2    H5 9259   0.305   4.384   9.536  0.4282 -1.9208  1.5725
  621MPD2    N1 9260   4.629   4.163   9.538  0.7510 -0.4453 -0.6674
  621MPD2    H7 9261   4.636   4.219   9.623  0.3399  0.3560 -1.1567
  622TMC3    C1 9262   4.439   4.083   9.668  0.4820 -0.4207 -0.2890
  622TMC3    C2 9263   4.384   3.970   9.719  0.1590 -0.3951 -0.3870
  622TMC3    C3 9264   4.279   3.986   9.801  0.3475 -0.7942  0.1382
  622TMC3    C4 9265   4.393   4.204   9.698 -0.0068 -0.5093 -0.1128
  622TMC3    C5 9266   4.301   4.224   9.799  0.1736  0.2155  0.1978
  622TMC3    C6 9267   4.240   4.111   9.852  1.1294 -0.0049  0.7676
  622TMC3     C 9268   4.522   4.073   9.544  0.1168 -1.2007  0.1665
  622TMC3     O 9269   4.500   3.978   9.465  0.5677 -0.1031  0.3270
  622TMC3     H 9270   4.424   3.875   9.685 -1.2744 -0.9452 -0.5601
  622TMC3    H1 9271   4.430   4.290   9.643 -0.2848  0.2765  0.9210
  622TMC3    H2 9272   4.158   4.116   9.922 -0.7210 -0.0969 -1.3695
  622TMC3    C7 9273   4.258   4.356   9.832 -0.3581 -0.0364 -1.0852
  622TMC3    C8 9274   4.206   3.869   9.830 -0.0532  0.4743  0.0262
  622TMC3    O1 9275   4.322   4.446   9.772  0.0780  0.4253 -0.0274
  622TMC3    O2 9276   4.245   3.767   9.774 -0.1420 -0.2432  0.5552
  623MPD2     C 9277   3.790   0.695  15.835  0.2698 -0.4968  0.2483
  623MPD2    C1 9278   3.683   0.701  15.928  0.1276 -0.6803 -0.0756
  623MPD2    C2 9279   3.714   0.752  16.049 -0.7950  0.1536  0.1263
  623MPD2    C3 9280   3.835   0.804  16.079  0.2780  0.6235  0.5245
  623MPD2    C4 9281   3.935   0.812  15.983  0.6699 -0.5738  0.3535
  623MPD2    C5 9282   3.909   0.754  15.866 -0.6634  0.4019 -0.4504
  623MPD2     H 9283   3.640   0.743  16.128  1.2019 -0.6809  1.9186
  623MPD2    H1 9284   4.039   0.841  15.998  1.0593 -0.4307 -2.7421
  623MPD2    H2 9285   3.793   0.634  15.746 -1.7405  0.2069 -0.2948
  623MPD2    H3 9286   3.991   0.750  15.794  1.1238  0.1470  1.5894
  623MPD2     N 9287   3.850   0.849  16.209 -0.0010 -0.5540  0.4749
  623MPD2    H5 9288   3.770   0.842  16.271  0.0270 -2.2286  0.3240
  623MPD2    N1 9289   3.560   0.634  15.922 -0.5562  0.3655  0.0681
  623MPD2    H7 9290   3.502   0.650  16.004  0.1855 -1.4784  0.9563
  624TMC3    C1 9291   4.012   1.045  16.594 -0.1269 -0.8193  0.2405
  624TMC3    C2 9292   3.921   0.976  16.668  0.8441  0.2765 -0.3750
  624TMC3    C3 9293   3.846   0.882  16.601  0.4184  0.3267 -0.3318
  624TMC3    C4 9294   4.020   1.035  16.460 -0.6742 -0.5089  0.3413
  624TMC3    C5 9295   3.933   0.955  16.395 -0.1932 -0.6437  0.1720
  624TMC3    C6 9296   3.851   0.870  16.463  0.5062  0.2771 -0.2913
  624TMC3     C 9297   4.122   1.116  16.660 -0.1111 -0.5656  0.6177
  624TMC3     O 9298   4.130   1.107  16.782  0.1468  0.3130 -0.0019
  624TMC3     H 9299   3.920   0.980  16.776  1.3570  0.9211 -0.4008
  624TMC3    H1 9300   4.092   1.093  16.403  0.7996  1.2474  3.9675
  624TMC3    H2 9301   3.783   0.801  16.415 -0.6014  0.5953  0.8276
  624TMC3    C7 9302   3.955   0.921  16.254 -0.5977  0.0283  0.0103
  624TMC3    C8 9303   3.768   0.788  16.678  0.8588 -0.2600 -0.1288
  624TMC3    O1 9304   4.048   0.967  16.193  0.1476  0.5438  0.4256
  624TMC3    O2 9305   3.724   0.694  16.610 -0.0586 -0.1311 -0.1930
  625MPD2     C 9306   3.967   1.589   1.116 -0.2074  0.0313 -0.1254
  625MPD2    C1 9307   3.993   1.724   1.117 -0.5174  0.0243 -0.8319
  625MPD2    C2 9308   4.096   1.761   1.197  0.3986  0.4543 -0.3104
  625MPD2    C3 9309   4.167   1.670   1.277 -0.3654 -0.9497  0.0900
  625MPD2    C4 9310   4.128   1.534   1.283  0.0153 -0.1494  0.5056
  625MPD2    C5 9311   4.030   1.495   1.203  0.4409  1.0611  0.5190
  625MPD2     H 9312   4.120   1.867   1.189 -2.6666  1.0533 -1.5682
  625MPD2    H1 9313   4.180   1.454   1.335 -1.2688 -1.3397 -0.0259
  625MPD2    H2 9314   3.901   1.547   1.042 -0.5296  2.1367 -1.0386
  625MPD2    H3 9315   4.001   1.390   1.207  1.5566  0.6899 -0.6932
  625MPD2     N 9316   4.279   1.715   1.346 -0.0247 -0.6023  0.4201
  625MPD2    H5 9317   4.291   1.816   1.341  1.1860 -0.7896 -0.6594
  625MPD2    N1 9318   3.924   1.819   1.036 -0.2767  0.0486  0.0868
  625MPD2    H7 9319   3.943   1.916   1.060 -2.3470  0.6045 -0.5055
  626TMC3    C1 9320   3.741   1.903   0.912  0.4971 -0.7557 -0.0017
  626TMC3    C2 9321   3.683   1.907   0.790 -0.2203  0.5441  0.0784
  626TMC3    C3 9322   3.591   2.005   0.777 -0.0407  1.0412 -0.2204
  626TMC3    C4 9323   3.719   1.995   1.012 -0.0634 -0.2446 -0.4050
  626TMC3    C5 9324   3.639   2.101   0.987 -0.1121  0.5779 -0.2254
  626TMC3    C6 9325   3.562   2.105   0.870  0.1449  0.0926  0.0225
  626TMC3     C 9326   3.824   1.787   0.941 -0.5338  0.6713  0.0622
  626TMC3     O 9327   3.811   1.687   0.873  0.6017 -0.4044 -0.1577
  626TMC3     H 9328   3.691   1.827   0.718 -1.3147 -1.8042  2.5913
  626TMC3    H1 9329   3.781   2.007   1.100  0.7254  2.2632 -1.3138
  626TMC3    H2 9330   3.516   2.199   0.843  2.3876  0.9801 -0.6459
  626TMC3    C7 9331   3.591   2.174   1.098  0.2773 -0.0739  0.4117
  626TMC3    C8 9332   3.546   2.019   0.640  0.8624 -0.0965 -0.1355
  626TMC3    O1 9333   3.669   2.188   1.192 -0.1325 -0.1806  0.5880
  626TMC3    O2 9334   3.622   1.977   0.550  0.3692 -0.4666 -0.4539
  627MPD2     C 9335   2.809   2.092  14.702 -0.0398  0.2696 -0.0921
  627MPD2    C1 9336   2.903   2.010  14.763  0.5203 -0.2061 -0.7537
  627MPD2    C2 9337   2.879   1.877  14.789 -0.1707 -0.7773  0.2977
  627MPD2    C3 9338   2.758   1.820  14.746  0.7220  0.6527  0.2966
  627MPD2    C4 9339   2.666   1.901  14.685 -0.5656  0.1636 -0.0630
  627MPD2    C5 9340   2.694   2.030  14.662 -1.6827  0.5160  0.6360
  627MPD2     H 9341   2.949   1.813  14.841  0.6308  0.0454  0.2172
  627MPD2    H1 9342   2.565   1.871  14.660 -0.9937  2.7833 -1.5427
  627MPD2    H2 9343   2.825   2.197  14.680  4.0195 -0.7248 -1.8325
  627MPD2    H3 9344   2.618   2.091  14.615 -0.3571  3.2882  2.0405
  627MPD2     N 9345   2.730   1.692  14.790 -0.1734 -0.0361 -0.8961
  627MPD2    H5 9346   2.803   1.655  14.850  0.6961  0.9759 -1.3262
  627MPD2    N1 9347   3.036   2.057  14.793 -0.0191 -0.0022 -0.4175
  627MPD2    H7 9348   3.105   1.994  14.833  0.5964  1.5525  1.0353
  628TMC3    C1 9349   3.232   2.200  14.802 -0.4324 -0.3145 -0.7229
  628TMC3    C2 9350   3.303   2.084  14.823 -0.1403  0.5000 -0.6845
  628TMC3    C3 9351   3.437   2.100  14.804  0.0638 -0.1748 -0.0653
  628TMC3    C4 9352   3.284   2.320  14.757 -0.9313 -0.3144 -0.4032
  628TMC3    C5 9353   3.418   2.317  14.729 -0.1868 -0.0299  0.1959
  628TMC3    C6 9354   3.497   2.206  14.749 -0.0500 -0.0369  0.9100
  628TMC3     C 9355   3.092   2.182  14.772  0.2970 -0.3262  0.0508
  628TMC3     O 9356   3.040   2.278  14.713 -0.2312  0.1721  0.1697
  628TMC3     H 9357   3.256   1.996  14.867  2.7498 -1.9411 -2.4948
  628TMC3    H1 9358   3.223   2.409  14.756  0.4170  0.5975 -0.8463
  628TMC3    H2 9359   3.605   2.211  14.737 -0.4401  0.5625 -2.4296
  628TMC3    C7 9360   3.460   2.406  14.627 -0.1858  0.4503 -0.0698
  628TMC3    C8 9361   3.532   1.994  14.832  0.4146  1.0650  0.3721
  628TMC3    O1 9362   3.577   2.401  14.584  0.5945  0.2534 -0.3882
  628TMC3    O2 9363   3.640   1.997  14.779  0.7098 -0.4953 -0.0785
  629MPD2     C 9364   0.518   0.916  16.477 -0.2853 -0.2452 -0.2614
  629MPD2    C1 9365   0.511   0.779  16.488  0.4271 -0.1070  0.1997
  629MPD2    C2 9366   0.386   0.728  16.521 -0.2017 -1.0830 -0.1412
  629MPD2    C3 9367   0.280   0.805  16.563  0.0311 -0.0525 -0.5617
  629MPD2    C4 9368   0.292   0.940  16.559  0.5485 -0.2887  0.0736
  629MPD2    C5 9369   0.414   0.995  16.520 -0.1842  0.1835 -0.0694
  629MPD2     H 9370   0.369   0.622  16.535  0.0367 -1.1530 -0.3904
  629MPD2    H1 9371   0.214   1.007  16.592  0.4220 -0.2095 -0.3891
  629MPD2    H2 9372   0.603   0.980  16.456 -0.6003 -1.0771 -4.1201
  629MPD2    H3 9373   0.422   1.103  16.517 -0.0950  0.1658 -0.5275
  629MPD2     N 9374   0.159   0.736  16.597  0.1046 -0.0190  0.3668
  629MPD2    H5 9375   0.167   0.636  16.615 -0.3807  0.0492  0.9503
  629MPD2    N1 9376   0.627   0.705  16.458 -0.4262  0.2009  0.5531
  629MPD2    H7 9377   0.705   0.762  16.425 -0.9874  1.2668  1.0764
  630TMC3    C1 9378   0.765   0.506  16.428 -0.3118 -0.4536  0.2462
  630TMC3    C2 9379   0.854   0.576  16.346  0.2707  0.1030  0.1498
  630TMC3    C3 9380   0.967   0.513  16.318  0.1968  0.4576  0.5621
  630TMC3    C4 9381   0.785   0.381  16.467 -0.4464 -0.3780  0.5806
  630TMC3    C5 9382   0.910   0.329  16.446  0.8734  0.8757 -0.5608
  630TMC3    C6 9383   0.999   0.387  16.361 -0.0511  0.3168  0.5942
  630TMC3     C 9384   0.635   0.566  16.458  0.1835  0.1298  0.3491
  630TMC3     O 9385   0.542   0.486  16.460 -0.4173  0.0186 -0.1497
  630TMC3     H 9386   0.839   0.678  16.314 -2.0060 -0.1925  0.3177
  630TMC3    H1 9387   0.717   0.334  16.537 -2.5946 -0.5628 -1.6299
  630TMC3    H2 9388   1.085   0.338  16.317 -1.7986  0.0667 -2.5578
  630TMC3    C7 9389   0.969   0.287  16.572 -0.8732 -0.8409 -0.1193
  630TMC3    C8 9390   1.079   0.598  16.314 -0.6308 -0.2889 -0.3653
  630TMC3    O1 9391   0.896   0.257  16.665  0.2636  0.2757 -0.7967
  630TMC3    O2 9392   1.167   0.554  16.384 -0.2715 -0.7000 -0.7238
  631MPD2     C 9393   0.098   0.442  15.306  0.2333  0.4373  0.0714
  631MPD2    C1 9394   0.133   0.543  15.390  0.2614 -1.0082 -0.3675
  631MPD2    C2 9395   0.213   0.516  15.505 -0.5272 -0.0073  0.5890
  631MPD2    C3 9396   0.252   0.385  15.533 -1.1052 -0.1324  0.4702
  631MPD2    C4 9397   0.221   0.284  15.440 -0.0176 -0.3343  0.4220
  631MPD2    C5 9398   0.143   0.316  15.329  1.0297 -0.6054  0.2034
  631MPD2     H 9399   0.244   0.592  15.575  0.8207  1.2475 -1.3694
  631MPD2    H1 9400   0.254   0.182  15.449 -1.7065 -0.8387  0.9095
  631MPD2    H2 9401   0.036   0.461  15.219 -1.6741  0.3524  1.4013
  631MPD2    H3 9402   0.115   0.240  15.257 -0.1307  0.3336 -0.3207
  631MPD2     N 9403   0.314   0.363  15.659 -0.2222 -0.6710  0.0741
  631MPD2    H5 9404   0.340   0.449  15.707 -1.0676 -0.2637 -0.1914
  631MPD2    N1 9405   0.083   0.673  15.360 -0.3381  0.2965 -0.0028
  631MPD2    H7 9406   0.025   0.675  15.277 -0.1901  1.0964 -0.0882
  632TMC3    C1 9407   0.035   0.911  15.369 -0.4970  1.0275  0.0801
  632TMC3    C2 9408   0.016   1.013  15.450  0.0665  0.3059 -0.5297
  632TMC3    C3 9409   4.679   1.121  15.402 -0.1456 -0.5445 -0.2790
  632TMC3    C4 9410   0.001   0.918  15.237 -0.0684  0.0738  0.6742
  632TMC3    C5 9411   4.675   1.027  15.191 -0.1732  0.0693 -0.2359
  632TMC3    C6 9412   4.647   1.129  15.276 -0.0708  0.0578  0.0997
  632TMC3     C 9413   0.115   0.794  15.417  1.3259 -0.1930  0.3735
  632TMC3     O 9414   0.185   0.821  15.511 -0.4710 -0.2621 -0.3976
  632TMC3     H 9415   0.049   0.996  15.552  2.0520 -0.4669 -1.3066
  632TMC3    H1 9416   0.009   0.833  15.170 -0.9497  0.0969  0.5352
  632TMC3    H2 9417   4.594   1.216  15.240  1.6364  0.9762 -0.2054
  632TMC3    C7 9418   4.615   1.010  15.057  0.4880 -0.3166 -0.8372
  632TMC3    C8 9419   4.587   1.179  15.496  0.2115 -0.2658  0.4421
  632TMC3    O1 9420   4.674   0.929  14.990  0.1567  0.3850 -0.2305
  632TMC3    O2 9421   4.470   1.173  15.463  0.3446  0.5810 -0.0529
  633MPD2     C 9422   3.847   3.475  17.457  0.6840 -0.2638 -0.1703
  633MPD2    C1 9423   3.834   3.427  17.333 -0.0145  0.6023 -0.2287
  633MPD2    C2 9424   3.755   3.316  17.306 -0.0898  0.6715 -0.6182
  633MPD2    C3 9425   3.687   3.246  17.408  0.0305 -0.1982 -0.6214
  633MPD2    C4 9426   3.692   3.298  17.532 -0.0143 -0.5458 -0.0777
  633MPD2    C5 9427   3.772   3.409  17.556 -0.0523  0.4928 -0.1212
  633MPD2     H 9428   3.759   3.272  17.207  0.2174  0.8539 -0.6861
  633MPD2    H1 9429   3.636   3.257  17.615 -3.3621 -0.4989 -2.3284
  633MPD2    H2 9430   3.906   3.563  17.482  0.5703 -0.3606  0.4392
  633MPD2    H3 9431   3.771   3.454  17.654 -1.9656 -1.2915  0.6971
  633MPD2     N 9432   3.609   3.126  17.393  0.0112  0.2698  0.2731
  633MPD2    H5 9433   3.597   3.070  17.476 -0.5710  0.8681  0.5879
  633MPD2    N1 9434   3.904   3.476  17.225  0.0644  0.2689  0.3286
  633MPD2    H7 9435   3.891   3.432  17.134  0.1756 -0.6294  0.7567
  634TMC3    C1 9436   4.028   3.641  17.097  0.8705 -0.4209  0.0793
  634TMC3    C2 9437   4.111   3.561  17.022  0.3915  0.0593  0.4224
  634TMC3    C3 9438   4.186   3.618  16.926  0.5045 -0.1334  0.5979
  634TMC3    C4 9439   4.026   3.774  17.076  0.2604 -0.7795  0.1692
  634TMC3    C5 9440   4.113   3.831  16.985  0.7169  0.0477  0.3329
  634TMC3    C6 9441   4.193   3.757  16.906 -0.2480  0.2962  0.0719
  634TMC3     C 9442   3.973   3.590  17.224  0.2946  0.3359  0.7599
  634TMC3     O 9443   4.002   3.668  17.316  0.4503  0.4307 -0.2510
  634TMC3     H 9444   4.104   3.454  17.038 -1.4534  0.2798  1.0610
  634TMC3    H1 9445   3.959   3.830  17.140 -2.7467 -3.4480 -0.6961
  634TMC3    H2 9446   4.254   3.802  16.829 -1.6376  0.3878 -0.9711
  634TMC3    C7 9447   4.080   3.970  16.939  0.2235  1.2406 -1.0352
  634TMC3    C8 9448   4.209   3.526  16.809 -0.8409 -0.3644  0.3895
  634TMC3    O1 9449   4.124   3.999  16.828  0.3561  0.0687  0.1636
  634TMC3    O2 9450   4.188   3.407  16.830 -0.2200  0.5681 -0.2392
  635TMC3    C1 9451   4.581   0.082   0.032 -0.2646 -0.7281 -0.1893
  635TMC3    C2 9452   4.518   0.058  17.663 -1.1334 -0.2676 -1.1261
  635TMC3    C3 9453   4.500   4.666  17.629 -0.0964  0.0013  0.5793
  635TMC3    C4 9454   4.592   4.726   0.124  0.0065 -0.0782  0.0623
  635TMC3    C5 9455   4.549   4.601   0.097 -0.4094  0.0996  0.4456
  635TMC3    C6 9456   4.508   4.566  17.719  0.0787 -0.2597 -0.1059
  635TMC3     C 9457   4.657   0.208   0.062 -0.0785 -0.5364  0.1127
  635TMC3     O 9458   4.680   0.232   0.180  0.3277  0.2348  0.1815
  635TMC3     H 9459   4.485   0.139  17.599  0.3420 -0.0057 -1.5618
  635TMC3    H1 9460   4.640   4.737   0.221  1.8345 -0.0858 -0.8405
  635TMC3    H2 9461   4.499   4.463  17.686 -0.7929 -0.4176  0.6157
  635TMC3    C7 9462   4.568   4.491   0.190 -0.6070 -0.0460 -0.1239
  635TMC3    C8 9463   4.440   4.641  17.507  0.0125 -0.5919  0.5924
  635TMC3    O1 9464   4.651   4.509   0.280 -0.7321 -0.4940 -0.2906
  635TMC3    O2 9465   4.370   4.541  17.492 -0.2918  0.5820 -0.0264
  636MPD2     C 9466   0.645   3.601  15.922 -0.1273  0.6406  0.2030
  636MPD2    C1 9467   0.622   3.661  16.040 -0.1013  0.8197 -0.3872
  636MPD2    C2 9468   0.581   3.582  16.145  0.5168  0.8583 -0.3026
  636MPD2    C3 9469   0.546   3.450  16.124 -0.4349 -0.3143  0.0407
  636MPD2    C4 9470   0.566   3.396  15.999  0.0587 -0.9082  0.8038
  636MPD2    C5 9471   0.630   3.467  15.898  0.0958  0.3693  0.4994
  636MPD2     H 9472   0.560   3.627  16.241  0.5093 -0.7730  0.4670
  636MPD2    H1 9473   0.542   3.292  15.983  0.3017 -0.3807 -3.0659
  636MPD2    H2 9474   0.685   3.656  15.837 -0.1481  0.2677 -0.0485
  636MPD2    H3 9475   0.655   3.415  15.807 -0.4653 -1.2672  1.2797
  636MPD2     N 9476   0.494   3.371  16.228 -0.5017  0.0107  0.1759
  636MPD2    H5 9477   0.509   3.400  16.325  0.8087 -2.1919  0.6332
  636MPD2    N1 9478   0.631   3.795  16.060  0.0430  0.1476 -0.0233
  636MPD2    H7 9479   0.613   3.826  16.155  1.4845  1.3417 -0.1327
  637TMC3    C1 9480   0.422   3.167  16.321 -0.1635 -0.3044  0.2484
  637TMC3    C2 9481   0.444   3.222  16.444  0.1872 -0.5487 -0.3828
  637TMC3    C3 9482   0.462   3.141  16.554 -0.0666  0.2392  0.1946
  637TMC3    C4 9483   0.432   3.033  16.300 -0.9586  0.6667 -0.3165
  637TMC3    C5 9484   0.477   2.956  16.412 -0.5735  0.0547 -0.6164
  637TMC3    C6 9485   0.486   3.003  16.538 -0.9378  0.1258 -0.0130
  637TMC3     C 9486   0.427   3.252  16.206 -1.0341 -1.0283  0.0397
  637TMC3     O 9487   0.387   3.203  16.103 -0.4002  0.5396 -0.1678
  637TMC3     H 9488   0.418   3.326  16.457 -0.0324 -0.7260  0.5894
  637TMC3    H1 9489   0.409   2.990  16.204 -3.7565 -2.0820  1.5686
  637TMC3    H2 9490   0.519   2.933  16.614  1.2509 -0.1671 -1.2311
  637TMC3    C7 9491   0.583   2.867  16.379  0.0661  0.3086 -0.6777
  637TMC3    C8 9492   0.535   3.199  16.668 -0.1526 -0.0939  0.7734
  637TMC3    O1 9493   0.651   2.841  16.475 -0.2841  0.0982  0.0771
  637TMC3    O2 9494   0.597   3.301  16.655  0.0855  0.2714 -0.2005
  638MPD2     C 9495   0.362   2.486  14.828 -0.0992 -0.1186 -0.5239
  638MPD2    C1 9496   0.365   2.351  14.776  0.6056  0.9166 -0.3222
  638MPD2    C2 9497   0.263   2.262  14.803 -0.3063 -0.3712  0.0886
  638MPD2    C3 9498   0.163   2.291  14.891  0.1292  0.6790 -0.3058
  638MPD2    C4 9499   0.161   2.418  14.940  0.2680 -0.2122 -0.2997
  638MPD2    C5 9500   0.253   2.510  14.911 -1.2226 -0.1907  0.4590
  638MPD2     H 9501   0.244   2.167  14.755 -0.8048 -1.1705  1.8763
  638MPD2    H1 9502   0.081   2.441  15.010 -1.2757 -1.0131 -1.8100
  638MPD2    H2 9503   0.426   2.565  14.793  0.4787  0.1461  1.1312
  638MPD2    H3 9504   0.237   2.609  14.952 -0.4524  0.3072 -0.4226
  638MPD2     N 9505   0.066   2.188  14.915  0.4361 -0.3611  0.0949
  638MPD2    H5 9506   0.085   2.099  14.871  0.3381 -0.7762  0.8939
  638MPD2    N1 9507   0.471   2.305  14.698 -0.4326  0.3175  0.6846
  638MPD2    H7 9508   0.467   2.207  14.673  0.6380  0.2864  0.6334
  639TMC3    C1 9509   4.649   2.061  15.049 -0.2991  0.0401 -0.5898
  639TMC3    C2 9510   4.612   1.978  14.948  0.1691 -0.1160 -0.2717
  639TMC3    C3 9511   4.631   1.843  14.965  0.2706  0.5516  0.7492
  639TMC3    C4 9512   4.703   2.012  15.156 -0.1154 -0.4098  0.4849
  639TMC3    C5 9513   0.002   1.880  15.170 -0.6608 -0.6216  0.0160
  639TMC3    C6 9514   4.692   1.792  15.073  0.5509  0.0338 -0.3391
  639TMC3     C 9515   4.706   2.195  15.009 -0.3756 -0.0287  0.4471
  639TMC3     O 9516   4.697   2.276  15.101 -0.3003  0.0452 -0.1460
  639TMC3     H 9517   4.591   2.027  14.854  1.9900  1.2247  0.0123
  639TMC3    H1 9518   0.001   2.084  15.227  0.6085 -0.4303  0.1310
  639TMC3    H2 9519   4.708   1.685  15.081  0.6137  0.0003 -0.9602
  639TMC3    C7 9520   0.145   1.874  15.178  0.6757  0.5412  0.0232
  639TMC3    C8 9521   4.603   1.750  14.861 -0.3092  0.3101 -0.0551
  639TMC3    O1 9522   0.198   1.934  15.267  0.3897  0.7109 -0.4314
  639TMC3    O2 9523   4.682   1.656  14.861  0.4746 -0.1229 -0.3370
  640MPD2     C 9524   0.529   0.573  10.113 -0.2209 -0.3779 -0.9123
  640MPD2    C1 9525   0.529   0.697  10.045  0.1400  0.5153  0.4203
  640MPD2    C2 9526   0.419   0.782  10.066 -0.7659  0.5459 -0.0637
  640MPD2    C3 9527   0.333   0.756  10.172 -0.2543  0.0620  0.0925
  640MPD2    C4 9528   0.335   0.639  10.236 -0.2331  0.0840  0.0522
  640MPD2    C5 9529   0.433   0.540  10.208 -0.9145  0.1161 -0.2452
  640MPD2     H 9530   0.419   0.871  10.004  0.2190  1.6453  1.5311
  640MPD2    H1 9531   0.258   0.601  10.302  0.1912  0.0005  0.5034
  640MPD2    H2 9532   0.604   0.497  10.094 -1.0983 -1.7351  1.0483
  640MPD2    H3 9533   0.434   0.436  10.237  1.2676 -0.0026 -0.7907
  640MPD2     N 9534   0.222   0.841  10.198  0.0209  0.7917 -0.4312
  640MPD2    H5 9535   0.144   0.800  10.249  1.4778  0.4247  1.5004
  640MPD2    N1 9536   0.651   0.719   9.973 -0.0047 -0.0795 -0.0082
  640MPD2    H7 9537   0.712   0.640   9.954  0.0651 -0.0056 -0.0882
  641TMC3    C1 9538   0.825   0.840   9.848 -0.2277  0.1715  1.3387
  641TMC3    C2 9539   0.854   0.738   9.765  0.3859 -0.7775 -0.3533
  641TMC3    C3 9540   0.979   0.746   9.701  0.5875  1.2559 -0.3126
  641TMC3    C4 9541   0.912   0.946   9.871 -0.1154  0.5696 -0.3176
  641TMC3    C5 9542   1.035   0.938   9.813 -0.3786  0.9645  0.7357
  641TMC3    C6 9543   1.073   0.844   9.724 -0.1548  0.2085  0.5004
  641TMC3     C 9544   0.695   0.845   9.924  0.5627 -0.3443 -0.7867
  641TMC3     O 9545   0.656   0.954   9.960  0.1762  0.0612 -0.1275
  641TMC3     H 9546   0.784   0.655   9.757 -1.7174  0.8544  0.9639
  641TMC3    H1 9547   0.890   1.026   9.941  1.5197 -1.5325  2.6154
  641TMC3    H2 9548   1.172   0.838   9.680 -0.2957 -1.3355  0.4103
  641TMC3    C7 9549   1.145   1.020   9.857 -0.2421  0.6049  0.6022
  641TMC3    C8 9550   1.014   0.639   9.611 -0.7305  0.0721  0.7284
  641TMC3    O1 9551   1.217   1.059   9.769  0.3791  0.3486 -0.4115
  641TMC3    O2 9552   0.919   0.591   9.549 -0.9017  0.2090  0.0903
  642TMC3    C1 9553   1.668   1.810  12.304 -0.6113 -0.4983 -0.5042
  642TMC3    C2 9554   1.734   1.794  12.419  0.2734  0.2489 -0.3125
  642TMC3    C3 9555   1.738   1.669  12.472 -0.1987 -0.0319  0.2844
  642TMC3    C4 9556   1.615   1.707  12.238  1.0404  0.5945  0.1035
  642TMC3    C5 9557   1.621   1.583  12.303 -0.1731  0.2821 -0.1750
  642TMC3    C6 9558   1.679   1.558  12.420 -0.2460  0.5637 -0.0408
  642TMC3     C 9559   1.670   1.942  12.244  0.4144  0.2159  0.3720
  642TMC3     O 9560   1.648   1.961  12.128 -0.1421 -0.4184  0.3347
  642TMC3     H 9561   1.776   1.875  12.477  0.2945 -0.1367  0.2109
  642TMC3    H1 9562   1.569   1.720  12.141 -1.7306  1.5277  1.5548
  642TMC3    H2 9563   1.663   1.460  12.462  1.6865 -0.2321 -1.1788
  642TMC3    C7 9564   1.503   1.507  12.284 -0.3241  0.5534 -0.3157
  642TMC3    C8 9565   1.820   1.652  12.595 -0.6297  0.0597 -0.4636
  642TMC3    O1 9566   1.505   1.389  12.240  0.0243 -0.3457  0.2912
  642TMC3    O2 9567   1.831   1.754  12.668 -0.0821 -0.2431  0.0030
  643TMC3    C1 9568   0.859   1.773   0.708  0.1833  0.4635 -0.3180
  643TMC3    C2 9569   0.758   1.862   0.672 -0.6113 -0.7186  0.5514
  643TMC3    C3 9570   0.719   1.859   0.542  0.1203 -1.4783  0.2236
  643TMC3    C4 9571   0.915   1.682   0.623 -0.2800  0.2189 -0.3531
  643TMC3    C5 9572   0.853   1.670   0.500 -0.4809  0.5396  0.7025
  643TMC3    C6 9573   0.775   1.772   0.450 -0.4348  0.2241 -0.0393
  643TMC3     C 9574   0.936   1.815   0.817 -0.4107 -0.3133 -0.0331
  643TMC3     O 9575   0.885   1.883   0.906 -0.0775  0.0999  0.7483
  643TMC3     H 9576   0.739   1.950   0.733  0.2534  0.1886 -0.4891
  643TMC3    H1 9577   0.980   1.603   0.658 -0.7470 -0.0602 -0.1230
  643TMC3    H2 9578   0.720   1.764   0.357  1.0420 -2.6304 -0.6791
  643TMC3    C7 9579   0.890   1.578   0.405  0.6090  0.8495  0.0216
  643TMC3    C8 9580   0.683   1.976   0.478 -0.6274  0.7049 -0.0328
  643TMC3    O1 9581   0.815   1.571   0.306  0.3420 -0.3561  0.0778
  643TMC3    O2 9582   0.608   2.050   0.540 -0.4012  0.0538 -0.7871
  644MPD2     C 9583   2.658   1.239   9.790  0.5612  0.1401 -0.2537
  644MPD2    C1 9584   2.533   1.243   9.847  0.1287 -0.0592  0.1644
  644MPD2    C2 9585   2.479   1.370   9.877  0.5973  0.4012  0.0492
  644MPD2    C3 9586   2.546   1.486   9.844  0.5370  0.5939 -0.0583
  644MPD2    C4 9587   2.665   1.482   9.773 -0.0641  0.1822  0.9688
  644MPD2    C5 9588   2.718   1.359   9.747 -0.2443 -0.1263 -0.1055
  644MPD2     H 9589   2.385   1.384   9.930  0.3802  0.2392 -0.2923
  644MPD2    H1 9590   2.727   1.569   9.753  0.1346 -0.6927 -2.2209
  644MPD2    H2 9591   2.710   1.145   9.779  0.6860  0.0371  1.2213
  644MPD2    H3 9592   2.822   1.358   9.718 -1.1409  1.4568 -3.3630
  644MPD2     N 9593   2.486   1.605   9.888  0.7077  0.2624  0.0087
  644MPD2    H5 9594   2.398   1.587   9.935  0.2868  0.6599 -0.6268
  644MPD2    N1 9595   2.472   1.120   9.874 -0.1499 -0.4068  0.1082
  644MPD2    H7 9596   2.519   1.039   9.836 -0.7491 -0.8807  0.3749
  645TMC3    C1 9597   2.477   1.841   9.948  1.2937  0.1568 -0.3601
  645TMC3    C2 9598   2.384   1.810  10.042 -0.0005 -1.1488 -0.9014
  645TMC3    C3 9599   2.300   1.903  10.094 -0.7108 -0.6049  0.0752
  645TMC3    C4 9600   2.503   1.967   9.907 -0.6011 -0.6607  0.5365
  645TMC3    C5 9601   2.423   2.065   9.962  1.0155  0.8408 -0.3540
  645TMC3    C6 9602   2.324   2.039  10.055 -0.0079 -0.6962  0.8498
  645TMC3     C 9603   2.545   1.735   9.877  0.1138  0.1312 -0.1110
  645TMC3     O 9604   2.627   1.774   9.795 -0.1625 -0.6340 -0.2438
  645TMC3     H 9605   2.379   1.708  10.079 -1.8237 -1.4224 -1.8909
  645TMC3    H1 9606   2.585   1.993   9.841 -1.6466  1.4936  0.1086
  645TMC3    H2 9607   2.281   2.127  10.102 -0.8522 -0.4100 -0.4401
  645TMC3    C7 9608   2.437   2.200   9.907 -0.8089  0.2033  0.4948
  645TMC3    C8 9609   2.252   1.881  10.222 -0.5267 -0.2784  0.6256
  645TMC3    O1 9610   2.505   2.209   9.807  0.3669 -0.0200 -0.1073
  645TMC3    O2 9611   2.311   1.787  10.269  0.1549 -0.4977  0.0461
  646MPD2     C 9612   0.722   1.103  14.380 -0.1703  0.3481  0.3418
  646MPD2    C1 9613   0.654   1.023  14.472  0.1641 -0.1660  0.2382
  646MPD2    C2 9614   0.513   1.022  14.466 -0.9639  0.4056 -0.2596
  646MPD2    C3 9615   0.446   1.104  14.376 -0.4370 -0.2006  0.4558
  646MPD2    C4 9616   0.519   1.195  14.301  0.9538  0.1796 -0.3466
  646MPD2    C5 9617   0.655   1.192  14.305 -0.0038 -0.2605  0.7933
  646MPD2     H 9618   0.453   0.959  14.530  0.1368  0.2723  0.6260
  646MPD2    H1 9619   0.472   1.264  14.231  2.4677  0.7521 -0.7958
  646MPD2    H2 9620   0.830   1.111  14.375 -0.2764 -0.4582 -3.3834
  646MPD2    H3 9621   0.714   1.254  14.239  0.7481 -0.6618  1.0875
  646MPD2     N 9622   0.305   1.104  14.371  0.0024 -0.6410  0.2343
  646MPD2    H5 9623   0.242   1.042  14.421  0.1460 -0.1182  1.0639
  646MPD2    N1 9624   0.732   0.933  14.558 -0.3916  0.4950 -0.4901
  646MPD2    H7 9625   0.833   0.937  14.561 -0.3829 -2.1326  3.3249
  647TMC3    C1 9626   0.765   0.807  14.763  0.2542 -0.0789 -0.1305
  647TMC3    C2 9627   0.704   0.762  14.884 -0.0991 -0.1991 -0.0206
  647TMC3    C3 9628   0.779   0.677  14.961  0.3472 -0.0222 -1.4548
  647TMC3    C4 9629   0.895   0.784  14.729  0.9270 -0.2082 -0.6081
  647TMC3    C5 9630   0.964   0.704  14.811 -0.2207 -0.7497  0.2380
  647TMC3    C6 9631   0.910   0.657  14.933  0.3770  0.5019 -0.6863
  647TMC3     C 9632   0.671   0.864  14.668 -0.8428  0.1550  0.0132
  647TMC3     O 9633   0.554   0.873  14.706  0.2264 -0.5667 -0.6641
  647TMC3     H 9634   0.605   0.791  14.917 -0.7872 -1.5571 -0.9022
  647TMC3    H1 9635   0.932   0.820  14.634 -2.2550 -1.1971 -2.1993
  647TMC3    H2 9636   0.962   0.589  14.999 -1.9736  0.1671  0.7897
  647TMC3    C7 9637   1.106   0.676  14.794 -0.2225 -0.3239  0.2295
  647TMC3    C8 9638   0.710   0.576  15.044  0.5272  0.2336 -0.4610
  647TMC3    O1 9639   1.163   0.623  14.888 -0.2119  0.5785 -0.0358
  647TMC3    O2 9640   0.759   0.543  15.149  0.1603 -0.2237 -0.0289
  648TMC3    C1 9641   4.554   3.760  16.271 -0.6292  0.1528 -1.0118
  648TMC3    C2 9642   4.618   3.657  16.203 -0.5055 -0.0056 -1.0342
  648TMC3    C3 9643   4.625   3.664  16.063  0.7142  0.0285 -0.1496
  648TMC3    C4 9644   4.504   3.872  16.216 -0.5365  0.8798 -0.7423
  648TMC3    C5 9645   4.490   3.866  16.078  0.2845 -0.0158 -1.1251
  648TMC3    C6 9646   4.547   3.766  16.000 -0.0103  0.0301  0.4010
  648TMC3     C 9647   4.580   3.777  16.414  0.0040  0.6292  0.2979
  648TMC3     O 9648   4.591   3.890  16.464  1.1294  0.1979 -0.1797
  648TMC3     H 9649   4.671   3.579  16.256 -1.2541 -0.7898 -1.4272
  648TMC3    H1 9650   4.463   3.948  16.283 -0.3872 -1.5345  2.0919
  648TMC3    H2 9651   4.530   3.765  15.893  1.8462  1.3184  0.0958
  648TMC3    C7 9652   4.435   3.980  16.007 -0.5072 -0.2143  0.2729
  648TMC3    C8 9653   4.626   3.538  15.998  0.0234 -0.1978 -0.9991
  648TMC3    O1 9654   4.472   3.985  15.894  0.6213  0.6154 -0.0254
  648TMC3    O2 9655   4.541   3.519  15.915 -0.1963  0.1235  0.2434
  649TMC3    C1 9656   3.373   4.387  13.257  0.4129 -0.3861  0.0700
  649TMC3    C2 9657   3.486   4.372  13.191 -0.0367 -0.1549  0.0991
  649TMC3    C3 9658   3.578   4.288  13.250  0.8102  0.0682  0.0426
  649TMC3    C4 9659   3.339   4.323  13.372 -0.3621  1.1843  0.0882
  649TMC3    C5 9660   3.440   4.252  13.435  0.3893  0.8851 -0.4508
  649TMC3    C6 9661   3.558   4.220  13.372  0.6641 -0.6560 -0.3432
  649TMC3     C 9662   3.271   4.471  13.186  0.0372 -0.3763 -0.0369
  649TMC3     O 9663   3.186   4.528  13.250  0.1948 -0.0822 -0.3719
  649TMC3     H 9664   3.513   4.447  13.118 -0.2963 -2.0131 -1.8888
  649TMC3    H1 9665   3.239   4.345  13.410 -0.9219 -1.7940  0.3276
  649TMC3    H2 9666   3.645   4.172  13.417 -0.0494 -1.6507 -0.0287
  649TMC3    C7 9667   3.412   4.196  13.565  0.1292 -0.3517  0.1917
  649TMC3    C8 9668   3.704   4.255  13.184  0.4983  0.3232 -0.1200
  649TMC3    O1 9669   3.298   4.157  13.592 -0.4609 -0.4691  0.3275
  649TMC3    O2 9670   3.786   4.201  13.255 -0.1000  0.3983 -0.3960
  650TMC3    C1 9671   1.326   1.413  12.687 -1.0766 -0.0436 -0.7685
  650TMC3    C2 9672   1.325   1.538  12.738 -0.4633 -0.0783 -0.2167
  650TMC3    C3 9673   1.201   1.589  12.777  0.1566  0.3083 -0.0033
  650TMC3    C4 9674   1.210   1.340  12.666  0.0091  0.0818 -0.0026
  650TMC3    C5 9675   1.092   1.391  12.697 -0.1359  0.1627 -0.4152
  650TMC3    C6 9676   1.083   1.515  12.758 -0.3589 -0.0703 -0.1803
  650TMC3     C 9677   1.450   1.345  12.692 -0.1610 -0.8036  0.2546
  650TMC3     O 9678   1.548   1.420  12.695  0.3550  0.0285 -0.2299
  650TMC3     H 9679   1.417   1.595  12.746 -1.1453  0.2816  4.6050
  650TMC3    H1 9680   1.202   1.245  12.614  0.9000  0.6294 -1.1248
  650TMC3    H2 9681   0.988   1.551  12.797 -0.6471 -0.6278 -0.3675
  650TMC3    C7 9682   0.969   1.336  12.637 -0.1172  0.1667  0.0194
  650TMC3    C8 9683   1.198   1.728  12.826  0.0653 -0.4196  1.3249
  650TMC3    O1 9684   0.993   1.240  12.568 -0.1803 -0.3539  0.5092
  650TMC3    O2 9685   1.277   1.804  12.767 -0.6991  0.3298  0.3830
  651MPD2     C 9686   0.164   2.795  11.249 -0.3513  0.8685  1.0433
  651MPD2    C1 9687   0.135   2.902  11.164 -0.0371 -0.4690 -0.1577
  651MPD2    C2 9688   0.237   2.990  11.132 -0.3686  0.3431  0.3583
  651MPD2    C3 9689   0.371   2.957  11.159  0.2290  0.1401  1.0961
  651MPD2    C4 9690   0.399   2.852  11.243 -0.2340  0.5221  0.2479
  651MPD2    C5 9691   0.293   2.772  11.294  0.5510 -0.9417  0.3814
  651MPD2     H 9692   0.216   3.072  11.064  0.9786 -0.6675 -1.2695
  651MPD2    H1 9693   0.503   2.832  11.267 -0.1182  1.8164  0.8375
  651MPD2    H2 9694   0.084   2.733  11.288 -0.4438  0.7481  0.6661
  651MPD2    H3 9695   0.323   2.692  11.361  0.1412 -1.2949  0.1405
  651MPD2     N 9696   0.476   3.041  11.105  0.0463 -0.4927 -0.0642
  651MPD2    H5 9697   0.448   3.110  11.036  1.2306  0.4011  0.3672
  651MPD2    N1 9698   0.004   2.930  11.113  0.1576  0.1318 -0.3221
  651MPD2    H7 9699   0.001   3.017  11.061  2.2311 -0.5510 -1.5686
  652TMC3    C1 9700   0.894   3.113  10.919  0.0447  0.5367 -0.8103
  652TMC3    C2 9701   0.822   3.059  11.021  0.2421  0.3261  0.7774
  652TMC3    C3 9702   0.704   3.112  11.054 -0.1288  0.7339  0.7926
  652TMC3    C4 9703   0.843   3.219  10.849  0.1423 -0.1460  0.0330
  652TMC3    C5 9704   0.726   3.276  10.890  0.1460 -0.7926 -0.0860
  652TMC3    C6 9705   0.651   3.222  10.989  0.6829  0.5837  0.0975
  652TMC3     C 9706   1.032   3.122  10.954  0.9940 -0.8816 -0.4786
  652TMC3     O 9707   1.077   3.031  11.025  0.6390 -0.2996  0.1050
  652TMC3     H 9708   0.861   2.975  11.079 -0.9055  0.1520  1.3025
  652TMC3    H1 9709   0.888   3.272  10.765  1.2340 -0.1484  0.6193
  652TMC3    H2 9710   0.558   3.268  11.022 -0.3506 -2.6966  1.7439
  652TMC3    C7 9711   0.696   3.404  10.831  0.5364  1.3405 -0.0729
  652TMC3    C8 9712   0.612   3.020  11.123 -0.2073  0.0168 -0.4587
  652TMC3    O1 9713   0.788   3.471  10.791 -0.6565 -0.2615 -0.4185
  652TMC3    O2 9714   0.666   2.927  11.177  0.2041  0.2974  0.3823
  653MPD2     C 9715   3.603   3.562   0.155 -0.9365  0.0607  0.6921
  653MPD2    C1 9716   3.538   3.635   0.062 -0.0769 -1.3127  0.4906
  653MPD2    C2 9717   3.446   3.570  17.736 -0.2487 -0.4993 -0.0556
  653MPD2    C3 9718   3.424   3.430  17.733  0.1354 -1.1019 -0.2738
  653MPD2    C4 9719   3.487   3.366   0.086 -0.1692 -0.0416  0.1773
  653MPD2    C5 9720   3.572   3.426   0.167 -0.1761  0.4588 -0.1879
  653MPD2     H 9721   3.397   3.622  17.654  1.9475  0.2522 -0.9045
  653MPD2    H1 9722   3.458   3.262   0.097 -1.8435  0.4031 -0.1012
  653MPD2    H2 9723   3.678   3.596   0.225  0.6199 -0.3213 -0.7843
  653MPD2    H3 9724   3.602   3.359   0.246 -1.6721 -0.6162 -0.5408
  653MPD2     N 9725   3.335   3.371  17.640  0.5543  0.0631  0.6862
  653MPD2    H5 9726   3.275   3.430  17.584  1.4182 -1.1445 -1.5290
  653MPD2    N1 9727   3.556   3.775   0.044  0.1267  0.0780  0.1946
  653MPD2    H7 9728   3.493   3.822  17.733 -1.2741  0.9989  2.2691
  654TMC3    C1 9729   3.228   3.202  17.519 -0.0977 -0.1008 -0.0570
  654TMC3    C2 9730   3.118   3.287  17.510 -0.2604 -0.5846  0.2277
  654TMC3    C3 9731   3.035   3.265  17.404  0.5962  0.7258  0.1134
  654TMC3    C4 9732   3.256   3.102  17.425 -0.2828  0.3878 -0.0040
  654TMC3    C5 9733   3.162   3.079  17.331  0.0875 -0.7305 -0.4829
  654TMC3    C6 9734   3.051   3.158  17.314  0.3692  0.3040 -0.0772
  654TMC3     C 9735   3.329   3.239  17.610  0.4973 -0.4092 -0.3139
  654TMC3     O 9736   3.399   3.147  17.651  0.5131 -0.0348  0.4647
  654TMC3     H 9737   3.103   3.364  17.585 -0.0025 -0.2519 -0.0629
  654TMC3    H1 9738   3.340   3.037  17.446  0.2846  1.5575  1.3246
  654TMC3    H2 9739   2.972   3.148  17.241  1.5250 -1.6650 -1.0638
  654TMC3    C7 9740   3.171   2.965  17.243  0.7877 -0.4337 -0.4491
  654TMC3    C8 9741   2.906   3.329  17.398 -0.2837 -0.4406  0.0182
  654TMC3    O1 9742   3.105   2.966  17.139 -0.3081 -0.0642  0.5790
  654TMC3    O2 9743   2.817   3.276  17.339  0.1363 -0.1533 -0.1872
  655MPD2     C 9744   0.234   3.800  15.951  1.3042  0.2519  0.0522
  655MPD2    C1 9745   0.129   3.851  15.881  0.3207 -0.5731 -0.4789
  655MPD2    C2 9746   0.082   3.781  15.773 -1.2189 -0.2925 -0.1584
  655MPD2    C3 9747   0.133   3.652  15.748  0.1651 -0.0624  0.2142
  655MPD2    C4 9748   0.225   3.598  15.831  0.6122  0.2536 -0.3322
  655MPD2    C5 9749   0.273   3.672  15.931 -0.0619  0.5949  0.4153
  655MPD2     H 9750   0.012   3.828  15.705  0.7850 -0.5928 -2.4334
  655MPD2    H1 9751   0.266   3.497  15.825  1.6976  0.6410  0.5459
  655MPD2    H2 9752   0.279   3.855  16.034 -1.4716  2.9389 -0.1973
  655MPD2    H3 9753   0.356   3.623  15.981 -1.9988 -2.7759  0.3024
  655MPD2     N 9754   0.089   3.572  15.638  0.4467 -0.4213 -0.2879
  655MPD2    H5 9755   0.131   3.480  15.640  0.7584 -0.2725 -0.1152
  655MPD2    N1 9756   0.082   3.987  15.899  0.0550  0.3350 -0.1147
  655MPD2    H7 9757   0.019   4.036  15.836 -0.6151 -0.5145 -0.1000
  656TMC3    C1 9758   0.035   4.173  16.034  0.2976 -0.2290 -0.1458
  656TMC3    C2 9759   4.717   4.196  16.154 -0.5458 -0.1687  0.5539
  656TMC3    C3 9760   4.630   4.302  16.162 -0.0797  0.3140 -0.0548
  656TMC3    C4 9761   0.008   4.250  15.924  0.4946  0.4657 -0.7974
  656TMC3    C5 9762   4.662   4.361  15.935  0.4105  0.1190 -0.1023
  656TMC3    C6 9763   4.598   4.388  16.054  0.4693  0.3138  0.1423
  656TMC3     C 9764   0.099   4.045  16.020  0.2981  0.4255 -0.2846
  656TMC3     O 9765   0.145   3.999  16.122  1.1503 -0.4956  0.1274
  656TMC3     H 9766   4.732   4.140  16.246 -0.2290 -1.0856 -0.0601
  656TMC3    H1 9767   0.057   4.245  15.827  0.5976  0.9884 -0.7745
  656TMC3    H2 9768   4.518   4.461  16.053 -0.2397 -0.4746 -1.4160
  656TMC3    C7 9769   4.631   4.433  15.810  0.9393  0.2307 -0.6654
  656TMC3    C8 9770   4.543   4.311  16.278  0.4882 -0.1471  0.1866
  656TMC3    O1 9771   4.702   4.405  15.712 -0.2392  0.3819  0.1958
  656TMC3    O2 9772   4.429   4.352  16.257 -0.1841  0.4317 -0.6364
  657TMC3    C1 9773   3.919   2.917  15.402 -0.5452 -0.3462  0.1992
  657TMC3    C2 9774   4.009   2.870  15.493  0.3141 -0.6417 -0.2977
  657TMC3    C3 9775   3.995   2.927  15.624 -0.5625  0.1777  0.8784
  657TMC3    C4 9776   3.808   2.990  15.430 -0.3565 -0.1809 -0.1862
  657TMC3    C5 9777   3.789   3.022  15.559  0.0944 -0.9046 -0.7777
  657TMC3    C6 9778   3.880   2.991  15.657 -0.0098  0.3147 -0.0700
  657TMC3     C 9779   3.941   2.883  15.264  0.1924 -0.2596  0.0404
  657TMC3     O 9780   3.844   2.885  15.185  0.7252  0.0711 -0.2397
  657TMC3     H 9781   4.090   2.804  15.463 -1.5483 -1.7091 -2.9886
  657TMC3    H1 9782   3.739   3.023  15.353 -1.7807  0.1680  1.2180
  657TMC3    H2 9783   3.863   3.026  15.758 -1.2887 -1.2869  0.2639
  657TMC3    C7 9784   3.671   3.111  15.583 -0.4516 -0.4934  0.8430
  657TMC3    C8 9785   4.113   2.927  15.713  1.3758  0.3087  0.2907
  657TMC3    O1 9786   3.582   3.108  15.504 -0.4406 -0.2352  0.6709
  657TMC3    O2 9787   4.094   2.983  15.818  0.4383 -0.0627  0.1941
  658MPD2     C 9788   0.447   3.557  15.118  0.1479 -0.4608 -0.3763
  658MPD2    C1 9789   0.332   3.481  15.080  0.0006 -0.4060 -0.3199
  658MPD2    C2 9790   0.325   3.431  14.953 -0.2299  0.3854  0.2357
  658MPD2    C3 9791   0.438   3.448  14.866  0.7455  0.6321 -0.1405
  658MPD2    C4 9792   0.544   3.522  14.903 -0.7717  0.1086 -0.5096
  658MPD2    C5 9793   0.547   3.582  15.023 -0.3985 -0.4049  0.0514
  658MPD2     H 9794   0.238   3.372  14.924  1.1252 -1.8621  0.6800
  658MPD2    H1 9795   0.623   3.551  14.834  1.0030  0.2826  1.5825
  658MPD2    H2 9796   0.458   3.601  15.216  2.0597  0.5423 -1.0370
  658MPD2    H3 9797   0.633   3.641  15.051  1.6678 -3.9126  1.0174
  658MPD2     N 9798   0.413   3.403  14.735  0.3331 -0.7269 -0.4335
  658MPD2    H5 9799   0.326   3.352  14.720  0.4079 -1.0671  0.3350
  658MPD2    N1 9800   0.234   3.449  15.183  0.3021  0.4657  0.1789
  658MPD2    H7 9801   0.239   3.514  15.261  3.4487  0.7012 -0.2265
  659TMC3    C1 9802   0.036   3.378  15.274 -0.9507  0.8809 -0.6914
  659TMC3    C2 9803   0.070   3.454  15.386 -0.2096  0.6139  0.3721
  659TMC3    C3 9804   4.700   3.509  15.445 -0.2509 -0.3464 -0.0873
  659TMC3    C4 9805   4.648   3.341  15.241  0.0116  0.4941 -0.2033
  659TMC3    C5 9806   4.548   3.404  15.311 -0.3592 -0.7225  0.3980
  659TMC3    C6 9807   4.572   3.500  15.405 -0.0368 -0.1945  0.1562
  659TMC3     C 9808   0.136   3.352  15.175  0.5131 -0.1357 -0.8668
  659TMC3     O 9809   0.111   3.277  15.085 -0.1085 -0.7047  0.2260
  659TMC3     H 9810   0.168   3.465  15.430 -0.2271 -0.2159  0.6124
  659TMC3    H1 9811   4.639   3.274  15.156 -1.4119  0.5400 -0.0951
  659TMC3    H2 9812   4.504   3.574  15.444 -0.3551  0.7768 -2.2319
  659TMC3    C7 9813   4.413   3.397  15.268 -1.1736 -0.5647 -0.2146
  659TMC3    C8 9814   4.733   3.610  15.545  0.0384  0.4976 -0.7155
  659TMC3    O1 9815   4.331   3.466  15.324  0.0750  0.2071  0.2125
  659TMC3    O2 9816   4.669   3.708  15.533  0.2334  0.6610 -0.2179
  660MPD2     C 9817   2.958   2.223  12.903 -0.4246 -0.0805 -0.0230
  660MPD2    C1 9818   2.859   2.146  12.863 -0.2818  0.3774  0.1113
  660MPD2    C2 9819   2.841   2.016  12.924 -0.2941  0.3667  0.3842
  660MPD2    C3 9820   2.935   1.965  13.011  0.1201  0.1380 -0.1259
  660MPD2    C4 9821   3.042   2.043  13.037  0.9380  0.4289  0.0951
  660MPD2    C5 9822   3.051   2.168  12.987  0.5438  0.3826 -0.4730
  660MPD2     H 9823   2.756   1.958  12.890  1.7912 -1.2242 -2.0513
  660MPD2    H1 9824   3.113   1.997  13.104  3.0525  2.1105 -0.9949
  660MPD2    H2 9825   2.972   2.323  12.862 -1.7685  0.3272  0.5361
  660MPD2    H3 9826   3.132   2.232  13.022  1.7778 -1.2705 -0.3190
  660MPD2     N 9827   2.922   1.833  13.064 -0.1837  0.0410 -0.6476
  660MPD2    H5 9828   2.980   1.825  13.148  1.2014 -0.1838 -1.6252
  660MPD2    N1 9829   2.769   2.202  12.768  0.9496 -0.3438 -0.0280
  660MPD2    H7 9830   2.796   2.293  12.732  1.5425 -0.9130 -1.0263
  661TMC3    C1 9831   2.602   2.217  12.610 -0.4754 -0.1104 -0.3275
  661TMC3    C2 9832   2.685   2.278  12.516 -0.0173  0.2107  0.2704
  661TMC3    C3 9833   2.629   2.300  12.393  0.6028  0.2640 -0.0424
  661TMC3    C4 9834   2.476   2.173  12.579 -0.0312  0.0199  0.0400
  661TMC3    C5 9835   2.421   2.210  12.459  0.0719  0.1512  0.2451
  661TMC3    C6 9836   2.494   2.274  12.367 -0.5640 -0.9956 -0.6709
  661TMC3     C 9837   2.655   2.147  12.725 -0.2835 -0.2359 -0.1523
  661TMC3     O 9838   2.598   2.039  12.744  0.1172  0.0560 -0.5882
  661TMC3     H 9839   2.787   2.307  12.538 -0.9514  2.9656  1.0737
  661TMC3    H1 9840   2.410   2.128  12.652 -1.2081  2.5997  0.5796
  661TMC3    H2 9841   2.453   2.295  12.268  0.7789 -1.6425 -1.3604
  661TMC3    C7 9842   2.305   2.142  12.412  0.0441 -0.1554 -0.4630
  661TMC3    C8 9843   2.713   2.372  12.298 -0.3843 -0.3569  0.1731
  661TMC3    O1 9844   2.238   2.177  12.315  0.0125  0.0767 -1.0241
  661TMC3    O2 9845   2.834   2.363  12.314 -0.1550 -0.1100  0.5289
  662MPD2     C 9846   3.223   1.646   0.011  0.6435 -0.2015 -0.1924
  662MPD2    C1 9847   3.092   1.611  17.733  0.3873 -0.4010  0.8084
  662MPD2    C2 9848   3.008   1.711  17.692 -1.1633 -0.1651  1.0704
  662MPD2    C3 9849   3.042   1.848  17.687 -0.2927 -0.4067  0.0038
  662MPD2    C4 9850   3.172   1.876  17.715  0.0243 -0.6331 -0.4985
  662MPD2    C5 9851   3.265   1.778   0.002 -0.2384  0.0643  0.2347
  662MPD2     H 9852   2.915   1.696  17.638 -0.1908 -1.6217 -0.2331
  662MPD2    H1 9853   3.209   1.977  17.698 -2.6779  0.2702 -1.0369
  662MPD2    H2 9854   3.293   1.573   0.051  2.0853  1.5907  0.5435
  662MPD2    H3 9855   3.369   1.804   0.012 -0.6216  1.7468 -0.1857
  662MPD2     N 9856   2.950   1.942  17.628 -0.8201 -0.2669 -0.0740
  662MPD2    H5 9857   2.862   1.901  17.599 -0.6392 -0.7330  0.0442
  662MPD2    N1 9858   3.050   1.478  17.725 -0.0035 -0.3051  0.2078
  662MPD2    H7 9859   2.957   1.463  17.688  0.0190 -1.2711  0.5456
  663TMC3    C1 9860   3.052   1.248  17.727  0.2375 -0.2272 -0.1657
  663TMC3    C2 9861   2.916   1.253  17.743 -0.0985 -0.5403 -0.1281
  663TMC3    C3 9862   2.857   1.168  17.656  0.0318 -0.0419 -0.3672
  663TMC3    C4 9863   3.113   1.148  17.661 -0.2192  1.1415  0.0604
  663TMC3    C5 9864   3.043   1.046  17.605  0.3363  0.0113  1.1412
  663TMC3    C6 9865   2.910   1.046  17.623  0.0193  0.4510 -0.4525
  663TMC3     C 9866   3.128   1.371  17.743 -0.2448  0.2076  0.6416
  663TMC3     O 9867   3.247   1.362   0.002 -0.3121 -0.2404  0.1864
  663TMC3     H 9868   2.859   1.330   0.042 -1.1873 -1.9655  0.7990
  663TMC3    H1 9869   3.220   1.142  17.643  0.1106  1.5776  1.9137
  663TMC3    H2 9870   2.848   0.977  17.567 -0.7411  0.8433 -0.1064
  663TMC3    C7 9871   3.117   0.929  17.566  0.8229  0.5656 -0.4554
  663TMC3    C8 9872   2.714   1.146  17.696  0.6598 -0.2719 -0.0539
  663TMC3    O1 9873   3.236   0.941  17.543 -0.1338 -0.5356 -0.0933
  663TMC3    O2 9874   2.677   1.026  17.699  0.5127 -0.0471  0.6270
  664MPD2     C 9875   0.621   4.734  17.649  0.0561 -0.5184  0.3511
  664MPD2    C1 9876   0.727   0.085  17.673 -0.2642 -0.5721 -1.2843
  664MPD2    C2 9877   0.755   0.128   0.053 -0.4009 -0.3761 -0.0036
  664MPD2    C3 9878   0.693   0.075   0.163  0.0679 -0.1479  0.0690
  664MPD2    C4 9879   0.602   4.713   0.135 -0.3414 -0.0195 -0.0904
  664MPD2    C5 9880   0.563   4.675   0.006 -0.7386 -0.4921  0.3637
  664MPD2     H 9881   0.831   0.205   0.062  0.5020 -1.2247 -0.4861
  664MPD2    H1 9882   0.553   4.665   0.218  1.2794  0.1504  0.9702
  664MPD2    H2 9883   0.590   4.702  17.550  1.3261  1.2488 -0.6182
  664MPD2    H3 9884   0.482   4.606  17.739 -0.7700 -0.1168 -0.8357
  664MPD2     N 9885   0.745   0.111   0.290  0.1916  0.1220 -1.0256
  664MPD2    H5 9886   0.828   0.170   0.290  0.6399 -0.5123 -0.2660
  664MPD2    N1 9887   0.803   0.139  17.571  0.6304 -0.3412 -0.1886
  664MPD2    H7 9888   0.869   0.204  17.612  1.9021 -2.7842  1.6445
  665TMC3    C1 9889   0.796   0.080   0.513 -0.0844  0.2237  0.0394
  665TMC3    C2 9890   0.791   0.009   0.628 -0.6042  0.0306  0.4657
  665TMC3    C3 9891   0.840   0.056   0.747  0.3828 -0.4023  0.1546
  665TMC3    C4 9892   0.836   0.211   0.511 -0.6240  0.3079 -0.1109
  665TMC3    C5 9893   0.893   0.253   0.628  0.1607 -0.1050 -1.0486
  665TMC3    C6 9894   0.897   0.177   0.738 -0.2293 -0.0090 -0.6459
  665TMC3     C 9895   0.713   0.038   0.403 -0.1933 -0.2467  0.1639
  665TMC3     O 9896   0.656   4.671   0.414  0.2186 -0.4509  0.3115
  665TMC3     H 9897   0.727   4.660   0.631  2.9123 -2.5617 -0.8473
  665TMC3    H1 9898   0.800   0.282   0.438  2.0338  0.3346 -1.3811
  665TMC3    H2 9899   0.945   0.221   0.825  1.0066 -0.0528 -1.3024
  665TMC3    C7 9900   0.939   0.392   0.623  0.1465 -0.1410 -0.3558
  665TMC3    C8 9901   0.828   4.736   0.880  0.1275  0.1101 -0.3589
  665TMC3    O1 9902   0.919   0.456   0.522  0.2221 -0.1115 -0.1002
  665TMC3    O2 9903   0.875   0.067   0.970 -0.4488 -0.2699 -0.4310
  666TMC3    C1 9904   0.514   4.432   9.491 -0.1649 -0.6018  0.4345
  666TMC3    C2 9905   0.641   4.416   9.538 -0.3631 -0.7369  0.6343
  666TMC3    C3 9906   0.692   4.519   9.617 -0.7379  0.2333 -0.1907
  666TMC3    C4 9907   0.442   4.546   9.513 -0.2259 -0.5759 -0.5798
  666TMC3    C5 9908   0.503   4.645   9.580 -0.3691 -0.5188  0.5147
  666TMC3    C6 9909   0.626   4.637   9.638 -0.2232  0.0755 -0.0525
  666TMC3     C 9910   0.453   4.323   9.418 -0.0271 -0.4473 -0.1861
  666TMC3     O 9911   0.508   4.238   9.349 -0.1398  0.2214  0.1810
  666TMC3     H 9912   0.697   4.325   9.519 -0.5033 -0.4928 -0.9596
  666TMC3    H1 9913   0.347   4.564   9.464  0.3175 -1.5291 -1.9692
  666TMC3    H2 9914   0.663   4.713   9.705  0.7622  0.7654 -1.3836
  666TMC3    C7 9915   0.404   0.003   9.632 -0.0633  0.1565  0.3863
  666TMC3    C8 9916   0.756   4.481   9.732 -0.0192  0.1868 -0.5809
  666TMC3    O1 9917   0.288   4.710   9.644 -0.3117 -0.7715  0.2546
  666TMC3    O2 9918   0.756   4.358   9.746 -0.2020 -0.2757 -0.6509
  667MPD2     C 9919   2.390   4.714  14.715 -0.4758  0.1513 -0.2635
  667MPD2    C1 9920   2.286   0.056  14.755 -1.1403 -0.1735  0.6267
  667MPD2    C2 9921   2.157   0.045  14.697 -0.8829  0.7964  0.0580
  667MPD2    C3 9922   2.144   4.683  14.601 -0.8445  0.5457 -0.1903
  667MPD2    C4 9923   2.249   4.605  14.566  0.0251  0.4378 -0.2581
  667MPD2    C5 9924   2.374   4.623  14.621 -0.3056  0.4023  0.0097
  667MPD2     H 9925   2.074   0.109  14.725 -0.6703  1.2962 -0.4791
  667MPD2    H1 9926   2.242   4.525  14.493  0.2961 -0.5929  0.8647
  667MPD2    H2 9927   2.488   4.714  14.761 -0.6863 -1.7135  0.1757
  667MPD2    H3 9928   2.453   4.557  14.590 -0.9491  0.0555 -0.8997
  667MPD2     N 9929   2.021   4.646  14.551  0.2675 -0.0313  0.0754
  667MPD2    H5 9930   2.022   4.571  14.483  1.8709  0.7497 -0.7565
  667MPD2    N1 9931   2.296   0.144  14.871  0.5697  0.1604  0.3165
  667MPD2    H7 9932   2.214   0.192  14.907  0.6625  0.5001  0.0743
  668TMC3    C1 9933   2.396   0.231  15.071 -0.8899  0.9112 -0.0638
  668TMC3    C2 9934   2.511   0.287  15.118  0.5604 -0.4196 -0.0310
  668TMC3    C3 9935   2.526   0.311  15.251  0.3207  0.7846  0.0089
  668TMC3    C4 9936   2.304   0.190  15.161 -0.8579  0.7352 -0.3276
  668TMC3    C5 9937   2.327   0.194  15.292  0.6472 -0.2988  0.2750
  668TMC3    C6 9938   2.439   0.260  15.338 -0.0300  0.3296  0.0994
  668TMC3     C 9939   2.412   0.168  14.941  0.2454 -0.4549 -0.0197
  668TMC3     O 9940   2.530   0.140  14.912  0.3348 -0.1508 -0.6091
  668TMC3     H 9941   2.581   0.322  15.043  0.2805 -0.6010 -0.3781
  668TMC3    H1 9942   2.206   0.146  15.144 -0.8813  0.3208  0.8395
  668TMC3    H2 9943   2.439   0.305  15.436 -0.2128 -2.0353  1.1875
  668TMC3    C7 9944   2.235   0.148  15.392  0.3694 -0.6888  0.2244
  668TMC3    C8 9945   2.620   0.413  15.299 -0.9579  0.1933  0.1847
  668TMC3    O1 9946   2.283   0.101  15.496 -0.4453 -0.6103  0.3082
  668TMC3    O2 9947   2.648   0.421  15.413  0.1027  0.6547  0.0565
  669TMC3    C1 9948   0.594   0.138  14.218 -0.0582 -0.0790  0.4636
  669TMC3    C2 9949   0.472   0.141  14.155 -0.0768  0.2155  0.5226
  669TMC3    C3 9950   0.450   0.226  14.049 -0.3598 -0.5630  0.4993
  669TMC3    C4 9951   0.705   0.213  14.177 -0.2787 -0.2869  0.0107
  669TMC3    C5 9952   0.683   0.283  14.064  0.3089  0.4764  0.6036
  669TMC3    C6 9953   0.558   0.288  14.003  0.5831  0.0108  0.2716
  669TMC3     C 9954   0.601   0.065  14.345  0.2263 -0.1956  0.0633
  669TMC3     O 9955   0.496   0.026  14.394  0.8827  0.0284 -0.2967
  669TMC3     H 9956   0.390   0.078  14.190 -1.2075  0.4038 -1.8063
  669TMC3    H1 9957   0.801   0.220  14.228  0.8030 -2.4817 -1.7210
  669TMC3    H2 9958   0.547   0.362  13.924 -1.9551 -1.4171 -0.7055
  669TMC3    C7 9959   0.787   0.369  14.026  0.0196  0.3501  0.2168
  669TMC3    C8 9960   0.310   0.246  14.015 -0.6315 -0.2912 -0.4858
  669TMC3    O1 9961   0.890   0.363  14.094  0.5332  0.2842 -0.1345
  669TMC3    O2 9962   0.228   0.176  14.074  0.6188 -0.2203  0.1128
  670MPD2     C 9963   3.026   2.519  13.439 -0.1086  0.1435 -0.4879
  670MPD2    C1 9964   3.149   2.587  13.470 -0.3474  0.1553  0.1556
  670MPD2    C2 9965   3.195   2.579  13.601 -0.5362  0.8559  0.5323
  670MPD2    C3 9966   3.118   2.509  13.700 -0.4426  0.1521 -0.4321
  670MPD2    C4 9967   3.003   2.445  13.663  0.0679 -0.6832 -0.3354
  670MPD2    C5 9968   2.955   2.451  13.533 -0.0106 -0.0978 -0.1480
  670MPD2     H 9969   3.293   2.617  13.625  0.9452 -1.7729 -1.3272
  670MPD2    H1 9970   2.941   2.393  13.736  0.9849  1.0253  1.6907
  670MPD2    H2 9971   2.998   2.517  13.335  1.7389  2.2167 -1.0299
  670MPD2    H3 9972   2.873   2.387  13.503 -0.4724 -0.1130  1.1285
  670MPD2     N 9973   3.172   2.504  13.833 -0.3855  0.2241 -0.1214
  670MPD2    H5 9974   3.260   2.551  13.850 -0.6942  0.9114 -0.4395
  670MPD2    N1 9975   3.220   2.663  13.368  0.9676 -0.7786 -0.4646
  670MPD2    H7 9976   3.301   2.717  13.396 -0.0399  0.8082 -0.5954
  671TMC3    C1 9977   3.204   2.425  14.060  1.0414  0.3588  0.1375
  671TMC3    C2 9978   3.342   2.432  14.047 -0.5683 -0.0523 -0.0219
  671TMC3    C3 9979   3.428   2.378  14.138  0.4410 -0.1634  0.1750
  671TMC3    C4 9980   3.160   2.356  14.172  0.3819 -0.7466 -0.0348
  671TMC3    C5 9981   3.246   2.284  14.253  0.2997 -0.4396  0.1540
  671TMC3    C6 9982   3.379   2.299  14.239  0.0638 -0.4077  0.2206
  671TMC3     C 9983   3.120   2.431  13.943 -0.2899  0.0245  0.0675
  671TMC3     O 9984   3.007   2.395  13.962 -0.4036 -0.4235  0.5402
  671TMC3     H 9985   3.383   2.451  13.949 -0.0831  0.7107  0.3342
  671TMC3    H1 9986   3.054   2.339  14.184  0.2405  0.2985  0.1980
  671TMC3    H2 9987   3.439   2.228  14.295  0.7011 -0.7557 -0.8972
  671TMC3    C7 9988   3.201   2.144  14.265  0.0709 -0.1261  0.0521
  671TMC3    C8 9989   3.550   2.331  14.087 -0.1652 -0.7064 -0.0930
  671TMC3    O1 9990   3.280   2.060  14.223  0.1043  0.1229 -0.6576
  671TMC3    O2 9991   3.549   2.282  13.973  0.2698 -0.0859 -0.5970
  672MPD2     C 9992   3.193   3.296   1.224  0.3382  0.0468 -0.1112
  672MPD2    C1 9993   3.287   3.212   1.165  0.3808  0.0724 -0.1609
  672MPD2    C2 9994   3.420   3.260   1.165  0.8735 -0.3168 -0.0593
  672MPD2    C3 9995   3.452   3.371   1.238 -0.2729 -0.0004  0.9933
  672MPD2    C4 9996   3.360   3.441   1.311  0.0978 -0.1907  0.5961
  672MPD2    C5 9997   3.229   3.410   1.294  0.3868  0.3396  0.7084
  672MPD2     H 9998   3.492   3.199   1.112  2.1844 -1.4311  3.0147
  672MPD2    H1 9999   3.385   3.523   1.377  3.1395  0.9913 -2.0044
  672MPD2    H210000   3.088   3.276   1.239  0.3826 -1.2120 -1.4499
  672MPD2    H310001   3.160   3.468   1.356 -0.6426  0.5610 -0.6515
  672MPD2     N10002   3.575   3.433   1.239  0.0814  0.5379 -0.3629
  672MPD2    H510003   3.590   3.519   1.291 -1.8702  0.4157  0.3957
  672MPD2    N110004   3.255   3.096   1.090 -0.9259  0.1149  0.1488
  672MPD2    H710005   3.322   3.033   1.048 -0.3154  0.3321  0.8077
  673TMC3    C110006   3.119   2.947   0.955  0.0727  0.2513 -0.4304
  673TMC3    C210007   3.219   2.856   0.938 -0.2100 -0.3517 -0.2565
  673TMC3    C310008   3.202   2.758   0.844  0.7220 -1.0968  0.2293
  673TMC3    C410009   3.011   2.960   0.867 -0.4841 -0.3371 -0.2644
  673TMC3    C510010   3.008   2.869   0.765  0.9616  0.4692  0.0812
  673TMC3    C610011   3.093   2.760   0.754  0.6835  0.1220 -0.0076
  673TMC3     C10012   3.126   3.067   1.041  0.3578 -0.2935 -0.0288
  673TMC3     O10013   3.025   3.139   1.049  0.7764  0.3018 -0.0005
  673TMC3     H10014   3.294   2.855   1.017  0.4536 -0.2534 -0.8885
  673TMC3    H110015   2.931   3.031   0.883  1.5162  2.5403 -2.9330
  673TMC3    H210016   3.086   2.699   0.665  2.4465 -0.5080  0.2934
  673TMC3    C710017   2.940   2.904   0.637  0.4840  0.5595 -0.4379
  673TMC3    C810018   3.288   2.644   0.828 -0.6886  0.0307 -0.6425
  673TMC3    O110019   2.900   2.815   0.564 -0.2702  0.2432 -0.5573
  673TMC3    O210020   3.248   2.553   0.755  0.1887 -0.2177 -0.3145
  674MPD2     C10021   3.139   3.344   0.163 -0.4990 -0.5750  0.0315
  674MPD2    C110022   3.113   3.217   0.130 -0.0157 -0.3941  0.4450
  674MPD2    C210023   2.999   3.196   0.059 -0.2741  0.5410  0.5137
  674MPD2    C310024   2.907   3.291   0.018  0.0767 -0.1456  0.4515
  674MPD2    C410025   2.938   3.424   0.048 -0.2227  0.1046 -0.2280
  674MPD2    C510026   3.054   3.449   0.118  0.3608 -0.0770 -0.3645
  674MPD2     H10027   2.975   3.092   0.038  1.3326  0.8662 -3.0229
  674MPD2    H110028   2.875   3.508   0.018 -1.6135 -0.8806 -0.0658
  674MPD2    H210029   3.220   3.372   0.230 -0.0279 -1.8490 -0.0073
  674MPD2    H310030   3.059   3.547   0.163 -3.3182  0.0213 -0.2076
  674MPD2     N10031   2.784   3.246  17.729  0.4160  0.2460  0.2687
  674MPD2    H510032   2.767   3.146  17.716 -2.4628  0.2800  3.7344
  674MPD2    N110033   3.195   3.114   0.182  0.1171  0.3040 -0.2785
  674MPD2    H710034   3.251   3.144   0.261  0.8514 -1.0635 -0.2624
  675TMC3    C110035   3.207   2.889   0.254 -0.0126  0.4794 -0.2744
  675TMC3    C210036   3.146   2.770   0.222 -0.0602  0.1477  0.5454
  675TMC3    C310037   3.158   2.668   0.315 -0.6253  0.4919 -0.0517
  675TMC3    C410038   3.283   2.912   0.361 -0.2967  0.8075  0.0838
  675TMC3    C510039   3.303   2.805   0.446  0.0011  0.3362  0.8972
  675TMC3    C610040   3.234   2.688   0.432 -0.7427 -0.2626 -0.2890
  675TMC3     C10041   3.178   2.986   0.149  0.1482  0.0825 -0.1986
  675TMC3     O10042   3.148   2.946   0.037 -0.2332 -0.2158  0.1497
  675TMC3     H10043   3.086   2.768   0.132  1.9011 -1.2604 -0.7347
  675TMC3    H110044   3.342   3.003   0.370 -0.9268  0.9832  2.4582
  675TMC3    H210045   3.258   2.606   0.498 -3.9519 -2.4071 -1.8186
  675TMC3    C710046   3.409   2.806   0.541 -0.2128  0.2485 -0.1326
  675TMC3    C810047   3.028   2.611   0.333 -0.0078 -0.0626 -0.8138
  675TMC3    O110048   3.469   2.700   0.559  0.5265  0.4301 -0.3365
  675TMC3    O210049   2.952   2.634   0.241  0.4342  0.0900 -0.4511
  676MPD2     C10050   0.982   0.981  11.015  0.6400 -0.0801 -0.1223
  676MPD2    C110051   0.891   0.903  11.083  0.2896 -0.6847 -0.5702
  676MPD2    C210052   0.911   0.765  11.095  0.6900 -0.4308  0.1559
  676MPD2    C310053   1.021   0.712  11.027 -0.4839  0.7098 -0.2595
  676MPD2    C410054   1.108   0.792  10.958 -0.5883  0.1587 -0.0709
  676MPD2    C510055   1.090   0.925  10.960  0.1333  0.4257  0.1777
  676MPD2     H10056   0.844   0.705  11.157 -0.0537 -0.1725 -0.3952
  676MPD2    H110057   1.199   0.747  10.919 -0.7666 -1.0252  0.8803
  676MPD2    H210058   0.971   1.089  11.010 -1.8913 -0.3122  0.3888
  676MPD2    H310059   1.157   0.989  10.903 -0.2099  1.3539  0.8148
  676MPD2     N10060   1.057   0.574  11.035 -0.1274 -0.0054 -0.0011
  676MPD2    H510061   1.145   0.551  10.988  0.1446  1.9589 -0.4525
  676MPD2    N110062   0.791   0.959  11.167 -0.7833 -0.5335 -0.4213
  676MPD2    H710063   0.732   0.893  11.217 -1.3438 -0.1565 -0.5837
  677TMC3    C110064   0.664   1.114  11.286 -0.3749 -0.5990  0.3042
  677TMC3    C210065   0.561   1.026  11.286 -0.2449 -0.5466 -0.0424
  677TMC3    C310066   0.461   1.037  11.381  0.0438 -0.6129  1.1719
  677TMC3    C410067   0.679   1.209  11.380  0.3252 -0.2812  0.2983
  677TMC3    C510068   0.574   1.220  11.464 -0.0736  0.4944 -0.5912
  677TMC3    C610069   0.462   1.144  11.462 -0.5122  0.3233  0.0123
  677TMC3     C10070   0.775   1.088  11.204  0.2470 -0.6793  0.0868
  677TMC3     O10071   0.858   1.183  11.194 -0.1577  0.1158  0.1701
  677TMC3     H10072   0.568   0.942  11.217 -1.4602 -0.5004 -0.2210
  677TMC3    H110073   0.767   1.272  11.378  1.8391 -2.3955 -0.1137
  677TMC3    H210074   0.371   1.168  11.517 -0.9862 -0.3059 -0.4911
  677TMC3    C710075   0.575   1.315  11.575 -0.9736 -0.3477  1.0363
  677TMC3    C810076   0.342   0.967  11.358  0.0176  0.5487 -0.6218
  677TMC3    O110077   0.466   1.342  11.625  0.7003 -0.1489  0.6399
  677TMC3    O210078   0.325   0.967  11.237 -0.0919  0.1892  0.2784
  678MPD2     C10079   2.804   1.400   1.145  0.4698  0.6269 -0.5282
  678MPD2    C110080   2.720   1.489   1.073  0.5374  0.4203 -0.1651
  678MPD2    C210081   2.594   1.449   1.016 -0.1729 -0.0800  1.0196
  678MPD2    C310082   2.544   1.321   1.056  0.1585 -0.6747  0.4070
  678MPD2    C410083   2.623   1.238   1.137  0.0444  0.4909 -0.2879
  678MPD2    C510084   2.746   1.276   1.175 -0.3179 -1.0955 -0.3342
  678MPD2     H10085   2.547   1.516   0.945 -1.3219 -0.9245  0.9929
  678MPD2    H110086   2.590   1.139   1.164 -2.0372  1.8668  2.2628
  678MPD2    H210087   2.901   1.435   1.179 -0.4948  1.0011  1.8948
  678MPD2    H310088   2.789   1.203   1.243  1.6510  1.0528  0.7449
  678MPD2     N10089   2.413   1.290   1.001 -0.3932  0.4307  0.0146
  678MPD2    H510090   2.369   1.362   0.944 -0.6255  0.7995  0.6615
  678MPD2    N110091   2.764   1.611   1.027  0.4631 -0.0872  0.4077
  678MPD2    H710092   2.717   1.644   0.943  0.0745  0.5614  0.8819
  679TMC3    C110093   3.073   1.947   0.927 -0.0622 -0.5112 -0.0143
  679TMC3    C210094   3.022   1.859   1.017  0.4718 -0.0116 -0.2036
  679TMC3    C310095   2.906   1.793   0.987  0.3245  0.1719 -0.7749
  679TMC3    C410096   3.005   1.974   0.809 -0.6939 -0.3991 -0.2079
  679TMC3    C510097   2.876   1.925   0.799 -0.1551  0.3640 -0.0393
  679TMC3    C610098   2.819   1.829   0.877  0.3646  0.2803 -0.6032
  679TMC3     C10099   3.213   1.922   0.897 -0.2820  0.7391  0.3448
  679TMC3     O10100   3.256   1.959   0.791  0.2235  0.3246 -0.1926
  679TMC3     H10101   3.081   1.815   1.098  0.1799 -0.2230 -0.1045
  679TMC3    H110102   3.045   2.045   0.738 -2.9932  0.5951 -0.5111
  679TMC3    H210103   2.728   1.777   0.851  2.2132 -2.2358 -2.0691
  679TMC3    C710104   2.813   1.954   0.670 -0.5172  0.2703 -0.6639
  679TMC3    C810105   2.877   1.676   1.067  0.0330 -0.0557 -0.8957
  679TMC3    O110106   2.691   1.944   0.667  0.1180 -0.0518  0.2743
  679TMC3    O210107   2.945   1.651   1.164 -0.2889 -0.4825 -0.4009
  680MPD2     C10108   2.808   4.696  13.932 -0.4206  0.8297  0.1046
  680MPD2    C110109   2.896   4.686  14.035  0.5146 -0.6864 -0.0530
  680MPD2    C210110   2.957   0.054  14.096 -1.1048 -0.8355  0.3015
  680MPD2    C310111   2.947   0.180  14.039  0.9253 -0.1374  0.2596
  680MPD2    C410112   2.866   0.194  13.932 -0.5555 -0.1447 -0.3952
  680MPD2    C510113   2.801   0.082  13.874 -0.4955 -0.1407 -0.1719
  680MPD2     H10114   3.002   0.031  14.192 -0.0289  0.9492  0.2257
  680MPD2    H110115   2.849   0.288  13.881  2.4445  1.6272  1.9005
  680MPD2    H210116   2.749   4.611  13.898 -0.2408  0.8728 -0.3116
  680MPD2    H310117   2.731   0.085  13.791  0.8286  3.0874 -1.1935
  680MPD2     N10118   3.013   0.296  14.098  0.6650  0.1017  0.1005
  680MPD2    H510119   3.007   0.382  14.045  3.0420  1.3736  1.9081
  680MPD2    N110120   2.926   4.565  14.105 -0.0252  0.0638 -0.1950
  680MPD2    H710121   2.991   4.585  14.180 -0.0904 -0.7767  0.0869
  681TMC3    C110122   2.946   4.345  14.189  0.3660  0.5806 -0.0676
  681TMC3    C210123   2.941   4.395  14.317  0.6456  0.7859  0.2876
  681TMC3    C310124   3.039   4.367  14.408 -1.1081 -0.0810 -0.0054
  681TMC3    C410125   3.053   4.265  14.147  0.1535 -0.0345  0.6088
  681TMC3    C510126   3.146   4.228  14.246  0.1447 -0.1998 -0.1599
  681TMC3    C610127   3.141   4.282  14.377  0.2721  0.0683  0.7249
  681TMC3     C10128   2.882   4.435  14.091  0.0337  0.4368  0.4704
  681TMC3     O10129   2.822   4.388  13.996  0.3874  0.3506  0.2220
  681TMC3     H10130   2.866   4.469  14.339  0.0792  0.1375  0.5220
  681TMC3    H110131   3.060   4.222  14.048  1.4045  0.7780  0.3457
  681TMC3    H210132   3.230   4.269  14.438  0.7344 -1.3985 -0.2466
  681TMC3    C710133   3.270   4.153  14.201 -0.3091  0.7714  0.1312
  681TMC3    C810134   3.038   4.443  14.533  0.3381 -0.0037  0.3690
  681TMC3    O110135   3.342   4.110  14.292 -0.2332  0.2989 -0.0671
  681TMC3    O210136   2.974   4.545  14.540  0.0844 -0.3808  0.0533
  682MPD2     C10137   4.658   0.799  10.644  0.2711  0.0246  0.2771
  682MPD2    C110138   4.579   0.696  10.609 -0.4565 -0.0980 -0.1959
  682MPD2    C210139   4.479   0.657  10.696 -0.4431  0.5056 -0.4299
  682MPD2    C310140   4.487   0.699  10.829 -0.1488 -0.0085  0.0455
  682MPD2    C410141   4.579   0.792  10.865 -0.2004  0.4366  0.8126
  682MPD2    C510142   4.660   0.847  10.772  0.6807  0.1391 -0.8356
  682MPD2     H10143   4.417   0.574  10.666 -0.2195 -0.3731  1.5520
  682MPD2    H110144   4.587   0.832  10.966 -0.9993 -2.0404  1.8630
  682MPD2    H210145   4.720   0.854  10.574  1.1895 -2.2338 -0.6754
  682MPD2    H310146   4.731   0.926  10.792  1.4244 -0.3847 -1.4021
  682MPD2     N10147   4.410   0.635  10.927  0.5698 -0.1727 -0.0971
  682MPD2    H510148   4.402   0.676  11.019 -0.4869 -1.2345  0.2825
  682MPD2    N110149   4.599   0.620  10.494  0.1745  0.3506  0.2455
  682MPD2    H710150   4.536   0.541  10.486  0.1888  0.2755  0.8353
  683TMC3    C110151   4.171   0.507  11.232 -0.3253 -0.1115  0.1556
  683TMC3    C210152   4.136   0.373  11.242 -0.3456  0.1937  0.0461
  683TMC3    C310153   4.159   0.291  11.127  0.2801  0.5466 -0.6701
  683TMC3    C410154   4.226   0.564  11.119 -0.1586  0.2319  0.2152
  683TMC3    C510155   4.257   0.474  11.015 -0.2496  0.0683  0.0775
  683TMC3    C610156   4.217   0.341  11.013 -0.6992 -0.4380 -0.5478
  683TMC3     C10157   4.176   0.579  11.353 -0.7738 -0.2084  0.2731
  683TMC3     O10158   4.200   0.698  11.331 -0.4158 -0.1867 -0.2230
  683TMC3     H10159   4.077   0.328  11.321 -0.4554 -3.2032 -1.9319
  683TMC3    H110160   4.251   0.669  11.114 -1.5331  0.3110 -4.2059
  683TMC3    H210161   4.254   0.274  10.935  0.0266 -1.6679  0.8540
  683TMC3    C710162   4.340   0.517  10.901  0.2752  0.1244  0.1500
  683TMC3    C810163   4.170   0.156  11.151  0.4761 -0.1592 -0.2827
  683TMC3    O110164   4.358   0.434  10.815  0.2633  0.5368 -0.5896
  683TMC3    O210165   4.068   0.096  11.188 -0.2158 -0.0771  0.4981
  684MPD2     C10166   3.187   0.427  16.453 -0.2096  0.2763 -0.3538
  684MPD2    C110167   3.284   0.474  16.360 -0.2040  0.4193  0.5508
  684MPD2    C210168   3.368   0.575  16.398 -0.5829  0.2119  0.1743
  684MPD2    C310169   3.344   0.639  16.522  0.2457  0.2162 -0.6465
  684MPD2    C410170   3.250   0.598  16.609  0.3445 -0.2296 -0.2021
  684MPD2    C510171   3.172   0.498  16.572  0.5833 -0.0868  0.2124
  684MPD2     H10172   3.440   0.609  16.325 -2.1664 -0.4452 -1.6993
  684MPD2    H110173   3.235   0.640  16.708  1.7783  1.9759 -0.9020
  684MPD2    H210174   3.120   0.346  16.427  1.7307 -1.0947 -1.0702
  684MPD2    H310175   3.086   0.471  16.631  2.8939 -0.1753  3.5188
  684MPD2     N10176   3.404   0.765  16.558  0.4698  0.0761  0.4472
  684MPD2    H510177   3.370   0.807  16.644  1.1224 -2.1890  1.7981
  684MPD2    N110178   3.310   0.419  16.232 -0.0381  0.0140 -0.0629
  684MPD2    H710179   3.389   0.465  16.187 -1.2402  2.1061 -0.0163
  685TMC3    C110180   3.274   0.357  16.013 -1.0203  0.8863  0.0969
  685TMC3    C210181   3.168   0.352  15.930 -0.3154  0.1280 -0.4493
  685TMC3    C310182   3.171   0.426  15.812 -0.6451 -0.5242 -0.4813
  685TMC3    C410183   3.386   0.432  15.982  0.8009 -0.1915 -0.4975
  685TMC3    C510184   3.403   0.477  15.853  0.1171 -0.6735 -0.3722
  685TMC3    C610185   3.292   0.474  15.767  0.1977  0.3975 -0.4074
  685TMC3     C10186   3.233   0.341  16.152  0.3999  0.8964  0.1906
  685TMC3     O10187   3.123   0.297  16.177 -0.5970 -0.0462  0.1946
  685TMC3     H10188   3.085   0.286  15.953 -1.1297  0.9423 -1.0078
  685TMC3    H110189   3.472   0.406  16.043  2.3389  1.5304 -1.9257
  685TMC3    H210190   3.313   0.517  15.670 -1.7012  2.4682  0.1053
  685TMC3    C710191   3.517   0.558  15.816  0.4116 -0.0986 -0.6464
  685TMC3    C810192   3.052   0.481  15.755 -0.2745 -0.7921 -0.8438
  685TMC3    O110193   3.583   0.530  15.714 -0.4081 -0.2899 -0.2184
  685TMC3    O210194   3.055   0.529  15.642 -0.0243  0.5667  0.4625
  686MPD2     C10195   0.249   0.884  16.186  0.0858 -0.0141  0.4232
  686MPD2    C110196   0.179   0.769  16.219  0.3826  0.2460 -0.4836
  686MPD2    C210197   0.237   0.648  16.212 -0.3876  0.0381 -0.8507
  686MPD2    C310198   0.366   0.638  16.158  0.3017  0.3439  0.0681
  686MPD2    C410199   0.432   0.751  16.127  0.1856 -0.4873  0.1594
  686MPD2    C510200   0.377   0.872  16.144  0.1280 -0.8206 -0.4271
  686MPD2     H10201   0.188   0.555  16.239 -0.6507  0.2245 -0.6943
  686MPD2    H110202   0.535   0.753  16.093 -0.0603 -0.0193 -0.5569
  686MPD2    H210203   0.195   0.977  16.199  1.2493  0.6477  0.4530
  686MPD2    H310204   0.425   0.961  16.104  1.3639 -0.7736  1.1226
  686MPD2     N10205   0.419   0.510  16.122  0.3907 -0.0757 -0.0943
  686MPD2    H510206   0.368   0.437  16.170 -0.5458  0.4675 -0.2720
  686MPD2    N110207   0.042   0.795  16.246 -0.4183 -0.2058 -0.1999
  686MPD2    H710208   0.013   0.890  16.221 -1.6366 -0.4226  0.3628
  687TMC3    C110209   0.516   0.348  16.003  0.1447  0.3429 -0.1329
  687TMC3    C210210   0.485   0.331  15.874 -0.0490 -0.7636  0.1940
  687TMC3    C310211   0.393   0.238  15.845 -0.4653  0.5861 -0.0279
  687TMC3    C410212   0.467   0.269  16.101 -0.2793  0.1274  0.9891
  687TMC3    C510213   0.360   0.191  16.073  0.1106  0.1233  0.2766
  687TMC3    C610214   0.312   0.180  15.945  0.4675 -0.0678 -0.1943
  687TMC3     C10215   0.521   0.486  16.042  0.4313  0.5260 -0.1828
  687TMC3     O10216   0.564   0.552  15.947  0.1575 -0.1031 -0.3090
  687TMC3     H10217   0.526   0.390  15.793  0.7264 -0.3757  0.8692
  687TMC3    H110218   0.511   0.293  16.197  0.3324  2.1665  0.2162
  687TMC3    H210219   0.236   0.107  15.917  0.6621  0.2255 -1.4907
  687TMC3    C710220   0.263   0.193  16.184 -0.6023  0.4928  0.3155
  687TMC3    C810221   0.331   0.235  15.714 -0.0813 -0.2607  0.3203
  687TMC3    O110222   0.288   0.282  16.262  0.7249 -0.3527  0.6216
  687TMC3    O210223   0.294   0.126  15.674 -0.1526  0.3225  0.3816
  688MPD2     C10224   3.804   4.402  17.396 -0.2396 -0.0728 -0.8309
  688MPD2    C110225   3.836   4.281  17.449  0.6607 -0.2020  0.1701
  688MPD2    C210226   3.950   4.219  17.404 -0.4980 -0.2314 -0.0915
  688MPD2    C310227   4.038   4.276  17.313 -0.1159  0.7935  0.1139
  688MPD2    C410228   4.008   4.404  17.272 -0.2154 -0.0297 -0.1321
  688MPD2    C510229   3.892   4.460  17.312 -0.3421  0.7168 -0.0286
  688MPD2     H10230   3.970   4.123  17.451  0.7299 -0.6457 -1.4693
  688MPD2    H110231   4.067   4.452  17.195  0.8543 -1.9649 -0.5155
  688MPD2    H210232   3.721   4.462  17.433  0.6547  0.1329  0.8505
  688MPD2    H310233   3.872   4.561  17.277  0.1407 -0.0608 -2.5621
  688MPD2     N10234   4.151   4.224  17.255 -0.2247 -0.3886  0.3305
  688MPD2    H510235   4.201   4.291  17.199  0.7536 -2.5532 -1.3517
  688MPD2    N110236   3.757   4.212  17.552 -0.2235  0.1301  0.1686
  688MPD2    H710237   3.795   4.126  17.590  1.6310  1.3922  1.2138
  689TMC3    C110238   3.603   4.185  17.721 -0.2377  0.1242 -0.2169
  689TMC3    C210239   3.584   4.264   0.077 -0.0034  0.3363  0.1074
  689TMC3    C310240   3.575   4.201   0.203 -0.4794  0.2316  0.9537
  689TMC3    C410241   3.603   4.049  17.733 -0.8866  0.0477 -0.2434
  689TMC3    C510242   3.598   3.988   0.109 -0.1457 -0.3293 -0.5103
  689TMC3    C610243   3.578   4.064   0.220 -0.2398 -0.3316 -0.0605
  689TMC3     C10244   3.637   4.255  17.603 -0.1419  0.1262  0.2207
  689TMC3     O10245   3.581   4.362  17.577 -0.3384 -0.2590  0.5415
  689TMC3     H10246   3.564   4.370   0.072  0.8428  0.4730 -0.4326
  689TMC3    H110247   3.621   3.986  17.647 -1.2642  0.6135 -0.7327
  689TMC3    H210248   3.569   4.016   0.317 -0.4861 -1.1890 -0.5022
  689TMC3    C710249   3.632   3.852   0.126 -0.3435  0.0097 -0.3454
  689TMC3    C810250   3.535   4.272   0.321 -0.9846  0.7707  0.4125
  689TMC3    O110251   3.708   3.826   0.221  0.0811 -0.3444 -0.4413
  689TMC3    O210252   3.499   4.205   0.419 -0.4813 -0.1650  0.3567
  690MPD2     C10253   1.314   1.463  15.662 -0.4834  0.1677 -0.8043
  690MPD2    C110254   1.283   1.377  15.561  0.4952 -0.5202  0.0009
  690MPD2    C210255   1.364   1.353  15.452 -0.3439  0.4072  0.2402
  690MPD2    C310256   1.490   1.417  15.453 -0.6211  1.3236  0.2025
  690MPD2    C410257   1.526   1.497  15.563  0.2816  0.3902  0.5883
  690MPD2    C510258   1.439   1.515  15.668 -0.6999  0.3614 -0.1521
  690MPD2     H10259   1.332   1.286  15.373 -0.2888 -2.1393  2.3808
  690MPD2    H110260   1.626   1.535  15.574  0.7063 -0.8068  0.9532
  690MPD2    H210261   1.239   1.494  15.734 -1.4422 -1.6367 -1.0319
  690MPD2    H310262   1.476   1.568  15.755  0.3992 -0.0597 -0.3654
  690MPD2     N10263   1.564   1.395  15.331 -0.2945 -0.2257 -0.2592
  690MPD2    H510264   1.525   1.340  15.256  0.2942  2.2277 -2.3607
  690MPD2    N110265   1.167   1.295  15.573  0.1139 -0.4647 -0.1531
  690MPD2    H710266   1.150   1.214  15.515  1.6128 -1.5939  1.0003
  691TMC3    C110267   0.974   1.217  15.686 -0.9501 -0.0370  0.2424
  691TMC3    C210268   0.863   1.253  15.761  0.0247  0.6364 -0.5473
  691TMC3    C310269   0.792   1.151  15.813 -0.2701  0.0043 -0.1170
  691TMC3    C410270   1.032   1.086  15.697 -0.8155 -0.2532 -0.3041
  691TMC3    C510271   0.960   0.990  15.757  0.1220  0.0516  0.4867
  691TMC3    C610272   0.842   1.023  15.822  0.1826  0.2093  0.1256
  691TMC3     C10273   1.060   1.327  15.650 -0.1140 -0.7412  0.1641
  691TMC3     O10274   1.031   1.437  15.686 -0.0360 -0.0488  0.4841
  691TMC3     H10275   0.845   1.358  15.781 -0.9190  0.7307 -1.8686
  691TMC3    H110276   1.121   1.062  15.640 -0.9668 -3.6780  0.9098
  691TMC3    H210277   0.785   0.952  15.881  0.5007  0.3701  0.6241
  691TMC3    C710278   1.025   0.862  15.772 -0.4495  0.4924  0.3193
  691TMC3    C810279   0.672   1.186  15.889  0.1026  0.1056  0.3712
  691TMC3    O110280   1.148   0.863  15.772  0.2543 -0.3909 -0.1051
  691TMC3    O210281   0.625   1.099  15.961  0.2418  0.4149 -0.4231
  692TMC3    C110282   2.789   1.867  15.829  0.2691  0.3057  0.0549
  692TMC3    C210283   2.885   1.965  15.852 -0.2119  0.3491  0.0962
  692TMC3    C310284   3.009   1.918  15.908 -0.0668 -0.5456  0.4066
  692TMC3    C410285   2.822   1.737  15.840 -0.1171  1.0894 -0.3738
  692TMC3    C510286   2.939   1.699  15.889 -0.4135  0.4744  0.0487
  692TMC3    C610287   3.027   1.786  15.937  0.0982 -0.6840 -1.1968
  692TMC3     C10288   2.654   1.909  15.803 -0.4579  0.9274 -0.0685
  692TMC3     O10289   2.562   1.827  15.801  0.3327 -0.1219 -0.3576
  692TMC3     H10290   2.862   2.071  15.865  0.0351  0.4122  0.0038
  692TMC3    H110291   2.743   1.665  15.822  0.4725  0.2121  0.5597
  692TMC3    H210292   3.125   1.759  15.973 -0.2485 -0.1891  0.1109
  692TMC3    C710293   2.958   1.557  15.901 -0.0788 -0.0154  0.4557
  692TMC3    C810294   3.068   2.002  16.017 -0.5724 -0.4690 -0.1083
  692TMC3    O110295   2.879   1.491  15.838  0.0495 -0.0784 -0.2283
  692TMC3    O210296   3.146   1.955  16.094  0.1974 -0.5874  0.3317
  693MPD2     C10297   2.331   0.396  10.841  0.0688 -0.6798  0.5600
  693MPD2    C110298   2.277   0.269  10.812 -0.5331 -0.4945  0.1053
  693MPD2    C210299   2.350   0.155  10.855 -0.0761 -0.0912 -0.3273
  693MPD2    C310300   2.466   0.168  10.915  0.4351 -0.8236 -0.0002
  693MPD2    C410301   2.524   0.292  10.932  0.4337 -0.0101  0.6201
  693MPD2    C510302   2.457   0.407  10.897 -0.2729 -0.4076 -0.8738
  693MPD2     H10303   2.310   0.055  10.838  2.6736 -1.1384 -0.6576
  693MPD2    H110304   2.615   0.294  10.989  0.4079 -2.5948  0.7434
  693MPD2    H210305   2.284   0.485  10.798 -1.6084 -1.0092  1.6907
  693MPD2    H310306   2.498   0.506  10.912 -0.1857 -1.1916  3.8991
  693MPD2     N10307   2.537   0.061  10.966 -0.2110  0.2736  0.0863
  693MPD2    H510308   2.631   0.083  10.994  0.0404 -1.2445  0.4728
  693MPD2    N110309   2.149   0.254  10.751 -0.0913 -0.2751  0.4260
  693MPD2    H710310   2.098   0.338  10.725 -0.5301 -0.5005  0.5567
  694TMC3    C110311   1.948   0.158  10.786 -0.0434 -1.1973 -0.7539
  694TMC3    C210312   1.866   0.052  10.767  0.6102 -0.3679  0.3519
  694TMC3    C310313   1.756   0.036  10.847  0.3047  0.3420  0.4301
  694TMC3    C410314   1.927   0.243  10.895  0.1261  0.0850 -0.1837
  694TMC3    C510315   1.816   0.217  10.979 -0.7982  0.0124 -1.0498
  694TMC3    C610316   1.728   0.119  10.951 -0.0190 -0.1007  0.3524
  694TMC3     C10317   2.084   0.139  10.745  0.5491  0.3581  0.8802
  694TMC3     O10318   2.116   0.024  10.724  0.5375  0.8149 -0.0019
  694TMC3     H10319   1.887   4.704  10.704 -0.4467  0.5918 -1.3145
  694TMC3    H110320   2.003   0.308  10.937  1.2869 -0.2281 -1.8164
  694TMC3    H210321   1.638   0.107  11.011 -0.0419 -1.7380  0.0051
  694TMC3    C710322   1.815   0.282  11.108  0.0687 -0.4155 -0.0764
  694TMC3    C810323   1.671   4.660  10.820 -0.2370 -0.8280  0.2960
  694TMC3    O110324   1.897   0.371  11.127 -0.1374  0.8641 -0.3766
  694TMC3    O210325   1.676   4.563  10.897 -0.3480  0.0689 -0.0068
  695MPD2     C10326   3.633   1.889  13.275  0.1596  0.2209  0.0855
  695MPD2    C110327   3.625   1.833  13.399 -0.3622 -0.0526 -0.0388
  695MPD2    C210328   3.504   1.809  13.461  0.0493 -0.1108 -0.7207
  695MPD2    C310329   3.388   1.838  13.392  0.5044 -0.6184  0.8817
  695MPD2    C410330   3.391   1.874  13.255  0.1670 -0.3706  0.3633
  695MPD2    C510331   3.518   1.906  13.202  0.4740  0.3154  0.2657
  695MPD2     H10332   3.491   1.773  13.562 -1.0202 -2.7584 -1.7955
  695MPD2    H110333   3.306   1.886  13.189 -1.4366 -0.0610  2.4702
  695MPD2    H210334   3.724   1.914  13.220  0.5001 -1.6630 -0.2258
  695MPD2    H310335   3.523   1.926  13.096 -2.0001 -1.8556 -0.2554
  695MPD2     N10336   3.266   1.825  13.464 -0.4168  0.4527 -0.1936
  695MPD2    H510337   3.272   1.812  13.564  0.6788  0.3140 -0.2749
  695MPD2    N110338   3.752   1.826  13.471  0.3501  0.1171  0.2632
  695MPD2    H710339   3.838   1.861  13.430  1.1974 -1.0922  0.9956
  696TMC3    C110340   3.037   1.843  13.510 -0.7871  0.7500 -0.1573
  696TMC3    C210341   3.071   1.841  13.645 -0.7729 -0.8330 -0.6860
  696TMC3    C310342   2.972   1.872  13.733 -0.0067  0.5278 -0.3728
  696TMC3    C410343   2.913   1.891  13.461 -0.3341 -0.6860  0.4585
  696TMC3    C510344   2.832   1.941  13.566 -0.0762  1.0000  0.0506
  696TMC3    C610345   2.849   1.919  13.700  0.2728  0.9638  0.1332
  696TMC3     C10346   3.142   1.840  13.413 -0.1487 -0.4285  0.2747
  696TMC3     O10347   3.100   1.845  13.301  0.4239 -0.7364  0.0996
  696TMC3     H10348   3.156   1.792  13.689 -1.6867 -3.0712 -1.3822
  696TMC3    H110349   2.884   1.919  13.360  1.6062 -1.9680 -0.4690
  696TMC3    H210350   2.774   1.956  13.769  0.1573 -1.0859  1.1287
  696TMC3    C710351   2.742   2.043  13.534 -0.4762 -0.6313  0.7414
  696TMC3    C810352   3.009   1.853  13.869 -0.6381  0.3365 -0.6410
  696TMC3    O110353   2.695   2.038  13.421  0.6021 -0.1795  0.0896
  696TMC3    O210354   3.127   1.835  13.902  0.4267 -0.3508  0.2021
  697MPD2     C10355   2.660   3.768  15.932  0.1130  0.1815 -0.2299
  697MPD2    C110356   2.669   3.745  15.797  0.0912  0.5214 -0.6435
  697MPD2    C210357   2.718   3.841  15.712  0.7665 -0.1114 -0.2418
  697MPD2    C310358   2.759   3.964  15.760  1.3503  0.1490 -0.3928
  697MPD2    C410359   2.754   3.989  15.893 -0.0492  0.7434 -0.8407
  697MPD2    C510360   2.708   3.892  15.980 -0.4166  0.1119  0.8029
  697MPD2     H10361   2.717   3.826  15.605 -3.6267  0.2096 -0.2620
  697MPD2    H110362   2.787   4.084  15.934  0.5694  0.3811 -0.4895
  697MPD2    H210363   2.635   3.701  16.014  0.7730 -1.7615 -1.6270
  697MPD2    H310364   2.710   3.913  16.086 -0.4773  2.3263  0.3578
  697MPD2     N10365   2.804   4.067  15.667  0.0495  0.0791 -0.4477
  697MPD2    H510366   2.803   4.033  15.571 -0.6409 -0.7426 -0.1532
  697MPD2    N110367   2.639   3.624  15.733  0.1774 -0.3242  0.2803
  697MPD2    H710368   2.653   3.618  15.633  1.4438 -1.6181  0.5274
  698TMC3    C110369   2.890   4.272  15.590 -0.1652  0.2338 -0.4117
  698TMC3    C210370   2.960   4.387  15.605 -1.1089  0.1368  0.1661
  698TMC3    C310371   2.971   4.469  15.501 -0.0983 -0.4647 -0.4020
  698TMC3    C410372   2.838   4.239  15.460  0.1520 -0.2444  0.2965
  698TMC3    C510373   2.849   4.327  15.358  0.6235 -0.6183  0.1419
  698TMC3    C610374   2.920   4.445  15.378  0.3402 -0.8363 -0.0945
  698TMC3     C10375   2.861   4.185  15.703  0.6538  0.1256  0.2904
  698TMC3     O10376   2.902   4.216  15.817  0.1642 -0.0832  0.1285
  698TMC3     H10377   2.984   4.422  15.705  0.8684 -0.8383  0.0549
  698TMC3    H110378   2.772   4.153  15.452  1.4420 -0.8261 -4.2372
  698TMC3    H210379   2.921   4.523  15.303 -3.2443 -0.1287  0.5950
  698TMC3    C710380   2.758   4.329  15.251 -0.1959 -0.1379 -0.0961
  698TMC3    C810381   3.028   4.600  15.519 -0.2450  0.5243  0.6234
  698TMC3    O110382   2.784   4.394  15.151 -0.4042  0.4405  0.3995
  698TMC3    O210383   2.970   4.675  15.595  0.2348 -0.3802  0.0714
  699TMC3    C110384   2.801   1.627  13.120 -0.5384  0.0587  0.0538
  699TMC3    C210385   2.874   1.602  13.234 -0.3349  0.0523 -0.3466
  699TMC3    C310386   2.829   1.498  13.312  0.0272  0.1878 -0.1306
  699TMC3    C410387   2.687   1.553  13.090  0.0172 -0.4010 -0.2181
  699TMC3    C510388   2.643   1.455  13.177  0.5149 -0.3084 -0.4121
  699TMC3    C610389   2.711   1.436  13.293 -0.0415  1.1311  0.5661
  699TMC3     C10390   2.828   1.733  13.024  0.3105 -0.3840 -0.8087
  699TMC3     O10391   2.768   1.719  12.921 -0.3759  0.3502  0.1628
  699TMC3     H10392   2.960   1.662  13.260 -0.8263  0.1624  1.0004
  699TMC3    H110393   2.634   1.569  12.998 -0.8868  0.1811  0.4089
  699TMC3    H210394   2.676   1.358  13.359  0.4528 -0.4902 -1.0996
  699TMC3    C710395   2.513   1.398  13.164  0.1583 -0.2346  0.5110
  699TMC3    C810396   2.890   1.481  13.439 -0.1179 -0.4283 -0.2895
  699TMC3    O110397   2.429   1.462  13.110 -1.0622  0.3175  0.1005
  699TMC3    O210398   2.811   1.447  13.527  0.8232 -0.1045  0.4820
  700TMC3    C110399   1.356   3.984  17.414 -0.2309 -0.2838 -0.7283
  700TMC3    C210400   1.429   3.872  17.401 -0.1778 -0.1388 -0.2230
  700TMC3    C310401   1.523   3.840  17.490  0.2791  0.2389  0.3228
  700TMC3    C410402   1.388   4.069  17.516  0.7243 -0.2343  0.2198
  700TMC3    C510403   1.498   4.038  17.603 -0.2727 -0.2967  0.0420
  700TMC3    C610404   1.570   3.923  17.594 -0.4666  0.5924 -0.1021
  700TMC3     C10405   1.322   4.048  17.295 -0.4542 -0.4343  0.5646
  700TMC3     O10406   1.206   4.060  17.258  0.3435 -0.2776 -0.3875
  700TMC3     H10407   1.418   3.804  17.317  1.3575 -0.6688  0.0135
  700TMC3    H110408   1.349   4.170  17.522 -0.9963 -0.8793 -0.1425
  700TMC3    H210409   1.641   3.891  17.670 -2.9237 -0.9702  1.5253
  700TMC3    C710410   1.548   4.139  17.690 -0.9694 -0.2854  0.4164
  700TMC3    C810411   1.612   3.721  17.472  0.8869 -0.0762  0.3612
  700TMC3    O110412   1.656   4.116  17.746  0.9469 -0.3843 -0.2809
  700TMC3    O210413   1.731   3.729  17.503 -0.1484 -0.3102 -0.7262
  701TMC3    C110414   1.896   2.998  15.580  0.1655  0.1103  0.2595
  701TMC3    C210415   1.962   2.929  15.483 -0.7763 -0.1744  0.2675
  701TMC3    C310416   2.091   2.958  15.459  0.5589 -0.5187 -0.2216
  701TMC3    C410417   1.955   3.097  15.649  0.7198  0.4393  0.0890
  701TMC3    C510418   2.083   3.133  15.616 -0.3361 -0.1375  0.5230
  701TMC3    C610419   2.151   3.060  15.527  0.4782 -0.1991  0.2826
  701TMC3     C10420   1.763   2.963  15.625  0.0536  0.1655 -0.2299
  701TMC3     O10421   1.735   2.983  15.740 -0.1830 -0.0349 -0.0847
  701TMC3     H10422   1.914   2.847  15.430 -2.8399  0.7520  0.6940
  701TMC3    H110423   1.887   3.165  15.700  0.2932  0.3036 -0.3026
  701TMC3    H210424   2.245   3.104  15.496 -0.7417  2.1388 -0.1536
  701TMC3    C710425   2.126   3.262  15.665 -0.0096  0.1552  0.2312
  701TMC3    C810426   2.158   2.926  15.335 -0.3137 -0.5313  0.1652
  701TMC3    O110427   2.186   3.338  15.590  0.5152  0.1470  0.0615
  701TMC3    O210428   2.280   2.908  15.338  0.4969  0.1382  0.0718
  702MPD2     C10429   1.312   0.183  10.499 -0.7574 -0.2286 -0.2244
  702MPD2    C110430   1.281   0.292  10.576 -0.7481  0.5193 -0.0346
  702MPD2    C210431   1.335   0.408  10.547 -0.4178  0.1780 -0.2379
  702MPD2    C310432   1.430   0.422  10.449  0.1512  0.4394 -0.4078
  702MPD2    C410433   1.461   0.323  10.369  0.0292 -0.2852 -0.1927
  702MPD2    C510434   1.395   0.205  10.394  1.0371 -0.3745  0.7727
  702MPD2     H10435   1.303   0.500  10.595 -2.0159 -0.5795  0.1301
  702MPD2    H110436   1.539   0.334  10.295  0.1110  0.3133 -0.0156
  702MPD2    H210437   1.267   0.084  10.500 -1.1958 -0.0239  0.4677
  702MPD2    H310438   1.416   0.126  10.323 -1.7599  0.0813 -0.5680
  702MPD2     N10439   1.481   0.550  10.428 -0.3252  0.2342  0.1952
  702MPD2    H510440   1.443   0.621  10.489 -0.0280 -0.7770  1.5728
  702MPD2    N110441   1.195   0.288  10.690  0.6741 -0.0706  0.4770
  702MPD2    H710442   1.174   0.377  10.734  0.1273  0.4161 -0.7638
  703TMC3    C110443   1.594   0.740  10.365  0.2192  0.1317  0.6273
  703TMC3    C210444   1.498   0.818  10.428 -0.2650 -0.2623  0.2153
  703TMC3    C310445   1.538   0.943  10.445 -0.7416 -0.2162 -0.3185
  703TMC3    C410446   1.725   0.772  10.363  0.4159  0.5845 -0.2224
  703TMC3    C510447   1.765   0.894  10.406  0.4039 -0.2955 -0.2173
  703TMC3    C610448   1.668   0.981  10.447  0.3813  0.5930 -0.1621
  703TMC3     C10449   1.575   0.601  10.341  0.0534  0.6898  0.3165
  703TMC3     O10450   1.642   0.544  10.258 -0.8649 -0.1140  0.7919
  703TMC3     H10451   1.392   0.795  10.427  0.4154 -3.4480  0.6383
  703TMC3    H110452   1.795   0.696  10.331  0.2770  1.2038 -1.9995
  703TMC3    H210453   1.707   1.076  10.484  0.1605  0.0473  1.4712
  703TMC3    C710454   1.898   0.941  10.402 -0.1137 -0.1926 -0.4288
  703TMC3    C810455   1.455   1.035  10.526  0.5433 -0.0172  0.0409
  703TMC3    O110456   1.927   1.062  10.417  0.4459 -0.0225  0.2205
  703TMC3    O210457   1.491   1.149  10.531  0.0853  0.6733 -0.0909
  704TMC3    C110458   4.299   3.473  12.827  0.0990  0.2619  0.1388
  704TMC3    C210459   4.352   3.483  12.708  0.3948  0.0143 -0.6400
  704TMC3    C310460   4.444   3.391  12.657 -0.5256  0.4235 -0.0876
  704TMC3    C410461   4.344   3.367  12.905 -0.3740  0.3139  0.1437
  704TMC3    C510462   4.437   3.276  12.862 -0.2844 -0.4881  0.1518
  704TMC3    C610463   4.495   3.292  12.735  0.6334 -0.2360 -1.1088
  704TMC3     C10464   4.160   3.491  12.840 -0.2375 -0.1767  0.2134
  704TMC3     O10465   4.111   3.482  12.955  0.0707 -0.2059 -0.1213
  704TMC3     H10466   4.313   3.556  12.637  0.1254  0.8015  0.3159
  704TMC3    H110467   4.296   3.361  13.002  2.7119  0.8595  1.7130
  704TMC3    H210468   4.551   3.215  12.684  3.0791  1.1506 -0.5156
  704TMC3    C710469   4.430   3.134  12.892 -0.4095 -0.0613  0.0698
  704TMC3    C810470   4.395   3.338  12.534 -0.7548  0.3233 -0.0605
  704TMC3    O110471   4.473   3.057  12.806 -0.4077  0.0306 -0.2746
  704TMC3    O210472   4.273   3.331  12.526  0.0524  0.4885 -0.1176
  705MPD2     C10473   3.244   1.574  16.728 -0.6471  0.0758  0.2230
  705MPD2    C110474   3.233   1.690  16.647 -0.1557 -0.4489  0.0672
  705MPD2    C210475   3.106   1.751  16.627 -0.4539  0.4565  0.3867
  705MPD2    C310476   2.992   1.702  16.696 -0.3436 -0.8344 -0.3626
  705MPD2    C410477   3.010   1.598  16.783  0.0008  0.4982  0.0490
  705MPD2    C510478   3.132   1.540  16.802 -0.6382  0.5470 -0.1473
  705MPD2     H10479   3.106   1.838  16.564 -1.1546 -0.0691 -0.3429
  705MPD2    H110480   2.920   1.559  16.830  0.7697 -1.6877 -0.2730
  705MPD2    H210481   3.336   1.516  16.729 -0.6320  0.1039  0.4002
  705MPD2    H310482   3.133   1.446  16.857  1.3627 -1.0017 -2.7741
  705MPD2     N10483   2.866   1.758  16.683  0.2689 -0.2404 -0.7166
  705MPD2    H510484   2.797   1.710  16.740  0.5674  0.7938  0.5162
  705MPD2    N110485   3.338   1.733  16.565 -0.1166  0.1469  0.6926
  705MPD2    H710486   3.313   1.806  16.499 -2.6080 -0.7098  0.6805
  706TMC3    C110487   3.734   1.813  16.349 -0.7854 -0.0119  0.2612
  706TMC3    C210488   3.720   1.950  16.345 -0.1819 -0.2068  0.1798
  706TMC3    C310489   3.610   1.988  16.414 -0.1756 -0.1603  0.8973
  706TMC3    C410490   3.653   1.721  16.412 -0.3488 -0.1621 -0.5781
  706TMC3    C510491   3.547   1.773  16.475  0.5089  0.4232 -0.3923
  706TMC3    C610492   3.526   1.905  16.476  0.1801 -0.2859  1.2612
  706TMC3     C10493   3.812   1.759  16.239  0.3553  0.4513  0.7455
  706TMC3     O10494   3.925   1.796  16.214 -0.2997  0.1602  0.2982
  706TMC3     H10495   3.766   2.016  16.272 -1.2274 -0.1664 -0.4331
  706TMC3    H110496   3.690   1.619  16.416  1.1829  0.3781 -1.0675
  706TMC3    H210497   3.440   1.953  16.523  0.8806  0.6795  1.5484
  706TMC3    C710498   3.465   1.684  16.559  0.0601  0.0435  0.6777
  706TMC3    C810499   3.540   2.099  16.346 -0.8723  0.1332  0.2605
  706TMC3    O110500   3.518   1.595  16.627 -0.8489  0.4112  0.2433
  706TMC3    O210501   3.428   2.076  16.305 -0.2016 -0.4297 -0.5178
  707TMC3    C110502   0.484   1.063   1.607  0.6052  0.1773  0.5332
  707TMC3    C210503   0.446   0.957   1.692 -0.1402  0.5323 -0.0722
  707TMC3    C310504   0.488   0.968   1.824  0.6783 -0.1474 -0.3835
  707TMC3    C410505   0.549   1.175   1.653 -0.1503  0.8236  1.5115
  707TMC3    C510506   0.596   1.168   1.782 -0.6721 -0.8307 -0.1374
  707TMC3    C610507   0.562   1.071   1.872 -0.6593 -0.2928 -0.1725
  707TMC3     C10508   0.516   1.021   1.469 -0.5141 -0.3226  0.0306
  707TMC3     O10509   0.543   0.901   1.455  0.1166 -0.1531  0.0545
  707TMC3     H10510   0.397   0.872   1.646 -1.2765  1.4358 -0.5276
  707TMC3    H110511   0.595   1.247   1.585 -2.8044  1.7639  0.6822
  707TMC3    H210512   0.607   1.062   1.970  0.0819 -1.1941 -0.5993
  707TMC3    C710513   0.682   1.274   1.830 -0.6100 -0.2189 -0.5951
  707TMC3    C810514   0.467   0.864   1.917 -0.3292 -0.0458 -0.2262
  707TMC3    O110515   0.745   1.248   1.932 -0.4874  0.2645 -0.9578
  707TMC3    O210516   0.459   0.892   2.034  0.6601 -0.0508 -0.1608
  708MPD2     C10517   2.006   0.383  13.570 -0.4182 -0.1751  0.2463
  708MPD2    C110518   1.907   0.356  13.662  0.2971 -0.3592  0.2211
  708MPD2    C210519   1.944   0.269  13.772 -0.2695 -0.0275  0.4191
  708MPD2    C310520   2.067   0.211  13.782  0.5902  1.0134 -0.4217
  708MPD2    C410521   2.167   0.230  13.684 -0.5784  1.1885  0.4291
  708MPD2    C510522   2.128   0.310  13.572  0.3858 -0.0817 -0.5943
  708MPD2     H10523   1.876   0.251  13.854  0.0138 -1.3271  0.3632
  708MPD2    H110524   2.257   0.170  13.690 -1.4531 -0.1839 -0.1458
  708MPD2    H210525   1.979   0.432  13.477 -0.2173 -0.7626 -0.1189
  708MPD2    H310526   2.197   0.324  13.490  0.5292  2.5318 -0.0216
  708MPD2     N10527   2.080   0.137  13.899 -0.5079 -0.2143 -0.0248
  708MPD2    H510528   1.994   0.124  13.950  0.8868 -1.9513  1.8484
  708MPD2    N110529   1.775   0.418  13.645  0.2750 -0.1771 -0.6890
  708MPD2    H710530   1.748   0.452  13.553  1.3282  3.2457  0.2397
  709TMC3    C110531   1.552   0.483  13.711  0.1495  0.0306 -0.0476
  709TMC3    C210532   1.487   0.411  13.614 -0.0910 -0.2778 -0.0218
  709TMC3    C310533   1.356   0.381  13.643  0.0821  0.4964  0.6007
  709TMC3    C410534   1.490   0.524  13.826 -0.3283 -0.1245 -0.6212
  709TMC3    C510535   1.359   0.502  13.841 -0.4253 -0.7512 -0.4974
  709TMC3    C610536   1.296   0.428  13.754 -0.4136 -0.1464  0.0679
  709TMC3     C10537   1.688   0.440  13.748 -0.3526  0.3585 -0.4648
  709TMC3     O10538   1.709   0.423  13.869 -0.6539 -0.1541  0.2110
  709TMC3     H10539   1.551   0.360  13.542  0.4180  0.8303 -0.3439
  709TMC3    H110540   1.534   0.591  13.899 -0.4197 -0.3035 -0.4018
  709TMC3    H210541   1.200   0.385  13.780 -0.7177  0.5277  0.0549
  709TMC3    C710542   1.334   0.451  13.977 -0.7648 -0.1395  0.6588
  709TMC3    C810543   1.279   0.304  13.552 -0.2753  0.4767 -0.3447
  709TMC3    O110544   1.225   0.450  14.025 -0.7695 -0.7347  0.2397
  709TMC3    O210545   1.171   0.256  13.578 -0.2068 -0.5333 -0.1404
  710TMC3    C110546   2.175   1.892   0.221  0.2551  0.3968 -0.1843
  710TMC3    C210547   2.180   1.791   0.138  0.3945 -1.0808  0.1013
  710TMC3    C310548   2.255   1.791   0.024  0.8780 -0.0403  0.0993
  710TMC3    C410549   2.259   1.996   0.219 -0.7279  0.3497  0.3149
  710TMC3    C510550   2.337   2.004   0.106  0.5194  0.1005  0.2806
  710TMC3    C610551   2.317   1.910   0.003 -0.1137  0.0152 -0.9282
  710TMC3     C10552   2.063   1.898   0.314 -0.0722  0.2672  0.2104
  710TMC3     O10553   1.960   1.859   0.267 -0.5676 -0.1215  0.5788
  710TMC3     H10554   2.113   1.706   0.149 -0.4906 -0.3569  0.2492
  710TMC3    H110555   2.276   2.065   0.300  0.6518  0.9826 -0.5222
  710TMC3    H210556   2.381   1.917  17.668  1.8905 -0.4140  0.5030
  710TMC3    C710557   2.479   2.045   0.118  0.1771 -0.1194  0.1240
  710TMC3    C810558   2.324   1.670  17.732 -0.3061 -0.1828 -0.0253
  710TMC3    O110559   2.533   2.075   0.013  0.3659  0.8259  0.0590
  710TMC3    O210560   2.429   1.687  17.670  0.3445 -0.0812  0.2323
  711TMC3    C110561   2.573   2.398  14.753 -0.8643 -0.4386  0.2208
  711TMC3    C210562   2.572   2.320  14.867  0.5680 -0.3955 -0.3375
  711TMC3    C310563   2.687   2.307  14.943 -0.5739 -0.1973  0.4407
  711TMC3    C410564   2.687   2.468  14.714 -0.6040 -0.2783  0.2604
  711TMC3    C510565   2.800   2.456  14.796  0.8308  0.7021 -0.2059
  711TMC3    C610566   2.797   2.384  14.917  0.2402 -0.0471 -0.3057
  711TMC3     C10567   2.471   2.376  14.647  1.0992  0.0560  0.3118
  711TMC3     O10568   2.379   2.306  14.683 -0.3722 -0.1842  0.1683
  711TMC3     H10569   2.476   2.275  14.889 -0.2226  1.5309  0.1204
  711TMC3    H110570   2.696   2.542  14.635 -1.9559 -0.0743  0.3085
  711TMC3    H210571   2.886   2.372  14.977  0.3958  0.5849 -0.4023
  711TMC3    C710572   2.913   2.536  14.758  0.2175  0.4582 -0.4309
  711TMC3    C810573   2.672   2.240  15.075  0.0116  0.2251  0.1467
  711TMC3    O110574   2.917   2.598  14.651  0.2664  0.0025  0.5223
  711TMC3    O210575   2.598   2.141  15.084  0.1936 -0.0826  0.3821
  712MPD2     C10576   4.272   3.599  14.461  0.1255 -0.2951 -0.2212
  712MPD2    C110577   4.163   3.672  14.413  0.8011 -0.2320  0.2319
  712MPD2    C210578   4.175   3.815  14.404 -0.0922  0.4935  0.2025
  712MPD2    C310579   4.296   3.875  14.433  0.6272  0.9781 -0.5088
  712MPD2    C410580   4.401   3.800  14.482 -0.0052  0.3085 -0.2431
  712MPD2    C510581   4.387   3.666  14.501 -0.3861 -0.4067 -0.2409
  712MPD2     H10582   4.094   3.870  14.358  1.0955  2.0161 -0.0518
  712MPD2    H110583   4.498   3.847  14.492 -0.7994  1.8079  0.3268
  712MPD2    H210584   4.271   3.491  14.465 -0.0466 -0.1560  3.3726
  712MPD2    H310585   4.467   3.605  14.540  0.2815 -1.0550 -2.5904
  712MPD2     N10586   4.315   4.011  14.402 -0.6508 -0.6969 -0.2768
  712MPD2    H510587   4.410   4.043  14.418 -1.3922  0.4547  1.9001
  712MPD2    N110588   4.045   3.609  14.365 -0.3136  0.2283 -0.0246
  712MPD2    H710589   3.981   3.671  14.316  1.4321  1.5596 -0.6239
  713TMC3    C110590   4.251   4.241  14.327  0.0485  0.4031  0.7089
  713TMC3    C210591   4.365   4.259  14.259  0.3272  0.0216  0.1288
  713TMC3    C310592   4.388   4.378  14.188 -0.0602  0.3206 -0.0806
  713TMC3    C410593   4.150   4.331  14.324  0.0990 -0.1825  0.1424
  713TMC3    C510594   4.174   4.444  14.256 -0.2919  0.5783  0.4998
  713TMC3    C610595   4.279   4.468  14.180  0.9962  0.3524 -0.3150
  713TMC3     C10596   4.212   4.097  14.362 -0.3357 -0.3509  0.3400
  713TMC3     O10597   4.094   4.087  14.388  0.2072 -0.1513  0.4323
  713TMC3     H10598   4.432   4.173  14.257  0.6131  0.2415  0.2644
  713TMC3    H110599   4.054   4.330  14.374 -0.9888  1.3903 -1.9013
  713TMC3    H210600   4.283   4.552  14.111  2.1143  0.5882  0.0354
  713TMC3    C710601   4.083   4.559  14.264  0.3199 -0.8890 -0.0249
  713TMC3    C810602   4.460   4.368  14.067  0.1051  1.0160  0.2516
  713TMC3    O110603   4.150   4.660  14.250 -0.5304 -0.6639 -0.6437
  713TMC3    O210604   4.412   4.417  13.963 -0.3324 -0.2498 -0.1356
  714MPD2     C10605   1.262   2.557   1.977  0.5416 -0.1288 -0.2620
  714MPD2    C110606   1.264   2.489   1.860  0.1639  0.8281  0.2084
  714MPD2    C210607   1.157   2.487   1.772  0.1353  0.1412 -0.4522
  714MPD2    C310608   1.040   2.552   1.810  0.1704 -0.3379  0.7627
  714MPD2    C410609   1.038   2.617   1.935 -0.2921  0.5913 -0.2892
  714MPD2    C510610   1.144   2.615   2.022 -0.3853  0.2152  0.0428
  714MPD2     H10611   1.155   2.422   1.685 -0.4859 -1.2575  0.6066
  714MPD2    H110612   0.949   2.660   1.980 -0.1426 -0.9270  1.4611
  714MPD2    H210613   1.348   2.557   2.042  0.7098  1.9863 -0.4772
  714MPD2    H310614   1.140   2.653   2.123  0.5555  0.5633 -0.0517
  714MPD2     N10615   0.932   2.546   1.721 -0.1825  0.4988  0.2900
  714MPD2    H510616   0.937   2.491   1.636 -0.0455 -0.1584  0.7156
  714MPD2    N110617   1.392   2.431   1.841 -0.1553 -0.0315  0.4058
  714MPD2    H710618   1.467   2.450   1.906  0.2916 -0.1610 -0.0697
  715TMC3    C110619   1.586   2.354   1.717 -0.0115 -0.5934 -0.3250
  715TMC3    C210620   1.630   2.264   1.628  0.0611 -0.4928 -0.0475
  715TMC3    C310621   1.760   2.272   1.598 -0.0398 -0.0362 -0.7767
  715TMC3    C410622   1.661   2.442   1.782  0.6247  0.8365  0.0187
  715TMC3    C510623   1.794   2.438   1.757 -0.3973  0.0659 -0.2702
  715TMC3    C610624   1.851   2.354   1.662 -0.2912  0.1306 -0.0831
  715TMC3     C10625   1.439   2.365   1.729  0.8032 -0.3130 -0.4833
  715TMC3     O10626   1.373   2.301   1.650  0.1219 -0.1204  0.5338
  715TMC3     H10627   1.565   2.205   1.565  1.4405 -3.8658  1.7015
  715TMC3    H110628   1.618   2.521   1.842 -0.4345 -0.8080  1.4015
  715TMC3    H210629   1.952   2.369   1.626 -0.3724  1.1463  0.0905
  715TMC3    C710630   1.887   2.511   1.837 -1.1233 -0.4107 -0.3303
  715TMC3    C810631   1.808   2.186   1.491 -0.6184  0.3475  0.0247
  715TMC3    O110632   2.000   2.526   1.792 -0.4067  0.1901  0.0980
  715TMC3    O210633   1.728   2.143   1.407  0.0076  0.4771  0.3714
  716MPD2     C10634   1.342   0.490   9.543  0.4540 -0.6867 -0.6864
  716MPD2    C110635   1.208   0.505   9.528  0.2457 -0.3032  0.2563
  716MPD2    C210636   1.138   0.435   9.433 -0.2623  0.4374  0.4761
  716MPD2    C310637   1.207   0.337   9.358 -0.2464 -0.2338 -0.2485
  716MPD2    C410638   1.342   0.325   9.377 -0.0795 -0.1510  0.1233
  716MPD2    C510639   1.408   0.401   9.467 -0.3809 -0.5325  0.1055
  716MPD2     H10640   1.033   0.453   9.415 -0.7297 -0.9254  1.8353
  716MPD2    H110641   1.404   0.247   9.334 -0.6838 -0.0426 -0.9429
  716MPD2    H210642   1.398   0.535   9.624 -0.8770 -0.3305  0.0368
  716MPD2    H310643   1.506   0.374   9.503  0.9656  1.7152 -1.8085
  716MPD2     N10644   1.131   0.253   9.274 -0.2055  1.1139  0.3369
  716MPD2    H510645   1.034   0.281   9.270 -0.0117  1.6373 -0.9092
  716MPD2    N110646   1.149   0.599   9.617  0.1825  0.4962  0.1128
  716MPD2    H710647   1.211   0.650   9.679 -1.1500  2.5527 -0.2747
  717TMC3    C110648   1.072   0.113   9.090  0.0904  0.8999  0.2163
  717TMC3    C210649   0.939   0.131   9.122  0.5508  0.3622  0.2221
  717TMC3    C310650   0.846   0.072   9.034  0.4267  0.0114  0.5454
  717TMC3    C410651   1.109   0.061   8.963  0.2459 -1.0109 -0.4751
  717TMC3    C510652   1.015   0.021   8.877 -0.5007 -0.0282  0.3715
  717TMC3    C610653   0.883   0.030   8.910 -0.2410  0.7400 -0.2483
  717TMC3     C10654   1.180   0.168   9.179 -0.8799 -0.4133  0.3852
  717TMC3     O10655   1.293   0.140   9.152  0.3772  0.2039  0.5551
  717TMC3     H10656   0.897   0.184   9.207  0.1486  1.2334 -0.5134
  717TMC3    H110657   1.210   0.065   8.925  0.4418 -0.0120  0.1306
  717TMC3    H210658   0.811   4.715   8.849  0.5944 -1.0428  0.3361
  717TMC3    C710659   1.058   4.687   8.757 -0.4972  0.7383  0.5643
  717TMC3    C810660   0.713   0.070   9.086 -0.0733 -0.1523 -0.2881
  717TMC3    O110661   1.167   4.638   8.747 -0.0372 -0.6764 -0.3447
  717TMC3    O210662   0.675   0.171   9.145 -0.1062  0.2498  0.1960
  718MPD2     C10663   0.217   4.128  12.332  0.5819 -0.1583 -0.2005
  718MPD2    C110664   0.261   4.000  12.336  0.3440  0.9051 -0.2327
  718MPD2    C210665   0.273   3.940  12.459  0.5258 -0.2654  0.5074
  718MPD2    C310666   0.261   4.011  12.575  0.4073 -0.1851  0.1190
  718MPD2    C410667   0.236   4.151  12.570 -0.2429  0.1059  0.4330
  718MPD2    C510668   0.210   4.209  12.450  0.0049  0.0203  0.1952
  718MPD2     H10669   0.315   3.842  12.477  2.1051  0.4623  0.8172
  718MPD2    H110670   0.228   4.217  12.656  0.2935  2.3413 -1.2180
  718MPD2    H210671   0.202   4.176  12.236 -0.4901 -0.3701 -0.1366
  718MPD2    H310672   0.177   4.312  12.460 -1.8923 -0.5216 -0.5466
  718MPD2     N10673   0.272   3.945  12.700  0.7269 -0.1954  0.8906
  718MPD2    H510674   0.274   3.844  12.689  0.6386  0.0947 -1.8952
  718MPD2    N110675   0.298   3.933  12.220  0.5799  0.1370 -0.3898
  718MPD2    H710676   0.301   3.992  12.138 -2.8039 -3.2654 -2.9578
  719TMC3    C110677   0.444   3.776  12.119 -0.2653 -0.4432 -0.0117
  719TMC3    C210678   0.508   3.667  12.162 -0.5793 -0.5644  0.6700
  719TMC3    C310679   0.641   3.669  12.201  0.5168 -0.2298  0.0390
  719TMC3    C410680   0.516   3.889  12.095 -0.2299  0.0818 -0.0809
  719TMC3    C510681   0.646   3.893  12.136  0.3995  0.5288 -0.1375
  719TMC3    C610682   0.707   3.789  12.192  0.4018  0.1382 -0.5720
  719TMC3     C10683   0.335   3.801  12.211  0.8934 -0.3750 -0.4714
  719TMC3     O10684   0.329   3.710  12.297 -0.5771  0.0523  0.2004
  719TMC3     H10685   0.452   3.575  12.168  0.3586 -1.2464 -0.9206
  719TMC3    H110686   0.476   3.972  12.037 -2.7460  0.5664  2.3324
  719TMC3    H210687   0.812   3.790  12.221 -0.1416  0.8331  1.3169
  719TMC3    C710688   0.705   4.018  12.175  0.8743  0.0626 -0.6565
  719TMC3    C810689   0.658   3.589  12.329 -0.2937 -0.5771  0.5244
  719TMC3    O110690   0.827   4.021  12.178 -0.6100  0.0574 -0.6584
  719TMC3    O210691   0.577   3.500  12.351 -0.3186  0.1157 -0.6286
  720MPD2     C10692   3.937   0.327  14.035  0.0668 -0.5026  0.0553
  720MPD2    C110693   3.957   0.442  13.971  0.6951  0.4194  0.9568
  720MPD2    C210694   4.066   0.526  14.010  0.5351  0.0113 -0.0196
  720MPD2    C310695   4.147   0.490  14.115  0.0312 -0.5187  0.2916
  720MPD2    C410696   4.131   0.364  14.174  0.2049  0.6653  0.0816
  720MPD2    C510697   4.028   0.287  14.129  1.1174  0.4155 -0.0124
  720MPD2     H10698   4.080   0.619  13.957 -1.1506 -1.2034 -2.6213
  720MPD2    H110699   4.194   0.333  14.256  1.6970  0.8431 -1.0030
  720MPD2    H210700   3.851   0.262  14.019  2.0102 -3.1821  0.5193
  720MPD2    H310701   4.009   0.195  14.184  0.0614 -0.3670 -1.6807
  720MPD2     N10702   4.262   0.577  14.148  0.2410  0.0809  0.5623
  720MPD2    H510703   4.256   0.670  14.109  0.5666  0.3267  1.0930
  720MPD2    N110704   3.876   0.482  13.860  0.4409 -0.0339 -0.2291
  720MPD2    H710705   3.900   0.569  13.815  2.3023 -1.3684 -1.8361
  721TMC3    C110706   4.461   0.640  14.260  0.3888 -0.4187 -0.0255
  721TMC3    C210707   4.392   0.750  14.298  0.5885 -0.4952 -0.3796
  721TMC3    C310708   4.471   0.842  14.356  0.2178 -0.0726  0.1403
  721TMC3    C410709   4.596   0.634  14.232  0.7625  0.3349 -0.6747
  721TMC3    C510710   4.671   0.738  14.283  0.7051  0.3359 -0.1915
  721TMC3    C610711   4.612   0.843  14.349  0.0307 -0.1756 -0.2060
  721TMC3     C10712   4.374   0.527  14.222  0.5303 -0.3904 -0.1247
  721TMC3     O10713   4.408   0.409  14.226 -0.7700 -0.2335 -0.0805
  721TMC3     H10714   4.288   0.742  14.331  1.3130 -0.1081  2.0329
  721TMC3    H110715   4.641   0.552  14.177 -0.5708 -0.6347 -0.3278
  721TMC3    H210716   4.676   0.926  14.376  0.1129 -0.6074  0.9114
  721TMC3    C710717   0.069   0.757  14.241  0.0035  0.5061 -0.3089
  721TMC3    C810718   4.404   0.932  14.455 -0.0993  0.3660  0.6425
  721TMC3    O110719   0.104   0.872  14.239 -0.0428  0.5059  0.3928
  721TMC3    O210720   4.291   0.964  14.424  0.3609  0.3930  0.0412
  722MPD2     C10721   3.037   4.249  13.739 -0.4263  0.4877 -0.4241
  722MPD2    C110722   3.047   4.366  13.675  0.1912  0.2353  0.0556
  722MPD2    C210723   2.957   4.389  13.570  0.5201  0.6379 -0.3897
  722MPD2    C310724   2.849   4.304  13.536 -0.2781 -0.5014  0.6747
  722MPD2    C410725   2.832   4.190  13.608 -0.7782  0.9532  0.3935
  722MPD2    C510726   2.929   4.166  13.704  0.2220  0.2320 -0.1135
  722MPD2     H10727   2.967   4.487  13.524  0.9217  0.2745 -1.0731
  722MPD2    H110728   2.746   4.127  13.589 -1.4357  2.5783 -2.0605
  722MPD2    H210729   3.093   4.215  13.826  0.3245 -0.1932 -1.1748
  722MPD2    H310730   2.937   4.063  13.739 -0.1867 -0.2200 -1.3473
  722MPD2     N10731   2.754   4.342  13.437 -0.0082 -0.0102 -0.4366
  722MPD2    H510732   2.748   4.441  13.414 -1.2012  0.3116  1.2242
  722MPD2    N110733   3.125   4.478  13.718 -0.3061  0.0358 -0.4990
  722MPD2    H710734   3.119   4.557  13.655 -1.3596 -2.4950 -3.5631
  723TMC3    C110735   2.539   4.334  13.322  0.4614 -0.1207 -0.0640
  723TMC3    C210736   2.420   4.270  13.325 -0.1778 -0.0340 -0.5244
  723TMC3    C310737   2.306   4.349  13.321  0.3515  0.5018  0.0836
  723TMC3    C410738   2.555   4.470  13.297  0.1664 -0.0004 -1.0413
  723TMC3    C510739   2.442   4.535  13.302  0.4552 -0.1061  0.0085
  723TMC3    C610740   2.318   4.483  13.311  0.1250  0.3711 -0.2705
  723TMC3     C10741   2.654   4.261  13.383  0.1132  0.2192  0.2555
  723TMC3     O10742   2.650   4.141  13.390  0.4806  0.0959  0.0168
  723TMC3     H10743   2.418   4.164  13.350  1.1872 -0.2124 -1.2040
  723TMC3    H110744   2.649   4.524  13.292  0.0854 -0.1043 -3.4855
  723TMC3    H210745   2.237   4.554  13.302 -0.0056  0.3373  0.6040
  723TMC3    C710746   2.443   4.648  13.210 -0.3797 -0.9345 -0.3582
  723TMC3    C810747   2.184   4.291  13.272  0.8390  0.5889 -0.5725
  723TMC3    O110748   2.463   4.627  13.090 -0.1362  0.2734 -0.1478
  723TMC3    O210749   2.082   4.356  13.277  0.4885 -0.8426  0.7544
  724TMC3    C110750   3.216   2.720  10.889  0.8180  0.1696  0.2131
  724TMC3    C210751   3.132   2.746  10.784 -0.1566  0.0352 -0.2743
  724TMC3    C310752   3.157   2.845  10.702  0.1642 -0.1077  0.4745
  724TMC3    C410753   3.321   2.804  10.913  0.1398 -0.6192 -0.0425
  724TMC3    C510754   3.354   2.900  10.824  0.0212 -0.8199 -0.1668
  724TMC3    C610755   3.266   2.933  10.718 -0.1169 -0.0921  0.3144
  724TMC3     C10756   3.162   2.631  10.991  0.6066  0.7711  0.3845
  724TMC3     O10757   3.160   2.676  11.105 -0.0071 -0.5724  0.4086
  724TMC3     H10758   3.030   2.709  10.791 -0.3426  0.3058 -1.5741
  724TMC3    H110759   3.402   2.769  10.975 -1.9134  1.3379  3.7342
  724TMC3    H210760   3.294   3.016  10.654 -0.1916  0.3851  0.9006
  724TMC3    C710761   3.465   2.989  10.856  0.2585  0.3673  0.5044
  724TMC3    C810762   3.053   2.872  10.602  0.1242  0.0283 -0.3175
  724TMC3    O110763   3.514   3.038  10.760  0.1205  0.5430 -0.1562
  724TMC3    O210764   2.950   2.808  10.617  0.1496  0.0104 -0.0806
  725TMC3    C110765   4.392   0.920  12.492  0.4130 -0.9920  0.2505
  725TMC3    C210766   4.307   0.914  12.389 -0.0587  0.7238 -0.8302
  725TMC3    C310767   4.291   0.790  12.332 -0.6793 -0.4309 -1.2365
  725TMC3    C410768   4.482   0.821  12.520 -0.1463  0.1266  0.5456
  725TMC3    C510769   4.461   0.699  12.462  0.0083 -0.2746  0.2375
  725TMC3    C610770   4.359   0.680  12.372  0.7977 -0.2959 -0.4830
  725TMC3     C10771   4.415   1.053  12.532 -0.2575 -0.1440  0.3812
  725TMC3     O10772   4.506   1.119  12.486 -0.0120 -0.0698  0.0488
  725TMC3     H10773   4.245   0.995  12.354  1.5024  1.3516 -2.1174
  725TMC3    H110774   4.561   0.834  12.594 -0.4418 -1.4532  1.1377
  725TMC3    H210775   4.333   0.586  12.326 -0.8932  0.3470 -0.8477
  725TMC3    C710776   4.572   0.613  12.468  0.2451 -0.0605  0.1545
  725TMC3    C810777   4.190   0.785  12.217  0.0036  0.1874 -0.2015
  725TMC3    O110778   4.681   0.661  12.495 -0.3272  1.0193 -0.0750
  725TMC3    O210779   4.138   0.674  12.201 -0.5711  0.0627 -0.0566
  726MPD2     C10780   2.324   2.742  10.908 -0.2096  0.0123 -0.5821
  726MPD2    C110781   2.200   2.784  10.860 -0.0617 -0.0639  0.2027
  726MPD2    C210782   2.091   2.706  10.872 -0.3641 -0.3345 -0.3251
  726MPD2    C310783   2.113   2.580  10.926 -0.4948  0.1453  0.4810
  726MPD2    C410784   2.234   2.529  10.954 -0.4055 -0.2981 -0.0227
  726MPD2    C510785   2.337   2.616  10.953 -0.3323 -0.6460  0.1294
  726MPD2     H10786   1.987   2.726  10.850  0.1927  2.9232  0.0754
  726MPD2    H110787   2.252   2.430  10.994  2.5223  0.4520  0.4850
  726MPD2    H210788   2.412   2.802  10.888  0.0733 -0.1853  0.1045
  726MPD2    H310789   2.436   2.573  10.969  0.1168  0.5459  0.5244
  726MPD2     N10790   1.990   2.497  10.953  0.1229  0.2860  0.9258
  726MPD2    H510791   1.901   2.523  10.913  0.0614  0.7015  1.3397
  726MPD2    N110792   2.174   2.908  10.802 -0.7649  0.0699 -0.2955
  726MPD2    H710793   2.084   2.908  10.756 -1.2496  3.1047  0.6714
  727TMC3    C110794   2.209   3.128  10.744 -0.0964  0.2798 -1.1484
  727TMC3    C210795   2.217   3.246  10.815 -0.4693 -0.2738 -0.1826
  727TMC3    C310796   2.141   3.350  10.772  0.6877 -0.9964  0.3610
  727TMC3    C410797   2.128   3.120  10.635 -0.0179 -0.2435  0.2822
  727TMC3    C510798   2.063   3.232  10.588 -0.2710 -1.0137  0.6962
  727TMC3    C610799   2.067   3.350  10.658  0.2157 -0.3974  0.0235
  727TMC3     C10800   2.256   3.012  10.814  0.0247  0.9253  0.5321
  727TMC3     O10801   2.348   3.021  10.896  0.0680 -0.0399 -0.4710
  727TMC3     H10802   2.268   3.242  10.911 -0.5191  1.6030 -0.0830
  727TMC3    H110803   2.137   3.026  10.583  2.4041 -1.2771  2.5619
  727TMC3    H210804   1.997   3.430  10.635 -0.4875 -1.1978 -0.6225
  727TMC3    C710805   1.995   3.209  10.460  0.7122  0.4247 -0.9034
  727TMC3    C810806   2.167   3.474  10.845 -0.1235 -0.5887 -0.3523
  727TMC3    O110807   2.029   3.109  10.398 -0.2607  0.0449  0.2403
  727TMC3    O210808   2.231   3.464  10.950 -0.1508  0.1223 -0.6120
  728TMC3    C110809   1.731   1.446  15.162  0.2012 -0.4687 -0.3290
  728TMC3    C210810   1.861   1.478  15.150  0.1635 -0.5832 -0.5078
  728TMC3    C310811   1.913   1.498  15.027  0.3358  0.5011  0.1390
  728TMC3    C410812   1.650   1.432  15.048 -0.7068 -0.5239 -0.3813
  728TMC3    C510813   1.709   1.467  14.931 -0.2634 -0.2543 -0.3793
  728TMC3    C610814   1.837   1.502  14.918 -0.2345  0.7386  0.0069
  728TMC3     C10815   1.688   1.452  15.304  0.4941 -0.4136  0.1247
  728TMC3     O10816   1.746   1.541  15.372  0.1851  0.1314  0.1937
  728TMC3     H10817   1.930   1.484  15.233 -1.6199 -0.5659  0.9618
  728TMC3    H110818   1.543   1.418  15.054 -1.1530  3.3479  0.6457
  728TMC3    H210819   1.874   1.530  14.820 -4.1514  1.2507 -1.3308
  728TMC3    C710820   1.617   1.517  14.830  0.6113 -0.1885  0.0238
  728TMC3    C810821   2.054   1.540  15.007 -0.2549  0.4659 -0.1288
  728TMC3    O110822   1.505   1.472  14.836 -0.1393  0.4960  0.4826
  728TMC3    O210823   2.081   1.595  14.902  0.2258 -0.0535 -0.3051
  729MPD2     C10824   3.750   2.813  16.442 -0.7194  0.6496  0.1394
  729MPD2    C110825   3.859   2.786  16.527 -0.1203 -0.3803  0.3838
  729MPD2    C210826   3.830   2.765  16.662 -0.1506 -0.2659  0.2933
  729MPD2    C310827   3.697   2.785  16.714  0.5571 -0.2069  0.1915
  729MPD2    C410828   3.599   2.806  16.630  0.6580 -0.2880  0.6536
  729MPD2    C510829   3.621   2.814  16.492  0.1274 -1.1371 -0.2189
  729MPD2     H10830   3.908   2.737  16.731 -0.3198  2.2014  1.4915
  729MPD2    H110831   3.496   2.793  16.661  0.9335 -2.8192  0.5504
  729MPD2    H210832   3.773   2.819  16.336 -2.3230 -1.8942 -0.3598
  729MPD2    H310833   3.535   2.815  16.426  0.1122  4.8565 -0.1945
  729MPD2     N10834   3.688   2.768  16.855 -0.2221 -0.9905  0.0656
  729MPD2    H510835   3.772   2.768  16.911 -0.2343  1.3938  0.0947
  729MPD2    N110836   3.992   2.785  16.473 -0.0052  0.0132  0.0712
  729MPD2    H710837   4.007   2.792  16.373 -2.2376  2.2408 -0.1049
  730TMC3    C110838   3.597   2.783  17.065 -0.2758 -0.9890  0.8680
  730TMC3    C210839   3.714   2.723  17.111  0.1793  0.0585  0.6277
  730TMC3    C310840   3.764   2.781  17.229  0.6147 -0.2758  0.6437
  730TMC3    C410841   3.542   2.889  17.131 -0.2655  0.8269  0.2666
  730TMC3    C510842   3.577   2.925  17.257 -0.4224  0.1869  0.6467
  730TMC3    C610843   3.693   2.866  17.305 -0.2934  0.4670 -0.3772
  730TMC3     C10844   3.569   2.775  16.923  0.3720 -0.3409  0.2503
  730TMC3     O10845   3.466   2.836  16.889 -0.7219  0.4282  0.4492
  730TMC3     H10846   3.770   2.652  17.052 -0.5264  1.8992 -2.2495
  730TMC3    H110847   3.456   2.941  17.092 -0.1643  1.4214  0.8258
  730TMC3    H210848   3.728   2.895  17.404  1.2114  1.1206 -1.1090
  730TMC3    C710849   3.580   3.074  17.266  0.5425 -0.3885 -0.4944
  730TMC3    C810850   3.895   2.835  17.201  0.6659  0.5216 -0.4167
  730TMC3    O110851   3.555   3.143  17.169  0.1845  0.0944  0.1202
  730TMC3    O210852   3.957   2.784  17.110  0.3113  0.1470 -0.2546
  731MPD2     C10853   4.529   4.624  12.146  0.7213 -0.7012  0.4281
  731MPD2    C110854   4.435   4.674  12.054 -0.3540 -0.2964 -0.2007
  731MPD2    C210855   4.322   4.719  12.112 -0.6331 -0.0067 -1.1686
  731MPD2    C310856   4.305   4.736  12.251 -0.2821  0.1212  0.0158
  731MPD2    C410857   4.399   4.684  12.336 -0.0088  0.2922 -0.3319
  731MPD2    C510858   4.511   4.625  12.285 -0.1003  0.4348  0.8833
  731MPD2     H10859   4.253   0.014  12.035 -1.0365 -0.8420 -1.1804
  731MPD2    H110860   4.383   4.690  12.443  0.0834 -1.3922 -0.2348
  731MPD2    H210861   4.627   4.596  12.110  0.9275 -1.2343  1.4197
  731MPD2    H310862   4.592   4.604  12.353  0.1679 -3.2782 -0.5754
  731MPD2     N10863   4.186   0.045  12.310  0.2800  0.3918  0.2467
  731MPD2    H510864   4.181   0.060  12.410 -1.4914  1.7412 -0.0455
  731MPD2    N110865   4.441   4.650  11.918  0.4485 -0.0716  0.0405
  731MPD2    H710866   4.354   4.638  11.867  1.2930  0.2893 -1.5099
  732TMC3    C110867   4.533   4.660  11.702  0.1365 -1.0105  0.0295
  732TMC3    C210868   4.402   4.683  11.673  0.3760 -0.2472 -0.3712
  732TMC3    C310869   4.370   0.038  11.578 -0.5613  0.6838  0.8851
  732TMC3    C410870   4.639   4.723  11.639  0.0936  0.0822 -0.0644
  732TMC3    C510871   4.607   0.073  11.540 -0.1164  1.2381  0.2403
  732TMC3    C610872   4.473   0.097  11.506  0.2380  0.2881  0.5112
  732TMC3     C10873   4.559   4.632  11.844  0.3704 -0.6258 -0.6419
  732TMC3     O10874   4.674   4.651  11.879 -0.1297  0.1844  0.1771
  732TMC3     H10875   4.321   4.622  11.712  1.5325 -1.3251  0.3160
  732TMC3    H110876   0.003   4.708  11.671  0.0328 -2.2969 -1.0288
  732TMC3    H210877   4.447   0.177  11.438  0.6988 -1.3454 -1.5730
  732TMC3    C710878   4.701   0.184  11.502 -0.6031  0.2961 -0.3247
  732TMC3    C810879   4.239   0.101  11.564 -0.2265  0.5409  0.0913
  732TMC3    O110880   4.667   0.243  11.405  0.1292 -0.0049 -0.4213
  732TMC3    O210881   4.226   0.197  11.492 -0.4770  0.1941 -0.4635
  733TMC3    C110882   0.277   3.813  13.141 -0.2120 -0.5790 -0.4773
  733TMC3    C210883   0.225   3.894  13.047  0.0931  0.1489 -0.5322
  733TMC3    C310884   0.271   3.881  12.918 -0.0907 -0.9552 -0.0685
  733TMC3    C410885   0.372   3.714  13.113  0.0403 -0.0678 -0.3855
  733TMC3    C510886   0.417   3.715  12.985  0.0414 -1.0499 -0.3747
  733TMC3    C610887   0.372   3.793  12.885  0.2561 -1.1143  0.3095
  733TMC3     C10888   0.176   3.783  13.240  0.0855 -0.1307 -0.3031
  733TMC3     O10889   0.062   3.804  13.199  0.6226  0.1225 -0.0782
  733TMC3     H10890   0.155   3.970  13.080  0.6681  0.0116  0.9973
  733TMC3    H110891   0.407   3.649  13.193  0.5652  0.0535 -0.5180
  733TMC3    H210892   0.430   3.801  12.794 -0.4690 -0.2922 -0.0855
  733TMC3    C710893   0.528   3.627  12.955  0.2665 -0.3401 -0.5205
  733TMC3    C810894   0.251   3.989  12.825  0.6823 -0.0054  0.6511
  733TMC3    O110895   0.604   3.587  13.043  0.5884  0.4828 -0.2151
  733TMC3    O210896   0.207   4.096  12.866  0.3781  0.7558 -0.7810
  734MPD2     C10897   1.471   0.837  12.304 -0.3250 -0.0517  0.2479
  734MPD2    C110898   1.527   0.762  12.201  0.6508  0.7381  0.4236
  734MPD2    C210899   1.623   0.817  12.116 -0.1180 -0.3115 -0.5367
  734MPD2    C310900   1.673   0.947  12.150 -1.0352  0.1028 -0.0099
  734MPD2    C410901   1.618   1.015  12.255  0.0907 -0.0801  0.3044
  734MPD2    C510902   1.518   0.962  12.329 -0.1513  0.1476  1.0800
  734MPD2     H10903   1.665   0.776  12.025  0.0237 -2.1071  0.3366
  734MPD2    H110904   1.651   1.112  12.293 -1.7174  1.2576 -1.6106
  734MPD2    H210905   1.397   0.795  12.371 -0.9490  0.9267  0.1821
  734MPD2    H310906   1.477   1.016  12.413 -1.1014  1.6534 -0.3691
  734MPD2     N10907   1.785   0.987  12.068  0.0398  0.0749 -0.2882
  734MPD2    H510908   1.804   0.924  11.991  1.9052  1.7382 -1.1823
  734MPD2    N110909   1.482   0.633  12.181 -0.3626 -0.6326  0.3696
  734MPD2    H710910   1.420   0.593  12.251 -0.1936 -1.8308 -0.1514
  735TMC3    C110911   1.513   0.403  12.109 -0.0505 -0.2373 -0.1106
  735TMC3    C210912   1.579   0.327  12.019 -0.0040  0.3155 -0.4266
  735TMC3    C310913   1.670   0.230  12.061  0.4432 -0.3970  0.5953
  735TMC3    C410914   1.531   0.379  12.239 -0.0016 -0.0236 -0.4898
  735TMC3    C510915   1.603   0.279  12.283  0.6445 -0.3164  0.0620
  735TMC3    C610916   1.673   0.200  12.192 -0.6477  0.5760  0.3659
  735TMC3     C10917   1.522   0.548  12.076  0.4356 -0.5146  0.2485
  735TMC3     O10918   1.593   0.568  11.980  0.3114 -0.5623  0.5249
  735TMC3     H10919   1.575   0.355  11.914 -0.8134  1.2950 -0.1433
  735TMC3    H110920   1.487   0.438  12.319  0.1553  0.2413 -0.6009
  735TMC3    H210921   1.742   0.124  12.226 -2.5245 -2.7298 -3.1565
  735TMC3    C710922   1.678   0.307  12.397 -0.8577  0.4010  0.3902
  735TMC3    C810923   1.792   0.237  11.983 -0.2906 -0.2062  0.3155
  735TMC3    O110924   1.681   0.421  12.441  0.5426  0.2346  0.2799
  735TMC3    O210925   1.880   0.155  12.003 -0.0344 -1.1384  0.4076
  736MPD2     C10926   1.800   0.111  12.674 -0.3152 -0.0512 -0.7572
  736MPD2    C110927   1.802   0.193  12.565  0.0821  0.0858 -0.1567
  736MPD2    C210928   1.911   0.277  12.543 -0.1438 -0.1009 -0.8121
  736MPD2    C310929   2.033   0.264  12.615 -0.0373 -0.1819 -0.2889
  736MPD2    C410930   2.036   0.171  12.714  0.0739  0.6579 -0.0141
  736MPD2    C510931   1.918   0.106  12.748 -0.0376  0.2186 -0.2516
  736MPD2     H10932   1.911   0.341  12.455  1.5844  0.0747 -0.6835
  736MPD2    H110933   2.130   0.149  12.763 -0.6814  0.0717  1.1849
  736MPD2    H210934   1.712   0.053  12.700 -0.9336  1.7074  1.0826
  736MPD2    H310935   1.930   0.035  12.830  0.3542 -0.4739 -0.9098
  736MPD2     N10936   2.146   0.347  12.592  0.0255  0.2519 -0.2692
  736MPD2    H510937   2.237   0.325  12.631 -0.9973 -1.6203  1.0781
  736MPD2    N110938   1.691   0.195  12.473  0.1299  0.0205 -0.3032
  736MPD2    H710939   1.628   0.118  12.458 -1.1608  0.7180  1.6220
  737TMC3    C110940   2.277   0.514  12.504 -0.4351  0.0715  0.3516
  737TMC3    C210941   2.287   0.644  12.470  0.1831 -1.1072 -0.0197
  737TMC3    C310942   2.379   0.679  12.381  0.3711  0.1628  0.1364
  737TMC3    C410943   2.376   0.424  12.466  0.1442 -0.3883  0.1209
  737TMC3    C510944   2.486   0.470  12.402  0.4171 -0.1006 -0.3431
  737TMC3    C610945   2.490   0.600  12.356  0.7703  0.4042  0.5297
  737TMC3     C10946   2.145   0.469  12.522 -0.2175  0.6871 -0.1110
  737TMC3     O10947   2.049   0.528  12.478  0.0363 -0.5358 -0.0038
  737TMC3     H10948   2.203   0.707  12.498  2.0863  0.8951  1.1822
  737TMC3    H110949   2.363   0.318  12.485  1.8970 -0.7477 -0.6477
  737TMC3    H210950   2.569   0.642  12.294  1.2475  0.1977  1.0011
  737TMC3    C710951   2.581   0.366  12.355  0.0499 -0.2909  0.5027
  737TMC3    C810952   2.346   0.805  12.312  0.1539  0.2400  0.2140
  737TMC3    O110953   2.582   0.264  12.419 -0.2087  0.0735 -0.5858
  737TMC3    O210954   2.261   0.880  12.362 -0.0482  0.3560 -0.5885
  738MPD2     C10955   3.194   0.106  15.481 -0.0744  0.3297 -0.0343
  738MPD2    C110956   3.210   4.729  15.404 -0.1146  0.5944 -0.1412
  738MPD2    C210957   3.322   4.718  15.324 -0.1548 -0.4977 -0.0731
  738MPD2    C310958   3.418   0.083  15.316  0.3163 -0.4938  0.9288
  738MPD2    C410959   3.393   0.196  15.391  0.1717  0.4774  0.8766
  738MPD2    C510960   3.290   0.199  15.477  0.2052  0.3798  0.0096
  738MPD2     H10961   3.333   4.631  15.260 -0.8923 -0.4705 -0.2361
  738MPD2    H110962   3.471   0.271  15.393  0.5028  0.1435  0.2944
  738MPD2    H210963   3.109   0.132  15.543 -2.0944  0.4237 -2.8264
  738MPD2    H310964   3.267   0.283  15.542  1.0273  0.8219 -0.2697
  738MPD2     N10965   3.539   0.076  15.242 -0.1934 -0.2107 -0.0166
  738MPD2    H510966   3.597   0.158  15.257 -1.3196  0.3576  1.2009
  738MPD2    N110967   3.126   4.614  15.422 -0.0147  0.6865 -0.1493
  738MPD2    H710968   3.160   4.531  15.373 -0.4407 -0.6341  1.7736
  739TMC3    C110969   3.707   0.010  15.091 -0.8116  0.8203  0.0945
  739TMC3    C210970   3.698   0.125  15.024 -0.7994  0.5023 -0.4856
  739TMC3    C310971   3.777   0.140  14.913  0.1115 -0.7838  0.5132
  739TMC3    C410972   3.801   4.656  15.055  0.0509 -0.1767 -0.2327
  739TMC3    C510973   3.883   4.687  14.951 -0.2935 -0.1701  0.9620
  739TMC3    C610974   3.871   0.057  14.870 -0.9418  0.8160  0.5426
  739TMC3     C10975   3.589   4.707  15.166 -0.5500 -0.2063  0.0206
  739TMC3     O10976   3.531   4.603  15.141 -0.6770  0.7766  0.0293
  739TMC3     H10977   3.624   0.203  15.040 -1.3452 -0.8624  3.5000
  739TMC3    H110978   3.802   4.561  15.107  0.4601 -0.6709 -1.1382
  739TMC3    H210979   3.902   0.048  14.767  0.0257  1.6204  0.7689
  739TMC3    C710980   3.959   4.576  14.903  0.2221 -0.5380 -0.8391
  739TMC3    C810981   3.734   0.246  14.830  0.1455  0.2114  0.1891
  739TMC3    O110982   3.940   4.464  14.943  0.1665 -0.3002 -0.1369
  739TMC3    O210983   3.634   0.306  14.850 -0.6809  0.5467  0.1884
  740TMC3    C110984   3.724   1.412  14.685  0.0573 -0.6443 -0.4763
  740TMC3    C210985   3.792   1.424  14.805  0.3065  0.2717 -0.0029
  740TMC3    C310986   3.926   1.445  14.792  0.3504  0.2932  0.5478
  740TMC3    C410987   3.784   1.429  14.563  0.3382 -0.7432  0.0071
  740TMC3    C510988   3.921   1.442  14.557  0.2700  0.6030 -0.1398
  740TMC3    C610989   3.993   1.457  14.672 -0.1591  0.1460 -0.0648
  740TMC3     C10990   3.583   1.462  14.696  0.1103 -0.0669  0.3598
  740TMC3     O10991   3.536   1.525  14.605  0.2430  0.7113 -0.3349
  740TMC3     H10992   3.748   1.411  14.903  1.4373  0.5431  0.5362
  740TMC3    H110993   3.718   1.422  14.477  2.1093  1.2472 -1.5098
  740TMC3    H210994   4.100   1.471  14.664  0.0822 -0.6313  1.7481
  740TMC3    C710995   3.986   1.356  14.462  0.4004 -0.2205 -0.1336
  740TMC3    C810996   4.005   1.435  14.906 -0.7747 -0.2245  0.2474
  740TMC3    O110997   4.084   1.296  14.506 -0.0631  0.2228 -0.4408
  740TMC3    O210998   3.962   1.371  15.004 -0.0454 -0.1408 -0.0050
  741TMC3    C110999   3.726   0.760  14.648  0.0777  1.4005  0.2246
  741TMC3    C211000   3.600   0.705  14.645 -0.0762  0.1031 -0.2683
  741TMC3    C311001   3.550   0.643  14.759  0.1924 -0.2591  0.3971
  741TMC3    C411002   3.801   0.749  14.760 -0.3351 -0.0784 -0.5245
  741TMC3    C511003   3.756   0.676  14.864 -0.6002 -0.5249  0.3359
  741TMC3    C611004   3.633   0.614  14.866 -0.6696 -0.0386 -0.0484
  741TMC3     C11005   3.793   0.794  14.529 -0.0791 -0.2301  0.4387
  741TMC3     O11006   3.914   0.802  14.522 -0.2213 -0.4138 -0.3432
  741TMC3     H11007   3.540   0.720  14.556 -0.2251  0.0101 -0.1823
  741TMC3    H111008   3.899   0.796  14.768 -0.3248  0.0496 -1.4492
  741TMC3    H211009   3.607   0.542  14.942 -0.4723 -1.0775 -0.9587
  741TMC3    C711010   3.837   0.673  14.981  0.4389  0.9465 -0.4165
  741TMC3    C811011   3.416   0.595  14.743  0.3763 -0.4208 -0.2924
  741TMC3    O111012   3.954   0.684  14.957  0.1782  0.3792  0.6137
  741TMC3    O211013   3.348   0.660  14.667 -0.0924  0.1548  0.1608
  742TMC3    C111014   3.025   3.547  15.777  0.2916  0.0674  0.0308
  742TMC3    C211015   2.964   3.566  15.662 -0.1436 -0.2871 -0.3821
  742TMC3    C311016   3.025   3.653  15.574 -0.1956 -0.7053  0.3759
  742TMC3    C411017   3.151   3.601  15.811 -0.4417  0.2822  0.0709
  742TMC3    C511018   3.212   3.669  15.712 -0.4910 -0.0796  0.1984
  742TMC3    C611019   3.152   3.701  15.593 -0.5215  0.2414  0.1830
  742TMC3     C11020   2.964   3.442  15.861  0.7694  0.4937  0.3366
  742TMC3     O11021   3.000   3.437  15.979  0.2645  0.3083  0.8999
  742TMC3     H11022   2.859   3.548  15.641 -0.0746 -1.0608 -0.0571
  742TMC3    H111023   3.203   3.566  15.900  0.0616  1.1779  0.1253
  742TMC3    H211024   3.206   3.767  15.526 -2.2543 -0.3056 -1.7847
  742TMC3    C711025   3.357   3.674  15.709  0.6740  0.0327 -0.0623
  742TMC3    C811026   2.946   3.710  15.464  1.2805 -0.4057 -0.4424
  742TMC3    O111027   3.403   3.695  15.600  0.6315 -0.3500 -0.0388
  742TMC3    O211028   2.848   3.648  15.432  0.5761 -0.1490  0.0862
  743MPD2     C11029   1.101   0.038   1.999 -0.1101 -0.6931  0.5535
  743MPD2    C111030   1.066   4.698   1.893  0.4014 -0.3759 -0.6179
  743MPD2    C211031   1.173   4.651   1.824  0.4315 -0.3479  0.6446
  743MPD2    C311032   1.300   4.685   1.843  0.5604  0.0289  1.0393
  743MPD2    C411033   1.329   0.042   1.932 -0.5186  0.4073 -0.3803
  743MPD2    C511034   1.225   0.086   2.010 -0.6003  0.9297 -0.0185
  743MPD2     H11035   1.151   4.581   1.744  2.0448  1.6533 -1.5308
  743MPD2    H111036   1.426   0.086   1.951  0.1143 -0.6604 -1.1023
  743MPD2    H211037   1.029   0.070   2.073 -1.5646 -1.0312 -0.7111
  743MPD2    H311038   1.237   0.160   2.088 -0.7076  0.2492  0.6425
  743MPD2     N11039   1.397   4.630   1.755 -0.5894  0.8020 -0.4897
  743MPD2    H511040   1.358   4.560   1.693  0.1808  1.8471 -2.1396
  743MPD2    N111041   0.930   4.699   1.863  0.0318  0.5134 -0.1564
  743MPD2    H711042   0.881   0.029   1.920  1.0523 -0.2061  1.5867
  744TMC3    C111043   0.746   4.660   1.724 -0.2465  0.5248 -0.1381
  744TMC3    C211044   0.703   0.047   1.765 -0.1802  0.7266  0.2783
  744TMC3    C311045   0.609   0.113   1.684 -0.1028  0.5539  0.0117
  744TMC3    C411046   0.715   4.615   1.597 -0.5081  0.6165  0.6014
  744TMC3    C511047   0.627   4.690   1.515 -0.0942 -0.5356  0.0366
  744TMC3    C611048   0.582   0.073   1.553  0.5501  0.2909  0.7956
  744TMC3     C11049   0.877   4.615   1.764 -0.0794 -0.3829 -0.0337
  744TMC3     O11050   0.927   4.515   1.713 -0.3129 -0.3124  0.4360
  744TMC3     H11051   0.733   0.087   1.862  1.2584  2.2691 -0.7968
  744TMC3    H111052   0.760   4.523   1.561  0.8217  1.8358 -0.8364
  744TMC3    H211053   0.512   0.125   1.489  0.0161 -0.8542  0.4435
  744TMC3    C711054   0.638   4.669   1.373 -0.6430 -0.5979 -0.5970
  744TMC3    C811055   0.573   0.247   1.714  0.1369  0.2417 -0.7910
  744TMC3    O111056   0.636   0.027   1.300 -0.9705  0.8288 -0.5542
  744TMC3    O211057   0.547   0.317   1.614 -0.6168 -0.3024  0.5707
  745TMC3    C111058   3.920   3.425  14.279  0.3116  0.5247 -0.5420
  745TMC3    C211059   3.855   3.324  14.339 -0.5194 -0.0195 -0.0287
  745TMC3    C311060   3.721   3.331  14.355 -0.2415 -0.2340  0.0510
  745TMC3    C411061   3.862   3.528  14.224 -0.1477 -0.7735 -0.1338
  745TMC3    C511062   3.728   3.515  14.209  0.1018 -0.5361  0.0611
  745TMC3    C611063   3.650   3.427  14.282  0.0036 -0.5478 -0.0517
  745TMC3     C11064   4.027   3.472  14.362  0.0576 -0.0539  0.8224
  745TMC3     O11065   4.083   3.384  14.425 -0.2643  0.2567  0.2178
  745TMC3     H11066   3.911   3.242  14.382 -0.0956  2.1695  3.6310
  745TMC3    H111067   3.908   3.618  14.184 -0.2380 -0.6081  0.1380
  745TMC3    H211068   3.542   3.418  14.276 -0.0560 -0.2101  0.4276
  745TMC3    C711069   3.666   3.577  14.102 -0.2114  0.5056 -0.3134
  745TMC3    C811070   3.671   3.329  14.486 -0.2001  0.8190  0.2376
  745TMC3    O111071   3.543   3.573  14.099  0.9417 -0.1725  0.0316
  745TMC3    O211072   3.550   3.349  14.508 -0.5425  0.1658 -0.0040
  746TMC3    C111073   1.014   0.345  11.050  0.4835  0.5218  0.3707
  746TMC3    C211074   1.090   0.327  10.941 -0.0944 -0.2305  0.3046
  746TMC3    C311075   1.106   0.201  10.891  0.6754 -0.0996 -0.4628
  746TMC3    C411076   0.946   0.239  11.109  0.3162  0.1769  0.0966
  746TMC3    C511077   0.966   0.111  11.054  0.0294  0.0506  0.3924
  746TMC3    C611078   1.047   0.087  10.947 -0.0466  0.6828  0.2940
  746TMC3     C11079   0.980   0.475  11.090  0.0627 -0.0111  0.0511
  746TMC3     O11080   0.885   0.489  11.173 -0.5881  0.3063 -0.5024
  746TMC3     H11081   1.139   0.402  10.880  0.4076 -0.4006  0.4990
  746TMC3    H111082   0.875   0.256  11.189 -1.4430  0.6225 -1.5324
  746TMC3    H211083   1.061   4.731  10.896 -0.7259 -0.2289  1.7780
  746TMC3    C711084   0.849   0.028  11.049 -0.3057  0.3052 -0.4846
  746TMC3    C811085   1.166   0.175  10.759  0.7205 -0.2487  0.6550
  746TMC3    O111086   0.823   4.723  10.940 -0.0522 -0.1500 -0.0472
  746TMC3    O211087   1.217   0.063  10.739 -0.5269 -0.3858  0.6835
  747TMC3    C111088   3.142   0.728  11.647 -0.3884  0.6322 -0.5370
  747TMC3    C211089   3.103   0.615  11.715  0.5118 -0.0202 -0.4595
  747TMC3    C311090   3.184   0.564  11.813 -0.2969 -0.3078  0.1372
  747TMC3    C411091   3.270   0.774  11.665  0.6879 -0.0783 -0.4554
  747TMC3    C511092   3.348   0.725  11.771  0.5927 -0.0210  0.5729
  747TMC3    C611093   3.307   0.619  11.845  0.1010 -0.4931 -0.0776
  747TMC3     C11094   3.079   0.751  11.521  0.2678  0.1292  0.4788
  747TMC3     O11095   3.014   0.657  11.479  0.2172  0.8123 -0.3364
  747TMC3     H11096   3.024   0.562  11.662 -0.4998  0.8561  0.1682
  747TMC3    H111097   3.305   0.847  11.594  1.2652 -0.1118 -0.2054
  747TMC3    H211098   3.364   0.587  11.931  0.9651 -0.1152 -0.5060
  747TMC3    C711099   3.412   0.830  11.857  0.0173  0.1454 -0.3811
  747TMC3    C811100   3.149   0.450  11.900  0.4082 -0.4425  0.8009
  747TMC3    O111101   3.394   0.818  11.975  0.7363 -0.3771  0.2928
  747TMC3    O211102   3.249   0.393  11.949  0.0868 -0.2011  0.1134
  748MPD2     C11103   0.827   0.714   1.784  0.2803  0.1223  0.6635
  748MPD2    C111104   0.913   0.779   1.875 -0.4845 -0.4193 -0.1527
  748MPD2    C211105   0.946   0.916   1.847 -0.2745 -0.2003  0.3490
  748MPD2    C311106   0.909   0.977   1.728 -0.3286 -0.0461  0.2010
  748MPD2    C411107   0.820   0.914   1.645 -0.0014  0.5076  0.4188
  748MPD2    C511108   0.786   0.786   1.678 -0.3489 -0.6291 -0.1306
  748MPD2     H11109   1.018   0.966   1.911  1.9511 -1.7845 -0.9239
  748MPD2    H111110   0.783   0.956   1.552 -0.5436 -2.3569 -0.6663
  748MPD2    H211111   0.789   0.615   1.808 -1.2155  0.5298 -0.0120
  748MPD2    H311112   0.721   0.733   1.608  1.4105 -1.3446 -1.2207
  748MPD2     N11113   0.959   1.106   1.691 -0.7884  0.1047  0.6495
  748MPD2    H511114   1.026   1.146   1.756 -3.0117  0.2894  2.8415
  748MPD2    N111115   0.959   0.702   1.985  0.5720  0.0025  1.0181
  748MPD2    H711116   0.916   0.611   1.994  1.1919 -0.6059 -2.0292
  749TMC3    C111117   0.994   1.318   1.580  0.7429  0.3546  0.1819
  749TMC3    C211118   1.131   1.330   1.604  0.7184  0.0268 -0.5985
  749TMC3    C311119   1.188   1.445   1.564  0.3686  0.3101  0.0673
  749TMC3    C411120   0.928   1.412   1.509 -0.2582  0.0618  0.3030
  749TMC3    C511121   0.985   1.531   1.489  0.1859 -0.1091  0.5138
  749TMC3    C611122   1.121   1.558   1.511 -0.5241 -0.2615 -0.2945
  749TMC3     C11123   0.932   1.185   1.584  0.4944  0.2754 -0.5000
  749TMC3     O11124   0.842   1.173   1.503  0.6939  0.6089 -0.1561
  749TMC3     H11125   1.193   1.246   1.633 -1.8094 -1.0983  1.5755
  749TMC3    H111126   0.824   1.391   1.486 -0.8650  2.2608  1.0084
  749TMC3    H211127   1.170   1.650   1.480 -0.0429 -0.3630  0.1662
  749TMC3    C711128   0.919   1.633   1.408  0.7430  0.4817 -0.0348
  749TMC3    C811129   1.328   1.458   1.549  0.2288 -0.3902  0.5849
  749TMC3    O111130   0.953   1.748   1.417 -0.7368 -0.4846 -0.0377
  749TMC3    O211131   1.383   1.569   1.568  0.2877  0.2655  0.2205
  750MPD2     C11132   1.197   2.236  11.580 -0.4673 -0.6314  0.2081
  750MPD2    C111133   1.078   2.208  11.522 -0.1721  0.6207  0.5037
  750MPD2    C211134   1.062   2.095  11.440  0.2521 -0.1978  0.2025
  750MPD2    C311135   1.176   2.020  11.421 -0.0926 -0.3948  0.0827
  750MPD2    C411136   1.296   2.045  11.476  0.1512  0.4770 -1.1521
  750MPD2    C511137   1.307   2.149  11.561 -0.5593 -0.1886  0.6627
  750MPD2     H11138   0.968   2.078  11.389 -0.0929  0.5710  0.5743
  750MPD2    H111139   1.381   1.982  11.453 -1.1851 -1.9999  0.7368
  750MPD2    H211140   1.201   2.315  11.654 -0.5437  0.7822 -1.2981
  750MPD2    H311141   1.401   2.160  11.614  0.7166  0.3269 -1.6891
  750MPD2     N11142   1.165   1.906  11.336 -0.1966 -0.5052 -0.3484
  750MPD2    H511143   1.245   1.844  11.341 -2.1826 -3.0711 -0.7541
  750MPD2    N111144   0.972   2.291  11.551  0.1697  0.6328  0.2047
  750MPD2    H711145   0.998   2.374  11.603  1.1455 -0.1133  0.8735
  751TMC3    C111146   1.071   1.733  11.197 -1.1684 -0.0817 -0.6078
  751TMC3    C211147   0.950   1.673  11.166 -0.5226  0.1307  0.5322
  751TMC3    C311148   0.943   1.548  11.107 -0.3121  0.2368 -1.1680
  751TMC3    C411149   1.190   1.657  11.186  0.5595 -0.3182  0.8290
  751TMC3    C511150   1.178   1.533  11.131 -0.5161  0.7360 -0.0272
  751TMC3    C611151   1.061   1.482  11.081  0.6094  0.3109 -0.1094
  751TMC3     C11152   1.049   1.859  11.272 -0.7155  0.8722 -0.1719
  751TMC3     O11153   0.939   1.915  11.258  0.0827 -0.3285 -0.0966
  751TMC3     H11154   0.864   1.734  11.189 -0.0760  2.5630 -4.2677
  751TMC3    H111155   1.287   1.700  11.206 -0.4298  1.8075  1.0039
  751TMC3    H211156   1.070   1.385  11.035  1.2701  0.8788 -1.1942
  751TMC3    C711157   1.306   1.473  11.093  0.2912 -0.1991  0.7723
  751TMC3    C811158   0.822   1.493  11.063 -0.5144 -1.0194  0.5565
  751TMC3    O111159   1.404   1.544  11.063  0.1360  0.1649 -0.4701
  751TMC3    O211160   0.827   1.435  10.955  0.0622 -0.0921 -0.1216
  752TMC3    C111161   4.389   2.894  17.470  0.2126 -0.8058  0.9708
  752TMC3    C211162   4.395   2.758  17.496 -0.5062  0.5675 -0.4788
  752TMC3    C311163   4.338   2.711  17.608  0.1042 -0.0432  0.1715
  752TMC3    C411164   4.329   2.981  17.557 -0.1184 -0.3071  0.2103
  752TMC3    C511165   4.282   2.930  17.675  0.6785  1.1785 -0.1672
  752TMC3    C611166   4.301   2.801  17.708  0.6021 -0.2193  0.4524
  752TMC3     C11167   4.476   2.954  17.369 -0.3489 -0.8904  0.5145
  752TMC3     O11168   4.525   3.060  17.399  0.1438  0.0623 -0.0884
  752TMC3     H11169   4.442   2.691  17.426 -1.4853  0.9231 -1.4863
  752TMC3    H111170   4.335   3.088  17.543 -0.5157 -0.0852  1.7197
  752TMC3    H211171   4.259   2.769   0.050 -1.7128 -0.9728 -0.8255
  752TMC3    C711172   4.181   3.017  17.732 -0.3964  0.4343 -0.0246
  752TMC3    C811173   4.349   2.568  17.632 -0.3062  0.2238  0.2433
  752TMC3    O111174   4.122   3.095  17.661 -0.1037  0.4877 -0.1748
  752TMC3    O211175   4.425   2.509  17.551 -0.2023 -0.2532  0.1357
  753TMC3    C111176   1.869   3.526  13.723  0.4453  0.5734 -0.3521
  753TMC3    C211177   1.935   3.511  13.842  0.4446 -0.1650 -0.0095
  753TMC3    C311178   1.933   3.389  13.896 -0.1878 -0.3638  0.1419
  753TMC3    C411179   1.800   3.419  13.669  1.0005 -0.9196  0.4619
  753TMC3    C511180   1.791   3.300  13.731  0.4256  0.2573  0.1150
  753TMC3    C611181   1.859   3.286  13.848 -0.1877 -0.2436  0.0300
  753TMC3     C11182   1.864   3.657  13.658 -0.1704 -0.0206 -0.7407
  753TMC3     O11183   1.779   3.673  13.572 -0.6149 -0.0452 -0.0550
  753TMC3     H11184   1.979   3.595  13.895  0.4785  0.0499 -0.3770
  753TMC3    H111185   1.746   3.447  13.579  1.1267 -3.0556 -0.2685
  753TMC3    H211186   1.860   3.187  13.891  0.2496  0.2448  1.1392
  753TMC3    C711187   1.656   3.246  13.734 -0.1847  0.4648 -0.1558
  753TMC3    C811188   1.964   3.384  14.042  1.0915 -0.0940 -0.4168
  753TMC3    O111189   1.566   3.329  13.706  0.2129  0.4395 -0.0519
  753TMC3    O211190   1.918   3.289  14.100 -0.6650  0.3229 -0.2862
  754MPD2     C11191   0.288   2.299  12.914 -0.6173  0.0837  0.3318
  754MPD2    C111192   0.278   2.158  12.916 -0.3292 -0.6382 -0.3700
  754MPD2    C211193   0.203   2.084  12.825 -0.1320 -0.3246 -0.4781
  754MPD2    C311194   0.134   2.155  12.733  0.8864 -0.7711 -0.2495
  754MPD2    C411195   0.148   2.290  12.728 -0.8324 -0.0601 -0.9452
  754MPD2    C511196   0.223   2.361  12.816 -0.1656 -0.8091  0.6824
  754MPD2     H11197   0.185   1.978  12.833  1.8456 -0.7984 -2.3685
  754MPD2    H111198   0.094   2.343  12.651 -0.7996  1.7486  0.2618
  754MPD2    H211199   0.347   2.354  12.986  0.4011 -1.4214  0.6687
  754MPD2    H311200   0.229   2.470  12.811  0.4948 -0.8897 -0.1906
  754MPD2     N11201   0.047   2.088  12.635 -0.6789  0.9121  0.1513
  754MPD2    H511202   0.000   2.142  12.563  0.4722  1.7141  0.0008
  754MPD2    N111203   0.343   2.086  13.015  0.0781 -0.4544  0.4362
  754MPD2    H711204   0.384   2.141  13.090  1.2587  0.5539 -0.9647
  755MPD2     C11205   4.374   2.503  13.039 -0.1560 -0.6247 -1.0335
  755MPD2    C111206   4.284   2.402  13.045  0.4008  0.1271  0.2774
  755MPD2    C211207   4.321   2.291  12.971 -0.2032 -0.0825  0.0741
  755MPD2    C311208   4.432   2.283  12.887  0.1935  0.2558 -0.7962
  755MPD2    C411209   4.523   2.385  12.889  0.3796 -0.6484  0.3762
  755MPD2    C511210   4.493   2.490  12.967  0.1676  0.4226  0.1302
  755MPD2     H11211   4.256   2.205  12.963 -0.0552  0.0465 -2.5340
  755MPD2    H111212   4.622   2.380  12.846  0.0759 -1.7209 -0.1837
  755MPD2    H211213   4.363   2.595  13.094  0.2482 -0.2068 -1.6459
  755MPD2    H311214   4.562   2.568  12.998 -1.0865  1.3503  0.6129
  755MPD2     N11215   4.458   2.170  12.801  0.9009 -0.3150  0.0792
  755MPD2    H511216   4.529   2.184  12.730  0.5463  1.0438 -0.0047
  755MPD2    N111217   4.170   2.409  13.124 -0.7814 -0.0709  0.1722
  755MPD2    H711218   4.104   2.333  13.113 -0.5622 -0.2114 -0.1561
  756MPD2     C11219   0.483   2.725   9.690 -0.1114 -0.0781 -0.9218
  756MPD2    C111220   0.441   2.695   9.821  0.2907  0.5527 -0.4159
  756MPD2    C211221   0.295   2.687   9.837 -0.0636 -0.0178 -0.4836
  756MPD2    C311222   0.209   2.708   9.733 -0.1350  0.2348 -0.2330
  756MPD2    C411223   0.257   2.748   9.611  0.4696 -0.2168 -0.4310
  756MPD2    C511224   0.390   2.754   9.588 -0.3588  0.9449  0.1486
  756MPD2     H11225   0.260   2.653   9.933  0.8695  1.0250  0.2303
  756MPD2    H111226   0.193   2.764   9.525 -0.4286  1.0382  0.4763
  756MPD2    H211227   0.589   2.730   9.668  0.3816  2.5764  2.1059
  756MPD2    H311228   0.432   2.786   9.493 -0.2242  2.2796  0.6678
  756MPD2     N11229   0.070   2.693   9.759 -0.7253  0.0897 -0.2044
  756MPD2    H511230   0.050   2.650   9.849 -1.0083 -0.2074 -0.4124
  756MPD2    N111231   0.526   2.684   9.937  0.8758  0.2146  0.0395
  756MPD2    H711232   0.479   2.675  10.027  0.6622  0.5851 -0.0324
  757MPD2     C11233   4.508   2.117  10.280  0.3591  0.8771 -0.3179
  757MPD2    C111234   4.628   2.153  10.223  0.3562  0.3418 -0.0648
  757MPD2    C211235   4.636   2.276  10.156  0.2345 -0.2005 -0.1990
  757MPD2    C311236   4.520   2.356  10.146 -0.2616 -0.1085 -1.1390
  757MPD2    C411237   4.408   2.326  10.219 -0.5899  0.3786 -0.0804
  757MPD2    C511238   4.412   2.205  10.288 -0.4565  0.3068 -0.0681
  757MPD2     H11239   4.714   2.302  10.085 -1.2116 -1.2366 -2.1731
  757MPD2    H111240   4.316   2.383  10.231 -0.4118  0.3868  1.2165
  757MPD2    H211241   4.499   2.022  10.332  1.8862  0.2024 -1.3038
  757MPD2    H311242   4.333   2.175  10.355  0.4372  1.7592  1.6351
  757MPD2     N11243   4.531   2.467  10.061  0.5961  0.6375  0.1398
  757MPD2    H511244   4.620   2.479  10.013  1.4555 -1.9130  1.0727
  757MPD2    N111245   4.731   2.056  10.219  0.3959  0.2952  0.3920
  757MPD2    H711246   4.699   1.963  10.243 -1.8800  0.7370 -1.0436
  758MPD2     C11247   0.293   2.039  16.073  0.0764 -0.4064  0.1582
  758MPD2    C111248   0.354   1.946  16.151  0.8566  0.1745  0.2490
  758MPD2    C211249   0.330   1.934  16.286 -1.0131 -0.1922  0.5979
  758MPD2    C311250   0.232   2.025  16.347 -0.4976 -0.1121  0.8894
  758MPD2    C411251   0.157   2.111  16.263 -0.4965  0.9305 -1.0246
  758MPD2    C511252   0.191   2.114  16.131  0.4929  0.1397  0.2599
  758MPD2     H11253   0.373   1.853  16.344 -1.3007 -1.4886 -1.0073
  758MPD2    H111254   0.079   2.184  16.285 -0.6605 -0.1731  2.0669
  758MPD2    H211255   0.316   2.051  15.968  0.3725 -0.5983  0.1999
  758MPD2    H311256   0.145   2.197  16.079 -0.1716 -0.4225 -0.0493
  758MPD2     N11257   0.204   2.033  16.490  0.4681 -0.6569  0.1260
  758MPD2    H511258   0.114   2.073  16.514  1.4438  1.6864 -0.0787
  758MPD2    N111259   0.458   1.865  16.085  0.1207 -0.1394  0.3618
  758MPD2    H711260   0.475   1.871  15.985  0.8338 -2.5113  0.3287
  759MPD2     C11261   4.013   4.183  10.872 -0.2629 -0.9418 -0.7515
  759MPD2    C111262   4.059   4.109  10.772  0.4140  0.3397 -0.2520
  759MPD2    C211263   4.141   4.169  10.682  0.0452 -0.3622 -0.3663
  759MPD2    C311264   4.192   4.296  10.703  0.1118  0.0268  0.1332
  759MPD2    C411265   4.153   4.369  10.815  0.5202  0.0893  0.3361
  759MPD2    C511266   4.054   4.310  10.896  0.5835  0.2633 -0.4424
  759MPD2     H11267   4.192   4.112  10.605 -0.6591 -1.4678 -0.0107
  759MPD2    H111268   4.184   4.472  10.830 -1.4739  0.8700 -0.9277
  759MPD2    H211269   3.941   4.147  10.946 -0.7161  0.5576 -0.4682
  759MPD2    H311270   4.016   4.366  10.981 -1.1841 -0.2309 -0.9050
  759MPD2     N11271   4.269   4.349  10.595 -0.5294 -0.9197 -0.0185
  759MPD2    H511272   4.281   4.299  10.507  0.3298 -0.0792 -0.3785
  759MPD2    N111273   4.033   3.974  10.749 -0.2412 -0.3652 -0.1739
  759MPD2    H711274   4.074   3.947  10.660  1.6667  0.6260  0.3915
  760MPD2     C11275   4.201   1.976  12.032 -0.0357  0.1786 -0.3641
  760MPD2    C111276   4.254   1.977  11.907  0.6773 -0.4065  0.3668
  760MPD2    C211277   4.226   1.881  11.814  0.1781  0.2886 -0.4694
  760MPD2    C311278   4.134   1.781  11.846 -0.6611 -0.1406  0.2910
  760MPD2    C411279   4.075   1.790  11.971  0.7921  0.7491 -0.0735
  760MPD2    C511280   4.108   1.881  12.064  0.8559 -0.0016 -0.1079
  760MPD2     H11281   4.283   1.889  11.722 -0.7616  3.3214 -0.7903
  760MPD2    H111282   4.009   1.716  12.015  0.6981 -0.8022 -2.8029
  760MPD2    H211283   4.214   2.055  12.104 -2.2500 -0.6980  0.9938
  760MPD2    H311284   4.064   1.878  12.163 -0.8703 -0.0789 -0.8771
  760MPD2     N11285   4.097   1.678  11.753 -0.1427 -0.9117 -0.5216
  760MPD2    H511286   4.033   1.606  11.787  0.4535 -0.3154  1.9191
  760MPD2    N111287   4.337   2.080  11.864 -0.4112  0.0915  0.2251
  760MPD2    H711288   4.351   2.092  11.764 -4.2254 -1.1346 -0.4390
  761MPD2     C11289   0.361   1.293  11.144 -0.3059 -0.0362 -0.2936
  761MPD2    C111290   0.461   1.263  11.056 -0.1974 -0.0004  0.1206
  761MPD2    C211291   0.583   1.328  11.069 -0.9854 -0.1006 -0.3835
  761MPD2    C311292   0.599   1.438  11.157 -0.1267  0.6482  0.5397
  761MPD2    C411293   0.493   1.463  11.236 -0.5453 -0.3490 -0.4989
  761MPD2    C511294   0.374   1.398  11.230 -0.7077  0.0906  0.3795
  761MPD2     H11295   0.661   1.297  11.000  0.1760  1.2594  0.3218
  761MPD2    H111296   0.496   1.537  11.315  0.8163  0.3545 -1.1973
  761MPD2    H211297   0.267   1.240  11.135  0.7607 -1.4834 -2.9216
  761MPD2    H311298   0.296   1.432  11.298 -1.3098  0.4347 -0.4763
  761MPD2     N11299   0.723   1.513  11.160 -0.1916  0.2295  0.2709
  761MPD2    H511300   0.744   1.583  11.230 -2.4151  0.5129  0.6645
  761MPD2    N111301   0.449   1.147  10.969 -0.0496  0.2792  0.5221
  761MPD2    H711302   0.369   1.084  10.974  0.5972 -0.7880 -2.9119
  762MPD2     C11303   1.009   1.197  10.724  0.2228 -0.1267 -0.5096
  762MPD2    C111304   0.993   1.064  10.694 -0.1864 -0.5447 -0.1992
  762MPD2    C211305   1.099   1.001  10.627  0.2674 -0.0369  0.2640
  762MPD2    C311306   1.224   1.059  10.624  0.1600 -0.8630  0.7418
  762MPD2    C411307   1.240   1.187  10.658  0.1725  0.7403 -0.1971
  762MPD2    C511308   1.130   1.260  10.705  0.4456  0.0457  0.1158
  762MPD2     H11309   1.086   0.902  10.583  1.2197 -0.2799  0.5399
  762MPD2    H111310   1.336   1.235  10.645 -0.1887  0.7704 -2.6937
  762MPD2    H211311   0.927   1.260  10.757 -0.5998 -1.7552  0.5242
  762MPD2    H311312   1.142   1.364  10.730  0.0500 -0.5932  2.9441
  762MPD2     N11313   1.329   0.988  10.557  0.3572  0.4349 -0.2762
  762MPD2    H511314   1.307   0.899  10.513  1.3627  1.1965 -2.3401
  762MPD2    N111315   0.867   1.010  10.704 -0.3001  0.4432 -0.1416
  762MPD2    H711316   0.798   1.067  10.752 -0.5786  0.4251 -0.5229
  763MPD2     C11317   2.716   1.889  16.231  0.3709  1.1708 -0.3639
  763MPD2    C111318   2.586   1.911  16.185 -0.3986 -0.5321  0.1399
  763MPD2    C211319   2.535   2.041  16.194 -0.0968 -0.1749 -0.7690
  763MPD2    C311320   2.617   2.142  16.243 -0.1714  0.1471 -0.5299
  763MPD2    C411321   2.748   2.113  16.283 -0.2105  0.5227 -0.5281
  763MPD2    C511322   2.798   1.990  16.262  0.0500 -0.7974  0.2204
  763MPD2     H11323   2.430   2.058  16.175 -0.3290 -1.7700 -0.8504
  763MPD2    H111324   2.818   2.189  16.316 -0.5586  1.9432 -3.0776
  763MPD2    H211325   2.759   1.790  16.224 -1.2417  0.5360 -1.3626
  763MPD2    H311326   2.899   1.967  16.294  0.4811 -0.4576 -0.8972
  763MPD2     N11327   2.571   2.278  16.240 -0.0332 -0.6081 -0.6684
  763MPD2    H511328   2.641   2.349  16.257 -0.3412  0.1777 -2.6589
  763MPD2    N111329   2.508   1.810  16.122  0.3533 -0.4304 -0.4508
  763MPD2    H711330   2.428   1.847  16.071 -0.6311  0.3140  1.6557
  764MPD2     C11331   0.559   2.992   0.088  0.9939 -0.4534  0.8142
  764MPD2    C111332   0.502   3.112   0.090 -0.2797 -0.1981  0.1019
  764MPD2    C211333   0.423   3.138   0.192  0.0243  0.2331  0.2420
  764MPD2    C311334   0.400   3.052   0.300  0.1177  0.4586  0.5091
  764MPD2    C411335   0.462   2.936   0.298  0.4376  0.7056 -0.0269
  764MPD2    C511336   0.542   2.910   0.197  0.0131  0.4722  0.0882
  764MPD2     H11337   0.381   3.238   0.199 -0.6623 -0.1230  1.2363
  764MPD2    H111338   0.456   2.861   0.376 -0.7766  1.3033  0.4528
  764MPD2    H211339   0.611   2.964  17.749 -1.0056  0.6743 -0.6756
  764MPD2    H311340   0.587   2.812   0.188 -0.2881  0.2551  1.0296
  764MPD2     N11341   0.316   3.095   0.410 -0.1055 -0.2435  0.0495
  764MPD2    H511342   0.266   3.183   0.402 -1.5252 -0.8358  2.5968
  764MPD2    N111343   0.495   3.202  17.729 -0.0905 -0.1057 -0.0836
  764MPD2    H711344   0.428   3.278  17.733  0.7320  0.5048  1.9564
  765MPD2     C11345   0.277   1.457  16.057  0.3322 -0.6030  0.0924
  765MPD2    C111346   0.337   1.526  15.949  0.6789 -0.7117  0.9716
  765MPD2    C211347   0.462   1.485  15.903  0.1960 -0.3645 -0.3341
  765MPD2    C311348   0.521   1.369  15.948 -0.2576 -0.2929  0.0309
  765MPD2    C411349   0.455   1.301  16.060  0.4613  0.0093  0.0775
  765MPD2    C511350   0.342   1.349  16.114 -0.5570  0.1646  0.0172
  765MPD2     H11351   0.512   1.536  15.821 -1.7052  0.9705 -0.6611
  765MPD2    H111352   0.497   1.218  16.115  1.1539 -0.1363 -0.6664
  765MPD2    H211353   0.179   1.488  16.092  0.5978 -0.7162  0.9560
  765MPD2    H311354   0.297   1.309  16.204 -0.6747 -1.0493 -0.5683
  765MPD2     N11355   0.629   1.315  15.875  0.4195 -0.4035 -0.4121
  765MPD2    H511356   0.661   1.367  15.795  1.1244 -0.2416 -0.0221
  765MPD2    N111357   0.258   1.622  15.888  0.7137  0.3003 -0.2185
  765MPD2    H711358   0.165   1.650  15.920  0.9906  1.8627 -0.7484
  766MPD2     C11359   4.616   1.539  15.297 -0.4771  0.1226  1.1912
  766MPD2    C111360   0.009   1.565  15.334 -0.4583 -0.3042 -0.2050
  766MPD2    C211361   0.121   1.532  15.257  0.2805 -0.4653  0.6248
  766MPD2    C311362   0.100   1.457  15.139  0.0495  0.2287 -0.7240
  766MPD2    C411363   4.709   1.419  15.112 -0.1106 -0.0679  0.9343
  766MPD2    C511364   4.602   1.468  15.187  0.0222 -0.9397  0.6053
  766MPD2     H11365   0.219   1.565  15.290  0.5475 -0.2473 -0.3791
  766MPD2    H111366   4.686   1.363  15.022 -0.5729  1.8940 -0.1688
  766MPD2    H211367   4.528   1.567  15.354 -0.7370  0.6307  0.5399
  766MPD2    H311368   4.501   1.447  15.155  0.3880 -0.8737 -0.5923
  766MPD2     N11369   0.199   1.401  15.052  0.4325  0.1502  0.6764
  766MPD2    H511370   0.167   1.345  14.974 -1.3204  1.4953  0.4360
  766MPD2    N111371   0.030   1.650  15.439  0.4537 -0.1568 -0.0222
  766MPD2    H711372   0.125   1.669  15.469  0.3076  2.3427 -1.1149
  767MPD2     C11373   4.332   1.742  14.628 -0.0831  0.3318  0.3662
  767MPD2    C111374   4.450   1.704  14.687  0.0835 -0.0799  0.6908
  767MPD2    C211375   4.499   1.580  14.654 -0.2030  0.5448  0.4026
  767MPD2    C311376   4.435   1.504  14.548  0.1946  0.0440  0.5809
  767MPD2    C411377   4.321   1.551  14.494 -0.0478 -0.0762  0.3165
  767MPD2    C511378   4.271   1.665  14.535 -0.2880  0.8682 -0.1574
  767MPD2     H11379   4.593   1.539  14.690  0.0677 -0.0134 -0.9440
  767MPD2    H111380   4.268   1.507  14.411  0.2257 -0.5759  0.4101
  767MPD2    H211381   4.288   1.840  14.642 -0.6770  0.2070 -0.6124
  767MPD2    H311382   4.188   1.705  14.478 -0.0844  2.2823  0.5464
  767MPD2     N11383   4.488   1.388  14.490  0.1759 -0.3019  0.0454
  767MPD2    H511384   4.442   1.351  14.407 -0.0511 -0.3383  0.1887
  767MPD2    N111385   4.508   1.791  14.778 -0.7186 -0.6914 -0.2293
  767MPD2    H711386   4.458   1.876  14.805 -0.5187 -1.1917  1.7055
  768MPD2     C11387   0.832   4.473  10.499  0.2111  0.1934  0.1058
  768MPD2    C111388   0.813   4.415  10.627  0.0352  0.0976  0.1799
  768MPD2    C211389   0.919   4.425  10.720  0.1510 -0.8286  1.1134
  768MPD2    C311390   1.038   4.489  10.689  0.0554 -0.2877  0.1791
  768MPD2    C411391   1.049   4.551  10.565  0.3352  0.2960  0.6527
  768MPD2    C511392   0.945   4.545  10.479 -0.6385  0.6035 -0.2944
  768MPD2     H11393   0.905   4.382  10.819  1.0398  0.7484  1.9186
  768MPD2    H111394   1.138   4.603  10.531  0.7071 -0.3934  0.5735
  768MPD2    H211395   0.759   4.472  10.418  0.1213 -0.4026  0.1909
  768MPD2    H311396   0.949   4.591  10.381 -1.6543  0.8419 -0.2269
  768MPD2     N11397   1.157   4.500  10.774 -0.4742  0.0784 -0.6377
  768MPD2    H511398   1.225   4.564  10.735 -0.5862  0.2467 -0.5575
  768MPD2    N111399   0.689   4.344  10.667  0.0548  0.3834  0.0477
  768MPD2    H711400   0.693   4.305  10.761  0.5972 -1.6633 -0.8111
  769MPD2     C11401   2.170   2.723  14.868  1.0784 -0.3009 -0.1279
  769MPD2    C111402   2.045   2.774  14.890  0.5258  0.1384 -0.9597
  769MPD2    C211403   2.011   2.818  15.015 -0.6119  0.4234  0.0519
  769MPD2    C311404   2.108   2.833  15.112 -0.0239 -0.3546 -0.0715
  769MPD2    C411405   2.234   2.793  15.087 -0.7504  0.1886  0.3476
  769MPD2    C511406   2.262   2.735  14.964  0.3166  0.2042 -0.2029
  769MPD2     H11407   1.912   2.854  15.040  0.1485  2.5067  0.1337
  769MPD2    H111408   2.320   2.792  15.153  0.5535 -1.5585 -1.3662
  769MPD2    H211409   2.208   2.699  14.770  0.9068  4.1440 -1.2746
  769MPD2    H311410   2.358   2.691  14.941 -1.4924 -3.8153 -0.0674
  769MPD2     N11411   2.071   2.903  15.229 -0.0096  0.2919 -0.2607
  769MPD2    H511412   1.972   2.918  15.245 -0.5964 -0.1449 -3.6566
  769MPD2    N111413   1.962   2.781  14.778  0.3829  0.3443 -0.1475
  769MPD2    H711414   1.995   2.740  14.691  1.2368  2.3076 -0.7465
  770MPD2     C11415   0.936   2.763  14.730  0.1320 -0.1898 -0.1980
  770MPD2    C111416   1.012   2.648  14.747 -0.1382  0.6731  0.5964
  770MPD2    C211417   1.146   2.649  14.713  0.0399 -0.3244  0.4565
  770MPD2    C311418   1.206   2.759  14.660  0.3807  0.8071  0.0547
  770MPD2    C411419   1.130   2.872  14.641 -0.1280 -0.1923 -0.0123
  770MPD2    C511420   0.995   2.872  14.671  0.5656 -0.7106  0.2176
  770MPD2     H11421   1.209   2.562  14.729  0.1580 -0.1950  0.6897
  770MPD2    H111422   1.167   2.962  14.592 -0.4412 -1.4714 -2.5887
  770MPD2    H211423   0.830   2.767  14.756 -0.0525  0.9680 -1.1020
  770MPD2    H311424   0.941   2.964  14.649  0.0401 -1.2757 -0.8383
  770MPD2     N11425   1.340   2.752  14.620 -0.1604 -0.7277  0.7622
  770MPD2    H511426   1.385   2.665  14.644 -1.7418 -2.0770 -1.1856
  770MPD2    N111427   0.958   2.545  14.831 -0.0201 -0.1907  0.5969
  770MPD2    H711428   0.861   2.559  14.856 -0.3164 -1.9905  0.4279
  771MPD2     C11429   2.932   0.906  13.978  0.2171 -0.9708 -0.1463
  771MPD2    C111430   2.829   0.995  13.993 -0.2075 -0.0275 -0.1821
  771MPD2    C211431   2.718   0.992  13.903 -0.0059  0.0707  0.4131
  771MPD2    C311432   2.711   0.900  13.800 -0.3537 -0.7785 -0.0916
  771MPD2    C411433   2.820   0.811  13.790 -0.6573  0.3943  0.4458
  771MPD2    C511434   2.925   0.821  13.873  0.5613 -0.8228  1.1561
  771MPD2     H11435   2.636   1.062  13.913 -0.5322 -0.8434  2.3690
  771MPD2    H111436   2.815   0.736  13.711  0.3278 -0.8613  1.5882
  771MPD2    H211437   3.015   0.889  14.046  0.1033  0.7113  0.3994
  771MPD2    H311438   3.011   0.756  13.860  1.1193  0.4696 -1.6624
  771MPD2     N11439   2.598   0.903  13.720 -0.1221 -0.1814 -0.4520
  771MPD2    H511440   2.517   0.955  13.753 -0.5807 -1.1533 -0.0333
  771MPD2    N111441   2.829   1.093  14.093  0.3534 -0.3227 -0.0585
  771MPD2    H711442   2.764   1.171  14.084  0.6613  0.0426  0.8245
  772MPD2     C11443   2.428   1.369  13.903  0.5921  0.1690  0.4522
  772MPD2    C111444   2.432   1.403  14.043  0.0623 -0.4891  0.2246
  772MPD2    C211445   2.319   1.426  14.112  0.4898 -0.1424 -0.7176
  772MPD2    C311446   2.198   1.412  14.053  0.2897  0.2851 -0.3949
  772MPD2    C411447   2.194   1.385  13.916 -0.4917  0.3759  0.6853
  772MPD2    C511448   2.309   1.374  13.839  0.4105 -0.1179  0.2880
  772MPD2     H11449   2.334   1.461  14.214  2.0485 -3.1585  0.0890
  772MPD2    H111450   2.103   1.395  13.858 -1.2823  3.1696  2.4117
  772MPD2    H211451   2.520   1.358  13.848  0.3530 -1.1895  0.3199
  772MPD2    H311452   2.296   1.341  13.737 -1.5315  3.3530 -0.5731
  772MPD2     N11453   2.076   1.408  14.122 -0.1644  0.0855  0.0780
  772MPD2    H511454   1.991   1.410  14.066  0.8332  1.5424 -1.3772
  772MPD2    N111455   2.553   1.419  14.107 -0.1230 -0.1681  0.0221
  772MPD2    H711456   2.535   1.447  14.203 -0.3176  0.9594 -0.3424
  773MPD2     C11457   1.476   2.074  17.612 -0.4671 -0.3227  0.2438
  773MPD2    C111458   1.347   2.023  17.623 -0.8428 -0.2627  0.0161
  773MPD2    C211459   1.326   1.938  17.734 -0.2809  0.2205 -0.3166
  773MPD2    C311460   1.428   1.917   0.072 -0.7540  0.2059  0.1005
  773MPD2    C411461   1.555   1.966   0.054  0.0610  0.5181  0.2042
  773MPD2    C511462   1.577   2.049  17.701 -0.3471  0.2590 -0.7159
  773MPD2     H11463   1.228   1.900   0.006  0.5737 -1.7328  0.0526
  773MPD2    H111464   1.640   1.940   0.115  1.0085  1.1779 -0.8216
  773MPD2    H211465   1.495   2.151  17.538  0.1802  0.1395  0.8988
  773MPD2    H311466   1.667   2.105  17.680 -0.5054  0.9238  0.3873
  773MPD2     N11467   1.402   1.833   0.183  0.5159 -1.1157  0.2866
  773MPD2    H511468   1.311   1.791   0.201  0.7939 -0.4358  3.3509
  773MPD2    N111469   1.237   2.057  17.542  0.3768 -1.1083 -0.6079
  773MPD2    H711470   1.149   2.016  17.570 -0.4137  0.3018 -1.0183
  774MPD2     C11471   0.734   1.151  13.438 -0.2723 -0.1898  0.2738
  774MPD2    C111472   0.719   1.235  13.549 -0.2566  0.1565  0.5995
  774MPD2    C211473   0.670   1.364  13.528  0.3786  0.2375  0.3098
  774MPD2    C311474   0.646   1.424  13.409  0.0698 -0.0321 -0.8860
  774MPD2    C411475   0.673   1.344  13.299 -0.6657  0.0437  0.0523
  774MPD2    C511476   0.713   1.212  13.318  0.3684 -0.1237 -0.4059
  774MPD2     H11477   0.659   1.422  13.619  0.6815 -1.6630  1.5661
  774MPD2    H111478   0.653   1.371  13.196 -1.6581  2.2425  0.8169
  774MPD2    H211479   0.769   1.049  13.451 -1.4197 -0.6159 -0.0658
  774MPD2    H311480   0.723   1.157  13.225 -0.5706  0.0639 -0.6226
  774MPD2     N11481   0.597   1.557  13.396 -0.2588 -0.0424  0.2623
  774MPD2    H511482   0.574   1.612  13.479  0.9544  0.5707  0.1996
  774MPD2    N111483   0.744   1.181  13.678 -0.0632  0.3299  0.5871
  774MPD2    H711484   0.760   1.242  13.758 -0.4049  0.9500  0.1860
  775MPD2     C11485   2.116   2.641  15.708 -0.7244  0.5282 -1.0925
  775MPD2    C111486   2.107   2.752  15.794  0.0505 -0.2929  1.6543
  775MPD2    C211487   2.217   2.839  15.804 -0.5067 -0.2355  0.0322
  775MPD2    C311488   2.328   2.827  15.717  0.7703  0.5497  1.0971
  775MPD2    C411489   2.319   2.730  15.622  0.6449  0.2189 -0.1543
  775MPD2    C511490   2.215   2.643  15.617 -0.2766 -0.3043  0.2935
  775MPD2     H11491   2.223   2.923  15.872  1.8494 -0.6036  0.2566
  775MPD2    H111492   2.394   2.712  15.546 -0.1282 -1.5300 -0.5029
  775MPD2    H211493   2.028   2.591  15.670 -2.3350  1.0435  1.9875
  775MPD2    H311494   2.210   2.565  15.542  2.8204  1.1536 -1.4224
  775MPD2     N11495   2.428   2.933  15.695  0.4714  0.6302  0.3962
  775MPD2    H511496   2.481   2.934  15.609 -1.3750 -2.2514 -0.7372
  775MPD2    N111497   1.988   2.752  15.867 -0.1251  0.4619  0.0474
  775MPD2    H711498   1.926   2.673  15.852  1.2481 -0.2906 -1.6353
  776MPD2     C11499   1.044   2.780  11.843  0.1957 -0.0729 -0.9011
  776MPD2    C111500   0.935   2.818  11.760 -0.4688 -0.6076 -0.1255
  776MPD2    C211501   0.937   2.944  11.695 -0.1304 -0.4833  0.5107
  776MPD2    C311502   1.043   3.027  11.714  0.0811 -0.0202  0.5096
  776MPD2    C411503   1.140   2.989  11.800 -0.4275 -0.1059  0.6334
  776MPD2    C511504   1.150   2.864  11.858 -0.5962 -0.3704  0.0010
  776MPD2     H11505   0.860   2.957  11.619  0.4930  0.8960  0.1139
  776MPD2    H111506   1.220   3.060  11.820  0.3833 -0.3456 -1.7857
  776MPD2    H211507   1.051   2.686  11.895  0.4204  0.1566 -0.5206
  776MPD2    H311508   1.229   2.838  11.928 -1.4323  1.0211  1.4512
  776MPD2     N11509   1.071   3.140  11.641  0.1360  0.1438  0.0901
  776MPD2    H511510   1.162   3.184  11.649  0.5704 -0.2841 -2.2622
  776MPD2    N111511   0.849   2.713  11.745  0.2339 -0.3985  0.5272
  776MPD2    H711512   0.872   2.617  11.771  2.0033 -0.3613 -0.9229
  777MPD2     C11513   1.223   0.792   0.734  0.2674  0.0111 -0.8278
  777MPD2    C111514   1.262   0.690   0.813 -0.2742 -0.2614 -0.0178
  777MPD2    C211515   1.199   0.568   0.824  0.2715  0.3845  0.2635
  777MPD2    C311516   1.084   0.560   0.743  0.0325 -0.2077  0.5866
  777MPD2    C411517   1.035   0.673   0.679  0.4474  0.0852  0.0022
  777MPD2    C511518   1.106   0.789   0.664 -0.8553  0.2161  0.1142
  777MPD2     H11519   1.239   0.495   0.893  0.4856 -0.6652 -0.9784
  777MPD2    H111520   0.946   0.669   0.617 -0.3155 -1.8938  1.2223
  777MPD2    H211521   1.279   0.885   0.734  1.0399 -0.4421  1.0564
  777MPD2    H311522   1.058   0.866   0.605 -0.3533  0.4346 -0.0081
  777MPD2     N11523   1.020   0.430   0.724 -0.1996  0.1441 -0.8757
  777MPD2    H511524   1.058   0.353   0.778  0.9581  0.7298 -0.8486
  777MPD2    N111525   1.383   0.712   0.878 -0.0191 -0.2963  0.6634
  777MPD2    H711526   1.412   0.809   0.881 -0.1220 -0.3572  3.6791
  778MPD2     C11527   2.727   0.683  15.328  0.1601  0.0955 -0.6593
  778MPD2    C111528   2.746   0.606  15.210  0.1043 -0.3422 -0.0459
  778MPD2    C211529   2.791   0.662  15.098 -0.1383  0.2292  0.1574
  778MPD2    C311530   2.825   0.799  15.090  0.0491  0.2175  0.0095
  778MPD2    C411531   2.806   0.875  15.203  0.3916 -0.0187 -0.1679
  778MPD2    C511532   2.760   0.819  15.318 -0.0262  0.0283  0.5630
  778MPD2     H11533   2.786   0.593  15.015  1.8464 -0.5068  0.6588
  778MPD2    H111534   2.825   0.982  15.208 -2.5696  0.5770 -1.6328
  778MPD2    H211535   2.705   0.644  15.426  0.5284 -0.3083 -0.7334
  778MPD2    H311536   2.745   0.876  15.409  2.9511  0.8330  0.5583
  778MPD2     N11537   2.887   0.841  14.968 -0.3956 -0.5075  0.0014
  778MPD2    H511538   2.909   0.772  14.896 -1.2234  0.6358 -1.3550
  778MPD2    N111539   2.686   0.479  15.195  0.3982  0.0078  0.0308
  778MPD2    H711540   2.674   0.441  15.102  0.8639 -2.1700  0.8686
  779MPD2     C11541   2.502   4.439  14.187 -0.1646  0.3726  0.4370
  779MPD2    C111542   2.574   4.455  14.305  0.1010 -0.1458 -0.5745
  779MPD2    C211543   2.633   4.579  14.327 -0.7470  0.5284  0.1059
  779MPD2    C311544   2.618   4.689  14.245 -0.1942  0.1071  0.2048
  779MPD2    C411545   2.548   4.670  14.129  0.5950 -0.0585  0.0470
  779MPD2    C511546   2.488   4.546  14.103  0.5000 -0.4571  0.5543
  779MPD2     H11547   2.698   4.594  14.413 -0.0562 -1.0344 -0.1497
  779MPD2    H111548   2.544   0.002  14.047  0.2407  0.3649  0.4333
  779MPD2    H211549   2.451   4.350  14.151  1.7484  0.4921 -2.5600
  779MPD2    H311550   2.447   4.530  14.004  0.4551  0.9563  0.3385
  779MPD2     N11551   2.672   0.076  14.286 -0.4946 -0.5096 -0.8898
  779MPD2    H511552   2.716   0.084  14.377 -0.0217  0.8126 -1.2381
  779MPD2    N111553   2.605   4.345  14.396  0.8164  0.0476 -0.2457
  779MPD2    H711554   2.613   4.370  14.494 -0.9025 -2.0908  0.4202
  780MPD2     C11555   1.781   3.967   1.115 -0.0187  0.5868 -0.0288
  780MPD2    C111556   1.657   4.000   1.066 -0.0221  0.1682 -0.4877
  780MPD2    C211557   1.647   4.048   0.944 -0.2831 -0.3887  0.9299
  780MPD2    C311558   1.765   4.083   0.875  0.1178 -0.1660 -0.2649
  780MPD2    C411559   1.886   4.064   0.935  0.7153 -1.1899 -0.2606
  780MPD2    C511560   1.895   3.997   1.051 -0.1578  0.0549  0.3898
  780MPD2     H11561   1.551   4.072   0.899  0.5246 -0.9305 -1.0990
  780MPD2    H111562   1.982   4.078   0.887 -0.0145  2.5868 -0.6093
  780MPD2    H211563   1.783   3.912   1.209  0.4071  0.8810  0.1331
  780MPD2    H311564   1.989   3.965   1.094 -0.3490 -0.7252  0.2247
  780MPD2     N11565   1.746   4.140   0.746  0.0918  0.4039  0.6782
  780MPD2    H511566   1.650   4.161   0.720  0.1280 -1.0825 -0.6758
  780MPD2    N111567   1.550   3.975   1.146 -0.5908 -0.5202 -0.3939
  780MPD2    H711568   1.564   3.931   1.237 -0.1689  0.8248  0.1939
  781MPD2     C11569   3.065   1.216  12.995 -0.8128 -0.1629  0.0971
  781MPD2    C111570   3.125   1.127  12.915 -0.2939  0.0102  0.2875
  781MPD2    C211571   3.161   1.170  12.787  0.2043  0.7218  0.7316
  781MPD2    C311572   3.146   1.297  12.745  0.0977 -1.0225  0.8094
  781MPD2    C411573   3.083   1.387  12.828  0.2931 -0.2755 -0.0355
  781MPD2    C511574   3.050   1.343  12.952 -0.5393 -0.2422  0.2847
  781MPD2     H11575   3.209   1.099  12.721  1.0984  0.4893  1.6260
  781MPD2    H111576   3.059   1.491  12.807 -0.1902 -0.4148 -0.1577
  781MPD2    H211577   3.035   1.189  13.096  0.1947  0.0792  0.4535
  781MPD2    H311578   3.000   1.422  13.007 -0.0688 -0.7965  1.5019
  781MPD2     N11579   3.192   1.349  12.617  0.1805  0.3995 -0.3972
  781MPD2    H511580   3.151   1.433  12.578  0.9257  1.3473  0.8419
  781MPD2    N111581   3.139   0.995  12.950 -0.3338 -0.0996  0.0834
  781MPD2    H711582   3.166   0.938  12.870  1.0299  0.9253 -0.1728
  782MPD2     C11583   1.668   1.844  10.488  0.4134 -0.4764  0.0936
  782MPD2    C111584   1.712   1.784  10.612 -0.6356  0.1297 -0.2310
  782MPD2    C211585   1.695   1.853  10.731 -0.1874  1.1653 -0.2159
  782MPD2    C311586   1.649   1.985  10.732 -0.4330 -0.4062 -0.0450
  782MPD2    C411587   1.608   2.040  10.612  0.2679 -0.0877 -0.4524
  782MPD2    C511588   1.617   1.968  10.496 -0.1009  0.6661 -0.1029
  782MPD2     H11589   1.721   1.803  10.823 -0.2526  1.3361 -0.1050
  782MPD2    H111590   1.571   2.142  10.600  0.3997 -0.1690 -1.5667
  782MPD2    H211591   1.665   1.798  10.390 -1.0407 -0.2902  0.0631
  782MPD2    H311592   1.583   2.007  10.400 -0.9402  2.1202  0.7775
  782MPD2     N11593   1.648   2.056  10.860  0.5690 -0.1772  0.4275
  782MPD2    H511594   1.678   2.006  10.943 -2.5440  0.8783  2.2055
  782MPD2    N111595   1.760   1.648  10.617 -0.6208 -0.0361 -0.3789
  782MPD2    H711596   1.790   1.614  10.708  0.0216 -4.3415 -2.1756
  783MPD2     C11597   1.386   1.113  11.059 -0.1466 -0.1781  0.3065
  783MPD2    C111598   1.394   1.247  11.030 -0.4706  0.4766  0.2944
  783MPD2    C211599   1.491   1.287  10.940  0.0366 -0.8103  0.3889
  783MPD2    C311600   1.576   1.197  10.879 -0.3399 -0.6724  0.4060
  783MPD2    C411601   1.570   1.061  10.920  0.1175  0.1734 -0.2532
  783MPD2    C511602   1.475   1.021  11.010 -0.7951  0.3118 -0.3875
  783MPD2     H11603   1.499   1.388  10.903 -1.2499 -0.5184  0.9105
  783MPD2    H111604   1.642   0.986  10.891 -1.1825 -0.3227 -2.2085
  783MPD2    H211605   1.320   1.072  11.135 -0.8771  1.6084  0.6499
  783MPD2    H311606   1.462   0.915  11.029  0.1213  0.0939 -0.9965
  783MPD2     N11607   1.669   1.249  10.790 -0.3207 -0.3356  0.3097
  783MPD2    H511608   1.662   1.344  10.756 -0.2223 -1.0411 -1.6707
  783MPD2    N111609   1.296   1.336  11.081  0.6355 -0.2571 -0.5565
  783MPD2    H711610   1.213   1.294  11.124  0.9400  0.3822  0.6564
  784MPD2     C11611   3.740   2.393   0.801 -0.4864  0.1045  0.2149
  784MPD2    C111612   3.749   2.484   0.901 -0.8111  0.4424  0.4476
  784MPD2    C211613   3.633   2.560   0.939  0.2741  0.7166 -0.0603
  784MPD2    C311614   3.515   2.554   0.867 -0.0486  0.5199  0.1949
  784MPD2    C411615   3.514   2.471   0.758  0.7264 -0.0906 -0.6356
  784MPD2    C511616   3.625   2.392   0.724  0.7997 -0.6645  0.3536
  784MPD2     H11617   3.650   2.641   1.009  1.2826  0.2775  0.2175
  784MPD2    H111618   3.427   2.454   0.696  0.9894 -2.9938 -0.2301
  784MPD2    H211619   3.828   2.341   0.765  0.2191  2.0071 -0.8121
  784MPD2    H311620   3.622   2.349   0.624 -1.3098  0.1413  0.0666
  784MPD2     N11621   3.406   2.643   0.896 -0.3517 -0.1528  0.4689
  784MPD2    H511622   3.427   2.722   0.956  1.1021  1.1834 -1.7878
  784MPD2    N111623   3.870   2.517   0.969 -0.7159 -0.2733  0.3325
  784MPD2    H711624   3.876   2.599   1.030  0.9569 -0.5827  0.5922
  785MPD2     C11625   3.446   0.682  10.547 -0.6748  0.2663 -0.6379
  785MPD2    C111626   3.405   0.777  10.638 -0.5639  0.3322  0.2688
  785MPD2    C211627   3.329   0.876  10.588 -0.0427 -0.2392 -0.9819
  785MPD2    C311628   3.286   0.883  10.458  0.4901  0.0617  1.0373
  785MPD2    C411629   3.333   0.792  10.368  0.4677  0.3108 -0.4379
  785MPD2    C511630   3.411   0.690  10.416 -0.2340 -0.0507 -0.2860
  785MPD2     H11631   3.283   0.941  10.663  0.1780 -1.6709  0.3940
  785MPD2    H111632   3.319   0.793  10.260 -1.2138 -1.9337 -0.2470
  785MPD2    H211633   3.512   0.599  10.570  1.3724  1.4716 -2.1748
  785MPD2    H311634   3.447   0.611  10.351 -0.1276 -0.6767  0.5276
  785MPD2     N11635   3.195   0.990  10.424  0.0836 -0.5390  0.5072
  785MPD2    H511636   3.172   1.051  10.502  2.2332  0.2428  0.5386
  785MPD2    N111637   3.437   0.781  10.776  0.0591 -0.1000  0.1059
  785MPD2    H711638   3.405   0.865  10.823 -0.5948 -1.6776  2.4810
  786MPD2     C11639   2.834   4.040  15.086  0.4967 -0.1484  0.1179
  786MPD2    C111640   2.776   3.920  15.123 -0.3330  0.2670  0.3699
  786MPD2    C211641   2.824   3.859  15.232  0.4911  0.8411 -0.2389
  786MPD2    C311642   2.930   3.902  15.306  0.6480 -0.0789  0.1362
  786MPD2    C411643   2.986   4.020  15.259  0.0064 -0.3242  0.1647
  786MPD2    C511644   2.938   4.092  15.154  0.0387  1.1344  0.0597
  786MPD2     H11645   2.778   3.764  15.258  0.6265  0.7344 -0.3899
  786MPD2    H111646   3.074   4.056  15.311  0.5118 -0.1787 -0.7964
  786MPD2    H211647   2.794   4.093  15.001  0.6549 -0.2521 -0.0215
  786MPD2    H311648   2.968   4.195  15.143  2.5843  0.2869 -1.0387
  786MPD2     N11649   2.984   3.832  15.416  0.1710  0.1316 -0.2701
  786MPD2    H511650   3.071   3.872  15.452 -0.4115 -0.2425  1.5427
  786MPD2    N111651   2.671   3.856  15.051  0.2630  0.5130  0.3191
  786MPD2    H711652   2.628   3.776  15.096  0.4548 -0.8960 -2.0144
  787MPD2     C11653   2.848   3.507  15.144 -0.7038 -0.4410 -0.4619
  787MPD2    C111654   2.790   3.471  15.018  0.2343  0.0252 -0.2017
  787MPD2    C211655   2.869   3.424  14.911  0.4795 -0.3064 -0.0919
  787MPD2    C311656   3.001   3.386  14.941 -0.8223  0.3431  0.4557
  787MPD2    C411657   3.057   3.412  15.066  0.4164  0.9691 -0.0802
  787MPD2    C511658   2.982   3.477  15.163 -0.2135 -0.5545  0.2038
  787MPD2     H11659   2.829   3.390  14.816  1.4684  0.0491 -0.6390
  787MPD2    H111660   3.159   3.387  15.092 -0.5995 -1.9034  1.1424
  787MPD2    H211661   2.799   3.535  15.237 -0.3177 -1.5475  0.0758
  787MPD2    H311662   3.034   3.514  15.251  0.0890 -0.8286  0.1391
  787MPD2     N11663   3.067   3.313  14.845  0.2825  0.7299  0.2101
  787MPD2    H511664   3.020   3.279  14.761 -0.6420 -0.0538  1.0434
  787MPD2    N111665   2.650   3.481  14.989  0.2476 -0.3455  0.2785
  787MPD2    H711666   2.619   3.448  14.899 -1.3615 -0.4365  0.8516
  788MPD2     C11667   4.660   2.337   1.420  0.2898  0.2343 -0.1883
  788MPD2    C111668   4.655   2.278   1.297  0.6706 -0.0698  0.2173
  788MPD2    C211669   4.675   2.354   1.186  0.1207  0.0174  0.0527
  788MPD2    C311670   4.683   2.492   1.200 -0.1796  0.6715 -0.4712
  788MPD2    C411671   4.670   2.555   1.323 -0.2073 -0.1794  0.2145
  788MPD2    C511672   4.659   2.471   1.430 -0.3672 -0.3130 -0.8605
  788MPD2     H11673   4.688   2.304   1.091 -0.1846  1.2303 -0.6318
  788MPD2    H111674   4.672   2.662   1.339  0.8470 -0.4143  1.6413
  788MPD2    H211675   4.638   2.286   1.513  0.3252  0.0325 -0.2902
  788MPD2    H311676   4.648   2.495   1.535  0.6114  0.3082 -0.8933
  788MPD2     N11677   4.693   2.566   1.081  0.4047  0.2203  0.3730
  788MPD2    H511678   4.713   2.514   0.996 -1.8214 -0.7631  0.4579
  788MPD2    N111679   4.643   2.139   1.280 -0.3168 -0.8258  0.5990
  788MPD2    H711680   4.670   2.100   1.190  0.0512 -1.1385  0.8452
  789MPD2     C11681   0.141   1.838  17.462  0.4379 -0.4427 -0.4597
  789MPD2    C111682   0.159   1.847  17.324  0.0019  0.2620 -0.1106
  789MPD2    C211683   0.063   1.907  17.247  0.2681 -0.9946 -0.7621
  789MPD2    C311684   4.702   1.978  17.315 -0.0922 -0.2960 -0.5371
  789MPD2    C411685   4.675   1.966  17.446 -0.1707  0.4540  0.2588
  789MPD2    C511686   0.029   1.890  17.515  0.1515  0.5471  0.6176
  789MPD2     H11687   0.076   1.894  17.140 -1.4083  0.2166 -1.0994
  789MPD2    H111688   4.599   2.013  17.507  0.7718  0.2377  1.6131
  789MPD2    H211689   0.208   1.780  17.524 -0.1334 -0.4250  0.1867
  789MPD2    H311690   0.006   1.865  17.617 -1.9998 -2.3458 -0.5806
  789MPD2     N11691   4.623   2.071  17.242 -0.2173  0.0691  0.2090
  789MPD2    H511692   4.546   2.107  17.298  0.2140 -0.4540  1.1329
  789MPD2    N111693   0.261   1.778  17.249 -0.5187 -0.0946 -0.5414
  789MPD2    H711694   0.256   1.784  17.147  1.0436 -0.3286 -0.6250
  790MPD2     C11695   1.052   3.919  13.601  0.1729 -0.2477  0.3234
  790MPD2    C111696   1.095   3.807  13.665  0.4982  0.2196  0.8920
  790MPD2    C211697   1.123   3.696  13.581 -0.4237 -0.0526 -0.0630
  790MPD2    C311698   1.084   3.698  13.448  0.1519  0.1627  0.1381
  790MPD2    C411699   1.022   3.807  13.391 -0.4888  0.0458 -0.0757
  790MPD2    C511700   1.016   3.919  13.468 -0.5679 -1.0568 -0.9043
  790MPD2     H11701   1.172   3.606  13.616  0.1209 -0.5881 -2.1888
  790MPD2    H111702   0.982   3.811  13.290 -1.7548  0.8280  0.4570
  790MPD2    H211703   1.040   4.009  13.661 -2.9396  0.4612 -1.3623
  790MPD2    H311704   0.983   4.012  13.423  0.1573 -0.2505  0.2524
  790MPD2     N11705   1.104   3.573  13.384  0.1686  0.0108 -0.1344
  790MPD2    H511706   1.151   3.501  13.438 -0.8410 -1.4567 -1.2049
  790MPD2    N111707   1.139   3.820  13.799  0.0049  0.2641  0.0447
  790MPD2    H711708   1.115   3.904  13.851  0.0607  0.3616 -0.0880
  791MPD2     C11709   0.912   2.755  13.030 -0.6517  0.3447  0.3577
  791MPD2    C111710   0.863   2.882  13.010  0.0162  0.4229  0.2473
  791MPD2    C211711   0.758   2.901  12.925  1.0287  0.1053 -0.2290
  791MPD2    C311712   0.684   2.797  12.874  0.4487 -0.7389 -0.2631
  791MPD2    C411713   0.724   2.671  12.909 -0.4619 -0.3963 -0.8146
  791MPD2    C511714   0.839   2.652  12.982 -0.2887 -0.6069  0.3871
  791MPD2     H11715   0.728   3.000  12.892 -0.0699 -0.7009 -1.6428
  791MPD2    H111716   0.686   2.582  12.859 -0.6272 -0.7877  0.0103
  791MPD2    H211717   1.010   2.738  13.073  0.3121  1.1212 -1.5301
  791MPD2    H311718   0.886   2.555  12.999  0.2512 -0.0736  1.8761
  791MPD2     N11719   0.580   2.817  12.783  0.2078  0.4387  0.7241
  791MPD2    H511720   0.572   2.908  12.739  1.4534  1.3611  2.4437
  791MPD2    N111721   0.940   2.983  13.071  0.0068 -0.3896 -0.7843
  791MPD2    H711722   0.998   2.941  13.144 -0.0803 -0.0113 -0.4994
  792MPD2     C11723   1.660   2.642  11.645 -0.1664  1.0255  0.8515
  792MPD2    C111724   1.613   2.715  11.536  0.3087 -0.1863 -0.2905
  792MPD2    C211725   1.520   2.662  11.447  0.2055 -0.3192 -0.0270
  792MPD2    C311726   1.481   2.527  11.460  0.8830 -0.2551  0.1245
  792MPD2    C411727   1.529   2.454  11.568 -0.2410  0.3121 -0.2133
  792MPD2    C511728   1.619   2.510  11.655 -0.0285  0.8447  0.6973
  792MPD2     H11729   1.468   2.722  11.374 -0.6315 -1.2355 -0.1797
  792MPD2    H111730   1.500   2.350  11.583  1.2565 -0.7403 -4.5862
  792MPD2    H211731   1.740   2.687  11.701  1.8067  0.3272 -1.4047
  792MPD2    H311732   1.653   2.451  11.740  0.0752  1.0620  0.8086
  792MPD2     N11733   1.384   2.457  11.370 -0.3776 -0.0214  0.0388
  792MPD2    H511734   1.384   2.356  11.374 -0.9388 -0.0021  0.5847
  792MPD2    N111735   1.675   2.844  11.515 -0.2877 -0.6361  0.3567
  792MPD2    H711736   1.726   2.898  11.584  1.0513  0.6012 -1.5802
  793MPD2     C11737   0.567   2.463  10.646  0.0605 -0.5633  1.0659
  793MPD2    C111738   0.693   2.507  10.619 -0.7420 -0.3181  0.4799
  793MPD2    C211739   0.797   2.462  10.697 -0.0573  0.0219 -1.0448
  793MPD2    C311740   0.771   2.388  10.811 -0.4812 -0.0399 -0.3496
  793MPD2    C411741   0.639   2.349  10.843 -0.3594 -0.2317 -0.2928
  793MPD2    C511742   0.540   2.389  10.757 -0.1554  0.0398 -0.8885
  793MPD2     H11743   0.897   2.497  10.674  0.6106 -1.1803  0.0354
  793MPD2    H111744   0.606   2.282  10.921  0.9455 -0.5832 -0.0469
  793MPD2    H211745   0.479   2.482  10.586  1.8964  1.7934 -0.8778
  793MPD2    H311746   0.442   2.343  10.765 -0.0382 -0.4078 -2.1702
  793MPD2     N11747   0.877   2.355  10.903  0.8956 -0.1124 -0.3294
  793MPD2    H511748   0.850   2.301  10.985 -0.4996  0.8732 -0.1318
  793MPD2    N111749   0.730   2.589  10.504  0.0293  0.9041  0.3830
  793MPD2    H711750   0.828   2.592  10.480 -0.4982 -1.8833 -2.1002
  794MPD2     C11751   0.939   2.664  16.976  0.1544 -1.1733  0.0650
  794MPD2    C111752   0.852   2.577  17.034 -0.0422  0.4621  0.2188
  794MPD2    C211753   0.724   2.580  16.982 -0.0866  0.0951  0.4630
  794MPD2    C311754   0.686   2.647  16.863 -0.0574 -0.4576  0.5644
  794MPD2    C411755   0.784   2.730  16.810 -0.5565 -0.1191  0.8309
  794MPD2    C511756   0.908   2.731  16.861  0.0414  0.5361  0.5794
  794MPD2     H11757   0.657   2.507  17.026  1.2089 -1.0744  0.5165
  794MPD2    H111758   0.780   2.792  16.720  2.0722  1.3501  1.7430
  794MPD2    H211759   1.043   2.646  16.999  0.2779  0.8146  1.1118
  794MPD2    H311760   0.989   2.772  16.801  1.1541 -0.3691  1.4574
  794MPD2     N11761   0.570   2.637  16.797 -0.0409 -0.1333 -0.0800
  794MPD2    H511762   0.556   2.692  16.713  0.1605  0.7858  0.4963
  794MPD2    N111763   0.882   2.480  17.127  0.1504 -0.7487 -0.3207
  794MPD2    H711764   0.811   2.410  17.149 -0.6706 -0.4139 -1.9365
  795MPD2     C11765   3.679   0.122  14.265 -0.5197  0.1982  0.2035
  795MPD2    C111766   3.640   4.733  14.209 -0.5120  0.2674 -0.4010
  795MPD2    C211767   3.730   4.624  14.208 -0.5096  0.3153 -0.5106
  795MPD2    C311768   3.853   4.647  14.272  0.2270 -0.3287 -0.1053
  795MPD2    C411769   3.878   0.024  14.340 -0.0431 -0.1121 -0.3216
  795MPD2    C511770   3.794   0.129  14.326  0.1473 -0.5866  0.2070
  795MPD2     H11771   3.708   4.529  14.160 -0.4470 -0.3620  0.8165
  795MPD2    H111772   3.972   0.030  14.394  0.8186 -1.6591 -1.6726
  795MPD2    H211773   3.614   0.208  14.258 -0.1786  0.3872 -0.5822
  795MPD2    H311774   3.815   0.228  14.366 -1.3666  0.0619 -0.5816
  795MPD2     N11775   3.947   4.541  14.276 -0.2187 -0.2889 -0.1945
  795MPD2    H511776   3.908   4.450  14.256 -0.4734 -0.2058 -0.0833
  795MPD2    N111777   3.516   4.717  14.139 -0.2274 -0.0595 -0.4865
  795MPD2    H711778   3.491   4.632  14.090 -0.5051 -0.5147  0.4505
  796MPD2     C11779   3.208   1.140  16.042  0.3115  0.0402 -0.1078
  796MPD2    C111780   3.255   1.241  16.120  0.2734  0.0887 -0.2991
  796MPD2    C211781   3.205   1.369  16.098 -0.3148  0.2217 -0.2403
  796MPD2    C311782   3.104   1.391  16.003  0.4453  0.2344 -0.0489
  796MPD2    C411783   3.062   1.287  15.913  0.3779  0.0256  0.2211
  796MPD2    C511784   3.118   1.166  15.931 -0.3830 -0.4133  0.8778
  796MPD2     H11785   3.250   1.457  16.142 -1.5900  0.4190  0.6627
  796MPD2    H111786   2.988   1.296  15.834  1.3655 -2.2549 -0.9715
  796MPD2    H211787   3.256   1.043  16.034  1.6768  0.5565  2.0583
  796MPD2    H311788   3.092   1.079  15.872  0.5438  1.1221 -1.7995
  796MPD2     N11789   3.046   1.519  15.992 -0.0562 -0.2909 -0.9178
  796MPD2    H511790   3.071   1.588  16.062 -3.2768 -0.6442  0.5825
  796MPD2    N111791   3.349   1.206  16.222 -0.4364  0.5312 -0.0833
  796MPD2    H711792   3.370   1.107  16.228  1.4281  0.9264 -0.2509
  797MPD2     C11793   4.248   1.300  17.486 -0.4716  0.0000 -0.6055
  797MPD2    C111794   4.192   1.405  17.549  0.6977 -0.0792  0.5205
  797MPD2    C211795   4.074   1.462  17.495  0.3502  0.4636 -0.3272
  797MPD2    C311796   4.019   1.414  17.380 -0.2547 -0.2679 -0.5670
  797MPD2    C411797   4.079   1.304  17.319  0.4358  0.5274  0.3900
  797MPD2    C511798   4.195   1.249  17.370  0.4149 -0.2073 -0.3175
  797MPD2     H11799   4.028   1.541  17.553 -3.8573 -3.1046  1.1312
  797MPD2    H111800   4.047   1.267  17.222 -1.7716  1.2823  0.8495
  797MPD2    H211801   4.335   1.252  17.529 -0.0637  2.2326  1.0218
  797MPD2    H311802   4.237   1.165  17.317  1.4983 -0.2739  0.6419
  797MPD2     N11803   3.910   1.474  17.319  0.1527 -0.1408  0.5546
  797MPD2    H511804   3.866   1.432  17.238 -2.6507 -1.8914  2.9514
  797MPD2    N111805   4.225   1.449  17.677  0.0434  0.7520  0.6209
  797MPD2    H711806   4.161   1.519  17.715 -0.5678 -0.6368  2.1458
  798MPD2     C11807   3.705   1.973   0.062 -0.0375  0.0074 -0.1937
  798MPD2    C111808   3.759   1.872  17.733  0.2933 -0.2564 -0.7449
  798MPD2    C211809   3.874   1.822   0.007  0.1490  0.3747  0.0786
  798MPD2    C311810   3.945   1.867   0.118 -1.0940 -0.2269  0.2719
  798MPD2    C411811   3.908   1.978   0.187 -0.2565 -0.4477  0.1494
  798MPD2    C511812   3.781   2.017   0.164 -0.0012  0.1674 -0.2777
  798MPD2     H11813   3.918   1.747  17.695 -0.3135 -0.8734  1.2199
  798MPD2    H111814   3.954   2.011   0.279  3.9333  0.5282 -2.2894
  798MPD2    H211815   3.598   1.991   0.062 -0.2870 -1.5186  1.0060
  798MPD2    H311816   3.741   2.097   0.224  1.0166  0.1392  0.4316
  798MPD2     N11817   4.050   1.775   0.145 -0.2777 -0.0994  0.3603
  798MPD2    H511818   4.040   1.685   0.101  1.4091 -0.3614  0.5186
  798MPD2    N111819   3.702   1.827  17.611  0.3767 -0.3334  0.2378
  798MPD2    H711820   3.758   1.763  17.555 -1.3827  0.0156 -1.9454
  799MPD2     C11821   3.467   2.625  14.422  0.5182 -0.3802  0.4193
  799MPD2    C111822   3.353   2.564  14.466  0.0731  0.3408  0.1965
  799MPD2    C211823   3.231   2.606  14.418 -0.1399  0.0493  0.0684
  799MPD2    C311824   3.228   2.695  14.315 -0.2238 -0.4303  0.4395
  799MPD2    C411825   3.347   2.746  14.263 -0.0911  0.3096 -0.2364
  799MPD2    C511826   3.469   2.716  14.317  0.1356  0.5473  1.1748
  799MPD2     H11827   3.139   2.558  14.447 -1.2258  0.2101 -3.0731
  799MPD2    H111828   3.345   2.818  14.182  1.1513  0.3926 -0.1896
  799MPD2    H211829   3.566   2.614  14.465  0.2605 -0.0908  1.0790
  799MPD2    H311830   3.560   2.771  14.296 -0.1449  1.0030  1.1487
  799MPD2     N11831   3.113   2.722  14.243 -0.2202  0.2599 -0.0856
  799MPD2    H511832   3.124   2.791  14.170 -0.1006  1.5127  1.1069
  799MPD2    N111833   3.353   2.476  14.572 -0.4346 -0.3887 -0.0237
  799MPD2    H711834   3.264   2.445  14.609 -1.4254 -0.3014 -2.3927
  800MPD2     C11835   3.770   3.487  14.964 -0.4084 -0.7985  0.2649
  800MPD2    C111836   3.890   3.473  14.891  0.1333 -0.5281  0.0139
  800MPD2    C211837   3.883   3.432  14.761  0.0320 -1.1034  0.7819
  800MPD2    C311838   3.763   3.404  14.701 -0.4754  0.2389  0.1829
  800MPD2    C411839   3.651   3.397  14.778 -1.0231 -0.5904  0.5174
  800MPD2    C511840   3.657   3.437  14.906 -0.1370 -0.4693  0.0182
  800MPD2     H11841   3.970   3.427  14.696 -0.3444  0.4033  0.1740
  800MPD2    H111842   3.555   3.368  14.737  0.5636  0.1272 -3.7862
  800MPD2    H211843   3.763   3.529  15.063 -2.6365 -2.0382  0.6365
  800MPD2    H311844   3.563   3.453  14.958 -0.1675 -0.0265 -0.1726
  800MPD2     N11845   3.773   3.371  14.567 -0.4954 -0.5683  0.0132
  800MPD2    H511846   3.868   3.360  14.533 -0.1731  1.5897  0.1936
  800MPD2    N111847   4.010   3.536  14.940 -0.7443 -0.1744 -0.5389
  800MPD2    H711848   4.003   3.572  15.034 -0.3077 -1.7307  0.0875
  801MPD2     C11849   4.073   4.195  15.167 -0.3135 -0.1242 -0.3752
  801MPD2    C111850   4.031   4.065  15.178  0.6914  0.0634  1.3569
  801MPD2    C211851   3.902   4.040  15.230 -0.3407  0.1540  0.3017
  801MPD2    C311852   3.819   4.148  15.265 -0.1810 -0.2641 -0.7266
  801MPD2    C411853   3.862   4.279  15.254 -0.1838  0.1673 -0.0032
  801MPD2    C511854   3.993   4.298  15.204 -0.4009  0.0896  0.3390
  801MPD2     H11855   3.866   3.938  15.224 -1.3985  0.5096  0.6745
  801MPD2    H111856   3.806   4.369  15.276  1.9079  1.6732 -0.8364
  801MPD2    H211857   4.163   4.231  15.118 -0.0204  0.4032  0.5333
  801MPD2    H311858   4.029   4.397  15.181 -0.4926 -0.2642 -1.3304
  801MPD2     N11859   3.676   4.128  15.280 -0.1266  0.1759 -0.3138
  801MPD2    H511860   3.618   4.210  15.276 -0.6424 -0.0166  3.3537
  801MPD2    N111861   4.111   3.956  15.139 -1.2078 -0.1672  0.0932
  801MPD2    H711862   4.076   3.862  15.157 -0.8707 -0.8257 -2.7055
  802MPD2     C11863   2.398   0.237  17.640  0.0318  0.2208  0.2126
  802MPD2    C111864   2.383   0.165   0.005 -0.0529  0.1996  0.3227
  802MPD2    C211865   2.379   0.027   0.010  0.1217  0.0537  0.5362
  802MPD2    C311866   2.384   4.691  17.644 -0.0992 -0.6618 -0.7760
  802MPD2    C411867   2.384   0.025  17.531  0.4419 -0.4329 -0.1374
  802MPD2    C511868   2.399   0.163  17.527 -0.1462  0.0321  0.4571
  802MPD2     H11869   2.371   4.713   0.104 -1.6061 -0.3443  0.1600
  802MPD2    H111870   2.402   4.711  17.438 -0.5054  0.6844 -0.9517
  802MPD2    H211871   2.389   0.344  17.626 -1.2404 -0.1307 -1.5857
  802MPD2    H311872   2.399   0.202  17.426  0.1674 -0.3348  0.3155
  802MPD2     N11873   2.382   4.552  17.656  0.1055  0.0990 -0.4384
  802MPD2    H511874   2.404   4.505  17.744  0.1635 -0.0879 -0.5518
  802MPD2    N111875   2.366   0.239   0.116  0.6214  0.1789 -0.3288
  802MPD2    H711876   2.334   0.178   0.191  3.3766 -1.7726 -0.7637
  803MPD2     C11877   3.566   2.900  12.251  0.7989  0.4677 -0.0669
  803MPD2    C111878   3.688   2.850  12.217 -0.8441 -0.1155  0.3046
  803MPD2    C211879   3.737   2.737  12.290  0.1302  0.0663  0.8879
  803MPD2    C311880   3.665   2.685  12.394  1.0281 -0.0244  0.1371
  803MPD2    C411881   3.546   2.745  12.423 -0.0205 -0.0366 -0.1311
  803MPD2    C511882   3.499   2.850  12.354 -0.2346 -0.8019 -0.2746
  803MPD2     H11883   3.837   2.703  12.264  0.1121 -0.4320  1.4726
  803MPD2    H111884   3.489   2.715  12.510 -0.0022 -1.8332 -0.7342
  803MPD2    H211885   3.532   2.994  12.211 -1.0061  0.8150  2.3053
  803MPD2    H311886   3.415   2.902  12.399 -1.0698  0.3438 -3.2242
  803MPD2     N11887   3.722   2.594  12.486  0.0707  0.2785  0.3143
  803MPD2    H511888   3.672   2.568  12.570 -0.3107  3.3315  1.0290
  803MPD2    N111889   3.777   2.902  12.124  0.0141  0.1437 -0.3297
  803MPD2    H711890   3.862   2.851  12.102 -0.2121  0.5238 -2.0619
  804MPD2     C11891   3.540   4.655  16.939 -0.4757  0.3133  0.3181
  804MPD2    C111892   3.531   4.647  17.076 -0.5362 -0.3161 -0.0798
  804MPD2    C211893   3.634   4.698  17.152 -0.4220 -0.0824 -0.0693
  804MPD2    C311894   3.731   0.039  17.096  0.2493  0.1524 -0.7750
  804MPD2    C411895   3.721   0.060  16.959  0.2574 -0.1205 -0.7833
  804MPD2    C511896   3.634   4.733  16.886 -0.0891 -0.4096  0.0185
  804MPD2     H11897   3.632   4.679  17.259 -2.2936 -0.3237 -0.1556
  804MPD2    H111898   3.785   0.128  16.905 -0.9261  1.0905 -0.6451
  804MPD2    H211899   3.484   4.614  16.856  0.6348  0.1021 -0.3284
  804MPD2    H311900   3.633   0.012  16.779  1.3373 -1.0566 -0.0993
  804MPD2     N11901   3.834   0.084  17.186 -0.1908  0.4177  0.4347
  804MPD2    H511902   3.819   0.074  17.285  1.5437  2.1427  0.8727
  804MPD2    N111903   3.433   4.563  17.137 -0.6621  0.1421  0.1183
  804MPD2    H711904   3.443   4.555  17.238 -0.4804 -1.0124  0.0056
  805MPD2     C11905   2.728   2.128  15.350 -0.1299  0.1190 -0.8725
  805MPD2    C111906   2.770   2.247  15.307  0.2611  0.4782 -0.3546
  805MPD2    C211907   2.844   2.328  15.383  0.2780 -0.3264 -0.1503
  805MPD2    C311908   2.890   2.284  15.506 -0.1040 -0.7264  0.1261
  805MPD2    C411909   2.873   2.152  15.539 -0.7970 -0.3485  0.0497
  805MPD2    C511910   2.792   2.074  15.463  0.3290  0.0756 -0.6140
  805MPD2     H11911   2.869   2.428  15.350  0.0812  0.0602  0.8802
  805MPD2    H111912   2.921   2.115  15.629  1.6859  3.2030  0.1915
  805MPD2    H211913   2.672   2.065  15.282 -1.4079  0.7838 -0.4180
  805MPD2    H311914   2.772   1.972  15.493  1.7332  0.0523  0.2049
  805MPD2     N11915   2.971   2.377  15.581 -0.5595  0.8852  0.5661
  805MPD2    H511916   2.990   2.465  15.532  2.1315  0.0313  0.0803
  805MPD2    N111917   2.743   2.296  15.178  0.3409  0.1012 -0.4174
  805MPD2    H711918   2.791   2.383  15.154 -0.4507  0.7281  0.2619
  806MPD2     C11919   2.688   2.286   0.530  0.0323  0.2385 -0.1137
  806MPD2    C111920   2.780   2.319   0.626  0.5733 -0.5165 -0.6215
  806MPD2    C211921   2.890   2.402   0.598 -0.1676 -0.2245 -0.7522
  806MPD2    C311922   2.900   2.454   0.473 -0.0735 -0.4419 -0.0865
  806MPD2    C411923   2.801   2.423   0.379 -0.6354 -0.0388  0.1598
  806MPD2    C511924   2.698   2.347   0.411  0.2392 -0.2702 -0.4876
  806MPD2     H11925   2.973   2.420   0.665 -1.5967  0.9136  0.7102
  806MPD2    H111926   2.805   2.445   0.273 -0.3120  0.3532  0.2561
  806MPD2    H211927   2.604   2.220   0.551 -0.6058  1.2862  0.6045
  806MPD2    H311928   2.628   2.313   0.336  0.2511 -0.8229 -0.2486
  806MPD2     N11929   3.021   2.524   0.439  0.3987  0.8759 -0.1713
  806MPD2    H511930   3.103   2.524   0.499  0.0190  1.3602  0.3557
  806MPD2    N111931   2.749   2.278   0.756 -0.3991 -0.1244 -0.3124
  806MPD2    H711932   2.651   2.253   0.768  0.4067 -3.4492 -0.5478
  807MPD2     C11933   2.431   1.739   1.190  0.2743 -0.0530 -0.0407
  807MPD2    C111934   2.545   1.778   1.253 -0.7619 -0.4818 -0.2579
  807MPD2    C211935   2.603   1.697   1.349  0.1175 -0.3020  0.4768
  807MPD2    C311936   2.543   1.579   1.388  0.5146  0.3960 -0.4401
  807MPD2    C411937   2.418   1.551   1.340  1.2428 -0.6139  0.1424
  807MPD2    C511938   2.368   1.630   1.238 -0.1338  0.3053 -0.2797
  807MPD2     H11939   2.699   1.717   1.394  0.2194 -0.5002  0.3480
  807MPD2    H111940   2.365   1.467   1.385  0.0507  0.8523  1.4778
  807MPD2    H211941   2.382   1.805   1.120  0.6121  0.7274  0.4649
  807MPD2    H311942   2.274   1.611   1.187 -0.1089  2.8033 -1.2415
  807MPD2     N11943   2.609   1.494   1.482 -0.4856  0.0330  0.2800
  807MPD2    H511944   2.695   1.530   1.522 -0.2253 -1.9751  1.5096
  807MPD2    N111945   2.613   1.897   1.214 -0.0415 -0.0844 -0.1588
  807MPD2    H711946   2.701   1.922   1.259  0.4165 -1.7488 -0.1345
  808MPD2     C11947   3.239   3.783   9.853  0.0601  0.6412 -0.2227
  808MPD2    C111948   3.227   3.675   9.938 -0.5916 -0.0204  0.4599
  808MPD2    C211949   3.208   3.702  10.071 -0.4728  0.1535  0.2213
  808MPD2    C311950   3.204   3.833  10.121 -0.5911 -0.0578  0.2025
  808MPD2    C411951   3.222   3.931  10.035  0.1389  0.2428 -0.4210
  808MPD2    C511952   3.248   3.907   9.904  0.4829  0.8887 -0.3888
  808MPD2     H11953   3.168   3.623  10.133  2.0660 -0.6933  0.7764
  808MPD2    H111954   3.224   4.035  10.065 -1.2136  0.0398  0.3644
  808MPD2    H211955   3.257   3.762   9.748 -1.4718  0.9237 -0.5434
  808MPD2    H311956   3.277   3.990   9.841  0.4887  1.4370  0.3401
  808MPD2     N11957   3.169   3.869  10.248 -0.2991 -0.0735 -0.1109
  808MPD2    H511958   3.175   3.966  10.275  1.4834  0.1618 -1.4058
  808MPD2    N111959   3.219   3.538   9.894  0.1179  0.2449  0.4150
  808MPD2    H711960   3.194   3.475   9.970 -2.0157 -0.5005 -0.9175
  809MPD2     C11961   3.606   4.249  10.931  0.5531  0.1695  0.2033
  809MPD2    C111962   3.559   4.307  10.816 -0.4505 -0.6648 -1.0935
  809MPD2    C211963   3.440   4.268  10.751 -0.0749  0.1629 -0.0048
  809MPD2    C311964   3.362   4.169  10.804 -0.4064 -0.4008  0.1162
  809MPD2    C411965   3.408   4.115  10.918  0.8310 -0.0625 -0.2580
  809MPD2    C511966   3.517   4.159  10.988 -0.1599 -0.1067 -0.4911
  809MPD2     H11967   3.404   4.316  10.660  0.9724  2.7538  0.9494
  809MPD2    H111968   3.345   4.049  10.977 -0.2122  0.0547 -1.2410
  809MPD2    H211969   3.700   4.275  10.977  0.9282 -0.2012 -0.3562
  809MPD2    H311970   3.534   4.114  11.086  2.6222  2.0971  0.0252
  809MPD2     N11971   3.245   4.112  10.754  0.8443  0.0906 -0.3083
  809MPD2    H511972   3.216   4.030  10.806 -1.7898  2.0487  1.3460
  809MPD2    N111973   3.637   4.412  10.761 -0.1818  0.4963  0.1615
  809MPD2    H711974   3.603   4.435  10.668 -0.6216 -0.9485 -0.0381
  810MPD2     C11975   3.198   3.305  11.127  0.2394  0.4182 -0.2454
  810MPD2    C111976   3.059   3.299  11.088 -0.1908 -0.2388  0.3471
  810MPD2    C211977   2.992   3.415  11.082  0.7139  0.5012  0.9738
  810MPD2    C311978   3.058   3.534  11.116 -0.0529 -0.0214 -0.2095
  810MPD2    C411979   3.192   3.543  11.144  0.3224 -0.6402 -0.3389
  810MPD2    C511980   3.257   3.424  11.154 -0.0564  1.0865 -0.9386
  810MPD2     H11981   2.885   3.407  11.064  0.8961 -0.1707  0.1922
  810MPD2    H111982   3.237   3.636  11.174  0.4274 -0.8809  0.2485
  810MPD2    H211983   3.257   3.215  11.121  0.8011  0.8948 -2.0282
  810MPD2    H311984   3.361   3.436  11.184 -0.3906  1.4408  0.0862
  810MPD2     N11985   2.986   3.655  11.118  0.0929 -0.0439 -0.1592
  810MPD2    H511986   3.048   3.735  11.133  0.4259 -0.9938  3.5102
  810MPD2    N111987   2.989   3.183  11.057 -0.2276 -0.1363 -0.5071
  810MPD2    H711988   2.893   3.188  11.022 -0.4321  2.2449  0.4169
  811MPD2     C11989   2.464   3.124  10.487 -0.8475 -0.3283  0.0902
  811MPD2    C111990   2.535   3.183  10.589  0.2235 -1.3347  0.1477
  811MPD2    C211991   2.533   3.319  10.615  0.0565  0.6004 -0.4474
  811MPD2    C311992   2.450   3.399  10.537  0.3531 -0.6417 -0.1498
  811MPD2    C411993   2.377   3.343  10.434  0.1483 -0.4465  0.0451
  811MPD2    C511994   2.382   3.208  10.410  0.1969 -0.1594 -0.4136
  811MPD2     H11995   2.570   3.362  10.708  1.1833  0.5034 -0.8654
  811MPD2    H111996   2.306   3.398  10.372  0.2147  3.1162  3.1015
  811MPD2    H211997   2.469   3.019  10.463  1.2622 -0.6396  1.8593
  811MPD2    H311998   2.312   3.163  10.341 -0.6869 -0.2086  0.5071
  811MPD2     N11999   2.448   3.537  10.548 -1.0459  0.4767  0.3087
  811MPD2    H512000   2.501   3.574  10.626  0.0202 -0.3435 -0.0292
  811MPD2    N112001   2.614   3.096  10.666  0.0388  0.8572  0.2680
  811MPD2    H712002   2.603   2.997  10.647 -0.6481  1.1737 -0.9741
  812MPD2     C12003   2.092   3.131  12.405 -0.5847  0.2868  1.0496
  812MPD2    C112004   1.977   3.161  12.479 -0.6837  0.3259 -0.2771
  812MPD2    C212005   1.954   3.106  12.603 -0.3637  0.7992  0.3032
  812MPD2    C312006   2.055   3.038  12.667 -0.4747  0.2702  0.4369
  812MPD2    C412007   2.169   3.012  12.588 -0.0814 -0.0672 -0.2532
  812MPD2    C512008   2.182   3.049  12.461  0.1118  0.4839 -0.5162
  812MPD2     H12009   1.858   3.120  12.651 -1.3488 -1.4311 -1.0163
  812MPD2    H112010   2.247   2.951  12.631  0.7611  1.2218  0.0195
  812MPD2    H212011   2.112   3.168  12.305 -1.7370 -2.4022 -0.1949
  812MPD2    H312012   2.268   3.031  12.398  0.5419 -0.7521  0.4234
  812MPD2     N12013   2.041   2.994  12.800 -0.0099 -0.3215 -0.1116
  812MPD2    H512014   1.948   3.013  12.836  0.9655  3.2429  0.5347
  812MPD2    N112015   1.884   3.245  12.413  0.2462 -0.0532 -0.4241
  812MPD2    H712016   1.891   3.265  12.314  0.5524 -2.5632 -0.9198
  813MPD2     C12017   1.147   4.697  12.711  0.6419  0.5291 -0.2693
  813MPD2    C112018   1.141   0.091  12.718 -0.1681 -0.0366 -0.5557
  813MPD2    C212019   1.058   0.155  12.811  0.1060 -0.8477  0.5391
  813MPD2    C312020   0.985   0.084  12.898  0.3538 -0.2438 -0.0709
  813MPD2    C412021   0.983   4.682  12.893  0.5931 -0.2753 -0.3296
  813MPD2    C512022   1.072   4.627  12.799  0.0620 -0.3346 -0.6850
  813MPD2     H12023   1.062   0.263  12.812 -0.1062 -0.8244 -1.0174
  813MPD2    H112024   0.922   4.623  12.960 -0.6203 -0.5513 -1.6861
  813MPD2    H212025   1.216   4.642  12.648 -0.9782  0.0038 -1.5581
  813MPD2    H312026   1.083   4.519  12.798  0.4769 -0.2983  0.0241
  813MPD2     N12027   0.928   0.161  13.004 -0.2617 -0.0302  0.3624
  813MPD2    H512028   0.934   0.262  12.995 -1.9883 -0.0202 -0.9137
  813MPD2    N112029   1.233   0.156  12.640  0.2597 -0.0417  0.3671
  813MPD2    H712030   1.307   0.107  12.590  2.5447  3.6375  0.1997
  814MPD2     C12031   0.999   1.452  12.260  0.2056 -0.3748 -0.2036
  814MPD2    C112032   1.095   1.399  12.184  0.5939 -0.5669 -0.4380
  814MPD2    C212033   1.223   1.450  12.198  0.3083 -0.1775  0.3209
  814MPD2    C312034   1.253   1.546  12.301 -0.8570 -0.7412 -0.4649
  814MPD2    C412035   1.156   1.588  12.383 -0.7586  0.2057 -0.2959
  814MPD2    C512036   1.027   1.541  12.360 -0.0132  0.1629 -0.0036
  814MPD2     H12037   1.301   1.421  12.130 -1.7765 -1.9912 -1.2996
  814MPD2    H112038   1.169   1.675  12.446 -0.6256 -0.0356  0.0087
  814MPD2    H212039   0.893   1.427  12.254  0.1953 -0.2220 -0.6106
  814MPD2    H312040   0.945   1.578  12.421  0.4289  2.2744 -0.7038
  814MPD2     N12041   1.387   1.576  12.325 -0.1269 -0.3023  0.3284
  814MPD2    H512042   1.403   1.662  12.377 -0.1607  0.0694 -0.2785
  814MPD2    N112043   1.073   1.305  12.083  0.5439 -0.1880 -0.2066
  814MPD2    H712044   1.158   1.282  12.032  0.7935 -1.5305  0.8190
  815MPD2     C12045   1.875   4.464  12.529 -0.2815  0.7684 -0.2391
  815MPD2    C112046   1.877   4.475  12.395 -0.8083  0.0252 -0.0081
  815MPD2    C212047   1.769   4.528  12.325 -0.5903 -0.2730 -0.6578
  815MPD2    C312048   1.657   4.580  12.386 -0.2360 -0.1627  0.2795
  815MPD2    C412049   1.657   4.572  12.526 -0.5818 -0.2660 -0.2099
  815MPD2    C512050   1.763   4.508  12.589 -0.7642  0.4976  0.3431
  815MPD2     H12051   1.761   4.512  12.218  2.1568 -1.2872 -0.7066
  815MPD2    H112052   1.565   4.593  12.580  0.1195  2.5220 -0.0941
  815MPD2    H212053   1.958   4.427  12.588 -1.4765 -1.5630 -0.0203
  815MPD2    H312054   1.757   4.512  12.697  0.3192  1.7037  0.3556
  815MPD2     N12055   1.560   4.626  12.302 -0.2098  0.0275 -0.2412
  815MPD2    H512056   1.568   4.593  12.206 -0.2418 -0.8542  0.0574
  815MPD2    N112057   1.992   4.429  12.325  0.0248  0.6578  0.2135
  815MPD2    H712058   2.061   4.374  12.375 -2.0226 -2.0110  0.0738
  816MPD2     C12059   1.566   3.398  17.278  0.0113  1.0933  1.0398
  816MPD2    C112060   1.623   3.523  17.315  0.5322  0.2055  0.3253
  816MPD2    C212061   1.748   3.548  17.264 -0.1628 -0.4469 -0.6480
  816MPD2    C312062   1.820   3.454  17.194  0.0678  0.5986 -0.1082
  816MPD2    C412063   1.770   3.326  17.182  0.2414  0.0259 -0.2065
  816MPD2    C512064   1.643   3.304  17.212  0.4090 -0.7541 -0.4076
  816MPD2     H12065   1.790   3.646  17.284 -0.0148 -0.9242  1.3481
  816MPD2    H112066   1.834   3.249  17.139 -0.3993 -0.1070 -0.9142
  816MPD2    H212067   1.468   3.372  17.314  0.0315 -1.1410 -0.4897
  816MPD2    H312068   1.601   3.204  17.205 -0.8168 -0.3766  1.5164
  816MPD2     N12069   1.952   3.491  17.142  0.3998 -0.0778  0.1716
  816MPD2    H512070   1.981   3.584  17.173 -0.5487  0.6287 -1.0666
  816MPD2    N112071   1.553   3.613  17.400 -0.3060 -0.2775  0.2357
  816MPD2    H712072   1.452   3.603  17.405 -0.3448 -0.9727 -1.7840
  817MPD2     C12073   1.481   0.856  10.033  0.0404 -0.4035 -0.5923
  817MPD2    C112074   1.559   0.744   9.994  0.1142  0.2524 -0.7237
  817MPD2    C212075   1.700   0.755   9.971 -0.3972  0.6249 -0.2971
  817MPD2    C312076   1.763   0.877   9.981  0.3776 -0.1296 -0.6452
  817MPD2    C412077   1.682   0.983  10.018  0.8292 -0.1457  0.3349
  817MPD2    C512078   1.551   0.970  10.040 -0.7085 -0.6866 -0.3942
  817MPD2     H12079   1.747   0.661   9.946 -1.4525  0.3256 -1.2066
  817MPD2    H112080   1.717   1.085  10.031  0.4026  0.1629 -0.9218
  817MPD2    H212081   1.375   0.861  10.055 -0.0195 -2.4360 -0.4589
  817MPD2    H312082   1.495   1.056  10.075  1.2844  0.4764 -0.1106
  817MPD2     N12083   1.899   0.899   9.980 -0.4217  0.0785  0.2176
  817MPD2    H512084   1.924   0.997   9.975 -0.2559  0.0619  0.7030
  817MPD2    N112085   1.499   0.614   9.990 -0.0095  0.4843 -0.2926
  817MPD2    H712086   1.562   0.535   9.987  1.5550  1.6450  1.9361
  818MPD2     C12087   0.320   0.473   9.801  0.5269 -0.0191 -0.2001
  818MPD2    C112088   0.258   0.358   9.827  0.0868  0.1028 -0.0916
  818MPD2    C212089   0.305   0.247   9.764 -0.5427  0.3915  0.0971
  818MPD2    C312090   0.407   0.249   9.672 -0.3495  0.0095 -0.0495
  818MPD2    C412091   0.473   0.362   9.639  0.1825 -0.0616  0.4942
  818MPD2    C512092   0.424   0.473   9.707 -0.1283  0.1245  0.4593
  818MPD2     H12093   0.256   0.154   9.792 -0.3670 -0.0520 -1.0892
  818MPD2    H112094   0.561   0.378   9.577 -0.1397  0.8417  0.2719
  818MPD2    H212095   0.283   0.573   9.825  1.8757  0.3687  0.2382
  818MPD2    H312096   0.467   0.567   9.676 -0.2538 -0.4383 -1.4254
  818MPD2     N12097   0.467   0.128   9.624 -0.0061 -0.3669 -0.1756
  818MPD2    H512098   0.556   0.137   9.577  0.1201  0.8782  0.3168
  818MPD2    N112099   0.151   0.353   9.922  0.3227  0.3640 -0.0514
  818MPD2    H712100   0.129   0.260   9.957  2.0265 -0.3079 -0.7497
  819MPD2     C12101   3.546   2.953  15.923 -0.7522  0.7202  0.5634
  819MPD2    C112102   3.574   2.857  15.833 -0.3489 -0.1884 -0.7752
  819MPD2    C212103   3.693   2.783  15.851 -0.8776  0.2826  0.6769
  819MPD2    C312104   3.770   2.798  15.962 -0.0817 -0.0479 -0.1949
  819MPD2    C412105   3.740   2.897  16.050  0.2098 -0.3891  0.2423
  819MPD2    C512106   3.626   2.979  16.026 -0.5534 -0.2208  0.2356
  819MPD2     H12107   3.708   2.705  15.778 -1.7921  2.0133 -1.3832
  819MPD2    H112108   3.809   2.923  16.130 -1.0764  1.1207  0.8594
  819MPD2    H212109   3.458   3.016  15.913 -1.0709  0.3011  0.7177
  819MPD2    H312110   3.611   3.063  16.092 -1.8685  0.8423 -1.4246
  819MPD2     N12111   3.876   2.708  15.981 -0.3238 -0.2615  0.3207
  819MPD2    H512112   3.883   2.627  15.921  1.6246 -0.4330  0.7850
  819MPD2    N112113   3.477   2.825  15.735 -0.4051 -0.6884 -0.3715
  819MPD2    H712114   3.380   2.850  15.755 -0.4752 -1.9145  0.7707
  820MPD2     C12115   3.189   2.667  14.780 -0.2365 -0.0193  0.5587
  820MPD2    C112116   3.128   2.596  14.877  0.2086 -0.1043 -0.0992
  820MPD2    C212117   3.190   2.588  14.997 -0.2078  0.3510  1.1228
  820MPD2    C312118   3.317   2.637  15.025  0.3280 -0.8397 -0.0695
  820MPD2    C412119   3.381   2.690  14.917  0.1963  0.0988 -0.3888
  820MPD2    C512120   3.320   2.699  14.798 -0.0085 -0.1840 -0.7690
  820MPD2     H12121   3.141   2.540  15.081  1.6011 -0.9115  1.4534
  820MPD2    H112122   3.482   2.729  14.924  0.6372 -1.0499 -0.3470
  820MPD2    H212123   3.149   2.683  14.680 -0.3098 -2.6407  0.1896
  820MPD2    H312124   3.373   2.747  14.717  0.2388 -1.9663 -1.6558
  820MPD2     N12125   3.381   2.625  15.146 -0.4982  0.3572 -0.0899
  820MPD2    H512126   3.464   2.683  15.155 -0.5226  0.3387  0.2651
  820MPD2    N112127   2.996   2.548  14.868  0.2142 -0.3324  0.3051
  820MPD2    H712128   2.967   2.507  14.956  1.3328 -2.8382 -0.4896
  821MPD2     C12129   3.606   3.736  13.850  0.4629 -0.8435 -0.3995
  821MPD2    C112130   3.730   3.673  13.873  0.7332  0.1807 -0.4660
  821MPD2    C212131   3.823   3.673  13.770 -0.1486 -0.1369 -0.8095
  821MPD2    C312132   3.807   3.747  13.655 -0.3356 -0.5226  0.4645
  821MPD2    C412133   3.687   3.815  13.639 -1.0999 -0.6171 -0.0174
  821MPD2    C512134   3.588   3.795  13.730 -0.2279  0.2443 -0.4047
  821MPD2     H12135   3.909   3.607  13.783 -0.7531 -1.5277 -3.7489
  821MPD2    H112136   3.648   3.859  13.548 -0.3997  1.1047  0.5083
  821MPD2    H212137   3.529   3.736  13.926 -0.1380 -0.7725 -1.0050
  821MPD2    H312138   3.504   3.864  13.727 -1.1214 -0.8045  0.5520
  821MPD2     N12139   3.904   3.745  13.549 -0.1369  0.8658  0.2556
  821MPD2    H512140   3.907   3.831  13.494 -0.8326  0.3581 -0.5854
  821MPD2    N112141   3.754   3.617  14.001  0.0843 -0.1889 -0.0521
  821MPD2    H712142   3.850   3.591  14.019  0.5736  1.7521  0.1163
  822MPD2     C12143   4.299   4.216  15.896  0.8596  0.1923  0.4760
  822MPD2    C112144   4.277   4.169  16.025 -0.6582 -0.5767  0.5925
  822MPD2    C212145   4.186   4.233  16.108  0.3772 -0.4128  0.2150
  822MPD2    C312146   4.137   4.352  16.072  0.2154 -0.2673  0.5110
  822MPD2    C412147   4.161   4.398  15.949  0.0606 -0.4418  0.0243
  822MPD2    C512148   4.231   4.323  15.862  0.0999 -0.4988 -0.3263
  822MPD2     H12149   4.172   4.208  16.213 -0.5755 -1.1842 -0.0968
  822MPD2    H112150   4.128   4.493  15.909  0.0262  0.0149  1.1418
  822MPD2    H212151   4.369   4.169  15.828  0.2960  2.2881 -1.5386
  822MPD2    H312152   4.245   4.363  15.763 -0.2851 -0.1200 -0.2272
  822MPD2     N12153   4.066   4.427  16.176  0.0349 -0.2483 -0.5508
  822MPD2    H512154   4.077   4.400  16.274  0.6740  1.0775 -0.2534
  822MPD2    N112155   4.342   4.055  16.077  0.0920 -0.6431  0.1566
  822MPD2    H712156   4.318   4.023  16.170 -0.9304 -0.0952  0.0803
  823MPD2     C12157   3.711   4.332  16.922 -0.2649  0.3835 -0.3548
  823MPD2    C112158   3.801   4.299  16.821 -0.4696  0.4361  0.9546
  823MPD2    C212159   3.901   4.203  16.847 -1.1198 -0.0178  0.0130
  823MPD2    C312160   3.908   4.143  16.978  0.3600  0.1012 -0.7190
  823MPD2    C412161   3.814   4.175  17.078  0.0540  0.1306 -0.3455
  823MPD2    C512162   3.720   4.272  17.047 -0.4984 -0.3912  0.1156
  823MPD2     H12163   3.968   4.163  16.773 -2.2572 -1.8348 -0.0386
  823MPD2    H112164   3.814   4.129  17.176  1.5831 -1.6759 -1.1959
  823MPD2    H212165   3.630   4.403  16.914  1.0361  1.8669 -0.3098
  823MPD2    H312166   3.648   4.306  17.121 -0.7173  1.9065 -1.1496
  823MPD2     N12167   3.997   4.037  17.018  1.0790 -0.1890 -0.9069
  823MPD2    H512168   3.975   3.999  17.109  0.1914 -1.1113 -1.5145
  823MPD2    N112169   3.788   4.370  16.704 -0.0217 -0.2157  0.1680
  823MPD2    H712170   3.704   4.427  16.699  0.7531  1.0756  1.8433
  824MPD2     C12171   4.599   3.245  15.983 -0.7116 -0.1788  0.3592
  824MPD2    C112172   4.717   3.309  16.007 -0.4233 -0.7210 -0.1924
  824MPD2    C212173   0.094   3.243  15.980 -0.3637  0.0659  0.4751
  824MPD2    C312174   0.100   3.113  15.931  0.0506 -0.1727 -0.0453
  824MPD2    C412175   4.713   3.052  15.926 -0.4241  0.1127  0.5255
  824MPD2    C512176   4.593   3.116  15.937  0.0053  0.4931 -0.6022
  824MPD2     H12177   0.187   3.296  15.993 -2.4351  3.8879 -0.3978
  824MPD2    H112178   4.699   2.961  15.869  1.7356 -0.5992  1.1119
  824MPD2    H212179   4.500   3.288  15.994 -0.1673  1.1042  0.2562
  824MPD2    H312180   4.502   3.070  15.901 -0.9620  1.3052  0.8039
  824MPD2     N12181   0.227   3.052  15.903 -0.5088 -0.3781  0.0559
  824MPD2    H512182   0.314   3.104  15.902 -0.2228 -0.8408  1.2324
  824MPD2    N112183   4.722   3.445  16.043 -0.2677  0.4573 -0.6518
  824MPD2    H712184   0.072   3.476  16.083  0.4193 -1.8778 -0.4026
  825MPD2     C12185   0.689   3.203  15.336 -0.4267 -0.2440 -0.3506
  825MPD2    C112186   0.697   3.220  15.470  0.6360  0.1732 -0.2884
  825MPD2    C212187   0.751   3.342  15.518  0.5957 -0.4570 -0.4305
  825MPD2    C312188   0.795   3.443  15.436 -0.6460 -0.0986  0.1040
  825MPD2    C412189   0.802   3.424  15.306 -0.0854 -0.5148 -0.2725
  825MPD2    C512190   0.736   3.313  15.260  0.1598  0.1921 -0.4020
  825MPD2     H12191   0.750   3.360  15.625  0.8814  1.7642 -0.8011
  825MPD2    H112192   0.826   3.505  15.238  1.5507  0.3095  1.2858
  825MPD2    H212193   0.647   3.117  15.284 -1.7105 -0.4945  1.1039
  825MPD2    H312194   0.731   3.310  15.152  2.2965  1.2303 -0.5151
  825MPD2     N12195   0.843   3.571  15.487  0.1830  0.0032 -0.1724
  825MPD2    H512196   0.884   3.644  15.430 -0.2980  0.4651  0.0819
  825MPD2    N112197   0.635   3.117  15.548 -0.1147 -0.8801 -0.1297
  825MPD2    H712198   0.595   3.037  15.501 -1.8797  0.1238 -0.3178
  826MPD2     C12199   4.156   2.600  13.782  0.0310  0.4282 -0.2918
  826MPD2    C112200   4.200   2.710  13.717  0.2564 -0.0840  0.3611
  826MPD2    C212201   4.190   2.830  13.782  0.3062 -0.0311  0.1270
  826MPD2    C312202   4.138   2.843  13.912 -0.0676 -0.4546 -0.1959
  826MPD2    C412203   4.091   2.726  13.970  0.2452  0.8492 -0.2554
  826MPD2    C512204   4.101   2.605  13.903 -0.7444 -0.0604  0.3397
  826MPD2     H12205   4.217   2.920  13.728 -0.2120 -0.4260 -0.7857
  826MPD2    H112206   4.058   2.719  14.074 -0.0085  1.4788 -0.2947
  826MPD2    H212207   4.171   2.504  13.736  1.5280 -0.8355  2.8564
  826MPD2    H312208   4.059   2.516  13.947  2.5432 -0.0416  3.4860
  826MPD2     N12209   4.128   2.961  13.986  0.5621 -0.1119 -0.4274
  826MPD2    H512210   4.121   2.946  14.086 -0.3755 -0.3686 -0.5332
  826MPD2    N112211   4.276   2.695  13.599  1.0297  0.0979  0.2864
  826MPD2    H712212   4.308   2.602  13.573 -0.7072  0.1975 -2.2677
  827MPD2     C12213   1.158   3.897  10.281 -0.0510 -0.3085 -0.1001
  827MPD2    C112214   1.129   3.825  10.395  0.1625 -0.1032 -0.2173
  827MPD2    C212215   1.016   3.756  10.398  0.8636  0.4109  0.1035
  827MPD2    C312216   0.917   3.758  10.295  0.5891  0.4022 -0.2261
  827MPD2    C412217   0.960   3.823  10.182 -0.2771 -0.3958 -0.3517
  827MPD2    C512218   1.070   3.897  10.176  0.1919  0.5512  0.5001
  827MPD2     H12219   0.984   3.704  10.487 -1.1334  1.4627  0.0004
  827MPD2    H112220   0.904   3.818  10.088 -0.0798  1.7810 -0.5953
  827MPD2    H212221   1.252   3.950  10.267 -0.6704  1.0169  0.8170
  827MPD2    H312222   1.087   3.962  10.091 -0.8979 -1.9326 -1.6187
  827MPD2     N12223   0.794   3.695  10.314  0.3688 -0.3331  0.3032
  827MPD2    H512224   0.788   3.632  10.393  1.3531 -1.0079 -0.1624
  827MPD2    N112225   1.227   3.829  10.501  0.0982 -0.0483 -0.1265
  827MPD2    H712226   1.308   3.889  10.486  0.1995 -0.3381 -0.7640
  828MPD2     C12227   4.424   3.757  12.517  0.6228 -0.0880  0.1499
  828MPD2    C112228   4.324   3.728  12.425 -0.6033  0.2419 -0.3455
  828MPD2    C212229   4.357   3.666  12.312  0.0417  0.1880  0.2986
  828MPD2    C312230   4.485   3.648  12.264  0.4082 -0.1731 -0.5255
  828MPD2    C412231   4.582   3.676  12.355 -0.4539 -0.1745  0.4942
  828MPD2    C512232   4.547   3.706  12.481 -0.6160  0.7772  0.7628
  828MPD2     H12233   4.275   3.625  12.254 -0.7924  3.6079 -0.9122
  828MPD2    H112234   4.687   3.656  12.335  0.1366 -0.0156  3.2997
  828MPD2    H212235   4.410   3.778  12.622 -0.1983  0.1470 -0.0091
  828MPD2    H312236   4.633   3.729  12.544 -0.2986  0.3134  0.4983
  828MPD2     N12237   4.523   3.610  12.134  0.3335 -0.0438 -0.3430
  828MPD2    H512238   4.620   3.613  12.104  0.6968  0.9799  0.9342
  828MPD2    N112239   4.187   3.732  12.446  0.5630 -0.3107  0.1325
  828MPD2    H712240   4.137   3.704  12.362  1.2383  1.6085 -0.9097
  829MPD2     C12241   3.617   3.725  11.798 -0.6615 -0.1691  0.4659
  829MPD2    C112242   3.537   3.777  11.898  0.3716  0.3089 -0.3061
  829MPD2    C212243   3.586   3.808  12.022 -0.2464 -0.0031  0.3930
  829MPD2    C312244   3.726   3.786  12.049 -0.0269  0.1595  0.8500
  829MPD2    C412245   3.802   3.725  11.949  0.2630 -0.2720 -0.3646
  829MPD2    C512246   3.750   3.705  11.824 -0.2054 -0.3714  0.4145
  829MPD2     H12247   3.512   3.845  12.092 -1.9912 -0.1042 -1.3693
  829MPD2    H112248   3.900   3.691  11.980 -0.1983 -1.7952 -0.5580
  829MPD2    H212249   3.579   3.715  11.697 -0.1899 -0.3923  0.3062
  829MPD2    H312250   3.812   3.673  11.741 -1.5423 -1.1161 -0.3003
  829MPD2     N12251   3.789   3.807  12.176  0.2932 -0.5677  0.4379
  829MPD2    H512252   3.886   3.777  12.180  0.9392  1.2986 -1.1001
  829MPD2    N112253   3.403   3.794  11.874 -0.2558 -0.5253 -0.2385
  829MPD2    H712254   3.350   3.838  11.948  1.5201  1.7545 -0.3316
  830MPD2     C12255   4.071   2.480  15.452 -0.3546 -0.4125 -0.0218
  830MPD2    C112256   4.182   2.468  15.534  0.0390 -0.1813  0.2575
  830MPD2    C212257   4.311   2.468  15.480 -0.4190  0.2482  0.3126
  830MPD2    C312258   4.326   2.497  15.347  0.0733 -0.2976  0.4822
  830MPD2    C412259   4.211   2.533  15.271  0.1676  0.2514  0.5161
  830MPD2    C512260   4.085   2.523  15.320  0.2184 -0.2617 -0.1207
  830MPD2     H12261   4.394   2.451  15.548 -0.2568  0.6321  0.2078
  830MPD2    H112262   4.222   2.547  15.164 -0.2149 -2.8356  0.0726
  830MPD2    H212263   3.973   2.481  15.499 -1.2212 -1.5399 -1.8394
  830MPD2    H312264   3.996   2.543  15.261  0.0874 -1.6636 -0.3992
  830MPD2     N12265   4.455   2.519  15.284 -0.1216 -0.2943 -0.1171
  830MPD2    H512266   4.449   2.563  15.192  0.0241  0.8134  0.4135
  830MPD2    N112267   4.162   2.470  15.673  0.1671  0.1393 -0.3739
  830MPD2    H712268   4.066   2.477  15.705  0.1131  0.8094 -0.6829
  831MPD2     C12269   4.602   4.193  16.612 -0.2643 -1.5234 -0.4451
  831MPD2    C112270   4.533   4.207  16.493  0.6455 -0.3049 -0.5053
  831MPD2    C212271   4.406   4.156  16.481 -0.3893 -0.0917 -0.4204
  831MPD2    C312272   4.340   4.100  16.578  0.6811 -0.3459  0.4101
  831MPD2    C412273   4.397   4.100  16.702  0.4875 -0.0376 -0.1984
  831MPD2    C512274   4.529   4.155  16.724 -0.5812 -0.5330 -0.3031
  831MPD2     H12275   4.367   4.149  16.380  0.8139  1.0374 -0.9618
  831MPD2    H112276   4.352   4.050  16.787  1.2410 -1.4772 -0.6432
  831MPD2    H212277   4.702   4.235  16.608 -0.4979 -0.7969  1.0949
  831MPD2    H312278   4.572   4.152  16.824  0.0490 -0.5372 -0.5769
  831MPD2     N12279   4.216   4.037  16.557 -0.0977 -0.7498 -0.7921
  831MPD2    H512280   4.159   4.020  16.639 -0.8732  0.3650 -1.0827
  831MPD2    N112281   4.601   4.273  16.394 -0.1413  0.3267  0.0443
  831MPD2    H712282   4.702   4.279  16.409 -0.1028  0.3571 -0.2212
  832MPD2     C12283   2.576   4.373  17.161  0.1686 -0.3107 -0.1375
  832MPD2    C112284   2.550   4.507  17.185 -0.1312  0.4842 -0.2254
  832MPD2    C212285   2.444   4.571  17.124 -0.3230 -0.1838  0.1775
  832MPD2    C312286   2.368   4.506  17.035  0.1346  1.8318  0.1154
  832MPD2    C412287   2.395   4.375  17.012 -0.4889  0.4375  0.3095
  832MPD2    C512288   2.493   4.309  17.075  0.3878  0.2496  0.0437
  832MPD2     H12289   2.415   4.668  17.162  0.4792  0.0591  0.1775
  832MPD2    H112290   2.326   4.317  16.952  2.9730 -1.7781 -1.4756
  832MPD2    H212291   2.659   4.316  17.203  0.8704  0.2256 -0.7935
  832MPD2    H312292   2.500   4.202  17.060 -0.8571  0.3247 -1.0635
  832MPD2     N12293   2.243   4.552  16.988  0.6663 -0.2962  0.2352
  832MPD2    H512294   2.190   4.486  16.932  2.2597 -0.2552 -1.3310
  832MPD2    N112295   2.637   4.568  17.283 -0.6857 -0.2214  0.1016
  832MPD2    H712296   2.696   4.504  17.335  2.3821  2.2961 -0.2466
  833MPD2     C12297   4.728   1.787  12.084 -0.4099  0.2689 -0.2001
  833MPD2    C112298   4.636   1.701  12.137 -0.5184 -0.4568 -0.3713
  833MPD2    C212299   4.637   1.567  12.107  0.4460  0.8736  0.2180
  833MPD2    C312300   4.731   1.518  12.018  0.4007  0.3557  0.4589
  833MPD2    C412301   0.091   1.601  11.972  0.7530 -0.1662  0.1041
  833MPD2    C512302   0.095   1.733  12.012 -0.0537  0.4790  0.4037
  833MPD2     H12303   4.564   1.497  12.147  0.8294  0.5274  0.3061
  833MPD2    H112304   0.178   1.564  11.919  1.0579  1.5000 -0.5750
  833MPD2    H212305   4.716   1.891  12.112  3.5514  0.7819 -0.3041
  833MPD2    H312306   0.177   1.798  11.984  0.5800  0.5325  2.3753
  833MPD2     N12307   4.736   1.389  11.963  0.4407 -0.5612 -0.6078
  833MPD2    H512308   0.064   1.368  11.889  1.8706 -0.0661  0.5566
  833MPD2    N112309   4.543   1.759  12.228 -0.0848 -0.1820  0.3904
  833MPD2    H712310   4.589   1.838  12.274  0.1309 -0.5493  0.8046
  834MPD2     C12311   4.188   0.474  11.704 -0.1101 -0.1215 -0.3638
  834MPD2    C112312   4.209   0.560  11.600 -0.8549  0.5447 -0.6942
  834MPD2    C212313   4.262   0.683  11.622 -0.1984 -0.1697 -0.1025
  834MPD2    C312314   4.313   0.721  11.740  0.4787 -0.4653 -0.4106
  834MPD2    C412315   4.284   0.636  11.848 -0.4501  0.1336 -0.3732
  834MPD2    C512316   4.234   0.506  11.827 -1.4757 -0.3315 -1.1250
  834MPD2     H12317   4.268   0.748  11.535 -0.2228  0.8719  0.6653
  834MPD2    H112318   4.310   0.655  11.951 -1.1044  0.0199 -0.1903
  834MPD2    H212319   4.149   0.375  11.683  1.1389 -0.2868 -1.9328
  834MPD2    H312320   4.228   0.429  11.904  1.7643  1.1029  0.5507
  834MPD2     N12321   4.388   0.837  11.738  0.0496  0.2300  0.2036
  834MPD2    H512322   4.399   0.883  11.648  1.2572  0.9985  0.7368
  834MPD2    N112323   4.182   0.511  11.471 -0.0426 -0.4644  0.8093
  834MPD2    H712324   4.153   0.415  11.473  2.0017 -1.1265 -0.3875
  835MPD2     C12325   0.398   3.945  10.884  0.3153  0.4918  0.5253
  835MPD2    C112326   0.278   3.942  10.959 -0.0933  0.7111 -0.0494
  835MPD2    C212327   0.278   3.925  11.102  0.4610  0.2019 -0.0434
  835MPD2    C312328   0.398   3.911  11.172 -0.0399 -0.5395  0.4078
  835MPD2    C412329   0.510   3.920  11.088 -0.7658  0.1006  0.9278
  835MPD2    C512330   0.512   3.929  10.955 -0.1217  0.1135  0.0026
  835MPD2     H12331   0.184   3.916  11.155  0.3517  2.6726  0.1513
  835MPD2    H112332   0.612   3.898  11.121 -0.3057  0.5669 -0.1938
  835MPD2    H212333   0.399   3.953  10.776  1.7155  2.4912  0.6817
  835MPD2    H312334   0.607   3.916  10.903  0.1008 -1.6362  0.8642
  835MPD2     N12335   0.395   3.884  11.310 -0.4566 -0.1079 -0.3960
  835MPD2    H512336   0.300   3.875  11.343  0.1458 -2.2313  0.7204
  835MPD2    N112337   0.155   3.970  10.908 -0.0361  0.2870 -0.0990
  835MPD2    H712338   0.065   3.971  10.956  1.0837  1.1788  1.9744
  836MPD2     C12339   4.613   3.865  11.642  0.0924 -0.3703 -0.2947
  836MPD2    C112340   4.711   3.852  11.740 -0.8131  0.1466 -0.5291
  836MPD2    C212341   4.672   3.862  11.872  0.3977 -0.4002  0.6969
  836MPD2    C312342   4.539   3.886  11.903 -0.3854 -0.1242 -0.0322
  836MPD2    C412343   4.444   3.898  11.808  0.4153  0.4199  0.5355
  836MPD2    C512344   4.481   3.881  11.677 -0.5179  0.2002  0.1947
  836MPD2     H12345   0.010   3.855  11.949  2.1804  3.5486 -0.7185
  836MPD2    H112346   4.341   3.918  11.834 -0.0897 -0.7051 -0.5530
  836MPD2    H212347   4.646   3.856  11.539  1.2037  1.3453 -0.0872
  836MPD2    H312348   4.412   3.885  11.593 -0.0331  1.7359 -0.1356
  836MPD2     N12349   4.494   3.937  12.025  0.0683 -0.2715  0.8463
  836MPD2    H512350   4.396   3.963  12.034 -0.3593 -2.4255  2.4349
  836MPD2    N112351   0.105   3.822  11.699 -0.8520  0.2494  0.7786
  836MPD2    H712352   0.115   3.819  11.598 -3.5542  1.1728  0.4725
  837MPD2     C12353   2.803   4.258  10.686 -0.2552  0.2697  0.0732
  837MPD2    C112354   2.674   4.272  10.676 -0.3423 -0.3051  0.3641
  837MPD2    C212355   2.623   4.395  10.696  0.5678  0.3815  0.5898
  837MPD2    C312356   2.698   4.511  10.695  0.2263  0.8277 -0.9123
  837MPD2    C412357   2.835   4.501  10.686 -0.3993  0.4969 -0.0281
  837MPD2    C512358   2.888   4.370  10.689 -0.5207  0.3978 -0.2297
  837MPD2     H12359   2.516   4.414  10.696  0.1068 -2.1625 -0.3216
  837MPD2    H112360   2.903   4.585  10.685  0.4288 -0.2361 -4.0786
  837MPD2    H212361   2.857   4.164  10.687 -0.5997  0.0618 -0.9293
  837MPD2    H312362   2.995   4.357  10.692 -0.5282  0.0395 -1.7882
  837MPD2     N12363   2.622   4.631  10.680 -0.3338  1.1189  0.4367
  837MPD2    H512364   2.522   4.620  10.677 -0.2581  0.4972  0.0839
  837MPD2    N112365   2.586   4.158  10.646  0.2123  0.3450 -0.1597
  837MPD2    H712366   2.487   4.178  10.639  0.2048  0.7830  1.1264
  838MPD2     C12367   1.109   2.057  12.443  0.1375  0.1331  0.2504
  838MPD2    C112368   1.035   2.009  12.336 -0.5626  0.2720  0.5175
  838MPD2    C212369   0.896   2.020  12.344  0.5483  0.3234 -0.1955
  838MPD2    C312370   0.840   2.089  12.451 -0.4620 -0.4598 -0.4295
  838MPD2    C412371   0.918   2.154  12.544 -0.6994 -0.3437  0.0427
  838MPD2    C512372   1.056   2.144  12.538  0.0378 -0.3976 -0.0110
  838MPD2     H12373   0.830   1.967  12.277 -2.5463  1.8467  1.6447
  838MPD2    H112374   0.873   2.224  12.614  0.8087  0.4964  0.1635
  838MPD2    H212375   1.215   2.038  12.454  0.5300  0.9059 -2.1614
  838MPD2    H312376   1.124   2.201  12.600 -0.1731  0.3510 -0.4721
  838MPD2     N12377   0.700   2.085  12.464  0.3972  0.1894 -0.1451
  838MPD2    H512378   0.653   2.052  12.381  2.3945 -1.0244 -0.7721
  838MPD2    N112379   1.090   1.932  12.234  0.2746  0.0929 -0.0686
  838MPD2    H712380   1.024   1.890  12.171  0.4477 -0.1641 -0.0809
  839MPD2     C12381   0.611   1.422  11.850  0.0086 -0.4136  0.0187
  839MPD2    C112382   0.709   1.418  11.752 -0.4960  0.3572 -1.0616
  839MPD2    C212383   0.838   1.469  11.779 -0.4082 -0.4931  0.1705
  839MPD2    C312384   0.856   1.535  11.894  0.3805  0.1741 -0.0097
  839MPD2    C412385   0.759   1.536  11.988  0.3513  0.1873 -0.4975
  839MPD2    C512386   0.638   1.482  11.969  0.5270 -0.1796  0.6934
  839MPD2     H12387   0.910   1.465  11.698  0.6988  0.9007  1.0966
  839MPD2    H112388   0.785   1.577  12.085 -2.0997 -1.4951  0.8593
  839MPD2    H212389   0.517   1.367  11.848  0.2864 -0.9014  0.3793
  839MPD2    H312390   0.573   1.478  12.056  2.1920  1.5526  2.0088
  839MPD2     N12391   0.976   1.609  11.919 -0.3936 -0.0482 -0.3203
  839MPD2    H512392   0.985   1.679  11.992 -0.1183 -0.8550  0.4077
  839MPD2    N112393   0.698   1.354  11.621 -0.0509 -0.6444 -0.0780
  839MPD2    H712394   0.779   1.341  11.562 -0.6095  0.1078 -1.0016
  840MPD2     C12395   1.372   4.391  10.497 -0.6648  0.3089  0.4831
  840MPD2    C112396   1.437   4.348  10.614  0.1922 -0.0280  0.2192
  840MPD2    C212397   1.509   4.444  10.688  0.1462 -0.3204 -0.1814
  840MPD2    C312398   1.526   4.574  10.642  0.1708 -0.1990  1.2204
  840MPD2    C412399   1.459   4.611  10.529 -0.9371  0.0070 -0.5450
  840MPD2    C512400   1.375   4.524  10.465 -1.1419  0.3770 -0.4004
  840MPD2     H12401   1.553   4.413  10.781  1.3594  0.1121 -0.6120
  840MPD2    H112402   1.459   4.714  10.495  1.9186 -0.4065 -1.8357
  840MPD2    H212403   1.303   4.320  10.452 -0.5128  0.1052  0.5684
  840MPD2    H312404   1.325   4.561  10.377  2.4089 -0.5682 -2.7986
  840MPD2     N12405   1.599   4.676  10.709  0.6231  0.0234 -0.1101
  840MPD2    H512406   1.606   0.030  10.668 -1.2213  0.5608  0.7903
  840MPD2    N112407   1.409   4.217  10.659 -0.3863 -0.2987  0.3236
  840MPD2    H712408   1.331   4.170  10.614  0.4355 -2.1173  0.8395
  841MPD2     C12409   1.155   4.201  14.830 -0.1759 -0.0720 -0.0346
  841MPD2    C112410   1.193   4.149  14.706 -0.0770 -1.1070 -0.6074
  841MPD2    C212411   1.274   4.220  14.622  0.0774  0.7571  0.1849
  841MPD2    C312412   1.319   4.354  14.646 -0.0011  0.4227 -0.6559
  841MPD2    C412413   1.274   4.407  14.759 -0.2506 -0.0730 -0.4634
  841MPD2    C512414   1.200   4.333  14.853 -0.6794  0.8334  0.3053
  841MPD2     H12415   1.314   4.170  14.535 -0.6627  1.2557 -0.4407
  841MPD2    H112416   1.307   4.507  14.782 -0.8911 -0.1729  0.8985
  841MPD2    H212417   1.094   4.161  14.910 -0.1465  1.1812  0.6125
  841MPD2    H312418   1.197   4.371  14.954  1.1013  0.3356  0.5407
  841MPD2     N12419   1.412   4.409  14.559 -0.0049 -0.2399 -0.2642
  841MPD2    H512420   1.469   4.357  14.494 -0.9929 -0.1130 -1.2241
  841MPD2    N112421   1.150   4.014  14.672  0.1358  0.1877 -0.0005
  841MPD2    H712422   1.163   3.982  14.576  0.5746 -0.4703  0.2788
  842MPD2     C12423   1.335   0.284  16.635  1.0378  0.9492 -0.0428
  842MPD2    C112424   1.202   0.275  16.666  0.2952  0.6153 -0.2128
  842MPD2    C212425   1.161   0.236  16.799  1.0461 -0.2327 -0.3320
  842MPD2    C312426   1.256   0.229  16.894  0.1693  0.5307  0.0083
  842MPD2    C412427   1.388   0.235  16.861 -0.6912 -0.1049 -0.4534
  842MPD2    C512428   1.431   0.267  16.737  0.0086 -0.3947  0.2435
  842MPD2     H12429   1.056   0.230  16.823  1.0398 -0.5087 -0.4275
  842MPD2    H112430   1.464   0.207  16.933  0.2673  2.3466 -0.4964
  842MPD2    H212431   1.365   0.300  16.532 -0.0982  0.4310 -0.4521
  842MPD2    H312432   1.537   0.268  16.716 -0.1952  1.6218 -0.6288
  842MPD2     N12433   1.224   0.208  17.029 -0.5868  0.3561  0.4269
  842MPD2    H512434   1.300   0.211  17.096 -0.4090  0.2749  0.2270
  842MPD2    N112435   1.105   0.296  16.560  0.2884  0.1750 -0.3198
  842MPD2    H712436   1.138   0.321  16.467  0.6841  0.6199 -0.0591
  843MPD2     C12437   3.554   1.582   0.166 -0.1030  0.0253 -0.2137
  843MPD2    C112438   3.688   1.560   0.170 -0.2860 -0.1807  0.9827
  843MPD2    C212439   3.761   1.616   0.267  0.6324  0.2995  0.5639
  843MPD2    C312440   3.698   1.705   0.354 -0.2884  0.4037 -0.2156
  843MPD2    C412441   3.567   1.738   0.341 -0.5797 -0.2145  0.2960
  843MPD2    C512442   3.492   1.662   0.254  0.9604 -0.2191 -0.1236
  843MPD2     H12443   3.869   1.604   0.275  0.7948  1.4999  0.2011
  843MPD2    H112444   3.511   1.803   0.406  0.5399  1.6289 -0.5567
  843MPD2    H212445   3.488   1.529   0.098 -2.3844 -0.5465  2.4005
  843MPD2    H312446   3.385   1.681   0.244  0.4731 -2.4222  0.7558
  843MPD2     N12447   3.771   1.777   0.454  0.3151 -0.1865  0.1391
  843MPD2    H512448   3.725   1.856   0.498  0.4836 -0.3439  0.5974
  843MPD2    N112449   3.739   1.479   0.063  0.1988 -0.0569  0.1005
  843MPD2    H712450   3.667   1.418   0.027  2.8672 -0.8725 -3.8986
  844MPD2     C12451   2.284   4.543  16.550 -0.8179 -0.5534 -0.6089
  844MPD2    C112452   2.398   4.466  16.553 -0.3056 -0.4849  0.2618
  844MPD2    C212453   2.484   4.493  16.659 -0.7942  0.1683  0.1528
  844MPD2    C312454   2.469   4.610  16.727 -0.3588  0.0925  0.4331
  844MPD2    C412455   2.359   4.694  16.714  0.1984 -0.0955  0.2541
  844MPD2    C512456   2.262   4.654  16.628 -0.2311  0.4020  0.1980
  844MPD2     H12457   2.568   4.431  16.690 -0.1813  1.4898  1.1508
  844MPD2    H112458   2.339   0.037  16.782  1.3324  1.1528 -0.9085
  844MPD2    H212459   2.203   4.523  16.480  0.2650 -1.1297 -1.6948
  844MPD2    H312460   2.166   4.703  16.624 -0.8642 -0.7640  1.3141
  844MPD2     N12461   2.575   4.643  16.814  0.2403  0.4827  0.3657
  844MPD2    H512462   2.655   4.581  16.822 -0.4960 -0.3645  1.1484
  844MPD2    N112463   2.430   4.379  16.447  0.1760 -0.1923 -0.2852
  844MPD2    H712464   2.376   4.394  16.362 -2.4758 -0.2310  1.3894
  845MPD2     C12465   2.971   0.783  17.156  0.4183 -0.5686 -0.1578
  845MPD2    C112466   2.852   0.734  17.212  0.1845  0.1689 -0.1333
  845MPD2    C212467   2.816   0.594  17.193 -0.5973  0.2468  0.5725
  845MPD2    C312468   2.908   0.512  17.125 -0.5514  0.3923 -0.3748
  845MPD2    C412469   3.017   0.570  17.069  0.4836  0.9986 -0.4068
  845MPD2    C512470   3.049   0.699  17.088  0.0553 -0.2107 -0.6894
  845MPD2     H12471   2.725   0.549  17.231 -1.1114  1.4013  0.7017
  845MPD2    H112472   3.085   0.510  17.009  1.5966  1.0128  0.8597
  845MPD2    H212473   2.994   0.888  17.168 -3.5875  0.2788 -0.0184
  845MPD2    H312474   3.128   0.754  17.040  0.0752  0.4455  0.1010
  845MPD2     N12475   2.885   0.376  17.090 -0.1686  0.0398 -0.3933
  845MPD2    H512476   2.795   0.333  17.108 -0.4920 -0.0393 -2.1536
  845MPD2    N112477   2.768   0.831  17.274  0.2195  0.5391  0.0642
  845MPD2    H712478   2.794   0.929  17.277 -1.2685  0.9690 -1.6416
  846MPD2     C12479   4.057   1.086  14.036  0.3634  0.4465  0.1852
  846MPD2    C112480   3.963   1.177  14.007 -0.4706  0.0579 -0.0446
  846MPD2    C212481   3.924   1.255  14.109 -0.8631 -0.5174  0.5350
  846MPD2    C312482   3.975   1.236  14.235  0.5303  0.3715 -0.1976
  846MPD2    C412483   4.068   1.136  14.263  1.2366  0.0912 -0.1738
  846MPD2    C512484   4.100   1.063  14.162 -0.8166  0.9667 -0.7983
  846MPD2     H12485   3.868   1.345  14.091 -1.1276 -0.7614  0.1485
  846MPD2    H112486   4.108   1.121  14.362  1.0077 -0.4206 -0.1586
  846MPD2    H212487   4.105   1.024  13.961  1.8195  0.2514  1.2805
  846MPD2    H312488   4.181   0.993  14.179 -0.4264  1.4369 -0.7226
  846MPD2     N12489   3.925   1.328  14.337 -0.1445 -0.9762 -0.1128
  846MPD2    H512490   3.852   1.391  14.303  1.5953  0.2610 -1.5114
  846MPD2    N112491   3.920   1.193  13.873  0.4848 -0.0974 -0.0169
  846MPD2    H712492   3.856   1.269  13.853  0.1297 -0.2642  0.4844
  847MPD2     C12493   3.513   2.218  15.129  0.2433  0.3146 -0.0722
  847MPD2    C112494   3.647   2.177  15.118  0.0820  0.2942 -0.9091
  847MPD2    C212495   3.691   2.059  15.172 -0.2312  0.1619 -0.4355
  847MPD2    C312496   3.612   1.996  15.263  0.0028 -0.8703 -0.1784
  847MPD2    C412497   3.479   2.032  15.278  0.0599  0.1567  0.2395
  847MPD2    C512498   3.428   2.142  15.204 -0.0796 -0.0917 -0.4384
  847MPD2     H12499   3.789   2.020  15.149 -0.0857  1.4046 -1.9352
  847MPD2    H112500   3.417   1.976  15.347  1.8249 -3.2679 -0.9247
  847MPD2    H212501   3.480   2.306  15.076 -2.4428  0.1555  1.3107
  847MPD2    H312502   3.326   2.179  15.204  0.3372  1.0556  2.8345
  847MPD2     N12503   3.677   1.893  15.328  0.2096 -0.4640  0.9007
  847MPD2    H512504   3.776   1.881  15.307  0.2368  0.0719  0.7112
  847MPD2    N112505   3.737   2.239  15.029 -0.2661  0.1707 -0.4251
  847MPD2    H712506   3.826   2.191  15.018 -0.2632  0.0057  0.3276
  848MPD2     C12507   1.888   0.198  16.456  0.2381  0.1904 -0.3256
  848MPD2    C112508   1.880   0.250  16.581  0.7944  1.0237  0.5267
  848MPD2    C212509   1.863   0.390  16.598  0.6428 -1.1441  0.1524
  848MPD2    C312510   1.840   0.468  16.485 -0.4748 -0.2506 -0.0240
  848MPD2    C412511   1.825   0.411  16.359 -0.2619 -0.4155 -0.2563
  848MPD2    C512512   1.853   0.280  16.352  0.3849  0.0598  0.2789
  848MPD2     H12513   1.856   0.430  16.699  0.4328 -0.1099 -0.2704
  848MPD2    H112514   1.807   0.475  16.273 -0.3886 -1.9385 -1.3572
  848MPD2    H212515   1.910   0.092  16.451  0.0771  0.0408  1.9914
  848MPD2    H312516   1.842   0.227  16.258 -1.6749  0.9880  0.0200
  848MPD2     N12517   1.819   0.606  16.499  0.1951 -0.1952 -0.1235
  848MPD2    H512518   1.792   0.664  16.420 -2.1384  0.4409  1.1278
  848MPD2    N112519   1.886   0.175  16.696  0.6071  0.1424  0.0485
  848MPD2    H712520   1.896   0.219  16.787 -1.6698 -0.0733  0.4173
  849MPD2     C12521   1.387   0.320  14.240 -0.1768 -0.1171  0.0369
  849MPD2    C112522   1.483   0.335  14.144  0.1992  0.2485  0.4570
  849MPD2    C212523   1.604   0.268  14.157  0.3632 -0.5559  0.3907
  849MPD2    C312524   1.640   0.212  14.278 -0.5311 -0.5182 -0.3544
  849MPD2    C412525   1.547   0.209  14.385 -0.5402 -0.4035 -0.6927
  849MPD2    C512526   1.423   0.260  14.356 -0.3505 -0.2642 -0.9006
  849MPD2     H12527   1.673   0.277  14.074  2.8137  1.6109  2.6766
  849MPD2    H112528   1.568   0.166  14.483  0.1797 -0.2028 -0.7640
  849MPD2    H212529   1.286   0.359  14.233 -0.0206  0.5047  1.2024
  849MPD2    H312530   1.356   0.260  14.441  0.2677  0.2131 -0.4159
  849MPD2     N12531   1.768   0.154  14.296  0.4957  0.6052 -0.1267
  849MPD2    H512532   1.804   0.138  14.389 -3.3445 -2.0882  0.8602
  849MPD2    N112533   1.452   0.389  14.015 -0.4152  0.2790  0.8415
  849MPD2    H712534   1.529   0.373  13.950 -0.4659 -0.6408  1.0132
  850MPD2     C12535   4.060   3.159  14.983 -0.9344  0.5953  0.0073
  850MPD2    C112536   4.042   3.238  15.096 -0.8254  0.2148 -0.9008
  850MPD2    C212537   4.157   3.307  15.140 -0.5429 -0.0652  0.2840
  850MPD2    C312538   4.287   3.276  15.098 -0.1353 -0.5667  0.5131
  850MPD2    C412539   4.300   3.183  14.996 -0.3594  0.2671 -0.4228
  850MPD2    C512540   4.186   3.128  14.936 -0.0799  0.1208  0.3143
  850MPD2     H12541   4.154   3.377  15.223  0.5330  1.0074 -0.5807
  850MPD2    H112542   4.399   3.165  14.954  0.7442 -1.2714  2.8389
  850MPD2    H212543   3.977   3.115  14.929 -0.3942  0.9861 -1.1216
  850MPD2    H312544   4.203   3.054  14.859 -2.2170  1.1009 -1.1116
  850MPD2     N12545   4.404   3.316  15.159 -0.1857 -0.0195  0.0951
  850MPD2    H512546   4.490   3.269  15.132  0.7892  2.7667 -1.6466
  850MPD2    N112547   3.908   3.241  15.149  0.5232  0.1151 -0.7516
  850MPD2    H712548   3.846   3.185  15.091 -1.3017 -0.1624  1.4627
  851MPD2     C12549   4.586   3.224  15.621  0.0116  0.1701 -0.5333
  851MPD2    C112550   4.490   3.168  15.539  0.0567  1.5108  0.0053
  851MPD2    C212551   4.528   3.059  15.464  0.1665  0.5732  0.2182
  851MPD2    C312552   4.654   3.006  15.474 -0.0219 -0.2779 -0.1367
  851MPD2    C412553   0.013   3.058  15.559 -0.6753 -0.0299 -0.3220
  851MPD2    C512554   4.715   3.172  15.626  0.0877 -0.1244 -0.2021
  851MPD2     H12555   4.461   3.002  15.400 -0.5544 -1.1236  2.4882
  851MPD2    H112556   0.115   3.022  15.565 -0.3242  0.7207 -1.7555
  851MPD2    H212557   4.561   3.309  15.683 -0.5472 -2.6064  3.0339
  851MPD2    H312558   0.050   3.206  15.698 -1.3555 -0.4242  1.4125
  851MPD2     N12559   4.683   2.892  15.398 -0.3477  0.0337 -0.1553
  851MPD2    H512560   4.629   2.883  15.313  1.4132  0.8190 -1.3361
  851MPD2    N112561   4.357   3.211  15.551 -0.1769  0.1893  0.3890
  851MPD2    H712562   4.337   3.288  15.615  0.5254 -0.4642  1.3906
  852MPD2     C12563   3.423   1.623  10.102  0.1817 -1.1674  0.4812
  852MPD2    C112564   3.440   1.506  10.177  0.9173  0.7710 -0.2144
  852MPD2    C212565   3.565   1.451  10.193  0.0945  0.2719  0.4843
  852MPD2    C312566   3.678   1.514  10.149  0.3792  0.6531  0.3808
  852MPD2    C412567   3.665   1.639  10.093  0.1640 -0.0722  0.2987
  852MPD2    C512568   3.541   1.692  10.071  0.3784 -0.8176 -0.6943
  852MPD2     H12569   3.576   1.357  10.246  1.0822  0.1359  0.0298
  852MPD2    H112570   3.749   1.697  10.056  0.4013  0.1313  1.1561
  852MPD2    H212571   3.332   1.673  10.071  0.9889  0.1184  0.1569
  852MPD2    H312572   3.533   1.783  10.011 -0.7492 -1.6871 -1.8610
  852MPD2     N12573   3.797   1.439  10.176 -0.0579  0.2876 -0.2893
  852MPD2    H512574   3.790   1.352  10.228  2.9824 -0.1306 -0.5927
  852MPD2    N112575   3.334   1.426  10.216  0.7316  0.0232 -0.7781
  852MPD2    H712576   3.355   1.326  10.219 -0.3040 -0.2724 -3.5791
  853MPD2     C12577   1.144   0.912  12.155 -0.5835  0.2283 -0.0012
  853MPD2    C112578   1.010   0.881  12.161  1.0945 -0.2699  0.2744
  853MPD2    C212579   0.954   0.819  12.049  0.0961  0.2798  0.4144
  853MPD2    C312580   1.032   0.777  11.944  0.6899  0.0181  0.2631
  853MPD2    C412581   1.163   0.806  11.946 -0.4400  0.6251  0.1708
  853MPD2    C512582   1.218   0.873  12.048 -0.1222  0.1127  0.2432
  853MPD2     H12583   0.850   0.788  12.052  0.0624  0.3378 -0.1637
  853MPD2    H112584   1.232   0.775  11.869  0.7607  0.7147  1.2166
  853MPD2    H212585   1.203   0.951  12.238 -2.0545  1.1035  0.6174
  853MPD2    H312586   1.325   0.878  12.034  0.0684 -0.2321  1.6208
  853MPD2     N12587   0.983   0.713  11.832  0.1333  0.0472  0.3360
  853MPD2    H512588   1.047   0.698  11.755  0.5419  1.5937  0.3640
  853MPD2    N112589   0.938   0.899  12.277 -0.4119 -0.0571 -0.4357
  853MPD2    H712590   0.997   0.912  12.359 -1.5778  0.1782  0.3537
  854MPD2     C12591   2.874   0.483  12.547  0.0951 -0.4310 -0.2218
  854MPD2    C112592   2.842   0.536  12.673  0.1938 -1.6483  1.0394
  854MPD2    C212593   2.907   0.489  12.786 -0.5233 -0.7275  0.4071
  854MPD2    C312594   3.013   0.399  12.775  0.9360 -0.5040  0.6696
  854MPD2    C412595   3.048   0.347  12.654  0.5042 -0.6171  0.4946
  854MPD2    C512596   2.980   0.395  12.544  0.6941  0.2144  0.0329
  854MPD2     H12597   2.891   0.535  12.883  4.0890  1.4623  0.1235
  854MPD2    H112598   3.129   0.276  12.641  0.6818 -0.0118 -1.7781
  854MPD2    H212599   2.838   0.525  12.454  1.8458  2.3398  0.3463
  854MPD2    H312600   3.005   0.349  12.449 -0.6743  0.1248 -0.2795
  854MPD2     N12601   3.092   0.360  12.885 -0.0884  0.2511 -0.0631
  854MPD2    H512602   3.181   0.322  12.853  1.0526  0.3392  2.9733
  854MPD2    N112603   2.751   0.646  12.668  0.4086 -0.5552  0.0332
  854MPD2    H712604   2.733   0.677  12.573 -2.0488 -2.0435  0.0222
  855MPD2     C12605   3.277   0.804  13.742 -1.4089 -0.1116  0.1660
  855MPD2    C112606   3.311   0.672  13.762  0.2042 -0.2389 -0.1194
  855MPD2    C212607   3.325   0.585  13.659 -0.6351 -0.6885  0.3662
  855MPD2    C312608   3.295   0.628  13.527  0.0182 -0.8082 -0.3574
  855MPD2    C412609   3.239   0.754  13.508 -0.3506  0.6671  0.5737
  855MPD2    C512610   3.236   0.838  13.614 -0.0185 -0.0967 -0.5984
  855MPD2     H12611   3.349   0.480  13.668 -1.9043 -1.0398 -0.3673
  855MPD2    H112612   3.196   0.786  13.414 -2.9031 -1.8962  0.8796
  855MPD2    H212613   3.257   0.867  13.828 -0.1337  0.2734  0.1788
  855MPD2    H312614   3.177   0.929  13.608  1.0356  0.4987 -1.8406
  855MPD2     N12615   3.294   0.537  13.421  0.1679  0.0400  0.5989
  855MPD2    H512616   3.244   0.565  13.337 -1.0447 -0.3606  1.1893
  855MPD2    N112617   3.331   0.612  13.885 -0.2436 -0.3941 -0.9059
  855MPD2    H712618   3.355   0.513  13.886  0.7855 -0.1405 -0.8536
  856MPD2     C12619   0.230   1.556  13.498  0.2425  0.8117  0.1506
  856MPD2    C112620   0.201   1.628  13.609  0.4255 -0.2993  0.7374
  856MPD2    C212621   0.097   1.718  13.604  0.7401  0.0839  0.0940
  856MPD2    C312622   0.023   1.743  13.496 -0.2050 -0.3025 -0.2448
  856MPD2    C412623   0.052   1.670  13.381 -0.0387  0.4146  1.0726
  856MPD2    C512624   0.152   1.579  13.385  1.4108  0.3390 -0.8946
  856MPD2     H12625   0.078   1.777  13.693  1.8034  1.0325 -0.3122
  856MPD2    H112626   4.736   1.687  13.288 -0.6050 -2.9036  0.7766
  856MPD2    H212627   0.316   1.489  13.495  0.5561  1.2355 -0.2733
  856MPD2    H312628   0.180   1.531  13.292 -0.1937 -0.6704 -0.8554
  856MPD2     N12629   4.656   1.833  13.488  0.3246 -0.2441 -0.0870
  856MPD2    H512630   4.612   1.846  13.398  0.9494 -0.5986 -0.4376
  856MPD2    N112631   0.278   1.625  13.728 -0.2292  0.0446 -0.3465
  856MPD2    H712632   0.261   1.699  13.795  2.6527 -0.0654  0.5158
  857MPD2     C12633   1.911   3.917  13.049 -0.5318  0.0962 -0.5004
  857MPD2    C112634   2.040   3.872  13.069 -0.3349 -0.2293 -0.2893
  857MPD2    C212635   2.141   3.954  13.121  0.7516 -0.2325  0.1649
  857MPD2    C312636   2.109   4.087  13.148 -0.4952  0.0773  0.6159
  857MPD2    C412637   1.983   4.134  13.119 -0.2982  0.0991  0.2112
  857MPD2    C512638   1.882   4.045  13.077 -0.0463  0.0499 -0.3523
  857MPD2     H12639   2.245   3.925  13.129  1.1348  1.2052  0.4516
  857MPD2    H112640   1.956   4.238  13.135  1.0642  0.5568 -0.5340
  857MPD2    H212641   1.831   3.857  13.009 -0.5072 -1.1070  1.2579
  857MPD2    H312642   1.780   4.078  13.065 -0.0897 -0.2574 -0.8069
  857MPD2     N12643   2.207   4.165  13.214 -0.0595 -0.3578  0.3443
  857MPD2    H512644   2.304   4.134  13.218  0.0349 -0.3418 -1.9995
  857MPD2    N112645   2.065   3.740  13.029  0.4322 -0.0138 -0.0958
  857MPD2    H712646   1.981   3.684  13.022  0.0747  0.5776 -0.5157
  858MPD2     C12647   2.621   3.047  16.578 -0.3050  0.2868  1.0627
  858MPD2    C112648   2.572   2.918  16.588 -0.7116 -0.6563  0.6564
  858MPD2    C212649   2.536   2.881  16.710  0.2035 -0.0149  0.3653
  858MPD2    C312650   2.542   2.969  16.820  0.3020 -0.2026 -0.2244
  858MPD2    C412651   2.594   3.100  16.814  0.2586  0.3596 -0.2559
  858MPD2    C512652   2.636   3.131  16.689 -0.7479  0.0304  0.3131
  858MPD2     H12653   2.497   2.780  16.719 -1.5267  0.5837 -0.3845
  858MPD2    H112654   2.605   3.159  16.904 -0.0795 -1.4065  0.9511
  858MPD2    H212655   2.644   3.083  16.479 -0.5783 -0.8624  0.5765
  858MPD2    H312656   2.689   3.225  16.683  1.2651 -1.0636  0.9156
  858MPD2     N12657   2.506   2.917  16.950 -0.1515  0.8593  1.2530
  858MPD2    H512658   2.485   2.993  17.015 -0.1271  1.4355  0.5824
  858MPD2    N112659   2.567   2.828  16.479  1.0721  0.0596 -0.3485
  858MPD2    H712660   2.600   2.863  16.390  2.1439  0.2782  0.1323
  859MPD2     C12661   1.533   0.052  15.326 -0.0665 -0.0176  0.3984
  859MPD2    C112662   1.567   0.015  15.198  0.1881 -0.3682  0.6425
  859MPD2    C212663   1.540   4.630  15.148  1.0289 -0.0382 -0.0636
  859MPD2    C312664   1.492   4.529  15.229 -0.5437 -0.1005 -0.4182
  859MPD2    C412665   1.471   4.558  15.362  0.3600  0.7459  0.0104
  859MPD2    C512666   1.485   4.687  15.402  0.1319  0.5225 -0.2326
  859MPD2     H12667   1.574   4.602  15.049 -2.5073  1.9804 -1.8805
  859MPD2    H112668   1.437   4.483  15.433  1.1358 -0.1081 -0.5063
  859MPD2    H212669   1.551   0.153  15.362 -0.1473 -0.4234  1.5664
  859MPD2    H312670   1.460   4.702  15.506  0.9806 -0.5139  0.1176
  859MPD2     N12671   1.475   4.396  15.202 -0.3580 -0.2420 -0.0744
  859MPD2    H512672   1.444   4.342  15.282  0.6054  0.1619  0.5870
  859MPD2    N112673   1.616   0.114  15.114  0.6324  0.6975 -0.6795
  859MPD2    H712674   1.634   0.204  15.157  0.3576 -0.5094  1.9553
  860MPD2     C12675   3.953   0.166  11.573 -0.8450  0.4594 -0.2212
  860MPD2    C112676   4.018   0.099  11.672 -0.0374 -0.0773 -0.0668
  860MPD2    C212677   3.947   0.069  11.787 -1.0373 -0.5930  0.5947
  860MPD2    C312678   3.812   0.108  11.802 -0.9673  0.4137 -0.0460
  860MPD2    C412679   3.748   0.171  11.697  1.1615 -0.1844 -0.0556
  860MPD2    C512680   3.820   0.205  11.585 -0.3217 -0.2445 -0.0590
  860MPD2     H12681   3.995   0.010  11.865  0.5530 -0.8982 -0.6109
  860MPD2    H112682   3.644   0.202  11.701  1.3065  0.3030 -0.0609
  860MPD2    H212683   4.001   0.199  11.481 -0.1588 -0.3848 -0.1646
  860MPD2    H312684   3.771   0.258  11.505  3.4581 -1.1172 -2.9736
  860MPD2     N12685   3.755   0.092  11.933 -0.4408 -0.0261 -0.1982
  860MPD2    H512686   3.798   0.033  12.003 -0.0910 -0.2311 -0.5810
  860MPD2    N112687   4.150   0.054  11.659  0.2907  0.5329  0.0642
  860MPD2    H712688   4.171   4.718  11.725  0.8533  1.4593  0.9347
  861MPD2     C12689   2.448   3.540  11.396  0.1372 -0.3848  0.2312
  861MPD2    C112690   2.336   3.488  11.440  0.2284 -0.1351 -0.0159
  861MPD2    C212691   2.218   3.524  11.373  0.8521  1.0156 -0.6047
  861MPD2    C312692   2.220   3.619  11.270  0.7834 -0.1494 -0.3606
  861MPD2    C412693   2.337   3.666  11.231  0.0524  0.5516 -0.5936
  861MPD2    C512694   2.452   3.631  11.297  0.4433 -0.0950  0.3460
  861MPD2     H12695   2.129   3.467  11.396  1.3995  0.1890 -0.5668
  861MPD2    H112696   2.332   3.751  11.164 -2.5396 -0.0279 -1.1239
  861MPD2    H212697   2.547   3.526  11.438 -0.1706 -2.3064  0.2807
  861MPD2    H312698   2.537   3.694  11.274  0.7193 -1.3944 -2.1589
  861MPD2     N12699   2.102   3.678  11.215  0.2638 -0.2093 -0.4950
  861MPD2    H512700   2.111   3.750  11.143  0.6198  0.4380  0.1960
  861MPD2    N112701   2.343   3.403  11.562  0.4767  0.1892 -0.4026
  861MPD2    H712702   2.259   3.355  11.594  0.8262  0.9016  1.5608
  862MPD2     C12703   1.667   3.868  10.667  0.5603 -0.2511 -0.2090
  862MPD2    C112704   1.687   3.776  10.771  0.2051  0.6092  0.0604
  862MPD2    C212705   1.656   3.646  10.753 -0.0424  0.2069 -0.3248
  862MPD2    C312706   1.619   3.602  10.624  0.1602  0.1183 -0.4750
  862MPD2    C412707   1.605   3.688  10.518 -0.4457  0.0428 -0.3272
  862MPD2    C512708   1.621   3.815  10.545 -0.3005  0.3220 -0.3401
  862MPD2     H12709   1.660   3.583  10.840  2.2111 -0.7689 -1.1344
  862MPD2    H112710   1.567   3.658  10.421 -0.4637  1.0879 -0.6373
  862MPD2    H212711   1.680   3.975  10.667  1.3309 -0.3454  0.3790
  862MPD2    H312712   1.588   3.885  10.468  0.5602  0.9862 -0.1103
  862MPD2     N12713   1.583   3.467  10.604  0.0992  0.5796  0.4608
  862MPD2    H512714   1.502   3.446  10.546  0.2336 -2.5398  1.4161
  862MPD2    N112715   1.735   3.813  10.895 -0.1462 -0.2424 -0.1261
  862MPD2    H712716   1.721   3.749  10.973  0.4526  1.5979  1.4762
  863MPD2     C12717   0.741   1.772  16.783  0.5685 -0.2921  1.0963
  863MPD2    C112718   0.692   1.820  16.899  0.2631 -0.0038 -0.0076
  863MPD2    C212719   0.762   1.801  17.019  0.9793  0.0612 -0.4355
  863MPD2    C312720   0.898   1.759  17.018 -0.0233 -0.6683  0.0296
  863MPD2    C412721   0.940   1.717  16.895 -0.0274  0.4134  0.0410
  863MPD2    C512722   0.860   1.720  16.783 -0.4515  0.1882 -0.3577
  863MPD2     H12723   0.718   1.835  17.112  0.1810  1.1999 -1.2353
  863MPD2    H112724   1.040   1.676  16.878 -0.9954 -1.9200 -0.0410
  863MPD2    H212725   0.692   1.785  16.687 -0.6684 -0.7057  1.6701
  863MPD2    H312726   0.905   1.679  16.693 -0.5866  0.8992 -0.7508
  863MPD2     N12727   0.980   1.740  17.128 -0.0850  0.0828 -0.2808
  863MPD2    H512728   1.062   1.682  17.116 -0.3267 -0.1059 -1.0295
  863MPD2    N112729   0.566   1.886  16.893  0.1621  0.1935 -0.0625
  863MPD2    H712730   0.524   1.902  16.802  0.9626  0.6250 -0.3549
  864MPD2     C12731   1.437   2.431  17.229 -0.0099 -0.7214 -0.4181
  864MPD2    C112732   1.512   2.391  17.120  0.4615 -0.0321 -0.2640
  864MPD2    C212733   1.594   2.479  17.053  0.1595  0.5192  0.0000
  864MPD2    C312734   1.606   2.612  17.095 -0.7545  0.0514 -0.3711
  864MPD2    C412735   1.522   2.652  17.199  0.2814 -0.5043 -0.1789
  864MPD2    C512736   1.446   2.562  17.274  0.1923 -0.3622  0.3031
  864MPD2     H12737   1.655   2.443  16.971  0.4660 -2.8701  1.7221
  864MPD2    H112738   1.530   2.752  17.240  0.8261 -0.4866 -0.3197
  864MPD2    H212739   1.364   2.363  17.270 -0.7813  1.5007  1.9299
  864MPD2    H312740   1.376   2.597  17.349 -2.4192 -0.1849 -2.1892
  864MPD2     N12741   1.691   2.702  17.042 -0.0931  0.0339 -0.8326
  864MPD2    H512742   1.702   2.793  17.085  1.4341  0.7843 -2.8118
  864MPD2    N112743   1.493   2.259  17.087  0.0572 -0.6824 -0.4237
  864MPD2    H712744   1.421   2.216  17.146  0.7983 -0.3817  0.7083
  865MPD2     C12745   1.880   3.298  16.382 -0.0362 -0.4238  0.7125
  865MPD2    C112746   1.825   3.177  16.430  0.0802 -0.1457 -0.6778
  865MPD2    C212747   1.816   3.152  16.564  0.1859 -0.1454 -0.5378
  865MPD2    C312748   1.867   3.241  16.657 -0.3118  0.3438 -0.1201
  865MPD2    C412749   1.924   3.358  16.609 -0.0548  0.3556  0.8252
  865MPD2    C512750   1.930   3.385  16.477  0.2806  0.0041 -0.0707
  865MPD2     H12751   1.797   3.052  16.600  0.0193  0.7271  1.8393
  865MPD2    H112752   1.975   3.424  16.678  0.7068 -0.6718  1.2330
  865MPD2    H212753   1.880   3.330  16.278 -0.0147 -1.6423  0.3437
  865MPD2    H312754   1.979   3.475  16.441 -0.7612  0.1154 -1.2327
  865MPD2     N12755   1.865   3.219  16.797 -0.3625  0.1770 -0.0975
  865MPD2    H512756   1.928   3.281  16.846 -1.0324  1.2429 -0.5861
  865MPD2    N112757   1.771   3.094  16.332  0.2317 -0.4365 -0.9593
  865MPD2    H712758   1.790   3.119  16.236  0.8423  0.1720 -0.6849
  866MPD2     C12759   3.142   3.857  11.417 -0.1224  0.2909 -0.2312
  866MPD2    C112760   3.059   3.756  11.454 -0.8254 -1.0523  0.6399
  866MPD2    C212761   2.924   3.792  11.471 -0.1474 -0.0215  0.0348
  866MPD2    C312762   2.881   3.914  11.435 -0.4232  0.1052  1.3711
  866MPD2    C412763   2.960   4.005  11.376 -0.2904  0.0134 -0.3223
  866MPD2    C512764   3.096   3.980  11.371 -0.3278 -0.6538  0.5400
  866MPD2     H12765   2.853   3.712  11.487 -1.0935  0.1237 -3.4288
  866MPD2    H112766   2.924   4.106  11.361  1.7550  0.6126 -1.2793
  866MPD2    H212767   3.249   3.838  11.410  0.2627  2.1958  0.4970
  866MPD2    H312768   3.155   4.063  11.336  0.2273 -0.7563  1.2254
  866MPD2     N12769   2.738   3.937  11.444 -0.0699 -0.0067  0.5501
  866MPD2    H512770   2.683   3.860  11.481  0.2609 -0.1481  0.7513
  866MPD2    N112771   3.116   3.619  11.480  0.6667  0.1833 -0.4006
  866MPD2    H712772   3.217   3.616  11.477  0.7646  1.4884  2.1713
  867MPD2     C12773   0.162   3.240  16.705 -0.2627  0.9381 -0.0555
  867MPD2    C112774   0.195   3.136  16.785 -0.1199 -0.4052 -0.5809
  867MPD2    C212775   0.245   3.161  16.918  0.3828 -0.6015  0.0208
  867MPD2    C312776   0.273   3.293  16.949 -0.4984  0.3088 -0.2425
  867MPD2    C412777   0.240   3.395  16.864 -0.2458 -0.0658  0.0234
  867MPD2    C512778   0.177   3.371  16.748 -0.4516 -0.1179  0.4508
  867MPD2     H12779   0.268   3.081  16.988 -0.0387 -0.3883  0.4024
  867MPD2    H112780   0.240   3.495  16.905  1.1677 -0.6273  1.4124
  867MPD2    H212781   0.113   3.217  16.611  0.4954 -1.2051  0.0649
  867MPD2    H312782   0.138   3.449  16.682  0.9466  1.4242  1.4634
  867MPD2     N12783   0.329   3.331  17.072 -0.3060 -0.2183 -0.1152
  867MPD2    H512784   0.339   3.431  17.080 -0.8015 -0.1960  0.2304
  867MPD2    N112785   0.180   3.007  16.726 -0.3622 -0.3099 -0.6030
  867MPD2    H712786   0.130   2.984  16.641  0.8635  2.0189 -1.9217
  868MPD2     C12787   2.410   1.050  13.216  0.2786  0.0995 -0.1921
  868MPD2    C112788   2.385   1.186  13.209  0.0659 -0.3242 -0.1610
  868MPD2    C212789   2.259   1.233  13.184  0.2444 -0.3545 -0.6898
  868MPD2    C312790   2.151   1.149  13.195  0.5929  0.4650  0.1752
  868MPD2    C412791   2.169   1.017  13.209 -0.1387 -0.3734 -0.1018
  868MPD2    C512792   2.300   0.965  13.216  0.0747  0.0670 -0.1204
  868MPD2     H12793   2.235   1.336  13.160 -1.9769 -0.7981 -0.3648
  868MPD2    H112794   2.090   0.942  13.206 -1.6015  1.1453  0.4138
  868MPD2    H212795   2.514   1.021  13.220  0.4850  0.6695 -1.5676
  868MPD2    H312796   2.312   0.859  13.194  2.0875  0.4995 -1.1517
  868MPD2     N12797   2.029   1.215  13.184  0.5287 -0.1584 -0.2169
  868MPD2    H512798   2.028   1.316  13.195 -0.6257 -0.1390 -0.5111
  868MPD2    N112799   2.504   1.269  13.213  0.5121  0.2412 -0.8514
  868MPD2    H712800   2.587   1.217  13.238  0.0283  0.0239  0.2961
  869MPD2     C12801   2.729   1.190   0.277 -0.4372 -0.2007 -0.5290
  869MPD2    C112802   2.826   1.093   0.268  0.1923 -0.0431  0.5092
  869MPD2    C212803   2.957   1.124   0.296  0.2565 -0.4220  0.2851
  869MPD2    C312804   2.988   1.258   0.326  0.6910  0.7688  0.1657
  869MPD2    C412805   2.889   1.361   0.328 -0.0926  0.3004 -0.0175
  869MPD2    C512806   2.759   1.324   0.311  0.0504  0.1649 -0.1175
  869MPD2     H12807   3.035   1.052   0.275 -0.4454 -1.0763 -0.0454
  869MPD2    H112808   2.913   1.466   0.340 -3.5089  0.9868  0.9287
  869MPD2    H212809   2.627   1.162   0.255 -0.2995 -1.5060  0.5027
  869MPD2    H312810   2.678   1.396   0.320  0.2890  0.0877  2.8546
  869MPD2     N12811   3.115   1.319   0.331 -0.3388  0.1504 -0.7208
  869MPD2    H512812   3.119   1.416   0.362  0.9620  0.0576 -0.5752
  869MPD2    N112813   2.791   0.959   0.233  0.3082 -0.4614 -0.0661
  869MPD2    H712814   2.691   0.949   0.218  0.2640 -0.3296  0.1478
  870MPD2     C12815   3.319   3.521   1.886  0.1867 -0.5680  0.6518
  870MPD2    C112816   3.264   3.462   1.774  0.0703 -0.0357 -0.2219
  870MPD2    C212817   3.157   3.524   1.706  0.5724 -0.1341 -0.2383
  870MPD2    C312818   3.097   3.648   1.752  0.0987  0.4134 -0.5425
  870MPD2    C412819   3.162   3.711   1.858  0.7421  0.7282  1.2654
  870MPD2    C512820   3.266   3.644   1.924 -0.5488  0.1859  0.1972
  870MPD2     H12821   3.104   3.469   1.629  1.9231 -1.8219  0.0357
  870MPD2    H112822   3.140   3.815   1.879 -1.6926  0.2163  1.2090
  870MPD2    H212823   3.414   3.493   1.929  2.6830  0.1739 -4.3632
  870MPD2    H312824   3.308   3.690   2.013 -1.9634  0.5980  0.6570
  870MPD2     N12825   3.006   3.718   1.668 -0.3479 -0.1923 -0.4716
  870MPD2    H512826   2.998   3.685   1.573 -1.0273  2.0403 -1.1913
  870MPD2    N112827   3.325   3.351   1.722 -0.1143  0.1133 -0.4582
  870MPD2    H712828   3.418   3.333   1.758  0.3063  0.1755 -1.4948
  871MPD2     C12829   4.237   3.591  16.452 -0.4078 -0.3474  0.6441
  871MPD2    C112830   4.253   3.521  16.567  0.0966  0.8975  0.5680
  871MPD2    C212831   4.284   3.386  16.564  0.0309  0.3918  0.0516
  871MPD2    C312832   4.295   3.317  16.447 -0.6457 -0.6959 -0.3930
  871MPD2    C412833   4.279   3.388  16.328  0.3674 -0.8923  0.1206
  871MPD2    C512834   4.244   3.521  16.336  0.2673  0.0264  0.2494
  871MPD2     H12835   4.298   3.337  16.660  2.2098 -2.1679 -1.5932
  871MPD2    H112836   4.288   3.355  16.226 -2.0553  1.6122 -0.9062
  871MPD2    H212837   4.204   3.693  16.437  0.3568 -0.0248  1.1704
  871MPD2    H312838   4.232   3.581  16.246 -0.8052 -1.0612 -0.3384
  871MPD2     N12839   4.336   3.184  16.445  0.3033 -0.2975 -0.1108
  871MPD2    H512840   4.345   3.132  16.532  1.5616  0.8566  0.4658
  871MPD2    N112841   4.230   3.588  16.689  0.2482  0.3627 -0.6120
  871MPD2    H712842   4.204   3.687  16.687 -1.7988 -0.1390  0.9318
  872MPD2     C12843   0.565   0.614  14.213 -0.6488  0.2168 -0.2333
  872MPD2    C112844   0.509   0.739  14.208 -0.1804  0.1451 -0.3866
  872MPD2    C212845   0.366   0.748  14.222 -0.2914  0.3051 -0.0267
  872MPD2    C312846   0.286   0.634  14.236 -0.3396 -0.6462  0.4350
  872MPD2    C412847   0.349   0.516  14.269 -0.2949  0.3766 -0.2972
  872MPD2    C512848   0.483   0.509  14.245 -0.1884  0.3765 -0.1949
  872MPD2     H12849   0.323   0.847  14.208  0.5650  0.7484  0.4341
  872MPD2    H112850   0.292   0.426  14.287  0.1231  0.4724  1.4669
  872MPD2    H212851   0.668   0.590  14.189 -0.7138 -0.1817 -0.1065
  872MPD2    H312852   0.530   0.412  14.236 -0.7495  0.0066  0.9272
  872MPD2     N12853   0.143   0.637  14.250  0.2394 -0.7785 -0.1940
  872MPD2    H512854   0.092   0.556  14.284 -3.0301  1.1614 -0.4970
  872MPD2    N112855   0.584   0.845  14.147 -0.5475 -0.3840  0.4742
  872MPD2    H712856   0.538   0.934  14.136 -0.7679 -0.6823 -0.9530
  873MPD2     C12857   2.061   0.605   0.974  0.2949 -0.0745  0.2810
  873MPD2    C112858   1.982   0.698   0.915  0.2480 -0.0769  0.2606
  873MPD2    C212859   1.882   0.650   0.834 -0.4185 -0.3630  0.1798
  873MPD2    C312860   1.843   0.511   0.823  0.1154 -0.3939  0.0729
  873MPD2    C412861   1.918   0.425   0.897 -0.0169 -0.1130  0.1139
  873MPD2    C512862   2.024   0.465   0.975  0.2485  0.1067 -1.0682
  873MPD2     H12863   1.817   0.722   0.785  1.6451  0.5360 -1.2506
  873MPD2    H112864   1.899   0.320   0.875  2.3846 -0.2867 -1.1672
  873MPD2    H212865   2.152   0.644   1.020  1.2419 -0.7149 -1.0868
  873MPD2    H312866   2.093   0.391   1.014 -0.4887  0.1247  0.2684
  873MPD2     N12867   1.729   0.458   0.746  0.3451  0.3710  0.0135
  873MPD2    H512868   1.711   0.358   0.757 -0.7090  0.5336 -0.2789
  873MPD2    N112869   2.022   0.834   0.927 -0.3529  0.4038 -0.1275
  873MPD2    H712870   2.096   0.862   0.990 -0.3652  0.5365 -0.1725
  874MPD2     C12871   1.128   0.918  16.150  0.3495 -0.4060  0.6518
  874MPD2    C112872   1.155   0.818  16.243 -0.4031 -0.2797 -0.1116
  874MPD2    C212873   1.271   0.826  16.324  0.0555  0.1465  0.0716
  874MPD2    C312874   1.368   0.925  16.301  0.1381 -0.2081  0.0603
  874MPD2    C412875   1.340   1.026  16.205  0.2511  0.1412 -0.5478
  874MPD2    C512876   1.224   1.016  16.133  0.6458 -0.7639  0.4784
  874MPD2     H12877   1.293   0.742  16.389  0.8506  0.6231  0.4206
  874MPD2    H112878   1.399   1.114  16.187 -0.3093  0.5888 -0.1949
  874MPD2    H212879   1.039   0.913  16.089  2.0498  0.6608 -1.9323
  874MPD2    H312880   1.203   1.084  16.052 -0.2880  0.4323  1.7301
  874MPD2     N12881   1.480   0.922  16.379  0.1647  0.1869 -0.4760
  874MPD2    H512882   1.496   0.846  16.445  1.3096  0.0898 -0.8736
  874MPD2    N112883   1.060   0.711  16.244 -0.2717 -0.3467 -0.2587
  874MPD2    H712884   0.981   0.711  16.181 -0.5131  0.7010  0.0480
  875MPD2     C12885   2.306   4.229  15.042 -0.3614 -0.3356  0.1406
  875MPD2    C112886   2.425   4.214  14.983 -0.2282 -0.2085  0.4307
  875MPD2    C212887   2.539   4.244  15.065 -0.4997 -0.3919  0.6785
  875MPD2    C312888   2.525   4.254  15.205 -0.3638  0.0277  0.4704
  875MPD2    C412889   2.401   4.240  15.266  0.0461  0.4725 -0.5482
  875MPD2    C512890   2.295   4.240  15.177  0.3033  0.4438  0.4430
  875MPD2     H12891   2.640   4.242  15.028 -0.4760 -3.1265  0.9198
  875MPD2    H112892   2.380   4.260  15.371  1.6278  3.2449 -0.7644
  875MPD2    H212893   2.211   4.218  14.989 -0.3715 -0.2406  0.1389
  875MPD2    H312894   2.201   4.270  15.222 -0.0616 -1.4441  0.9388
  875MPD2     N12895   2.632   4.286  15.291 -0.0946 -0.0825  0.0599
  875MPD2    H512896   2.617   4.280  15.391  3.0795 -0.0366  0.5364
  875MPD2    N112897   2.437   4.191  14.842 -0.1453  0.0014  1.1878
  875MPD2    H712898   2.528   4.180  14.799 -0.2071 -0.3113  1.1329
  876MPD2     C12899   1.627   0.717  15.935  0.4434 -0.1074 -0.6602
  876MPD2    C112900   1.732   0.631  15.901 -0.2158  0.0600 -0.1519
  876MPD2    C212901   1.717   0.499  15.940  0.2468 -0.0058 -0.1832
  876MPD2    C312902   1.612   0.460  16.026 -0.0806  0.0624  0.1765
  876MPD2    C412903   1.507   0.552  16.045  0.3436  0.6779  0.1198
  876MPD2    C512904   1.518   0.679  16.004  0.3424  0.7536  0.3010
  876MPD2     H12905   1.801   0.437  15.913 -0.8560 -1.5674 -0.0153
  876MPD2    H112906   1.413   0.514  16.084  0.3115  1.3115  0.6549
  876MPD2    H212907   1.638   0.822  15.910 -0.0201  0.4243  1.4003
  876MPD2    H312908   1.438   0.751  16.018 -1.0766 -0.4111 -1.8397
  876MPD2     N12909   1.606   0.321  16.061  0.3545  0.4333 -0.8187
  876MPD2    H512910   1.686   0.263  16.038  1.1016  1.4049 -0.7130
  876MPD2    N112911   1.848   0.684  15.841  0.1498 -0.4313 -0.1434
  876MPD2    H712912   1.852   0.785  15.847  1.5384 -0.4613 -0.5142
  877MPD2     C12913   1.877   1.071  15.253 -0.1736 -0.0801 -0.4279
  877MPD2    C112914   2.001   1.018  15.248 -0.5430  0.5970  0.3370
  877MPD2    C212915   2.071   1.026  15.131  0.0794  0.1200  0.4275
  877MPD2    C312916   2.020   1.083  15.009  0.0802  0.6331 -1.0166
  877MPD2    C412917   1.888   1.126  15.014 -0.0161  0.2763 -0.4430
  877MPD2    C512918   1.823   1.123  15.139  0.9487  0.8635 -0.5478
  877MPD2     H12919   2.173   0.989  15.137  0.1541  0.4789  1.3600
  877MPD2    H112920   1.827   1.163  14.932 -1.0369  2.4372  1.2874
  877MPD2    H212921   1.813   1.063  15.340  0.2917  1.0851  0.0301
  877MPD2    H312922   1.719   1.149  15.151  0.8236 -0.5429  1.2816
  877MPD2     N12923   2.080   1.056  14.882  0.0016 -0.8372 -0.0356
  877MPD2    H512924   2.023   1.080  14.802  0.4775 -2.2885 -0.8047
  877MPD2    N112925   2.056   0.949  15.359  0.1940 -0.4634  0.0803
  877MPD2    H712926   2.142   0.897  15.341  0.8572  0.2958  1.0732
  878MPD2     C12927   1.253   0.085  13.090 -0.6863 -0.5252 -0.6739
  878MPD2    C112928   1.346   0.186  13.072 -0.0722  0.2196  0.2881
  878MPD2    C212929   1.364   0.267  13.188  0.3091 -0.4325  0.0725
  878MPD2    C312930   1.309   0.236  13.312  0.0095 -0.1393 -0.3492
  878MPD2    C412931   1.222   0.128  13.319  0.2798 -0.1296  0.5886
  878MPD2    C512932   1.186   0.054  13.207  0.3367  0.2377  0.3381
  878MPD2     H12933   1.425   0.356  13.182  1.6873 -1.3269  0.7564
  878MPD2    H112934   1.158   0.104  13.403 -0.8613  0.6764 -0.0511
  878MPD2    H212935   1.225   0.016  13.012 -0.6416 -2.8824  1.3987
  878MPD2    H312936   1.122   4.706  13.220  0.9035 -0.4684 -1.6676
  878MPD2     N12937   1.340   0.314  13.424  0.7533  0.1712 -0.0920
  878MPD2    H512938   1.412   0.386  13.420  1.9501 -0.9334  1.1989
  878MPD2    N112939   1.410   0.209  12.947  0.1335  0.4521 -0.2755
  878MPD2    H712940   1.379   0.152  12.869 -1.7215 -1.0169  1.5371
  879MPD2     C12941   1.852   0.804  17.084 -0.0980 -0.0351 -0.8980
  879MPD2    C112942   1.832   0.933  17.043  0.1393 -0.0722  0.0609
  879MPD2    C212943   1.724   0.970  16.961 -0.1431 -0.0011 -0.2869
  879MPD2    C312944   1.631   0.872  16.939  0.0701  0.0182  0.1974
  879MPD2    C412945   1.647   0.745  16.975  0.8832 -1.3683 -0.1529
  879MPD2    C512946   1.762   0.710  17.037  0.2585 -0.0235 -0.5943
  879MPD2     H12947   1.712   1.075  16.938 -1.0794 -0.6895 -2.9240
  879MPD2    H112948   1.571   0.669  16.963 -0.9417  0.5261 -0.5187
  879MPD2    H212949   1.930   0.776  17.154 -0.3298  2.0206  0.1762
  879MPD2    H312950   1.775   0.606  17.064 -0.7626 -0.0249 -0.1046
  879MPD2     N12951   1.504   0.899  16.882  0.4238  0.0208 -0.0049
  879MPD2    H512952   1.437   0.827  16.903  0.3407  0.0320 -0.2270
  879MPD2    N112953   1.917   1.026  17.110  0.0334  1.0258 -0.3050
  879MPD2    H712954   1.980   0.988  17.180  0.5040  1.0742 -0.6926
  880MPD2     C12955   2.747   3.285   0.345 -0.2138 -0.4466  0.7144
  880MPD2    C112956   2.838   3.335   0.441  0.5516 -0.5408  0.7071
  880MPD2    C212957   2.899   3.252   0.535  0.1611 -0.2858 -1.1380
  880MPD2    C312958   2.878   3.118   0.530  1.4413  0.1039 -0.3735
  880MPD2    C412959   2.787   3.069   0.432 -0.3049 -1.0800  0.9041
  880MPD2    C512960   2.729   3.151   0.336 -0.0509  0.5719 -0.0646
  880MPD2     H12961   2.968   3.297   0.606 -0.7093  0.1921 -0.5972
  880MPD2    H112962   2.768   2.962   0.428  0.0694 -1.1072 -0.2840
  880MPD2    H212963   2.707   3.356   0.274  1.3417 -0.2887 -0.0072
  880MPD2    H312964   2.668   3.111   0.256 -0.3078 -1.3506  1.1043
  880MPD2     N12965   2.943   3.044   0.628  0.0143 -0.6610 -0.1682
  880MPD2    H512966   2.992   3.099   0.697  0.0613  1.5079 -1.8994
  880MPD2    N112967   2.866   3.466   0.450 -0.1347  0.7431  0.7597
  880MPD2    H712968   2.924   3.506   0.523 -0.2505  1.3638  0.5085
  881MPD2     C12969   3.261   4.412   0.084 -0.2427  0.3457  0.0618
  881MPD2    C112970   3.222   4.295   0.014 -1.1004  0.0124 -0.2807
  881MPD2    C212971   3.190   4.180   0.080 -0.7934 -0.0961  0.8645
  881MPD2    C312972   3.171   4.188   0.214  0.0324  0.0871  0.9501
  881MPD2    C412973   3.177   4.308   0.286  0.1772  0.4466  0.6299
  881MPD2    C512974   3.221   4.420   0.215 -0.6300 -0.3379 -0.1624
  881MPD2     H12975   3.175   4.088   0.023 -2.0076 -0.1857  1.3252
  881MPD2    H112976   3.166   4.303   0.393  0.5617  2.0797  0.7343
  881MPD2    H212977   3.313   4.495   0.037 -0.2209  0.0821 -0.3886
  881MPD2    H312978   3.236   4.506   0.278 -1.2333  0.3237 -0.9210
  881MPD2     N12979   3.131   4.073   0.285 -0.8376  0.1688  0.4586
  881MPD2    H512980   3.139   4.072   0.386 -0.7686  1.7410  0.4776
  881MPD2    N112981   3.237   4.282  17.624  0.0142  0.3458  0.2243
  881MPD2    H712982   3.233   4.188  17.586  0.0815  0.5289 -0.2363
  882MPD2     C12983   2.012   1.083  14.061  0.4244  0.3616  0.1013
  882MPD2    C112984   1.960   1.066  14.188 -0.4975 -0.5208 -0.1829
  882MPD2    C212985   1.823   1.071  14.208 -0.3314  0.6389 -0.0197
  882MPD2    C312986   1.736   1.083  14.100  0.0754 -0.3796  0.7035
  882MPD2    C412987   1.783   1.085  13.971  0.1699 -0.8204  0.7155
  882MPD2    C512988   1.920   1.100  13.956 -0.2608  0.1459  0.0699
  882MPD2     H12989   1.791   1.053  14.310 -1.6072  0.0126 -0.5236
  882MPD2    H112990   1.716   1.092  13.887  1.3735  3.0010  0.0673
  882MPD2    H212991   2.119   1.087  14.041  0.1269  0.8425 -1.3938
  882MPD2    H312992   1.973   1.114  13.862  2.5853 -0.1025  1.6516
  882MPD2     N12993   1.595   1.086  14.125  0.4012  0.4713 -0.1800
  882MPD2    H512994   1.530   1.077  14.047  0.0048  1.2886  0.0590
  882MPD2    N112995   2.051   1.036  14.289  0.1992  0.0602  0.0633
  882MPD2    H712996   2.149   1.042  14.262  0.5346 -0.3895  1.1454
  883MPD2     C12997   3.790   1.309  16.405 -0.0867 -0.1897 -0.4694
  883MPD2    C112998   3.888   1.347  16.318  0.5541  0.5044 -0.5265
  883MPD2    C212999   3.965   1.457  16.345 -0.9061 -0.1416 -0.5304
  883MPD2    C313000   3.954   1.518  16.473  0.0349  0.4833 -0.1214
  883MPD2    C413001   3.869   1.464  16.571  0.5876  0.2097 -0.4919
  883MPD2    C513002   3.778   1.367  16.534 -0.6520 -0.5579 -0.2042
  883MPD2     H13003   4.028   1.490  16.263 -1.6529  1.2081 -0.5631
  883MPD2    H113004   3.862   1.516  16.666  2.1692 -1.2166  0.3958
  883MPD2    H213005   3.720   1.229  16.382  1.5342 -1.2465 -1.7102
  883MPD2    H313006   3.702   1.335  16.605 -0.2653 -0.6779  0.1585
  883MPD2     N13007   4.045   1.630  16.500 -0.3821  0.4756  0.5398
  883MPD2    H513008   4.107   1.662  16.427  0.6605  2.0057  2.0746
  883MPD2    N113009   3.903   1.294  16.185  0.2223  0.2104 -0.0041
  883MPD2    H713010   3.982   1.319  16.126  1.5601 -2.0406  0.8528
  884MPD2     C13011   0.554   1.914  14.872  0.7437  0.4303  0.4801
  884MPD2    C113012   0.507   1.997  14.974 -0.2940 -0.2229 -0.6092
  884MPD2    C213013   0.394   1.962  15.042  0.5520 -0.3322  1.0604
  884MPD2    C313014   0.317   1.851  15.008  0.2636  0.0602  0.0145
  884MPD2    C413015   0.357   1.786  14.885  0.0258  0.7895  0.3940
  884MPD2    C513016   0.477   1.811  14.825 -0.2703  0.2118 -0.0541
  884MPD2     H13017   0.375   2.016  15.133 -2.4524  2.0698 -0.9762
  884MPD2    H113018   0.307   1.694  14.856  0.1538  0.5514  0.9216
  884MPD2    H213019   0.645   1.931  14.816 -0.4950 -1.3494 -2.0705
  884MPD2    H313020   0.518   1.758  14.740 -0.3148 -0.1514  0.1501
  884MPD2     N13021   0.197   1.810  15.068 -0.2994  0.4844 -0.0842
  884MPD2    H513022   0.129   1.756  15.016  1.8889 -0.3989 -2.0048
  884MPD2    N113023   0.577   2.107  15.025 -0.1710  0.0946 -0.1208
  884MPD2    H713024   0.567   2.131  15.123  2.4823  0.8866 -0.0268
  885MPD2     C13025   3.253   2.193   0.521  0.3291  0.2995 -0.0293
  885MPD2    C113026   3.381   2.155   0.509 -0.7404 -0.0330 -0.4581
  885MPD2    C213027   3.454   2.156   0.394  0.1998 -0.6771 -0.3891
  885MPD2    C313028   3.400   2.226   0.289 -0.5269  0.2924 -0.6292
  885MPD2    C413029   3.274   2.278   0.300 -0.5284 -0.1501 -0.1943
  885MPD2    C513030   3.206   2.255   0.415 -0.3599  0.7474  0.2218
  885MPD2     H13031   3.553   2.113   0.384  1.5251  2.5516 -1.2328
  885MPD2    H113032   3.213   2.329   0.227 -0.2000  1.3755  0.6076
  885MPD2    H213033   3.189   2.164   0.603 -0.1041 -2.6895 -1.4308
  885MPD2    H313034   3.100   2.280   0.415  0.1893  3.1072 -1.3598
  885MPD2     N13035   3.488   2.242   0.175 -0.0804  0.3567  0.9983
  885MPD2    H513036   3.581   2.202   0.173 -0.8934 -1.5620  1.1289
  885MPD2    N113037   3.431   2.102   0.630  0.2846 -0.4867 -0.0232
  885MPD2    H713038   3.381   2.121   0.716 -1.3979 -2.7245 -0.5436
  886MPD2     C13039   0.391   0.187  15.150  0.3235 -0.3978  0.2225
  886MPD2    C113040   0.514   0.219  15.202 -0.0718 -0.0711  0.4667
  886MPD2    C213041   0.581   0.326  15.149  0.4255 -0.1281 -0.1986
  886MPD2    C313042   0.525   0.414  15.057  0.1851 -0.3298  0.5499
  886MPD2    C413043   0.395   0.384  15.019 -0.2169  0.0470 -0.5257
  886MPD2    C513044   0.332   0.273  15.065 -0.3419  0.3290  0.0794
  886MPD2     H13045   0.683   0.321  15.184  1.5983  1.9084 -3.3347
  886MPD2    H113046   0.330   0.456  14.971 -0.8884  0.1108  0.4841
  886MPD2    H213047   0.325   0.114  15.195  0.2167 -1.0923 -1.0663
  886MPD2    H313048   0.226   0.262  15.042 -0.2769  0.7179 -0.4217
  886MPD2     N13049   0.591   0.527  14.999  0.2221 -0.0335  0.0614
  886MPD2    H513050   0.549   0.567  14.915  1.2077  0.7252 -0.0656
  886MPD2    N113051   0.572   0.150  15.312  0.4086  0.3247  0.2083
  886MPD2    H713052   0.672   0.166  15.321  0.4068 -0.5619  1.6895
  887MPD2     C13053   1.054   0.351  15.809 -0.3388  0.6514  0.2927
  887MPD2    C113054   0.932   0.385  15.748  0.0438 -0.1212  0.0201
  887MPD2    C213055   0.891   0.519  15.750  0.4922 -0.7549 -0.2484
  887MPD2    C313056   0.982   0.617  15.783  0.3245 -0.3542  0.5442
  887MPD2    C413057   1.104   0.581  15.828 -0.2157  0.3016 -0.1616
  887MPD2    C513058   1.144   0.456  15.850  0.1758  0.2301  0.8430
  887MPD2     H13059   0.794   0.552  15.715 -0.0997 -0.4278  1.6969
  887MPD2    H113060   1.167   0.658  15.871  0.1019 -0.1606  0.2123
  887MPD2    H213061   1.091   0.251  15.830 -0.1227  0.7120  0.2033
  887MPD2    H313062   1.241   0.427  15.890 -0.2886 -1.3894  0.7979
  887MPD2     N13063   0.941   0.754  15.770 -0.2178 -0.3249  0.4624
  887MPD2    H513064   0.841   0.770  15.765 -0.0098  0.6511 -0.6156
  887MPD2    N113065   0.840   0.283  15.699  0.0194  0.3123  0.1796
  887MPD2    H713066   0.758   0.312  15.647  1.4380  0.3218 -2.0692
  888MPD2     C13067   3.081   0.229  15.196  0.1197  0.2204 -0.2078
  888MPD2    C113068   2.984   0.281  15.279  0.5177  0.1925  0.2048
  888MPD2    C213069   2.984   0.416  15.315 -0.9067  0.2666 -0.0537
  888MPD2    C313070   3.095   0.496  15.277  1.1720  0.6314  0.1203
  888MPD2    C413071   3.197   0.436  15.202 -0.2382  0.4855  0.1053
  888MPD2    C513072   3.190   0.303  15.168 -0.3185  0.9887 -0.3032
  888MPD2     H13073   2.901   0.454  15.374 -1.8701 -1.0955 -0.5505
  888MPD2    H113074   3.289   0.484  15.169 -1.6741  1.2170 -2.7724
  888MPD2    H213075   3.098   0.124  15.175  0.0877  0.8742 -3.4100
  888MPD2    H313076   3.277   0.267  15.116  0.8448  2.0639  0.9115
  888MPD2     N13077   3.097   0.634  15.321 -0.1246  0.2049  0.0759
  888MPD2    H513078   3.036   0.666  15.394  0.0465  1.0357 -0.1485
  888MPD2    N113079   2.877   0.196  15.315 -0.2560 -0.0754 -0.3272
  888MPD2    H713080   2.798   0.239  15.361 -1.2549 -0.8439 -1.3260
  889MPD2     C13081   2.309   0.149  13.106  0.7254  0.2167 -0.9303
  889MPD2    C113082   2.382   0.149  13.222 -0.5776  0.0510  0.5323
  889MPD2    C213083   2.382   0.257  13.306 -0.1632 -0.2857 -0.5817
  889MPD2    C313084   2.320   0.374  13.270  0.0313 -0.4680  0.6303
  889MPD2    C413085   2.251   0.373  13.149  0.0945 -0.5849 -0.2525
  889MPD2    C513086   2.241   0.267  13.063 -1.1263  1.3128  0.5161
  889MPD2     H13087   2.434   0.251  13.401 -0.9508 -0.7150 -0.1716
  889MPD2    H113088   2.223   0.468  13.103  1.0897  0.3237  1.0142
  889MPD2    H213089   2.304   0.067  13.035 -3.7499  0.3390 -0.7656
  889MPD2    H313090   2.182   0.279  12.973  1.6336  2.8188 -1.0972
  889MPD2     N13091   2.334   0.486  13.349  0.2130 -0.5613 -0.1606
  889MPD2    H513092   2.397   0.473  13.427  1.0166 -1.0688 -0.8935
  889MPD2    N113093   2.417   0.028  13.273  0.1579 -0.0355 -0.8772
  889MPD2    H713094   2.443   0.022  13.371  0.1132  0.9341 -0.7998
  890MPD2     C13095   1.459   1.775  14.413 -0.0895 -0.7447  0.0312
  890MPD2    C113096   1.592   1.803  14.436 -0.4918  0.2015  0.0753
  890MPD2    C213097   1.649   1.751  14.549  0.5939 -0.2332 -0.8867
  890MPD2    C313098   1.589   1.651  14.621 -0.8609  0.3331 -0.1523
  890MPD2    C413099   1.461   1.613  14.587  0.6703  0.4654 -0.4110
  890MPD2    C513100   1.400   1.671  14.480 -0.0049  0.2386 -0.4368
  890MPD2     H13101   1.753   1.774  14.569 -0.3389  2.2872  1.1161
  890MPD2    H113102   1.402   1.542  14.645  1.4463 -0.7906 -1.1453
  890MPD2    H213103   1.404   1.823  14.332 -0.9215 -2.9406 -0.6898
  890MPD2    H313104   1.297   1.641  14.465  0.2225 -1.0592  0.5981
  890MPD2     N13105   1.661   1.605  14.736  0.7697 -0.2881 -0.1058
  890MPD2    H513106   1.749   1.654  14.749  0.7774 -0.8032  1.9081
  890MPD2    N113107   1.642   1.917  14.361  0.1834 -0.0508 -0.1036
  890MPD2    H713108   1.586   1.945  14.281  0.3732 -1.7068 -0.8111
  891MPD2     C13109   4.378   1.356  16.551  0.2352  0.1974  0.2294
  891MPD2    C113110   4.327   1.251  16.620  0.1819  0.3173  0.2149
  891MPD2    C213111   4.400   1.181  16.711 -0.1895  0.2361 -0.2173
  891MPD2    C313112   4.531   1.213  16.729 -0.0018  0.1350 -0.0854
  891MPD2    C413113   4.581   1.324  16.669  1.1768 -0.0555  0.5085
  891MPD2    C513114   4.506   1.393  16.576  0.5804  0.1963 -0.1041
  891MPD2     H13115   4.370   1.085  16.753 -1.8641  2.2914  3.2465
  891MPD2    H113116   4.684   1.355  16.685  0.9889  0.3081  1.0053
  891MPD2    H213117   4.329   1.406  16.468 -0.0585 -0.3547  0.0680
  891MPD2    H313118   4.553   1.473  16.520  0.6786 -1.3417 -2.1970
  891MPD2     N13119   4.600   1.123  16.815 -1.3377  0.3425 -0.0964
  891MPD2    H513120   4.547   1.044  16.850 -1.1293  0.3757  0.2891
  891MPD2    N113121   4.196   1.200  16.584  0.2043 -0.1585  0.1389
  891MPD2    H713122   4.165   1.221  16.490 -1.4412 -0.6217  0.5778
  892MPD2     C13123   1.009   1.076  14.961 -0.0187  0.2443  0.4024
  892MPD2    C113124   0.952   1.118  14.843 -0.0244 -0.6020  0.4653
  892MPD2    C213125   1.020   1.095  14.726  1.0941 -0.0414  0.2964
  892MPD2    C313126   1.145   1.035  14.718  0.5129 -0.6564  0.1436
  892MPD2    C413127   1.197   0.990  14.841 -0.5106 -0.6304 -0.2507
  892MPD2    C513128   1.128   1.008  14.958  0.0224  0.4358 -0.3625
  892MPD2     H13129   0.980   1.124  14.629 -0.3428 -2.4443  0.1896
  892MPD2    H113130   1.283   0.926  14.854  0.1177  0.2139 -0.2261
  892MPD2    H213131   0.965   1.078  15.060  0.9324 -0.8653  0.8469
  892MPD2    H313132   1.172   0.965  15.047 -0.7016  0.4077 -0.0190
  892MPD2     N13133   1.206   0.991  14.592  0.6047 -0.0060 -0.0020
  892MPD2    H513134   1.303   0.961  14.597  0.5126 -0.3531 -0.2867
  892MPD2    N113135   0.825   1.177  14.832  0.3379  0.4146 -0.4140
  892MPD2    H713136   0.811   1.219  14.740 -1.0698 -1.5236 -1.0929
  893MPD2     C13137   1.746   4.367   1.079 -0.1404 -0.3528 -0.2145
  893MPD2    C113138   1.774   4.422   0.957 -0.2539  0.4234 -0.3555
  893MPD2    C213139   1.669   4.447   0.869  0.0272 -0.1729 -0.1527
  893MPD2    C313140   1.538   4.424   0.916  0.3988 -0.0931 -0.1756
  893MPD2    C413141   1.505   4.370   1.038 -0.4618  0.4013 -0.5046
  893MPD2    C513142   1.614   4.344   1.118  0.0541 -0.4195 -0.9644
  893MPD2     H13143   1.691   4.503   0.779 -0.3087 -2.1373 -1.4395
  893MPD2    H113144   1.402   4.369   1.071  0.0359  2.2639  1.1765
  893MPD2    H213145   1.825   4.342   1.148 -0.1014  0.8803  0.1969
  893MPD2    H313146   1.594   4.302   1.216 -1.3799  0.8843 -0.7023
  893MPD2     N13147   1.423   4.437   0.835 -0.0697 -0.6248  0.1699
  893MPD2    H513148   1.334   4.400   0.868  0.5955 -1.8713  0.5467
  893MPD2    N113149   1.909   4.460   0.937  0.8943  0.4053 -0.2299
  893MPD2    H713150   1.979   4.429   1.003  0.2748 -0.7840 -0.1339
  894MPD2     C13151   0.303   1.921   1.447 -0.7533 -0.6563 -0.0089
  894MPD2    C113152   0.246   2.016   1.522  0.1643 -0.1705 -0.4885
  894MPD2    C213153   0.317   2.134   1.523 -0.1901  0.0296  0.1921
  894MPD2    C313154   0.425   2.156   1.451 -0.6392  0.0533 -0.6757
  894MPD2    C413155   0.484   2.057   1.375 -0.1615 -0.4756 -0.0558
  894MPD2    C513156   0.419   1.940   1.380  0.1599  0.3463 -0.2409
  894MPD2     H13157   0.280   2.225   1.571  1.0174  1.0294 -0.7954
  894MPD2    H113158   0.572   2.066   1.313 -0.2010 -2.1271 -0.3409
  894MPD2    H213159   0.264   1.821   1.433  0.2413 -1.1676  0.8608
  894MPD2    H313160   0.455   1.862   1.315 -1.9057 -1.8695  1.2658
  894MPD2     N13161   0.487   2.280   1.461  0.8534 -0.8700  0.3226
  894MPD2    H513162   0.429   2.357   1.495  1.8882 -0.0149  0.1583
  894MPD2    N113163   0.128   1.991   1.604  0.4492  0.2003 -0.3300
  894MPD2    H713164   0.094   2.076   1.648 -1.1035 -1.6426  2.0492
  895MPD2     C13165   0.015   0.551  13.211  0.2351  0.2607 -0.8088
  895MPD2    C113166   4.650   0.473  13.164 -0.0049  0.3165  0.7590
  895MPD2    C213167   4.663   0.334  13.163 -0.1013  0.4829 -0.0519
  895MPD2    C313168   0.029   0.274  13.232 -0.0094  0.7277  0.4440
  895MPD2    C413169   0.134   0.351  13.270  0.6633  1.1766 -0.2162
  895MPD2    C513170   0.127   0.490  13.255  0.0251 -0.2500  0.2246
  895MPD2     H13171   4.577   0.274  13.134  0.8651 -1.4461  1.0605
  895MPD2    H113172   0.223   0.304  13.309  1.2927 -1.0832 -4.3653
  895MPD2    H213173   0.020   0.659  13.210  0.0939  0.2800  0.1875
  895MPD2    H313174   0.202   0.557  13.294  0.6145 -1.0555  0.4748
  895MPD2     N13175   0.023   0.134  13.244  0.3015  0.1851 -0.3125
  895MPD2    H513176   4.675   0.082  13.226 -0.3371  1.3762 -0.6604
  895MPD2    N113177   4.523   0.523  13.126 -0.4111  0.0071 -0.2626
  895MPD2    H713178   4.450   0.457  13.100 -1.9140  0.9605  1.5955
  896MPD2     C13179   2.255   2.918   1.659 -0.2445  0.8595 -0.1582
  896MPD2    C113180   2.215   2.882   1.530 -0.3878  0.6474  0.0852
  896MPD2    C213181   2.089   2.829   1.506  0.6723 -0.4619  0.1314
  896MPD2    C313182   2.002   2.823   1.610  0.1764 -0.2593  0.2786
  896MPD2    C413183   2.051   2.853   1.737 -0.6974  0.2060 -0.2983
  896MPD2    C513184   2.171   2.901   1.763 -0.3669  0.2414 -0.6253
  896MPD2     H13185   2.059   2.798   1.407  0.4378 -0.7603  0.2963
  896MPD2    H113186   2.000   2.835   1.830  1.1299 -1.0943  0.4676
  896MPD2    H213187   2.352   2.965   1.670  0.2172  0.2851 -1.7286
  896MPD2    H313188   2.199   2.913   1.867  0.4458 -2.1106 -0.5650
  896MPD2     N13189   1.872   2.775   1.592 -0.5834  0.1209 -0.5186
  896MPD2    H513190   1.855   2.714   1.512  0.5565  1.5153 -1.8190
  896MPD2    N113191   2.302   2.920   1.416  0.7477 -0.2492 -0.1768
  896MPD2    H713192   2.391   2.964   1.436  0.4831  0.5385 -0.7669
  897MPD2     C13193   3.313   0.046  10.758 -0.5040 -0.2172 -0.1240
  897MPD2    C113194   3.225   0.147  10.784  0.1276 -0.2611  0.2926
  897MPD2    C213195   3.120   0.106  10.865 -0.2795 -0.1676 -0.5673
  897MPD2    C313196   3.100   4.715  10.909  0.1154 -0.3897  0.3259
  897MPD2    C413197   3.191   4.623  10.883  0.0465  0.4649 -0.3685
  897MPD2    C513198   3.300   4.661  10.805  0.3824  1.0561  0.5323
  897MPD2     H13199   3.042   0.179  10.885 -0.0926 -0.7709  2.3716
  897MPD2    H113200   3.178   4.522  10.920 -0.6066  0.4121 -0.7497
  897MPD2    H213201   3.402   0.075  10.702 -1.0183  0.8299 -0.3902
  897MPD2    H313202   3.378   4.592  10.778 -0.1903  0.0814  1.3753
  897MPD2     N13203   2.982   4.682  10.970  0.1235  0.5101 -0.3012
  897MPD2    H513204   2.919   0.024  10.970 -1.2592 -0.5697  0.3743
  897MPD2    N113205   3.236   0.286  10.735  0.0433  0.0597  0.2162
  897MPD2    H713206   3.289   0.311  10.653 -0.9939 -1.3697 -0.8965
  898MPD2     C13207   0.368   0.680  17.545 -0.0739 -0.3979  0.4373
  898MPD2    C113208   0.396   0.670  17.681  0.2760 -0.1291  0.5426
  898MPD2    C213209   0.418   0.785   0.007  0.1457 -0.2183  0.0778
  898MPD2    C313210   0.402   0.913  17.708 -0.1973 -1.1675  0.2238
  898MPD2    C413211   0.380   0.925  17.573 -0.0165 -0.1377 -0.2308
  898MPD2    C513212   0.366   0.809  17.499 -0.2952  0.0941 -0.0130
  898MPD2     H13213   0.450   0.772   0.110 -3.5317 -1.3453  1.0506
  898MPD2    H113214   0.371   1.022  17.524  0.9054  1.5490  2.8984
  898MPD2    H213215   0.335   0.598  17.483 -1.5555  0.1076  0.5499
  898MPD2    H313216   0.356   0.825  17.392 -0.9351  1.5209  0.2646
  898MPD2     N13217   0.404   1.023   0.048  0.3275  0.2967  0.0666
  898MPD2    H513218   0.426   0.997   0.144  0.2019 -0.3258 -0.0714
  898MPD2    N113219   0.392   0.554   0.000 -0.9372  0.2221 -0.0585
  898MPD2    H713220   0.384   0.541   0.101  0.0077 -0.1569 -0.0278
  899MPD2     C13221   1.247   1.335   0.148 -0.4612  0.1951 -0.4707
  899MPD2    C113222   1.165   1.440   0.106 -0.3149 -0.0779 -0.0559
  899MPD2    C213223   1.067   1.491   0.199 -0.4897  0.0176 -0.1285
  899MPD2    C313224   1.064   1.435   0.327  0.5593 -0.8908  0.1172
  899MPD2    C413225   1.157   1.344   0.364  0.5288 -0.0983 -0.2436
  899MPD2    C513226   1.251   1.303   0.273  0.0234 -0.3625  0.3195
  899MPD2     H13227   1.003   1.577   0.184 -5.1509 -3.2581  0.8400
  899MPD2    H113228   1.169   1.308   0.465 -1.9285  0.1120  0.1151
  899MPD2    H213229   1.334   1.303   0.092 -2.5608 -2.4749 -2.1574
  899MPD2    H313230   1.325   1.231   0.306  1.8952  1.2886 -0.2682
  899MPD2     N13231   0.995   1.494   0.440  0.0577 -0.5542  0.1058
  899MPD2    H513232   1.036   1.480   0.532 -0.5100 -0.9162  0.2979
  899MPD2    N113233   1.168   1.494  17.727  0.2537 -0.4065 -0.4531
  899MPD2    H713234   1.247   1.469  17.669  0.2683 -0.9792 -0.1952
  900MPD2     C13235   1.004   3.077  12.670 -0.2551  0.2370 -0.3819
  900MPD2    C113236   0.942   2.966  12.610 -0.6422 -0.0508  0.4698
  900MPD2    C213237   0.846   2.981  12.517 -0.0300  0.6086 -0.2955
  900MPD2    C313238   0.814   3.104  12.466 -0.2462  0.2922  0.2234
  900MPD2    C413239   0.878   3.214  12.522 -0.3954  0.3247  0.0464
  900MPD2    C513240   0.970   3.204  12.623  1.0497 -0.5519 -1.1997
  900MPD2     H13241   0.800   2.896  12.467  0.8453 -0.3351  0.5083
  900MPD2    H113242   0.854   3.310  12.477  2.7561  0.9602 -0.2591
  900MPD2    H213243   1.085   3.066  12.741 -0.3890 -0.6025 -0.3511
  900MPD2    H313244   1.015   3.299  12.649  1.5072 -1.1994  0.3086
  900MPD2     N13245   0.707   3.111  12.373  0.0279  0.0782  0.3703
  900MPD2    H513246   0.652   3.027  12.362  0.4345 -0.0504 -0.6348
  900MPD2    N113247   0.994   2.840  12.645 -0.4360 -0.2662  0.0348
  900MPD2    H713248   1.078   2.838  12.703 -0.6492  2.6043  0.4559
  901MPD2     C13249   0.963   1.865  13.059  0.0191  0.6075  0.1718
  901MPD2    C113250   1.060   1.863  12.963  0.4809 -0.2223  0.1179
  901MPD2    C213251   1.106   1.984  12.907  0.2156  0.3061 -0.5188
  901MPD2    C313252   1.049   2.102  12.953 -0.5985  0.5023  0.3439
  901MPD2    C413253   0.945   2.100  13.046 -0.2168 -0.1478  0.2029
  901MPD2    C513254   0.903   1.986  13.093  0.0860 -0.3636  0.1344
  901MPD2     H13255   1.174   1.992  12.823  0.9579  0.3662  0.0910
  901MPD2    H113256   0.895   2.192  13.078  2.5064  0.8148  1.6828
  901MPD2    H213257   0.929   1.779  13.116 -0.9514  1.5457  1.0037
  901MPD2    H313258   0.826   1.995  13.169 -0.1234 -0.1550 -0.0995
  901MPD2     N13259   1.101   2.218  12.891  0.1008 -0.1476  0.6002
  901MPD2    H513260   1.186   2.198  12.841 -0.2077  1.7870 -0.7216
  901MPD2    N113261   1.096   1.740  12.914  0.6595 -0.2479  0.1287
  901MPD2    H713262   1.036   1.663  12.942  0.6989 -0.1768  0.4149
  902MPD2     C13263   4.610   0.249  12.442 -0.1944 -0.2807  0.2186
  902MPD2    C113264   4.643   0.380  12.422  0.0231 -0.3099  0.5001
  902MPD2    C213265   0.033   0.405  12.391 -0.1772 -0.9007 -0.7362
  902MPD2    C313266   0.127   0.303  12.384 -0.9314 -0.6253 -0.1976
  902MPD2    C413267   0.083   0.173  12.405 -0.1767 -0.0546  1.1615
  902MPD2    C513268   4.690   0.146  12.425  0.2998 -0.3764  0.7002
  902MPD2     H13269   0.058   0.507  12.363 -0.1453 -0.7094 -0.0063
  902MPD2    H113270   0.146   0.085  12.399 -2.7289 -1.6075 -2.4990
  902MPD2    H213271   4.507   0.224  12.466 -1.2817  3.8467 -0.2613
  902MPD2    H313272   4.658   0.046  12.453 -2.4053  0.4544  0.5444
  902MPD2     N13273   0.263   0.322  12.346 -0.0311  0.3633  0.0174
  902MPD2    H513274   0.329   0.247  12.363 -0.6820  0.0664  1.2763
  902MPD2    N113275   4.545   0.482  12.445 -0.3577  1.1394 -0.3070
  902MPD2    H713276   4.448   0.455  12.455  0.4551 -1.5116  0.3849
  903MPD2     C13277   0.289   0.536  11.673 -0.3531  0.0333 -0.3587
  903MPD2    C113278   0.317   0.416  11.735 -0.5006 -0.0484 -0.0822
  903MPD2    C213279   0.264   0.303  11.688  0.0224  0.6703  0.4370
  903MPD2    C313280   0.166   0.305  11.587  0.1356  0.8090 -0.0917
  903MPD2    C413281   0.146   0.423  11.521 -0.1423 -0.2963  0.3831
  903MPD2    C513282   0.209   0.538  11.555  0.0746 -0.6511  0.2184
  903MPD2     H13283   0.288   0.209  11.737  0.5231 -0.7055 -2.4719
  903MPD2    H113284   0.069   0.434  11.445  0.2941 -0.5620 -0.0915
  903MPD2    H213285   0.329   0.623  11.723  0.7504 -1.9152  2.1774
  903MPD2    H313286   0.167   0.629  11.514  1.9215  0.3674  0.5693
  903MPD2     N13287   0.073   0.191  11.577  0.2062  0.2204 -0.7713
  903MPD2    H513288   0.097   0.116  11.640 -0.5131  1.6704  1.2526
  903MPD2    N113289   0.402   0.415  11.848 -0.1421  0.0595  0.5806
  903MPD2    H713290   0.432   0.504  11.886 -0.3984  0.0507  0.8011
  904MPD2     C13291   4.620   0.060  13.669  0.1770 -0.0509 -0.1899
  904MPD2    C113292   4.583   0.006  13.790 -0.1860  0.6266  0.0557
  904MPD2    C213293   4.676   4.679  13.866 -0.0387  0.4076 -0.7667
  904MPD2    C313294   0.069   4.689  13.826 -1.0303 -0.5325 -0.4323
  904MPD2    C413295   0.105   0.019  13.716  0.2724  0.6553 -0.4531
  904MPD2    C513296   0.012   0.074  13.637 -0.1775 -0.4943 -0.0395
  904MPD2     H13297   4.645   4.627  13.956 -0.6351  0.3008 -1.0305
  904MPD2    H113298   0.210   0.017  13.691  0.4870  0.3904  0.4594
  904MPD2    H213299   4.545   0.099  13.601  0.6500  1.2138  0.0093
  904MPD2    H313300   0.043   0.130  13.549  0.1582  0.6464  0.8065
  904MPD2     N13301   0.164   4.631  13.916  0.6737  0.3990  0.2766
  904MPD2    H513302   0.123   4.596  14.001 -0.0199 -2.1149 -1.0804
  904MPD2    N113303   4.450   0.019  13.823  0.0628  0.1141  0.7802
  904MPD2    H713304   4.384   0.059  13.757  0.3732 -0.9313 -0.1665
  905MPD2     C13305   4.006   4.577  13.481 -0.5511  0.0835 -1.2530
  905MPD2    C113306   4.102   4.668  13.504 -0.1016 -0.2771  0.4174
  905MPD2    C213307   4.222   4.647  13.449 -0.3917  0.0337  0.2193
  905MPD2    C313308   4.245   4.544  13.364  0.2936  0.3439 -0.0883
  905MPD2    C413309   4.147   4.458  13.332 -0.8645  0.1088 -0.3033
  905MPD2    C513310   4.027   4.472  13.396  0.3073 -0.2049 -0.6272
  905MPD2     H13311   4.303   4.708  13.486  2.2025 -3.9794  1.1886
  905MPD2    H113312   4.167   4.373  13.267  0.7256  0.4186 -0.2217
  905MPD2    H213313   3.908   4.579  13.528 -1.2608  2.7432 -2.8491
  905MPD2    H313314   3.949   4.399  13.378 -0.0761 -0.1216  0.6690
  905MPD2     N13315   4.373   4.518  13.311  0.5199 -0.3168 -0.2487
  905MPD2    H513316   4.388   4.430  13.262 -3.1370 -1.7518  1.2096
  905MPD2    N113317   4.086   0.032  13.600 -0.0140 -0.0077  0.3688
  905MPD2    H713318   3.999   0.038  13.651 -0.4965 -1.3685 -0.3036
  906MPD2     C13319   1.836   0.309  11.411  0.8515  0.3729 -0.6093
  906MPD2    C113320   1.792   0.199  11.345  0.7482 -0.4689  0.0241
  906MPD2    C213321   1.758   0.088  11.421  0.1876  0.5229  1.4007
  906MPD2    C313322   1.800   0.073  11.553  0.2089  0.3050 -0.1874
  906MPD2    C413323   1.861   0.181  11.613 -0.1856 -0.7404  0.0931
  906MPD2    C513324   1.867   0.299  11.544  0.1492 -0.1642 -0.1720
  906MPD2     H13325   1.715   0.003  11.370  0.9391 -0.1834  1.9362
  906MPD2    H113326   1.888   0.183  11.718 -0.6443  0.8658  0.1747
  906MPD2    H213327   1.849   0.404  11.360 -0.1582 -0.6201 -2.7327
  906MPD2    H313328   1.903   0.387  11.596  0.8340 -1.8284  2.1770
  906MPD2     N13329   1.758   4.701  11.633 -0.5681 -1.0209 -0.7714
  906MPD2    H513330   1.805   4.683  11.721 -0.5929 -1.6102 -0.8762
  906MPD2    N113331   1.758   0.200  11.202 -0.7038  0.5448  0.0087
  906MPD2    H713332   1.709   0.118  11.167  0.2684  0.5853 -1.3861
  907MPD2     C13333   1.262   3.868  16.190 -0.7492 -0.5375 -0.2301
  907MPD2    C113334   1.180   3.765  16.138 -0.6012 -0.8766  0.0332
  907MPD2    C213335   1.181   3.639  16.195  0.0148  0.2898 -0.3268
  907MPD2    C313336   1.263   3.621  16.305 -0.0387  0.7842  0.5725
  907MPD2    C413337   1.339   3.719  16.361  0.7206 -0.5379  0.2605
  907MPD2    C513338   1.338   3.842  16.303  0.1889 -0.4847  0.0962
  907MPD2     H13339   1.129   3.559  16.143 -1.8343  0.6720  0.9018
  907MPD2    H113340   1.399   3.713  16.451 -1.5881  0.9212  1.9197
  907MPD2    H213341   1.271   3.968  16.147  3.6169 -0.0682  1.7049
  907MPD2    H313342   1.404   3.915  16.347 -0.4481 -0.4900  1.0567
  907MPD2     N13343   1.247   3.495  16.371 -0.4269 -0.5429 -0.1468
  907MPD2    H513344   1.177   3.432  16.331  0.5063 -1.1569 -0.8089
  907MPD2    N113345   1.087   3.776  16.025 -0.2917 -0.0321 -0.3170
  907MPD2    H713346   1.035   3.694  15.995 -0.3036 -0.7676  1.7153
  908MPD2     C13347   2.586   0.388  10.165  0.7322  0.5618 -0.6225
  908MPD2    C113348   2.661   0.286  10.224  0.0276 -0.9554 -0.5871
  908MPD2    C213349   2.765   0.310  10.315 -0.5384  0.0819  0.1911
  908MPD2    C313350   2.794   0.444  10.345  0.1232  0.2252  0.7236
  908MPD2    C413351   2.714   0.547  10.298  0.1556  0.3491 -0.3803
  908MPD2    C513352   2.619   0.519  10.199 -0.2321 -0.0555 -0.1600
  908MPD2     H13353   2.818   0.237  10.374  0.0815  0.6179  0.3040
  908MPD2    H113354   2.724   0.653  10.323 -1.0935  0.5716 -0.8229
  908MPD2    H213355   2.503   0.373  10.096  0.3525  0.5572 -0.1620
  908MPD2    H313356   2.569   0.607  10.161  0.3425 -0.3010 -1.4760
  908MPD2     N13357   2.898   0.469  10.438  0.0283 -0.0336 -0.5737
  908MPD2    H513358   2.935   0.395  10.497 -1.1781  0.9418  1.4218
  908MPD2    N113359   2.609   0.156  10.202  0.0035 -0.0666  0.9121
  908MPD2    H713360   2.528   0.151  10.140  0.1614 -0.3723  0.7301
  909MPD2     C13361   3.840   2.254  12.215  0.4700 -0.1976  0.7246
  909MPD2    C113362   3.790   2.343  12.119 -0.2097  0.7132  0.6387
  909MPD2    C213363   3.663   2.395  12.149  0.2881 -0.4151  0.1515
  909MPD2    C313364   3.592   2.356  12.263 -0.5180  0.7920 -0.5342
  909MPD2    C413365   3.651   2.270  12.348 -0.3533  0.0607 -0.6541
  909MPD2    C513366   3.776   2.227  12.336  0.3923  0.3290 -0.0089
  909MPD2     H13367   3.612   2.448  12.069  1.5651 -1.1192 -1.1163
  909MPD2    H113368   3.597   2.240  12.437  0.8736 -0.2346 -0.0121
  909MPD2    H213369   3.933   2.204  12.194  1.6902  1.2780  2.6003
  909MPD2    H313370   3.829   2.163  12.405 -3.1173 -1.5924  0.9311
  909MPD2     N13371   3.464   2.412  12.282 -0.8083  0.2755 -0.6725
  909MPD2    H513372   3.430   2.469  12.205 -0.9360  1.0479 -0.0394
  909MPD2    N113373   3.845   2.376  11.999  0.1887 -0.8991 -0.0678
  909MPD2    H713374   3.787   2.430  11.935  0.9646 -1.1343 -0.9739
  910MPD2     C13375   0.901   4.484  15.648  0.0905 -0.4825 -0.1584
  910MPD2    C113376   0.793   4.390  15.652  0.4641  0.2262 -0.2186
  910MPD2    C213377   0.717   4.377  15.538  0.0265 -0.9023 -0.1280
  910MPD2    C313378   0.729   4.461  15.426  0.2925  0.2632  0.0865
  910MPD2    C413379   0.841   4.542  15.428 -0.2284 -0.0845  0.1327
  910MPD2    C513380   0.917   4.555  15.535 -0.3723  0.0779 -0.4143
  910MPD2     H13381   0.641   4.299  15.544 -1.5655  0.5366 -1.5314
  910MPD2    H113382   0.869   4.606  15.345 -2.5486  0.5846 -0.1405
  910MPD2    H213383   0.970   4.506  15.729  1.2314 -0.8173 -1.0554
  910MPD2    H313384   0.992   4.634  15.531 -0.3856  0.0962 -0.2929
  910MPD2     N13385   0.645   4.480  15.311 -0.0075  0.4515 -0.0384
  910MPD2    H513386   0.671   4.556  15.249  1.6276 -0.4614 -0.4792
  910MPD2    N113387   0.768   4.319  15.773  1.0433 -0.5996 -0.8393
  910MPD2    H713388   0.695   4.249  15.775  1.5554 -1.0925  0.9934
  911MPD2     C13389   2.827   4.655  16.516  0.4003 -0.5989 -0.6355
  911MPD2    C113390   2.851   0.045  16.557 -0.8363  0.8496 -0.1546
  911MPD2    C213391   2.754   0.143  16.552  0.5516 -0.5452 -0.3625
  911MPD2    C313392   2.639   0.107  16.491 -0.4478  0.1850  0.2366
  911MPD2    C413393   2.614   4.715  16.458 -0.0620  0.2838 -0.0209
  911MPD2    C513394   2.711   4.620  16.467  0.1071  0.0210 -0.0834
  911MPD2     H13395   2.774   0.239  16.597  1.2496 -0.4379 -0.9019
  911MPD2    H113396   2.522   4.689  16.407 -0.0128  0.6259 -0.2806
  911MPD2    H213397   2.907   4.582  16.512  2.9280  1.9029  4.0763
  911MPD2    H313398   2.687   4.518  16.438 -0.8036  0.2407 -0.0987
  911MPD2     N13399   2.530   0.189  16.472 -0.2394  0.2112 -0.2550
  911MPD2    H513400   2.449   0.154  16.421 -1.0217 -2.1759  2.6324
  911MPD2    N113401   2.985   0.067  16.604 -0.8676 -0.2170 -0.1599
  911MPD2    H713402   3.049   4.733  16.574  1.3543  1.0569  1.6035
  912MPD2     C13403   2.264   0.030  15.868 -0.3697 -0.0398  0.0645
  912MPD2    C113404   2.289   0.014  16.005  0.1522  0.2477  0.7928
  912MPD2    C213405   2.354   4.644  16.061  0.2196  0.8264 -0.1359
  912MPD2    C313406   2.381   4.532  15.980 -0.1619 -0.2738  1.1688
  912MPD2    C413407   2.352   4.552  15.840  0.0424  0.0892  0.0241
  912MPD2    C513408   2.306   4.669  15.783 -0.0890  0.2355  0.1166
  912MPD2     H13409   2.374   4.634  16.167  1.8570 -0.2102 -0.5500
  912MPD2    H113410   2.377   4.473  15.770 -2.9094 -1.7246  1.0260
  912MPD2    H213411   2.197   0.106  15.829  0.7125  2.8354  3.8336
  912MPD2    H313412   2.275   4.669  15.679  0.1724  4.1324  0.0454
  912MPD2     N13413   2.449   4.428  16.042  0.0191 -0.2395  0.0365
  912MPD2    H513414   2.458   4.432  16.143  0.8578  3.3855 -0.1838
  912MPD2    N113415   2.252   0.124  16.091  0.2922 -0.2541  0.7533
  912MPD2    H713416   2.202   0.200  16.046  0.7787 -1.2374 -1.4811
  913MPD2     C13417   3.125   1.786  11.275  0.1886  0.4776 -0.4605
  913MPD2    C113418   3.245   1.803  11.211  0.3230  1.0436  0.1341
  913MPD2    C213419   3.252   1.873  11.096 -0.1593 -0.2300  0.3917
  913MPD2    C313420   3.138   1.938  11.048  0.2421 -0.9673 -0.0835
  913MPD2    C413421   3.016   1.919  11.106 -0.1152  0.7710  0.3041
  913MPD2    C513422   3.010   1.838  11.219  0.3295 -0.5641  0.2230
  913MPD2     H13423   3.345   1.880  11.040 -0.8475  1.2413 -0.5614
  913MPD2    H113424   2.926   1.965  11.066  0.0470  0.2515 -0.6418
  913MPD2    H213425   3.107   1.730  11.365  0.1529 -2.4340 -2.2934
  913MPD2    H313426   2.913   1.817  11.263  0.5770  0.2146  1.1315
  913MPD2     N13427   3.144   2.024  10.937 -0.5015 -0.2305  0.3055
  913MPD2    H513428   3.051   2.053  10.909 -0.9010 -2.7511 -1.0215
  913MPD2    N113429   3.364   1.752  11.262  0.2242 -0.2658 -0.1892
  913MPD2    H713430   3.452   1.776  11.217  0.8624  0.2228  1.3408
  914MPD2     C13431   0.543   1.491  12.394 -0.3012 -0.2950  0.0494
  914MPD2    C113432   0.555   1.566  12.508 -0.1050  0.1081  0.5659
  914MPD2    C213433   0.664   1.534  12.589 -0.5444 -0.2237 -0.9603
  914MPD2    C313434   0.756   1.432  12.561  0.6999  1.1320  0.1084
  914MPD2    C413435   0.729   1.345  12.454 -0.1879  0.1555  0.0431
  914MPD2    C513436   0.624   1.379  12.379  0.1647  0.1782  0.2314
  914MPD2     H13437   0.673   1.581  12.686  2.6987 -0.6987 -1.0224
  914MPD2    H113438   0.802   1.274  12.417 -1.1394 -0.5578 -0.4230
  914MPD2    H213439   0.460   1.508  12.326 -1.2614 -0.9239  1.0688
  914MPD2    H313440   0.607   1.334  12.282  2.3276 -2.1529  0.9317
  914MPD2     N13441   0.865   1.431  12.645 -0.2156 -0.2633  0.3829
  914MPD2    H513442   0.876   1.504  12.715  0.8364 -0.6396  0.6004
  914MPD2    N113443   0.451   1.663  12.536 -0.7346 -0.2050 -0.4668
  914MPD2    H713444   0.382   1.676  12.462 -0.4717 -1.8630 -1.0161
  915MPD2     C13445   3.817   1.480  15.813 -0.3126  0.3475  0.3580
  915MPD2    C113446   3.684   1.489  15.852  0.5795  0.4511  0.1391
  915MPD2    C213447   3.657   1.553  15.970 -0.4451 -0.3433 -0.8670
  915MPD2    C313448   3.759   1.608  16.051  0.3762  0.3965  0.0764
  915MPD2    C413449   3.886   1.600  16.005  0.2489 -0.2184  0.3565
  915MPD2    C513450   3.915   1.533  15.889  0.5940 -0.2011 -0.3384
  915MPD2     H13451   3.552   1.552  15.998  0.0355  0.7450  0.9309
  915MPD2    H113452   3.973   1.647  16.051 -0.6528  0.6875  1.1308
  915MPD2    H213453   3.846   1.438  15.717 -1.2619  1.1498 -0.2853
  915MPD2    H313454   4.017   1.523  15.855 -0.2021 -0.4977 -2.6713
  915MPD2     N13455   3.725   1.675  16.177 -0.3202 -0.1573  0.3336
  915MPD2    H513456   3.628   1.679  16.205 -1.1218  0.8970 -2.5985
  915MPD2    N113457   3.572   1.446  15.775 -0.2889 -0.1079 -0.2579
  915MPD2    H713458   3.483   1.470  15.818  1.0503  2.0780  1.2760
  916MPD2     C13459   1.722   4.573  15.657 -0.2603  0.4774  0.2267
  916MPD2    C113460   1.745   4.529  15.789 -0.5953  0.0510 -0.4668
  916MPD2    C213461   1.839   4.430  15.812 -0.2365  0.6415 -0.4542
  916MPD2    C313462   1.901   4.369  15.700  0.1729 -0.2989 -0.5470
  916MPD2    C413463   1.869   4.411  15.568  0.2231  0.2566 -0.1520
  916MPD2    C513464   1.788   4.523  15.549  0.6962  0.2400  0.2082
  916MPD2     H13465   1.885   4.408  15.907 -0.2737 -1.2683 -0.8757
  916MPD2    H113466   1.925   4.370  15.485 -0.6379  0.4971 -0.8514
  916MPD2    H213467   1.669   4.663  15.630  0.0358  1.3129  2.4398
  916MPD2    H313468   1.773   4.573  15.454  0.5025 -2.0557 -0.9600
  916MPD2     N13469   2.010   4.281  15.730 -0.5637  0.6579 -0.5267
  916MPD2    H513470   2.023   4.258  15.828 -0.1481  1.2340 -0.4447
  916MPD2    N113471   1.684   4.603  15.893  0.5503 -0.0004 -0.2959
  916MPD2    H713472   1.617   4.677  15.878  0.4552  0.2129  1.1333
  917MPD2     C13473   2.064   1.914  11.339 -0.2835  0.0186 -0.1011
  917MPD2    C113474   2.044   1.969  11.466  0.3751 -0.0711  0.9319
  917MPD2    C213475   2.082   2.102  11.486 -0.4882 -0.6597  0.1358
  917MPD2    C313476   2.148   2.176  11.378 -0.3459 -0.4551 -0.0445
  917MPD2    C413477   2.174   2.113  11.259  0.3878 -0.4115 -0.6536
  917MPD2    C513478   2.130   1.982  11.243  0.6263 -0.1879 -0.2627
  917MPD2     H13479   2.065   2.147  11.583  1.8491 -0.4243  0.4505
  917MPD2    H113480   2.220   2.166  11.176  0.6634 -1.0631 -0.9149
  917MPD2    H213481   2.027   1.816  11.310  0.1789 -0.0490 -0.4515
  917MPD2    H313482   2.150   1.936  11.147 -0.4634 -0.7283 -0.2256
  917MPD2     N13483   2.180   2.315  11.389  0.3260  0.3613  0.3503
  917MPD2    H513484   2.190   2.359  11.298  1.3377  0.3474  0.4481
  917MPD2    N113485   1.977   1.891  11.567 -0.1965  0.1630 -0.6790
  917MPD2    H713486   1.939   1.799  11.545  1.2350 -0.8043  0.8587
  918MPD2     C13487   2.220   1.802  12.518  0.0003 -0.6830 -0.5359
  918MPD2    C113488   2.224   1.912  12.438  0.3194 -0.0235  0.0768
  918MPD2    C213489   2.136   1.907  12.327 -0.0768 -0.2970  0.7202
  918MPD2    C313490   2.071   1.793  12.294  0.1021 -0.4691  0.1648
  918MPD2    C413491   2.093   1.677  12.367 -0.5718  0.8262  0.2906
  918MPD2    C513492   2.154   1.685  12.487  0.1194 -0.4768 -0.2274
  918MPD2     H13493   2.134   1.987  12.254 -0.5776 -0.2915  0.7425
  918MPD2    H113494   2.056   1.578  12.340  2.3854  0.0497 -0.9576
  918MPD2    H213495   2.289   1.798  12.602  0.7040 -1.6179 -1.1526
  918MPD2    H313496   2.162   1.596  12.548  0.9286  0.0327  0.4052
  918MPD2     N13497   2.001   1.800  12.171  0.1952  0.2983  0.1019
  918MPD2    H513498   1.997   1.891  12.126 -0.2435 -0.6029 -1.6739
  918MPD2    N113499   2.319   2.012  12.463  0.3739  0.1073  0.0419
  918MPD2    H713500   2.387   1.992  12.535 -1.0001  0.6054  1.4719
  919MPD2     C13501   2.349   1.046  12.143 -0.7798 -0.5609  0.3508
  919MPD2    C113502   2.425   0.928  12.115 -0.7629 -0.3188  0.5944
  919MPD2    C213503   2.500   0.926  11.993  0.1890 -0.3225 -0.1196
  919MPD2    C313504   2.502   1.026  11.899  0.3002  0.3959  0.3737
  919MPD2    C413505   2.425   1.140  11.928 -0.2148  1.0371  0.2486
  919MPD2    C513506   2.347   1.145  12.048 -0.5049 -0.3539 -0.0308
  919MPD2     H13507   2.564   0.839  11.978  0.2791 -0.7001  2.3952
  919MPD2    H113508   2.419   1.225  11.861 -2.0599 -1.0375 -2.2253
  919MPD2    H213509   2.287   1.061  12.231 -1.7730  0.0302 -0.4478
  919MPD2    H313510   2.299   1.240  12.069 -0.0971 -0.2667  0.4817
  919MPD2     N13511   2.562   1.028  11.772  0.3902 -0.4113  0.2882
  919MPD2    H513512   2.563   1.113  11.716 -2.4522  0.8706  2.1992
  919MPD2    N113513   2.433   0.819  12.205 -0.2653 -0.0211 -0.0052
  919MPD2    H713514   2.486   0.737  12.175  0.7098  0.9605 -0.9827
  920MPD2     C13515   2.806   1.503  10.928  0.2289  0.1229 -0.6874
  920MPD2    C113516   2.732   1.396  10.887  0.5686  0.4629  0.0971
  920MPD2    C213517   2.679   1.315  10.986  0.2608  0.3737 -0.1658
  920MPD2    C313518   2.719   1.328  11.115  0.1474 -0.1814 -0.6678
  920MPD2    C413519   2.796   1.438  11.149 -1.0103  0.4151  0.7333
  920MPD2    C513520   2.830   1.530  11.059 -0.0424  0.5338 -0.1323
  920MPD2     H13521   2.610   1.242  10.946  1.4438 -0.9039  0.0970
  920MPD2    H113522   2.843   1.450  11.246  1.3631  0.4011 -0.4090
  920MPD2    H213523   2.841   1.579  10.860 -0.1521 -0.1083 -1.1476
  920MPD2    H313524   2.897   1.609  11.092 -0.2267  0.0986  1.3107
  920MPD2     N13525   2.681   1.226  11.211 -0.2424  0.9263 -0.7268
  920MPD2    H513526   2.630   1.149  11.169  1.8984  0.5246 -2.5422
  920MPD2    N113527   2.679   1.382  10.758 -0.1311  0.5576 -0.4344
  920MPD2    H713528   2.598   1.323  10.744 -0.5172  1.2612 -1.1530
  921MPD2     C13529   3.588   0.822  16.996  0.9738 -0.0324 -0.9668
  921MPD2    C113530   3.637   0.759  16.883 -0.0778  0.6004  0.2537
  921MPD2    C213531   3.582   0.637  16.853  0.0238 -0.1856 -0.4936
  921MPD2    C313532   3.475   0.579  16.925 -0.1957 -0.9404  0.0378
  921MPD2    C413533   3.425   0.649  17.036  0.6488  0.2637 -0.0769
  921MPD2    C513534   3.489   0.765  17.071 -0.0528  0.0500 -0.2499
  921MPD2     H13535   3.616   0.593  16.760  2.2377 -1.7661  1.0496
  921MPD2    H113536   3.335   0.627  17.093  0.2366  0.5730 -0.6107
  921MPD2    H213537   3.630   0.918  17.024 -3.5123  2.0372 -1.1850
  921MPD2    H313538   3.452   0.827  17.152  1.8865  0.4865  0.3046
  921MPD2     N13539   3.409   0.460  16.885 -0.5012 -0.3413  0.6452
  921MPD2    H513540   3.338   0.417  16.943 -1.5460 -1.0367 -1.1211
  921MPD2    N113541   3.720   0.835  16.798 -0.2484  0.0172 -0.4363
  921MPD2    H713542   3.747   0.929  16.826 -2.5901  0.8789 -1.0852
  922MPD2     C13543   4.242   3.218  17.233  1.6218  0.1884  0.7706
  922MPD2    C113544   4.156   3.230  17.337  0.0482  0.6069  0.0515
  922MPD2    C213545   4.052   3.139  17.349  0.1885 -0.4148  0.3155
  922MPD2    C313546   4.032   3.038  17.255 -0.4036  0.2112 -0.2524
  922MPD2    C413547   4.115   3.027  17.149  0.0423  0.6517 -0.5912
  922MPD2    C513548   4.215   3.118  17.142 -0.2045 -0.6863 -0.7958
  922MPD2     H13549   3.988   3.145  17.436  0.3641  1.4556  0.3193
  922MPD2    H113550   4.104   2.956  17.068  4.7894 -0.8863  0.0602
  922MPD2    H213551   4.322   3.289  17.211  1.3416  0.0449 -0.6756
  922MPD2    H313552   4.274   3.108  17.051  2.3355 -0.8641  0.8611
  922MPD2     N13553   3.921   2.953  17.269 -0.2199 -0.2159  0.0829
  922MPD2    H513554   3.866   2.979  17.351  0.6947 -0.7761  0.8727
  922MPD2    N113555   4.163   3.330  17.434  0.3545 -0.7787  0.3233
  922MPD2    H713556   4.093   3.332  17.507 -0.3010  1.0854 -0.3505
  923MPD2     C13557   0.265   4.602   9.201  0.2129  0.1870  0.1175
  923MPD2    C113558   0.308   4.731   9.226 -0.2008  0.0130 -0.0787
  923MPD2    C213559   0.442   0.015   9.199 -0.4432  0.1840 -0.1345
  923MPD2    C313560   0.513   4.664   9.124  0.2647  0.2836 -1.2091
  923MPD2    C413561   0.460   4.542   9.089  0.3811 -0.2482  0.5396
  923MPD2    C513562   0.342   4.512   9.142  0.0666 -0.5635 -0.0644
  923MPD2     H13563   0.486   0.110   9.229  1.0151 -0.1766 -1.1574
  923MPD2    H113564   0.516   4.469   9.033  0.0716 -1.0322  1.2560
  923MPD2    H213565   0.164   4.577   9.234 -0.8144  3.0848 -0.8801
  923MPD2    H313566   0.298   4.415   9.119  0.0220 -0.5078 -0.2156
  923MPD2     N13567   0.645   4.690   9.072 -0.1656  0.3337  0.0566
  923MPD2    H513568   0.706   4.614   9.044  1.0708  0.7708  1.5445
  923MPD2    N113569   0.226   0.084   9.287 -0.2957  0.2625 -0.1128
  923MPD2    H713570   0.128   0.060   9.301 -0.4120  2.7628  3.3419
  924MPD2     C13571   0.788   2.868  16.072 -0.4258  0.8445 -0.2989
  924MPD2    C113572   0.759   2.891  16.203  0.7199 -0.5999  0.1236
  924MPD2    C213573   0.855   2.935  16.293 -0.3098 -0.2227  0.4265
  924MPD2    C313574   0.982   2.959  16.247 -0.2179 -0.1955  0.7712
  924MPD2    C413575   1.005   2.949  16.110 -0.0476  0.3233  0.2235
  924MPD2    C513576   0.905   2.905  16.021  0.3283 -0.5713  0.5604
  924MPD2     H13577   0.826   2.943  16.397  0.7864 -0.3217  0.7369
  924MPD2    H113578   1.100   2.977  16.066  0.4225 -0.7589  0.5685
  924MPD2    H213579   0.710   2.845  16.000 -1.5397 -2.8096  2.0813
  924MPD2    H313580   0.920   2.907  15.914  2.4996  1.5634  0.9008
  924MPD2     N13581   1.079   3.023  16.332 -0.2068 -0.0464 -0.1958
  924MPD2    H513582   1.160   3.062  16.284  0.6379 -0.2032  1.1028
  924MPD2    N113583   0.622   2.875  16.249 -0.1832 -0.2360  0.5206
  924MPD2    H713584   0.555   2.858  16.174  0.1704  1.2295 -0.1378
  925MPD2     C13585   4.339   1.142  14.649 -0.1640  0.6824 -1.0311
  925MPD2    C113586   4.442   1.051  14.669 -0.7588  0.8708 -0.5261
  925MPD2    C213587   4.494   1.039  14.790  0.2676  0.4144 -0.1081
  925MPD2    C313588   4.459   1.113  14.898  0.3338 -0.0558  0.6327
  925MPD2    C413589   4.347   1.197  14.881  0.7387 -0.1199 -0.1651
  925MPD2    C513590   4.290   1.213  14.754 -0.8908  0.1956  0.2339
  925MPD2     H13591   4.586   0.981  14.785 -0.1479 -0.0285 -2.7626
  925MPD2    H113592   4.305   1.257  14.961  1.5284 -0.1207  0.2513
  925MPD2    H213593   4.283   1.150  14.557  0.7020  1.1871 -1.5184
  925MPD2    H313594   4.199   1.269  14.738 -0.3054  1.0309 -0.1517
  925MPD2     N13595   4.518   1.105  15.026  0.5356  0.5866  0.1096
  925MPD2    H513596   4.477   1.158  15.102 -2.5813  2.1793 -2.7068
  925MPD2    N113597   4.484   0.964  14.564 -0.4566  0.0442  0.6243
  925MPD2    H713598   4.567   0.909  14.581 -0.0729 -0.3261 -2.4567
  926MPD2     C13599   3.532   4.104  14.059  0.7680 -0.0086 -0.1487
  926MPD2    C113600   3.416   4.152  13.999 -0.4291  0.1892  0.0173
  926MPD2    C213601   3.402   4.177  13.863 -0.3300  0.2930 -0.3528
  926MPD2    C313602   3.517   4.153  13.786  0.1318 -0.6414 -0.3140
  926MPD2    C413603   3.637   4.111  13.843  0.2407 -0.7639  0.3163
  926MPD2    C513604   3.640   4.089  13.981  0.5732  0.2831 -0.0832
  926MPD2     H13605   3.308   4.200  13.815 -0.2874 -0.3516 -0.7464
  926MPD2    H113606   3.726   4.089  13.785  0.3422 -1.4706  0.7471
  926MPD2    H213607   3.537   4.080  14.164  0.0839 -0.7463 -0.2868
  926MPD2    H313608   3.728   4.053  14.032  2.0426 -1.1352 -3.6309
  926MPD2     N13609   3.524   4.180  13.645  0.3829  0.0167  0.0486
  926MPD2    H513610   3.608   4.183  13.587  1.3218 -0.0707  1.4088
  926MPD2    N113611   3.299   4.178  14.068 -0.0516  0.2781 -0.6576
  926MPD2    H713612   3.227   4.233  14.023 -1.1643  0.8087  1.7382
  927MPD2     C13613   2.233   1.318   0.040  0.2981  0.5226  0.0694
  927MPD2    C113614   2.307   1.425   0.010  0.4211  0.2006  0.5216
  927MPD2    C213615   2.444   1.399  17.728  0.5947 -0.0517  0.3166
  927MPD2    C313616   2.502   1.273  17.729 -0.4329 -0.0015 -0.1604
  927MPD2    C413617   2.419   1.168   0.003 -0.0159 -0.0382  0.0285
  927MPD2    C513618   2.285   1.189   0.038  0.4839  0.1751 -0.2460
  927MPD2     H13619   2.510   1.481  17.702  1.4583 -0.2063  1.9827
  927MPD2    H113620   2.445   1.063   0.009  0.1792  0.1129  1.7886
  927MPD2    H213621   2.129   1.332   0.065 -0.1537 -2.0190 -0.3778
  927MPD2    H313622   2.221   1.101   0.047 -1.3957  1.3092 -2.3855
  927MPD2     N13623   2.640   1.258  17.692 -0.2061 -0.2069 -0.2536
  927MPD2    H513624   2.692   1.344  17.683 -3.2779  1.4094 -2.3716
  927MPD2    N113625   2.254   1.559   0.015  0.0887  0.4632  0.0126
  927MPD2    H713626   2.163   1.568   0.059  0.2473 -1.1095  0.6519
  928MPD2     C13627   0.686   4.356   1.194  1.2502 -0.1445  0.2169
  928MPD2    C113628   0.700   4.494   1.207 -0.1818  0.3432  0.3902
  928MPD2    C213629   0.743   4.576   1.104 -0.0536  0.3832  0.3783
  928MPD2    C313630   0.767   4.520   0.981  0.1790  0.5203 -0.0880
  928MPD2    C413631   0.753   4.382   0.966 -0.3053 -0.0961 -0.2051
  928MPD2    C513632   0.710   4.297   1.070  0.0003  0.3710 -0.7932
  928MPD2     H13633   0.759   4.682   1.119  2.0861  0.0406  0.5638
  928MPD2    H113634   0.761   4.341   0.866  1.4158 -1.0833  0.3269
  928MPD2    H213635   0.648   4.296   1.275  3.1491 -0.5190  0.8250
  928MPD2    H313636   0.693   4.192   1.051  2.0642 -0.1154  0.0905
  928MPD2     N13637   0.811   4.601   0.868  0.4066  0.8477  0.2873
  928MPD2    H513638   0.808   4.561   0.775  0.3162  0.8996  0.2682
  928MPD2    N113639   0.664   4.542   1.335  0.2882  0.1723 -0.1621
  928MPD2    H713640   0.639   4.474   1.406  1.4121  0.7785  0.8176
  929MPD2     C13641   1.056   4.509  10.137 -0.1890  0.1051 -0.3235
  929MPD2    C113642   0.953   4.417  10.106 -0.6936  0.8031 -0.0418
  929MPD2    C213643   0.880   4.442   9.990 -0.3059 -0.3532 -0.2126
  929MPD2    C313644   0.904   4.552   9.910  0.1284  0.0372  0.3997
  929MPD2    C413645   1.012   4.632   9.939 -0.2101 -0.3413  0.0701
  929MPD2    C513646   1.080   4.614  10.055  0.3214  0.5846 -0.5598
  929MPD2     H13647   0.787   4.391   9.969  0.2239 -1.0547 -0.8608
  929MPD2    H113648   1.035   4.717   9.876  0.7555 -0.9276 -0.3664
  929MPD2    H213649   1.113   4.503  10.230  0.1596  0.4493 -0.5152
  929MPD2    H313650   1.166   4.676  10.077  0.2579 -0.9275  4.1692
  929MPD2     N13651   0.830   4.571   9.795  0.4511  0.5356 -0.0944
  929MPD2    H513652   0.831   4.659   9.744 -1.5157 -0.9934 -2.7256
  929MPD2    N113653   0.923   4.320  10.201  0.0463  0.0975  0.0322
  929MPD2    H713654   0.985   4.319  10.281  0.0662 -1.3597 -0.0092
  930MPD2     C13655   2.871   2.019  14.333  0.5040  0.3235 -0.3055
  930MPD2    C113656   2.988   2.027  14.266  0.0095  0.4436  0.0832
  930MPD2    C213657   3.007   1.955  14.149  0.0238 -0.8809  0.1727
  930MPD2    C313658   2.897   1.897  14.086  0.1844 -0.2000 -0.0305
  930MPD2    C413659   2.787   1.880  14.163 -0.4793 -0.9148  0.1668
  930MPD2    C513660   2.767   1.940  14.281  0.0851 -0.0986  0.3574
  930MPD2     H13661   3.107   1.962  14.107  1.1050  0.7312  3.0614
  930MPD2    H113662   2.696   1.832  14.129 -0.8007 -0.0234 -0.2274
  930MPD2    H213663   2.857   2.074  14.425 -1.4289 -3.3729  1.5845
  930MPD2    H313664   2.677   1.920  14.338  0.1763  2.3225  1.3499
  930MPD2     N13665   2.902   1.840  13.953  0.7644 -0.0809  0.0777
  930MPD2    H513666   2.816   1.801  13.916  0.6905 -0.2684  0.4471
  930MPD2    N113667   3.073   2.130  14.310 -0.6934 -0.2867 -0.3183
  930MPD2    H713668   3.041   2.204  14.370 -1.3982  0.0835 -1.1524
  931MPD2     C13669   2.775   2.069   0.176 -0.2062 -0.6076 -0.1180
  931MPD2    C113670   2.680   2.036   0.272 -0.0159  0.6565  0.6034
  931MPD2    C213671   2.714   2.007   0.400  0.1383  0.5062 -0.1756
  931MPD2    C313672   2.852   2.006   0.434  0.1894 -0.3462  0.2230
  931MPD2    C413673   2.939   2.037   0.333  0.1649 -0.0620 -0.0574
  931MPD2    C513674   2.904   2.072   0.208  0.1988 -0.3733 -0.6402
  931MPD2     H13675   2.635   1.980   0.470 -0.7682 -0.1739 -1.4751
  931MPD2    H113676   3.047   2.036   0.346 -0.0049  0.3270  1.3768
  931MPD2    H213677   2.751   2.098   0.074 -0.4976  2.1249  0.7136
  931MPD2    H313678   2.981   2.090   0.134  1.8068  1.9468  1.6363
  931MPD2     N13679   2.902   1.977   0.564 -0.7729  0.1858 -0.3128
  931MPD2    H513680   3.001   1.953   0.566 -1.1872 -1.4177  1.2214
  931MPD2    N113681   2.537   2.027   0.239  0.1954 -0.1620  0.2425
  931MPD2    H713682   2.474   2.001   0.314 -2.3443  2.2344 -1.0518
  932MPD2     C13683   4.242   4.616  11.126 -0.0094  0.1944  0.3824
  932MPD2    C113684   4.337   4.712  11.147 -0.0761 -0.1929  0.5210
  932MPD2    C213685   4.467   4.682  11.176 -0.4656 -0.2256 -0.0367
  932MPD2    C313686   4.500   4.548  11.193 -0.0125 -0.3203 -0.0428
  932MPD2    C413687   4.403   4.449  11.178  0.5518 -0.8235  0.5804
  932MPD2    C513688   4.276   4.483  11.133  0.2162  0.0131 -0.1128
  932MPD2     H13689   4.543   0.020  11.184 -0.1065 -0.6693  0.8412
  932MPD2    H113690   4.420   4.344  11.198  0.2475 -1.0908 -0.5768
  932MPD2    H213691   4.139   4.632  11.096  0.6586  1.9577 -1.0023
  932MPD2    H313692   4.198   4.409  11.148 -1.8233  2.1636  0.0085
  932MPD2     N13693   4.625   4.511  11.246 -0.0077  0.1606 -0.0024
  932MPD2    H513694   4.639   4.411  11.258 -0.3725  0.0073 -0.8011
  932MPD2    N113695   4.300   0.110  11.137 -0.1567 -0.9940 -0.2854
  932MPD2    H713696   4.364   0.189  11.137  0.3986 -1.4363 -1.1448
  933MPD2     C13697   0.525   0.377   2.058  0.7759  0.1601 -0.2943
  933MPD2    C113698   0.529   0.381   1.921 -0.3619 -0.4816 -0.3507
  933MPD2    C213699   0.508   0.503   1.859  0.4362  0.3623  0.5979
  933MPD2    C313700   0.476   0.618   1.928  0.2180  0.0643 -0.0329
  933MPD2    C413701   0.453   0.607   2.059  0.1839 -0.6116  0.3613
  933MPD2    C513702   0.481   0.486   2.121 -0.0618 -0.5775 -0.7844
  933MPD2     H13703   0.530   0.510   1.753  1.1421  0.3122  0.7363
  933MPD2    H113704   0.410   0.683   2.124  1.4065 -0.1112  0.5948
  933MPD2    H213705   0.552   0.288   2.114  0.8147 -1.7926 -3.4192
  933MPD2    H313706   0.476   0.488   2.229 -1.2148 -1.3859 -0.8266
  933MPD2     N13707   0.473   0.740   1.858  0.9081 -0.1767 -0.0850
  933MPD2    H513708   0.485   0.731   1.758  1.2451  0.8246 -0.1331
  933MPD2    N113709   0.565   0.269   1.849  0.0036  0.2896 -0.2133
  933MPD2    H713710   0.594   0.186   1.900  2.8866  1.4001 -0.0609
  934MPD2     C13711   2.082   2.686   2.270  0.3969 -0.0056 -0.2262
  934MPD2    C113712   2.127   2.700   2.142 -1.0967 -0.0935  0.1274
  934MPD2    C213713   2.042   2.652   2.043  0.7196  0.6037  0.0644
  934MPD2    C313714   1.921   2.587   2.070 -0.4020  0.0593 -0.0441
  934MPD2    C413715   1.878   2.579   2.203 -0.6293  1.1084 -0.1268
  934MPD2    C513716   1.964   2.621   2.302  0.0306  0.7029 -0.1518
  934MPD2     H13717   2.086   2.667   1.945 -0.4320 -0.0518 -0.5545
  934MPD2    H113718   1.781   2.545   2.235 -0.2899  0.4345  0.1745
  934MPD2    H213719   2.141   2.723   2.353  1.6545 -2.1414 -0.1509
  934MPD2    H313720   1.927   2.610   2.404  0.0865 -0.7303 -0.2793
  934MPD2     N13721   1.842   2.532   1.964  0.5025  0.0833 -0.4377
  934MPD2    H513722   1.751   2.496   1.987  0.5555 -1.1543 -2.1335
  934MPD2    N113723   2.248   2.749   2.099 -0.4231 -0.1506  0.2808
  934MPD2    H713724   2.283   2.716   2.010  0.4610 -0.4053  0.7198
  935MPD2     C13725   2.187   2.018   1.181 -0.3818  0.8577  0.1760
  935MPD2    C113726   2.049   1.994   1.184 -0.2081  0.0193  0.3363
  935MPD2    C213727   1.978   2.039   1.291 -0.2330  0.5523 -0.0067
  935MPD2    C313728   2.030   2.118   1.391 -0.1608 -0.4472  0.0824
  935MPD2    C413729   2.166   2.140   1.388 -0.6707 -0.5224 -1.1887
  935MPD2    C513730   2.239   2.086   1.289  0.4072  0.7027 -1.1160
  935MPD2     H13731   1.871   2.024   1.291 -0.0675 -0.6156  1.4643
  935MPD2    H113732   2.204   2.218   1.453 -1.2722 -1.2348  0.0123
  935MPD2    H213733   2.251   1.987   1.100 -0.3138 -0.3594  0.6889
  935MPD2    H313734   2.346   2.104   1.281  0.7994 -0.5089  1.3784
  935MPD2     N13735   1.950   2.182   1.492  0.5439  0.1639  0.2003
  935MPD2    H513736   1.993   2.213   1.578  1.2815  1.1532 -0.5244
  935MPD2    N113737   1.979   1.937   1.075 -0.3551  0.0068 -0.0265
  935MPD2    H713738   1.879   1.942   1.062 -0.4023  0.3748  0.4835
  936MPD2     C13739   0.780   3.565  12.813  0.1605  0.4265 -0.1673
  936MPD2    C113740   0.655   3.574  12.754  0.4413  0.5519 -0.4053
  936MPD2    C213741   0.659   3.583  12.617  0.2798  0.1765  0.5013
  936MPD2    C313742   0.774   3.584  12.536  0.6642 -0.4446 -0.4851
  936MPD2    C413743   0.893   3.584  12.604  0.2817  1.0537 -0.2347
  936MPD2    C513744   0.895   3.570  12.741  0.3362 -0.0632 -0.3964
  936MPD2     H13745   0.562   3.583  12.567  0.5117  0.0800  0.0436
  936MPD2    H113746   0.980   3.588  12.540  0.8353 -0.0902  0.4473
  936MPD2    H213747   0.790   3.564  12.921 -0.9939  1.5824 -0.0458
  936MPD2    H313748   0.979   3.585  12.807  0.5048  1.3738 -0.9361
  936MPD2     N13749   0.763   3.627  12.405 -0.4023 -0.2153 -0.1821
  936MPD2    H513750   0.842   3.661  12.351  1.6289  0.0888  2.9459
  936MPD2    N113751   0.537   3.604  12.818  0.2452  0.3010  0.3527
  936MPD2    H713752   0.456   3.623  12.759  1.1150  1.4179 -0.4780
  937MPD2     C13753   2.827   0.247  12.247  0.8358 -0.1768 -0.3449
  937MPD2    C113754   2.753   0.346  12.186  0.4267 -0.8031 -0.3147
  937MPD2    C213755   2.819   0.410  12.086  0.2418  0.1804 -0.3089
  937MPD2    C313756   2.952   0.384  12.053 -0.5763 -0.5268  0.5246
  937MPD2    C413757   3.017   0.282  12.112  0.1730  0.5424  0.7442
  937MPD2    C513758   2.957   0.208  12.211  0.3522 -0.0399  0.7815
  937MPD2     H13759   2.768   0.494  12.040 -1.1840  0.8613  2.5606
  937MPD2    H113760   3.119   0.253  12.092  0.1060 -0.0486  1.2302
  937MPD2    H213761   2.789   0.197  12.335 -0.0269  0.6691 -0.2216
  937MPD2    H313762   3.015   0.129  12.258  0.1830 -0.6106  0.0365
  937MPD2     N13763   3.016   0.458  11.948 -0.1088  0.2931 -0.6833
  937MPD2    H513764   2.962   0.525  11.893 -1.0656  0.0736 -0.0049
  937MPD2    N113765   2.636   0.400  12.236  0.2896 -0.5595  0.4031
  937MPD2    H713766   2.601   0.484  12.190  3.6282  2.1138  2.6774
  938MPD2     C13767   0.566   1.755   1.049 -0.0287 -0.3500 -0.4603
  938MPD2    C113768   0.653   1.840   1.117  0.6030 -0.2617 -0.2842
  938MPD2    C213769   0.738   1.783   1.218  0.1233  0.1642 -0.2930
  938MPD2    C313770   0.730   1.648   1.243  0.8696  0.0813  0.0686
  938MPD2    C413771   0.630   1.569   1.184  0.5799 -0.5243 -0.3047
  938MPD2    C513772   0.548   1.624   1.087 -0.8578  0.0486  0.3076
  938MPD2     H13773   0.805   1.846   1.274  0.2677 -1.1133  0.9628
  938MPD2    H113774   0.619   1.465   1.210  0.3639 -0.7695 -1.3526
  938MPD2    H213775   0.501   1.779   0.965  0.4043  1.2446 -0.3378
  938MPD2    H313776   0.475   1.563   1.035  1.6077  0.0332 -3.1063
  938MPD2     N13777   0.820   1.574   1.328  0.4180  0.5388  0.2460
  938MPD2    H513778   0.808   1.473   1.338 -3.4565  1.1841  2.0037
  938MPD2    N113779   0.674   1.975   1.092 -0.3083  0.8878  0.1972
  938MPD2    H713780   0.756   2.021   1.130 -1.6621  2.8015  0.8423
  939MPD2     C13781   2.158   2.669   0.939  0.1843 -0.1836 -0.8897
  939MPD2    C113782   2.024   2.673   0.958  0.3968  0.4043  0.3741
  939MPD2    C213783   1.942   2.620   0.855  0.9320 -1.5492 -0.3238
  939MPD2    C313784   2.004   2.549   0.753 -0.2466  0.4766  0.5903
  939MPD2    C413785   2.139   2.533   0.753 -0.1172  0.2618 -0.7904
  939MPD2    C513786   2.215   2.602   0.837 -0.2084  0.4404 -0.2865
  939MPD2     H13787   1.834   2.633   0.856  1.0831 -0.3409  0.2423
  939MPD2    H113788   2.193   2.483   0.674  0.6882  0.3590 -0.3023
  939MPD2    H213789   2.218   2.724   1.011  0.1902  0.2918 -1.2524
  939MPD2    H313790   2.324   2.604   0.840 -0.3056  1.3158  3.1101
  939MPD2     N13791   1.920   2.495   0.651 -0.0771  0.8901 -0.2913
  939MPD2    H513792   1.821   2.512   0.668 -0.4977 -2.0397  0.1346
  939MPD2    N113793   1.971   2.752   1.064  0.1518  0.3467  0.0189
  939MPD2    H713794   2.040   2.787   1.130 -1.5335  0.0762  1.9233
  940MPD2     C13795   0.598   4.036  13.060 -0.3385 -0.3194  0.6174
  940MPD2    C113796   0.709   3.992  13.123 -0.4441  0.5521  0.6586
  940MPD2    C213797   0.819   3.961  13.040  0.0489  0.4516 -0.2585
  940MPD2    C313798   0.816   3.984  12.901  0.0699 -0.0437 -0.1526
  940MPD2    C413799   0.704   4.036  12.854  0.6196  0.1004  0.1323
  940MPD2    C513800   0.591   4.067  12.928 -0.4474 -0.7100  0.1287
  940MPD2     H13801   0.914   3.928  13.081 -0.8945  1.7022  2.9208
  940MPD2    H113802   0.708   4.057  12.748  1.6968  0.3786  0.2246
  940MPD2    H213803   0.499   4.032  13.105  0.0555  0.5438  1.5491
  940MPD2    H313804   0.502   4.107  12.881 -0.4409  1.3844  1.9619
  940MPD2     N13805   0.922   3.973  12.808  0.3158 -0.1821  0.5403
  940MPD2    H513806   0.891   3.996  12.714 -0.2355 -0.4273  0.6657
  940MPD2    N113807   0.707   3.966  13.262  0.3173  0.0943  0.0903
  940MPD2    H713808   0.793   3.928  13.301  1.0154  0.6096 -0.9462
  941MPD2     C13809   4.563   3.042  10.036  0.4854 -0.3746 -0.1301
  941MPD2    C113810   4.679   2.967  10.015  0.1171  0.7672 -0.5195
  941MPD2    C213811   4.700   2.869  10.106 -0.2320  0.6393 -0.5400
  941MPD2    C313812   4.618   2.844  10.215  0.2383 -0.3359 -0.0551
  941MPD2    C413813   4.510   2.915  10.224 -0.2103  0.8979 -1.0600
  941MPD2    C513814   4.476   3.019  10.146 -0.4869 -0.3580 -0.2681
  941MPD2     H13815   0.046   2.800  10.105  1.0149  2.1484  1.1312
  941MPD2    H113816   4.437   2.890  10.300  1.0893 -2.3983 -0.8884
  941MPD2    H213817   4.542   3.126   9.970 -1.4288 -0.4762  0.3476
  941MPD2    H313818   4.381   3.072  10.140  0.0797  0.9014  1.8163
  941MPD2     N13819   4.623   2.732  10.302  0.3485  0.5662  0.2965
  941MPD2    H513820   4.548   2.708  10.365 -0.6930  0.4641 -0.9771
  941MPD2    N113821   0.029   2.991   9.906 -0.1381 -0.1724  0.3532
  941MPD2    H713822   0.119   2.944   9.907 -0.4557 -0.8083 -0.4675
  942MPD2     C13823   4.061   3.782   9.480  0.6409 -0.2241 -0.2150
  942MPD2    C113824   3.989   3.875   9.551 -0.1107  0.5344 -0.1910
  942MPD2    C213825   4.023   4.008   9.533 -0.2969  0.0900  0.1633
  942MPD2    C313826   4.103   4.048   9.433  0.4534 -0.0002  0.3186
  942MPD2    C413827   4.157   3.957   9.349  0.4457 -0.1021  0.6948
  942MPD2    C513828   4.139   3.825   9.375  0.1998  0.1347 -0.7121
  942MPD2     H13829   3.961   4.071   9.596 -0.8837  0.3870 -0.7207
  942MPD2    H113830   4.232   3.986   9.276 -2.3796  1.1922 -1.6789
  942MPD2    H213831   4.055   3.676   9.505  0.1493 -0.2391 -0.4112
  942MPD2    H313832   4.182   3.744   9.317  1.6416 -0.8970  1.7914
  942MPD2     N13833   4.133   4.184   9.401 -0.4000  0.0250 -0.6071
  942MPD2    H513834   4.201   4.208   9.330  0.3904 -2.0435 -0.5482
  942MPD2    N113835   3.893   3.841   9.648 -0.1856  0.1492 -0.3334
  942MPD2    H713836   3.855   3.914   9.708 -2.9989 -2.2669  0.8481
  943MPD2     C13837   4.204   3.297  10.049  0.0591  0.2633  0.2102
  943MPD2    C113838   4.142   3.208  10.132 -0.1882  0.7163 -0.4149
  943MPD2    C213839   4.149   3.236  10.274 -0.0887  0.0445 -0.1038
  943MPD2    C313840   4.222   3.349  10.316 -0.2042 -0.8222  0.0098
  943MPD2    C413841   4.300   3.423  10.233 -0.9754  0.0557 -0.8017
  943MPD2    C513842   4.277   3.403  10.096  0.2044  0.6482 -0.1389
  943MPD2     H13843   4.106   3.174  10.351 -0.6325 -1.0540 -1.2966
  943MPD2    H113844   4.361   3.510  10.252 -0.0624 -0.4946 -1.1985
  943MPD2    H213845   4.202   3.280   9.942 -3.3815 -1.3498  0.5429
  943MPD2    H313846   4.331   3.466  10.026  0.5723  0.0902 -0.3579
  943MPD2     N13847   4.205   3.397  10.450 -0.4030 -0.2732 -0.4299
  943MPD2    H513848   4.249   3.486  10.472 -1.3054  0.2582 -0.7642
  943MPD2    N113849   4.063   3.102  10.080 -0.7302  0.2842 -0.4037
  943MPD2    H713850   4.055   3.087   9.980 -2.5386 -1.3603 -0.0024
  944MPD2     C13851   3.916   1.994  11.650  0.1708  0.0448 -0.0310
  944MPD2    C113852   3.883   2.067  11.540 -0.4560 -0.6031  0.1960
  944MPD2    C213853   3.782   2.163  11.550  0.1698  0.4867  0.5027
  944MPD2    C313854   3.718   2.198  11.671  0.5096  0.4515 -0.0586
  944MPD2    C413855   3.755   2.116  11.781 -0.3454  0.2142 -0.3972
  944MPD2    C513856   3.845   2.017  11.764 -0.5389  0.3349 -0.5028
  944MPD2     H13857   3.754   2.221  11.463  0.1182  0.2399  0.3555
  944MPD2    H113858   3.710   2.124  11.880 -0.0185 -0.9066 -0.1665
  944MPD2    H213859   4.003   1.929  11.661  2.2603  2.3598 -2.8432
  944MPD2    H313860   3.873   1.959  11.851 -0.1557  0.3609 -0.6086
  944MPD2     N13861   3.616   2.297  11.672 -0.2368 -0.2820  0.0716
  944MPD2    H513862   3.589   2.349  11.590  0.1226 -1.2252 -0.6406
  944MPD2    N113863   3.957   2.041  11.431  0.2670 -0.6562  0.3868
  944MPD2    H713864   4.031   1.972  11.434  0.1860 -0.7925 -0.7794
    1TMC1    C113865   1.714   3.751  15.523  0.2104 -0.4666 -0.7449
    1TMC1    C213866   1.776   3.700  15.640 -0.1176 -0.4832  0.2761
    1TMC1    C313867   1.737   3.571  15.667  0.5204 -0.9021  0.3738
    1TMC1    C413868   1.619   3.683  15.455 -0.8563 -0.0938 -0.1465
    1TMC1    C513869   1.594   3.548  15.478 -0.4212  0.4692 -0.6496
    1TMC1    C613870   1.661   3.490  15.582  0.0668 -0.0840 -0.9368
    1TMC1     C13871   1.774   3.873  15.476 -0.1899  0.5483 -0.6988
    1TMC1     O13872   1.815   3.955  15.560  0.1801  0.6418  0.1956
    1TMC1     H13873   1.854   3.750  15.696  1.5293 -3.3224  0.5374
    1TMC1    H113874   1.573   3.732  15.370 -1.0052  1.2567  0.7199
    1TMC1    H213875   1.642   3.387  15.610  1.0001  0.1203  0.4682
    1TMC1    C713876   1.466   3.494  15.421  0.1057  0.5007 -0.5181
    1TMC1    C813877   1.798   3.502  15.776 -0.6767  0.7474  0.0254
    1TMC1    O113878   1.407   3.573  15.353  0.1571 -0.0046 -0.7693
    1TMC1    O213879   1.787   3.380  15.788 -0.1592 -0.2239  0.1860
    1TMC1    O313880   1.417   3.397  15.503  0.4713 -0.2199  0.1037
    1TMC1    H313881   1.492   3.347  15.540  0.3450  0.4590  1.2742
    1TMC1    O513882   1.808   3.591  15.880  0.3120  0.1989  0.1701
    1TMC1    H513883   1.784   3.682  15.852 -0.3419 -0.3711 -1.1064
    2MPD2     C13884   1.881   4.183  15.080 -0.0619  0.3264 -0.1798
    2MPD2    C113885   1.852   4.055  15.030  0.4586 -0.4291 -0.2464
    2MPD2    C213886   1.810   3.959  15.122 -0.6099  0.2216 -0.0777
    2MPD2    C313887   1.806   3.983  15.256  0.1235  0.5724  0.0655
    2MPD2    C413888   1.846   4.107  15.307 -0.0335 -0.8121  0.0535
    2MPD2    C513889   1.874   4.203  15.213  0.0803 -0.0338 -0.3494
    2MPD2     H13890   1.768   3.865  15.088 -0.6838  0.2510 -0.0677
    2MPD2    H113891   1.848   4.137  15.411  1.9318 -0.5310 -0.0548
    2MPD2    H213892   1.926   4.264  15.024  1.8500 -1.4879 -1.2626
    2MPD2    H313893   1.901   4.304  15.242 -1.6335 -0.0072  1.0934
    2MPD2     N13894   1.767   3.873  15.341 -0.2101 -0.3080 -0.7766
    2MPD2    H513895   1.745   3.789  15.289  0.4015 -0.8544 -0.1436
    2MPD2    N113896   1.871   4.041  14.892 -0.2499  0.4249  0.0172
    2MPD2    H713897   1.906   4.125  14.846  0.9295  0.6434  1.3151
    3TMC2    C113898   1.888   3.941  14.673  0.4507  0.1688 -0.6619
    3TMC2    C213899   1.962   4.051  14.629 -0.9311  0.1100  0.3690
    3TMC2    C313900   1.990   4.072  14.497  0.2460 -0.7563 -0.3842
    3TMC2    C413901   1.826   3.859  14.581 -0.7026 -1.2581  0.9177
    3TMC2    C513902   1.863   3.885  14.452 -0.0029  0.2871  0.1854
    3TMC2    C613903   1.941   3.983  14.401  0.4578  0.2304  0.0678
    3TMC2     C13904   1.852   3.924  14.816  0.5518 -0.5469 -0.3529
    3TMC2     O13905   1.791   3.826  14.856 -0.3148  0.2119  0.2001
    3TMC2     H13906   2.019   4.106  14.703 -0.9944 -2.5095  2.3861
    3TMC2    H113907   1.749   3.792  14.616 -2.1817  0.0152  0.1214
    3TMC2    H213908   1.991   3.977  14.305  0.8402 -1.3111  0.3683
    3TMC2    C713909   1.808   3.786  14.362 -0.2216  0.5375 -0.3983
    3TMC2    C813910   2.083   4.178  14.459 -0.6665 -0.7508  0.1018
    3TMC2    O113911   1.763   3.688  14.421  0.3232  0.4314  0.4451
    3TMC2    O213912   2.173   4.162  14.376  0.1056 -0.9586 -0.7227
    3TMC2    O513913   2.057   4.283  14.545  0.3205 -0.2850  0.2442
    3TMC2    H513914   1.966   4.283  14.582  0.1299  1.8923 -0.2382
    4TMC2    C113915   1.378   4.074  13.497  0.1726 -0.5622  0.0053
    4TMC2    C213916   1.334   3.967  13.426  0.1297 -0.6696  0.1430
    4TMC2    C313917   1.408   3.853  13.437 -0.1930 -0.6165 -0.4600
    4TMC2    C413918   1.473   4.064  13.591  0.4451  0.2571 -0.2076
    4TMC2    C513919   1.542   3.946  13.605 -0.6757  0.0103  0.2662
    4TMC2    C613920   1.512   3.836  13.529  0.0233 -0.0140  0.6348
    4TMC2     C13921   1.284   4.185  13.524  0.3407  0.0120 -0.1483
    4TMC2     O13922   1.299   4.246  13.628 -0.3645 -0.1862 -0.6067
    4TMC2     H13923   1.258   3.968  13.349  2.2560  1.4847 -1.9428
    4TMC2    H113924   1.497   4.157  13.641 -0.2204  0.3122  0.0126
    4TMC2    H213925   1.564   3.742  13.534  2.4177  1.1580 -2.1969
    4TMC2    C713926   1.587   3.923  13.742 -0.0736 -0.5296 -0.2727
    4TMC2    C813927   1.389   3.753  13.334 -0.0512 -0.4661  0.1122
    4TMC2    O113928   1.600   4.022  13.814 -0.0581  0.5160  0.2871
    4TMC2    O213929   1.364   3.790  13.222  1.0350  0.4549  1.1085
    4TMC2    O513930   1.428   3.631  13.374 -0.8685 -0.7665 -0.1052
    4TMC2    H513931   1.423   3.607  13.469 -1.7630 -0.3404 -0.0460
    5MPD2     C13932   0.865   4.468  13.452  0.6211 -0.3615  0.3351
    5MPD2    C113933   0.884   4.386  13.336 -0.1428 -0.0030  0.2271
    5MPD2    C213934   0.989   4.292  13.336  0.0384 -0.4882 -0.0405
    5MPD2    C313935   1.067   4.279  13.444 -0.4203  0.5313  0.2087
    5MPD2    C413936   1.045   4.353  13.558  0.5212  0.3966  0.0514
    5MPD2    C513937   0.942   4.441  13.562 -0.2267 -0.1478 -0.5369
    5MPD2     H13938   1.011   4.229  13.250 -0.2988 -1.5917  0.6763
    5MPD2    H113939   1.114   4.356  13.641  1.7174  1.4271 -0.9734
    5MPD2    H213940   0.781   4.534  13.471 -0.5269 -1.3935 -1.2147
    5MPD2    H313941   0.919   4.495  13.653  0.4594  0.1352 -0.5340
    5MPD2     N13942   1.177   4.195  13.429 -0.2386  0.1707 -0.0396
    5MPD2    H513943   1.194   4.150  13.339 -0.9299 -3.3020  1.5757
    5MPD2    N113944   0.799   4.416  13.229  0.4438 -0.4505 -0.1734
    5MPD2    H713945   0.721   4.475  13.255  0.6631 -1.1188  2.0156
    6MPD1     C13946   4.690   1.139  12.868  0.3155  0.1865  0.6764
    6MPD1    C113947   4.588   1.048  12.853  0.1577  0.3280 -0.2223
    6MPD1    C213948   4.615   0.921  12.824  0.2823  0.3121 -0.2167
    6MPD1    C313949   0.010   0.881  12.805  0.0880 -0.3636 -0.3068
    6MPD1    C413950   0.109   0.969  12.818  0.1025 -0.5331  0.1562
    6MPD1    C513951   0.082   1.099  12.843  0.4670  0.0074 -0.7496
    6MPD1     H13952   4.530   0.854  12.813 -0.0857  0.4863  1.5815
    6MPD1    H113953   0.208   0.925  12.806  0.1272  0.1599 -2.1143
    6MPD1    H213954   4.675   1.241  12.901  0.1944  0.4861 -0.3178
    6MPD1    H313955   0.169   1.165  12.845 -0.3405  0.9707  2.4090
    6MPD1     N13956   0.048   0.744  12.796 -0.1415 -0.1069  0.3299
    6MPD1    H513957   0.148   0.724  12.796 -0.1728 -0.2171 -1.4188
    6MPD1    N113958   4.454   1.084  12.881 -0.2496  0.7455 -0.1245
    6MPD1    H613959   4.389   1.026  12.829  0.9884 -0.4555 -0.3431
    6MPD1    H713960   4.440   1.183  12.862 -1.8568  0.1155 -2.1656
    7MPD2     C13961   4.643   4.608  12.842 -0.0545  0.1490 -0.1262
    7MPD2    C113962   0.019   4.683  12.884  0.0404 -0.0891  0.4672
    7MPD2    C213963   0.121   4.616  12.949 -0.0835 -0.1310 -0.5119
    7MPD2    C313964   0.111   4.474  12.953  0.0683 -0.1624  0.0282
    7MPD2    C413965   0.008   4.404  12.895 -0.2190  0.6941  0.0932
    7MPD2    C513966   4.642   4.476  12.839 -0.6405 -0.1135 -0.3673
    7MPD2     H13967   0.206   4.673  12.984 -1.0028  0.0310  1.4955
    7MPD2    H113968   0.014   4.296  12.890 -3.0472  0.4990  0.8510
    7MPD2    H213969   4.568   4.669  12.793 -0.7180 -0.8110 -0.3210
    7MPD2    H313970   4.556   4.431  12.790 -1.3355  1.6151 -0.7094
    7MPD2     N13971   0.216   4.384  12.999 -0.1613 -0.4765 -0.4442
    7MPD2    H513972   0.205   4.286  12.975  1.4369 -0.5682 -0.8018
    7MPD2    N113973   0.047   0.079  12.855  0.0760 -0.5964  0.5680
    7MPD2    H713974   0.143   0.108  12.870  0.5172 -0.6421 -2.1767
    8TMC3    C113975   0.454   4.353  13.004 -0.0978  0.2372 -0.2123
    8TMC3    C213976   0.564   4.364  13.084 -0.1487 -0.2873 -0.1905
    8TMC3    C313977   0.688   4.386  13.028  0.4392 -0.9470  0.6458
    8TMC3    C413978   0.472   4.363  12.869 -0.1035 -0.9026  0.1797
    8TMC3    C513979   0.594   4.410  12.822 -0.8007 -0.1000 -0.1281
    8TMC3    C613980   0.707   4.418  12.898 -0.0675 -0.5747  0.1637
    8TMC3     C13981   0.339   4.432  13.045  0.2310  0.4916  0.3933
    8TMC3     O13982   0.375   4.540  13.092  0.1147  0.4936  0.0908
    8TMC3     H13983   0.564   4.334  13.189  0.4695 -1.0391 -0.4018
    8TMC3    H113984   0.380   4.358  12.812  0.4215 -0.2150 -0.7236
    8TMC3    H213985   0.804   4.445  12.856  0.1890 -2.0103 -0.1604
    8TMC3    C713986   0.565   4.533  12.745  0.1710  0.0109 -0.2343
    8TMC3    C813987   0.805   4.361  13.105 -0.3227  0.1056  0.0211
    8TMC3    O113988   0.450   4.538  12.701 -0.0986 -0.1342 -0.0676
    8TMC3    O213989   0.898   4.311  13.047 -0.5172 -0.3723 -0.5335
    9TMC3    C113990   0.045   0.517  12.778  0.4825  0.0783 -0.3280
    9TMC3    C213991   0.161   0.516  12.709  0.0852  0.1542  0.2332
    9TMC3    C313992   0.215   0.394  12.681 -0.0359 -0.4717 -0.1557
    9TMC3    C413993   4.711   0.405  12.793 -0.2977 -0.1068 -0.0684
    9TMC3    C513994   0.032   0.288  12.768 -0.7226  0.7363  0.2297
    9TMC3    C613995   0.154   0.277  12.711  0.3640  0.1410 -0.1767
    9TMC3     C13996   4.704   0.636  12.783 -0.2855 -0.2621 -0.3123
    9TMC3     O13997   4.581   0.632  12.790 -0.1468 -0.0943 -0.2857
    9TMC3     H13998   0.201   0.612  12.679 -1.0321  0.2656 -0.8818
    9TMC3    H113999   4.618   0.399  12.849  0.0379 -0.1246  0.4905
    9TMC3    H214000   0.174   0.186  12.655  0.7628  0.3107 -0.3140
    9TMC3    C714001   4.702   0.167  12.804  0.4083  0.6576 -0.5406
    9TMC3    C814002   0.356   0.392  12.657 -0.3541 -0.1232 -0.3135
    9TMC3    O114003   4.582   0.148  12.785  0.1970 -0.5195 -0.0417
    9TMC3    O214004   0.421   0.494  12.644  0.7630 -0.0881  0.1050
   10MPD2     C14005   0.769   0.082  12.619 -0.0005 -0.2241  0.2711
   10MPD2    C114006   0.661   0.007  12.670  0.6652 -0.4125  0.5130
   10MPD2    C214007   0.547   0.082  12.688 -0.6802 -0.6294  0.2966
   10MPD2    C314008   0.535   0.215  12.657  0.2511  0.2988 -0.0931
   10MPD2    C414009   0.647   0.284  12.611  1.1007 -0.1547 -0.1568
   10MPD2    C514010   0.763   0.219  12.595 -0.1651 -0.0787  0.5434
   10MPD2     H14011   0.464   0.039  12.743 -0.6867 -0.6594  0.2630
   10MPD2    H114012   0.653   0.392  12.603 -1.9893  0.0839  1.0340
   10MPD2    H214013   0.867   0.037  12.618  0.1012 -0.0665  3.0396
   10MPD2    H314014   0.855   0.269  12.565 -1.5545  0.7270 -2.4199
   10MPD2     N14015   0.405   0.268  12.685 -0.0737  0.7591  0.0478
   10MPD2    H514016   0.343   0.193  12.714  0.9935 -0.2825 -0.3561
   10MPD2    N114017   0.674   4.613  12.713 -0.0367 -0.7187  0.2749
   10MPD2    H714018   0.770   4.589  12.735 -0.2546 -1.6025  0.2642
   11MPD2     C14019   1.689   3.624  14.149  0.2785 -0.4295 -0.3526
   11MPD2    C114020   1.721   3.756  14.130 -0.0956 -0.7555  0.0510
   11MPD2    C214021   1.691   3.810  14.007 -0.2783  0.3776 -0.1204
   11MPD2    C314022   1.640   3.733  13.903  0.3897  0.0649 -0.4206
   11MPD2    C414023   1.623   3.597  13.922  0.0564  0.2789 -0.9722
   11MPD2    C514024   1.654   3.540  14.042 -0.7558  0.0674  0.1142
   11MPD2     H14025   1.697   3.917  13.995  2.2335  0.2595  0.2792
   11MPD2    H114026   1.586   3.535  13.841  0.2738 -1.8805  0.5765
   11MPD2    H214027   1.691   3.578  14.247  1.4370  0.3408 -0.0050
   11MPD2    H314028   1.640   3.434  14.058 -2.3721  0.3003  0.2105
   11MPD2     N14029   1.593   3.789  13.787  0.1016  0.1921  0.1476
   11MPD2    H514030   1.561   3.719  13.721  0.9511 -0.4989  0.4694
   11MPD2    N114031   1.780   3.836  14.239 -0.5672  0.1195  0.5255
   11MPD2    H714032   1.810   3.933  14.229  1.7967 -0.4761  1.7139
    1MPD1     C14033   4.508   0.871   0.223 -0.2840 -0.7103  0.6336
    1MPD1    C114034   4.544   0.976   0.305 -0.2712 -0.1411  0.2269
    1MPD1    C214035   4.599   1.086   0.241  0.3206 -0.0241 -0.1073
    1MPD1    C314036   4.641   1.086   0.112  0.1608 -0.3249 -0.6477
    1MPD1    C414037   4.618   0.972   0.036 -0.3376 -0.1312  0.4399
    1MPD1    C514038   4.546   0.870   0.090  0.1008  0.3574  0.5192
    1MPD1     H14039   4.621   1.171   0.304 -0.4450 -0.1027  0.2660
    1MPD1    H114040   4.649   0.965  17.685 -3.7760 -1.6341 -0.5118
    1MPD1    H214041   4.470   0.781   0.270 -0.7157 -1.8172 -1.8182
    1MPD1    H314042   4.513   0.792   0.022 -0.1276  0.0436  0.9889
    1MPD1     N14043   4.692   1.194   0.045  0.4685  0.5980 -0.2544
    1MPD1    H514044   4.716   1.181  17.699 -1.8883 -2.0566 -0.5035
    1MPD1    N114045   4.496   0.997   0.434 -0.2058 -0.1941  0.3433
    1MPD1    H614046   4.496   0.931   0.511  0.5123 -1.2497 -0.5686
    1MPD1    H714047   4.553   1.066   0.483  0.7450  0.7997 -2.1378
    2MPD1     C14048   4.072   1.941  17.474  0.0238 -0.3969  0.5809
    2MPD1    C114049   4.128   1.870  17.369 -1.0716  0.6989 -0.1335
    2MPD1    C214050   4.253   1.810  17.389  0.1158 -0.1439 -1.2090
    2MPD1    C314051   4.311   1.804  17.518  0.0575 -0.2318 -0.0167
    2MPD1    C414052   4.246   1.855  17.620 -0.2103 -0.1317 -0.8599
    2MPD1    C514053   4.135   1.928  17.590 -0.3847  0.0541 -0.4698
    2MPD1     H14054   4.289   1.755  17.302 -0.1774 -0.7711 -0.9347
    2MPD1    H114055   4.281   1.849  17.722  1.9607  3.3851 -1.3991
    2MPD1    H214056   3.993   2.016  17.472  0.5231  0.1235  0.3878
    2MPD1    H314057   4.083   1.977  17.672 -4.9704 -1.2811 -2.5758
    2MPD1     N14058   4.429   1.727  17.530  0.2369 -0.0641  0.3698
    2MPD1    H514059   4.455   1.679  17.444  0.1603 -0.7856  0.7567
    2MPD1    N114060   4.069   1.882  17.241  0.0774 -0.5239  0.1969
    2MPD1    H614061   4.085   1.800  17.183  3.1544  2.8181 -3.7044
    2MPD1    H714062   3.969   1.890  17.258 -0.1147  0.1024 -1.2171
    3TMC3    C114063   4.600   1.603  17.635  0.2200  0.2766  0.0843
    3TMC3    C214064   4.648   1.564  17.515 -0.2744  0.4196 -1.0537
    3TMC3    C314065   4.726   1.449  17.497 -0.0684  0.4412 -0.8056
    3TMC3    C414066   4.631   1.535  17.752  0.4415 -0.0945 -0.2826
    3TMC3    C514067   4.709   1.422  17.737 -0.4744 -0.2931 -0.0272
    3TMC3    C614068   0.021   1.382  17.613 -0.4300  0.2479  0.3765
    3TMC3     C14069   4.501   1.701  17.645 -0.0695 -0.0516 -0.1667
    3TMC3     O14070   4.484   1.734   0.011  0.5310 -0.0396 -0.0179
    3TMC3     H14071   4.618   1.621  17.428 -0.9103  0.7040 -0.6516
    3TMC3    H114072   4.583   1.557   0.094 -1.8324  1.3870 -1.7840
    3TMC3    H214073   0.082   1.292  17.619 -1.5224 -0.5461 -0.4036
    3TMC3    C714074   4.685   1.325   0.089  0.4107 -0.6104 -0.3723
    3TMC3    C814075   0.043   1.415  17.366  0.6851 -0.5233  0.2920
    3TMC3    O114076   4.667   1.363   0.203  0.4850  0.1868 -0.1171
    3TMC3    O214077   4.718   1.441  17.264 -0.2267 -0.0108  0.3855
    4MPD1     C14078   0.414   1.180  17.092 -0.2998 -0.3144 -0.0223
    4MPD1    C114079   0.459   1.201  17.218 -0.4236 -0.0870  0.4250
    4MPD1    C214080   0.370   1.263  17.309  0.3210 -0.5803  1.0715
    4MPD1    C314081   0.251   1.317  17.272  0.5187 -0.2663 -0.5472
    4MPD1    C414082   0.215   1.306  17.137 -0.5075  0.0638  0.1492
    4MPD1    C514083   0.296   1.248  17.048  0.3024  1.2647  0.0441
    4MPD1     H14084   0.406   1.261  17.411 -1.2381  0.5786  1.6370
    4MPD1    H114085   0.123   1.345  17.094  0.0691  0.6961 -0.5218
    4MPD1    H214086   0.476   1.128  17.020 -1.2550  0.9316 -1.7345
    4MPD1    H314087   0.261   1.252  16.945  2.6008  1.6271 -0.7206
    4MPD1     N14088   0.168   1.360  17.378  0.2672  0.0934 -0.2651
    4MPD1    H514089   0.213   1.359  17.469 -1.1763  0.2674  0.4522
    4MPD1    N114090   0.570   1.135  17.276  0.3950 -0.1158 -0.1463
    4MPD1    H614091   0.595   1.184  17.362 -0.7056  1.1619 -0.5736
    4MPD1    H714092   0.656   1.139  17.223  0.0172 -3.8478 -1.0635
    1TCq1    O114093   1.149   4.658  11.410 -0.1495 -0.0914 -0.6677
    1TCq1    C114094   1.038   4.613  11.365  0.2552 -0.2043  0.2066
    1TCq1    O214095   1.028   4.579  11.244  0.5161 -0.5536 -0.4608
    1TCq1    C214096   0.984   4.540  11.475  0.4612  0.2822  0.1825
    1TCq1    C314097   0.949   4.408  11.454 -0.1091 -0.2683  0.6297
    1TCq1    C414098   0.908   4.333  11.555  0.5825 -0.1939  0.0670
    1TCq1    C514099   0.895   4.393  11.672  0.0316  0.9835  0.0280
    1TCq1    C614100   0.928   4.526  11.691  0.0944  0.1819 -0.3196
    1TCq1    C714101   0.985   4.602  11.594  0.2844 -0.2593  0.0098
    1TCq1    C814102   0.897   4.576  11.825 -0.0639 -0.4882  0.0818
    1TCq1    O414103   0.847   4.502  11.903  0.0984 -0.6300 -0.3501
    1TCq1    C914104   0.828   4.221  11.524  0.1630 -0.1135  0.2793
    1TCq1    O514105   0.766   4.167  11.614 -0.0485  0.3070 -0.2955
    1TCq1    O614106   0.835   4.177  11.408  0.5564 -0.1003 -0.3229
    1TCq1    H114107   1.153   4.674  11.507  0.7871  0.3241 -0.7790
    1TCq1    H214108   0.930   4.373  11.353  1.2342  1.7614 -0.3174
    1TCq1    H314109   0.855   4.326  11.747 -1.3178 -1.1580 -2.5878
    1TCq1    H414110   1.008   4.708  11.601  0.9577 -0.6735  4.3700
    2MPD1     C14111   0.944   0.233  12.153 -0.6287  0.5106  0.1680
    2MPD1    C114112   1.008   0.263  12.036  0.2517 -0.6334 -0.2225
    2MPD1    C214113   1.003   0.174  11.939 -1.1252 -0.4917 -0.4387
    2MPD1    C314114   0.935   0.053  11.943  0.3218  0.5773  0.6996
    2MPD1    C414115   0.879   0.017  12.069  0.1218 -0.8467  0.6090
    2MPD1    C514116   0.884   0.117  12.164 -0.3366  0.2952 -0.0416
    2MPD1     H14117   1.053   0.209  11.849  0.1878 -1.1609  0.0248
    2MPD1    H114118   0.839   4.658  12.097  0.5677 -0.8590  1.2157
    2MPD1    H214119   0.942   0.308  12.231 -1.1312 -1.1182  1.7319
    2MPD1    H314120   0.834   0.095  12.258  0.1271  2.0483  0.6182
    2MPD1     N14121   0.936   4.707  11.830 -0.0772 -0.1568 -0.8472
    2MPD1    H514122   0.988   0.003  11.749  0.0329 -1.9684 -1.5599
    2MPD1    N114123   1.068   0.390  12.011 -0.3036  0.7585 -0.6251
    2MPD1    H614124   1.142   0.414  12.076 -1.6245  1.3030  0.6632
    2MPD1    H714125   1.113   0.403  11.920  0.7916 -0.8942 -0.3278
    1TMC1    C114126   1.093   3.750   0.600 -0.0165  0.0178 -0.1566
    1TMC1    C214127   1.011   3.794   0.503 -0.4939 -0.6044  0.2686
    1TMC1    C314128   1.023   3.917   0.453 -0.1415  0.3798  0.2597
    1TMC1    C414129   1.196   3.826   0.645  0.3644 -0.4092  0.2815
    1TMC1    C514130   1.210   3.950   0.594 -0.1515  1.1230 -0.4326
    1TMC1    C614131   1.133   3.995   0.487 -1.2431 -0.4515 -0.5579
    1TMC1     C14132   1.069   3.634   0.680 -0.9074 -0.0717 -0.6938
    1TMC1     O14133   1.168   3.590   0.741 -0.0095 -0.0492  0.1383
    1TMC1     H14134   0.942   3.727   0.455  1.0481 -1.5246 -0.6493
    1TMC1    H114135   1.246   3.812   0.741  1.2961  2.5356  0.2410
    1TMC1    H214136   1.137   4.100   0.460 -0.4668 -0.2718  0.2300
    1TMC1    C714137   1.320   4.022   0.651  0.1304 -0.3412  0.1222
    1TMC1    C814138   0.925   3.964   0.369 -0.5396  0.8879 -0.4189
    1TMC1    O114139   1.312   4.141   0.670 -0.3133  0.2375 -0.2854
    1TMC1    O214140   0.943   4.057   0.289 -0.0950 -0.6988  0.1136
    1TMC1    O314141   1.431   3.951   0.630  0.4692 -0.0930  0.1395
    1TMC1    H314142   1.420   3.863   0.590 -1.6543 -0.5004  1.6023
    1TMC1    O514143   0.806   3.943   0.424 -0.1432 -0.3207  0.0926
    1TMC1    H514144   0.790   3.870   0.488  1.7028 -0.6360  0.1761
    2MPD1     C14145   0.815   3.232   0.858  0.9406  0.1826 -0.2501
    2MPD1    C114146   0.740   3.279   0.751  0.0077 -0.6915 -0.4674
    2MPD1    C214147   0.782   3.402   0.701  0.6470  0.1785  0.2903
    2MPD1    C314148   0.902   3.466   0.744 -0.1837  0.0736  0.1329
    2MPD1    C414149   0.965   3.413   0.846  0.1888  0.3037 -0.8712
    2MPD1    C514150   0.924   3.295   0.903  0.7122 -0.7870 -0.1355
    2MPD1     H14151   0.716   3.432   0.621  1.0687 -1.8309 -0.8036
    2MPD1    H114152   1.062   3.449   0.876 -0.1756  0.0317  0.6550
    2MPD1    H214153   0.781   3.142   0.909  0.5665 -0.0258 -0.8599
    2MPD1    H314154   0.987   3.249   0.979  0.0174 -0.2046  0.7983
    2MPD1     N14155   0.945   3.577   0.675  0.2856 -0.2119 -0.2172
    2MPD1    H514156   0.873   3.621   0.618 -0.9128  0.2707  1.6824
    2MPD1    N114157   0.619   3.220   0.710  0.2887 -0.5816  0.0151
    2MPD1    H614158   0.588   3.273   0.629 -0.3301  2.5680  2.3122
    2MPD1    H714159   0.627   3.122   0.685 -0.7099 -0.6945  0.1256
    1MPD1     C14160   2.089   3.503  12.683  0.1807  0.3668  0.0413
    1MPD1    C114161   2.015   3.624  12.686 -0.2535  0.2865 -0.1705
    1MPD1    C214162   2.084   3.742  12.663 -0.2068 -0.0665  0.1604
    1MPD1    C314163   2.204   3.740  12.592 -0.2646 -0.1005  0.0799
    1MPD1    C414164   2.269   3.621  12.559 -0.2014  0.3303 -0.0825
    1MPD1    C514165   2.211   3.501  12.613  0.3541 -0.8388  0.5322
    1MPD1     H14166   2.042   3.841  12.670 -1.1014 -0.4150 -0.2613
    1MPD1    H114167   2.374   3.615  12.536 -0.0562 -0.1159  0.7091
    1MPD1    H214168   2.067   3.407  12.729 -1.1467 -0.5122 -2.4365
    1MPD1    H314169   2.271   3.410  12.611 -3.2074 -3.1687  0.2046
    1MPD1     N14170   2.261   3.867  12.571  0.3162  0.8966 -0.5111
    1MPD1    H514171   2.227   3.947  12.624  1.0442 -0.4685  2.0108
    1MPD1    N114172   1.885   3.621  12.740  0.6170  0.2484  0.0540
    1MPD1    H614173   1.838   3.531  12.729  1.3956 -0.1666  0.1727
    1MPD1    H714174   1.827   3.694  12.699 -0.6453  0.1401  1.6391
    2MPD1     C14175   1.286   0.849  11.387  0.1186 -0.3586  0.1876
    2MPD1    C114176   1.369   0.894  11.484  0.0414 -0.7719  0.5939
    2MPD1    C214177   1.512   0.872  11.477 -0.5684 -0.7873 -0.1516
    2MPD1    C314178   1.554   0.819  11.350 -0.5401  0.4339  0.7066
    2MPD1    C414179   1.465   0.769  11.254 -0.3903 -1.2064 -0.3569
    2MPD1    C514180   1.334   0.787  11.277 -0.6535  0.4366  0.3750
    2MPD1     H14181   1.592   0.902  11.544 -0.5464  1.8663 -1.3803
    2MPD1    H114182   1.495   0.713  11.167  2.3163 -1.3317  0.6367
    2MPD1    H214183   1.178   0.845  11.401  0.3016 -1.2443  1.3639
    2MPD1    H314184   1.260   0.739  11.214  1.2156  0.6728 -2.0074
    2MPD1     N14185   1.696   0.803  11.318 -0.1173 -0.1087 -0.1481
    2MPD1    H514186   1.715   0.774  11.223 -1.6426  1.3725 -0.9288
    2MPD1    N114187   1.313   0.916  11.611 -0.0661  0.4346  0.5274
    2MPD1    H614188   1.373   0.971  11.672  0.7081  0.6890 -0.4793
    2MPD1    H714189   1.224   0.966  11.608 -1.0664 -1.1629  2.8500
    3MPD1     C14190   1.859   0.442  10.545 -0.9280 -0.0409 -0.7702
    3MPD1    C114191   1.989   0.477  10.566 -0.1984  0.3699 -0.5075
    3MPD1    C214192   2.018   0.537  10.684  0.3892  0.3052  0.1997
    3MPD1    C314193   1.926   0.561  10.786  0.1435  0.7016  0.1925
    3MPD1    C414194   1.795   0.523  10.761 -0.2671 -0.2273  0.2958
    3MPD1    C514195   1.761   0.476  10.635 -0.3572  0.1878  0.3566
    3MPD1     H14196   2.123   0.555  10.699  0.3690 -0.4273  1.2058
    3MPD1    H114197   1.715   0.530  10.834 -0.1278  4.0064  0.0122
    3MPD1    H214198   1.829   0.398  10.451 -0.2366 -1.3259 -0.3907
    3MPD1    H314199   1.659   0.445  10.613  0.3901 -0.9678 -1.4857
    3MPD1     N14200   1.973   0.632  10.905 -0.0678  1.3017 -0.0853
    3MPD1    H514201   2.068   0.666  10.908 -0.6129  3.0185 -2.3258
    3MPD1    N114202   2.090   0.447  10.475  0.5738 -0.1489 -0.2753
    3MPD1    H614203   2.184   0.484  10.486 -0.3393  1.8724  0.6960
    3MPD1    H714204   2.066   0.430  10.377 -1.0403 -2.4299  0.5060
    4MPD2     C14205   2.212   4.637  12.465  0.4408 -1.2129 -0.2782
    4MPD2    C114206   2.330   4.576  12.419 -0.2997  0.0988 -0.1481
    4MPD2    C214207   2.402   4.648  12.327  1.1273 -0.1197  0.0249
    4MPD2    C314208   2.363   0.032  12.272  0.1178 -0.0816 -0.6110
    4MPD2    C414209   2.251   0.089  12.325 -0.3426  0.0330 -0.2201
    4MPD2    C514210   2.175   0.024  12.416  0.0025  0.4296  0.0730
    4MPD2     H14211   2.486   4.596  12.282 -1.7089 -3.3422 -1.5583
    4MPD2    H114212   2.222   0.188  12.292 -1.9204 -0.5553 -0.5751
    4MPD2    H214213   2.149   4.582  12.533  0.2138  0.5966  0.9744
    4MPD2    H314214   2.078   0.061  12.450 -0.2651  0.1936 -0.4386
    4MPD2     N14215   2.435   0.094  12.170  0.0811  0.1174 -0.5127
    4MPD2    H514216   2.385   0.175  12.134  0.8172  0.5634 -0.5361
    4MPD2    N114217   2.380   4.453  12.462  0.5474  0.2935 -0.5874
    4MPD2    H714218   2.464   4.428  12.410  0.3354 -0.5289 -0.5377
    5TMC3    C114219   2.408   4.253  12.563  0.1201 -0.2715 -0.0809
    5TMC3    C214220   2.348   4.131  12.547  0.1927  1.2236  0.3683
    5TMC3    C314221   2.413   4.031  12.486  0.7637  0.0613 -0.4711
    5TMC3    C414222   2.540   4.278  12.527  0.2847 -0.4011  0.5831
    5TMC3    C514223   2.604   4.173  12.457 -0.2329  0.4173 -0.7426
    5TMC3    C614224   2.543   4.053  12.444  0.8435 -0.1707 -0.1364
    5TMC3     C14225   2.321   4.365  12.555 -0.5273  0.2529  0.5819
    5TMC3     O14226   2.201   4.352  12.581 -0.1465  0.5419  0.1824
    5TMC3     H14227   2.245   4.116  12.576  1.1831 -0.9963  2.6964
    5TMC3    H114228   2.581   4.377  12.544  1.2898 -0.4975 -1.3229
    5TMC3    H214229   2.588   3.980  12.378 -0.1288 -1.2506  0.4133
    5TMC3    C714230   2.634   4.239  12.329 -0.7316 -0.5060  0.0976
    5TMC3    C814231   2.372   3.887  12.492  0.0810  0.0839 -0.3284
    5TMC3    O114232   2.570   4.338  12.309  0.3424 -0.3026  0.1542
    5TMC3    O214233   2.431   3.809  12.416  0.2355  0.6584 -0.0477
    6TMC3    C114234   1.925   0.810  11.334 -0.1218 -0.9164  0.2403
    6TMC3    C214235   1.912   0.800  11.198  0.3958 -0.3218  0.3399
    6TMC3    C314236   1.983   0.718  11.120  0.3111 -0.1861 -0.0342
    6TMC3    C414237   2.007   0.718  11.393  0.1470  0.3250 -0.1580
    6TMC3    C514238   2.089   0.639  11.312 -0.2811  0.7688 -0.6659
    6TMC3    C614239   2.078   0.638  11.178  0.1431 -0.3043  0.3589
    6TMC3     C14240   1.800   0.836  11.400 -0.7635 -0.4276  0.3393
    6TMC3     O14241   1.799   0.852  11.521 -0.5810 -0.1246  0.1834
    6TMC3     H14242   1.859   0.881  11.149  0.6400 -1.8953 -2.5154
    6TMC3    H114243   2.029   0.703  11.498 -1.1765 -0.3455  0.0149
    6TMC3    H214244   2.142   0.578  11.115  0.6069  1.8203 -1.1752
    6TMC3    C714245   2.156   0.525  11.368 -0.1104 -0.0775  0.3362
    6TMC3    C814246   1.898   0.671  11.011 -0.2981  0.2733  0.3718
    6TMC3    O114247   2.201   0.529  11.479  0.3173  0.2152 -0.1809
    6TMC3    O214248   1.782   0.666  11.030 -0.3010  0.2278 -0.0223
    7MPD2     C14249   2.921   4.382  11.933 -0.3453 -0.3630  0.9334
    7MPD2    C114250   2.831   4.454  12.004 -0.0602 -0.3534  0.7041
    7MPD2    C214251   2.773   4.401  12.109 -0.8552 -0.3366 -0.6064
    7MPD2    C314252   2.804   4.270  12.148 -0.4971  0.5631 -0.2607
    7MPD2    C414253   2.901   4.204  12.075  0.5418 -0.6291 -0.0183
    7MPD2    C514254   2.965   4.263  11.971  0.9306 -0.6319 -0.1572
    7MPD2     H14255   2.704   4.462  12.164 -1.5322 -0.1206 -1.7028
    7MPD2    H114256   2.948   4.112  12.111 -0.7226 -1.6237 -0.9032
    7MPD2    H214257   2.953   4.409  11.833  0.9955  0.2503  1.5290
    7MPD2    H314258   3.042   4.215  11.912  1.8094  0.7736 -0.1431
    7MPD2     N14259   2.738   4.195  12.250  0.0608  0.0978  0.4134
    7MPD2    H514260   2.779   4.102  12.261  1.9084  1.0013  1.1541
    7MPD2    N114261   2.772   4.574  11.962 -0.5895 -0.1097  0.1902
    7MPD2    H714262   2.705   4.620  12.023  0.2246  1.3799 -0.0161
    8TMC3    C114263   2.727   0.028  11.835 -0.3046  0.0045  0.3560
    8TMC3    C214264   2.632   0.034  11.741 -0.1925 -0.1250  0.6030
    8TMC3    C314265   2.504   0.076  11.773 -0.2595  0.0654 -0.2056
    8TMC3    C414266   2.708   0.082  11.959  0.7012  0.5547 -0.2543
    8TMC3    C514267   2.584   0.121  11.993  0.0023 -0.5730 -0.1110
    8TMC3    C614268   2.479   0.119  11.904  0.3703  0.0042 -0.3867
    8TMC3     C14269   2.791   4.637  11.840  0.2163  0.7973  0.1205
    8TMC3     O14270   2.863   4.602  11.749  0.1478 -0.5144  0.3576
    8TMC3     H14271   2.652   0.018  11.636 -0.7193 -2.8943  0.9241
    8TMC3    H114272   2.786   0.072  12.035 -1.6584 -1.8784  1.8587
    8TMC3    H214273   2.375   0.128  11.934  0.8323 -0.2661  1.2585
    8TMC3    C714274   2.555   0.052  12.124  0.3799 -0.0491 -0.3872
    8TMC3    C814275   2.443   0.155  11.671  0.5535  0.0173  0.6700
    8TMC3    O114276   2.639   4.707  12.157  0.0577  0.3220  0.2448
    8TMC3    O214277   2.451   0.277  11.676 -0.2119  0.4657  0.1942
    9MPD2     C14278   2.283   0.023  11.369  0.1770  0.6652 -0.2997
    9MPD2    C114279   2.313   0.122  11.457  0.4899  0.0527 -0.1657
    9MPD2    C214280   2.267   0.251  11.442  0.0047  0.2859 -0.0770
    9MPD2    C314281   2.199   0.281  11.325  0.0527 -0.1321  0.0816
    9MPD2    C414282   2.165   0.180  11.241  0.0348 -0.0963 -0.2952
    9MPD2    C514283   2.194   0.052  11.271 -0.5367 -0.4553  0.1540
    9MPD2     H14284   2.292   0.328  11.513 -1.2722  1.3018 -0.7150
    9MPD2    H114285   2.114   0.191  11.146 -0.7169  1.7881  0.3175
    9MPD2    H214286   2.318   4.659  11.371  0.5233  0.7842 -0.3345
    9MPD2    H314287   2.178   4.708  11.202  1.4119 -0.0965 -0.7109
    9MPD2     N14288   2.147   0.412  11.288 -0.7086 -0.4395  0.1552
    9MPD2    H514289   2.078   0.414  11.213  1.4736 -3.1215 -1.9436
    9MPD2    N114290   2.401   0.081  11.566 -0.3785  0.3239 -0.7939
    9MPD2    H714291   2.421   4.721  11.578  1.9052  1.0748  1.4846
    1MPD1     C14292   1.307   3.951  15.633  0.7296  0.3698 -0.4934
    1MPD1    C114293   1.324   3.817  15.599  0.6783  0.0815 -1.0569
    1MPD1    C214294   1.381   3.726  15.685 -0.0093 -0.0505 -0.4669
    1MPD1    C314295   1.436   3.773  15.799  0.6320 -1.1266  0.2440
    1MPD1    C414296   1.433   3.909  15.824 -0.8832  0.1648 -1.0744
    1MPD1    C514297   1.371   3.996  15.739 -0.0784  0.0227  0.2833
    1MPD1     H14298   1.381   3.620  15.660 -0.2436  0.1950 -1.5179
    1MPD1    H114299   1.471   3.957  15.914 -3.4778 -0.6204  0.4493
    1MPD1    H214300   1.260   4.018  15.562  1.9179  0.2445 -1.4071
    1MPD1    H314301   1.353   4.095  15.779  1.6672  0.1408  0.7535
    1MPD1     N14302   1.489   3.689  15.904  0.4541 -0.1607 -0.0058
    1MPD1    H514303   1.529   3.730  15.988 -1.2314 -2.4673  1.9283
    1MPD1    N114304   1.256   3.770  15.488 -0.1757 -0.1313 -0.2317
    1MPD1    H614305   1.299   3.689  15.443 -1.6132 -0.9598 -0.1342
    1MPD1    H714306   1.254   3.836  15.411 -0.3045  0.9857  0.7309
    2TMC2    C114307   1.608   3.505  16.251 -0.4799  0.1264 -0.3178
    2TMC2    C214308   1.562   3.373  16.276  0.6168 -0.2315  0.1003
    2TMC2    C314309   1.492   3.304  16.176  0.6517 -0.6372 -0.6965
    2TMC2    C414310   1.579   3.565  16.134  0.2589  0.0944  0.0730
    2TMC2    C514311   1.525   3.489  16.031  0.1957  0.4775 -0.4134
    2TMC2    C614312   1.474   3.361  16.055  0.9224  0.3714  0.1539
    2TMC2     C14313   1.679   3.585  16.346 -0.3528 -0.6245 -0.4955
    2TMC2     O14314   1.756   3.665  16.302  0.1933 -0.3694 -0.5618
    2TMC2     H14315   1.579   3.315  16.366  1.1569 -1.2791 -0.6765
    2TMC2    H114316   1.622   3.663  16.119 -0.5468  0.2312 -1.3603
    2TMC2    H214317   1.425   3.299  15.980 -0.9772 -1.3143  2.7564
    2TMC2    C714318   1.479   3.551  15.907  0.1045  0.2271 -0.0264
    2TMC2    C814319   1.439   3.169  16.212  0.4725 -0.0140  0.1271
    2TMC2    O114320   1.444   3.472  15.820  0.1261 -0.1194  0.0102
    2TMC2    O214321   1.472   3.114  16.315 -0.2156 -0.4901  0.3178
    2TMC2    O514322   1.314   3.157  16.157 -0.1317  0.4295  0.0300
    2TMC2    H514323   1.273   3.229  16.103 -0.1451  0.1971 -0.2697
    3MPD1     C14324   1.830   3.659  16.817  0.0878  0.6896  0.1078
    3MPD1    C114325   1.713   3.586  16.830 -0.0614  0.4961  0.0460
    3MPD1    C214326   1.649   3.570  16.709 -0.0881  0.1551 -0.2504
    3MPD1    C314327   1.695   3.615  16.586 -0.2353  0.2648  0.0893
    3MPD1    C414328   1.817   3.689  16.582 -0.3527 -0.3037 -0.2761
    3MPD1    C514329   1.877   3.711  16.698  0.7824  0.0298 -0.0662
    3MPD1     H14330   1.549   3.528  16.715 -0.2046  0.5451  0.5493
    3MPD1    H114331   1.866   3.730  16.494  1.5283  0.1295  0.9876
    3MPD1    H214332   1.868   3.685  16.914 -0.8310  0.1041  0.6243
    3MPD1    H314333   1.965   3.774  16.691  1.0986 -0.6255 -1.9782
    3MPD1     N14334   1.631   3.569  16.471  0.5918 -0.1766  0.1080
    3MPD1    H514335   1.556   3.502  16.485 -0.6845  0.8341 -1.9981
    3MPD1    N114336   1.658   3.564  16.955 -0.0366 -0.5704 -0.7211
    3MPD1    H614337   1.725   3.543  17.028  1.1984  1.9517 -1.1444
    3MPD1    H714338   1.592   3.486  16.960 -0.4178 -0.2465 -0.6565
    1TMC1    C114339   0.238   3.313  13.302 -0.1709 -0.4930  0.1576
    1TMC1    C214340   0.107   3.304  13.341  0.4938 -0.7357  0.3091
    1TMC1    C314341   0.019   3.321  13.237  0.6799 -0.1037 -0.0009
    1TMC1    C414342   0.291   3.334  13.173 -0.6376 -0.1887  0.2397
    1TMC1    C514343   0.189   3.352  13.081 -0.2546  0.0043 -0.2783
    1TMC1    C614344   0.060   3.330  13.108 -0.6635 -0.0370  0.3999
    1TMC1     C14345   0.335   3.323  13.412  0.3317  0.6883 -0.5744
    1TMC1     O14346   0.438   3.387  13.399 -0.3469  0.0355  0.6122
    1TMC1     H14347   0.065   3.337  13.435 -1.2046 -0.6503 -0.4834
    1TMC1    H114348   0.391   3.363  13.145  0.2079 -0.3652  3.1234
    1TMC1    H214349   4.728   3.338  13.026 -1.7267 -1.8397  1.1363
    1TMC1    C714350   0.229   3.393  12.952  0.1807  0.5505 -0.4477
    1TMC1    C814351   4.611   3.290  13.262 -0.5007 -0.1480  0.1797
    1TMC1    O114352   0.335   3.370  12.896 -0.2142 -0.0129  0.1272
    1TMC1    O214353   4.526   3.301  13.173 -0.4444  0.3314 -0.2698
    1TMC1    O314354   0.137   3.486  12.919 -0.3222  0.7281 -0.4059
    1TMC1    H314355   0.065   3.513  12.979 -0.4697  1.5773 -0.9642
    1TMC1    O514356   4.578   3.257  13.384 -0.1425  0.3917 -0.1306
    1TMC1    H514357   4.654   3.241  13.445  1.0342 -1.3435 -2.0366
    2MPD2     C14358   0.449   3.311  13.696 -0.0723 -0.0297  0.0842
    2MPD2    C114359   0.354   3.227  13.641 -0.2463  0.0502 -0.3396
    2MPD2    C214360   0.311   3.118  13.723  0.2922  0.2642 -0.6036
    2MPD2    C314361   0.358   3.101  13.852 -0.1737  0.2002  1.2057
    2MPD2    C414362   0.448   3.197  13.893  0.1592  0.4517  0.8619
    2MPD2    C514363   0.499   3.288  13.814 -0.3327  0.4698  0.8512
    2MPD2     H14364   0.238   3.050  13.680  0.7146 -0.6733  0.1798
    2MPD2    H114365   0.496   3.211  13.989  2.9669  0.9376 -0.6139
    2MPD2    H214366   0.493   3.388  13.634  0.3557  0.8264  1.4639
    2MPD2    H314367   0.570   3.361  13.852  1.0864  0.5065 -1.8771
    2MPD2     N14368   0.309   2.994  13.928  0.9557 -0.2380 -0.5985
    2MPD2    H514369   0.239   2.939  13.880  0.4721  0.6089 -0.8573
    2MPD2    N114370   0.298   3.243  13.515 -0.0028 -1.1083  0.2060
    2MPD2    H714371   0.214   3.186  13.504 -1.0710  0.6133 -0.6099
    3TCq1    O114372   0.087   2.474  14.047 -0.2802 -0.1839 -0.2321
    3TCq1    C114373   0.046   2.588  13.983 -0.2901  0.2950 -0.2987
    3TCq1    O214374   0.064   2.596  13.861 -0.3705  0.1235  0.1986
    3TCq1    C214375   0.086   2.695  14.073  0.0393 -0.5942  0.1876
    3TCq1    C314376   0.062   2.680  14.206 -0.3329  0.3007 -0.6086
    3TCq1    C414377   0.140   2.748  14.294 -0.2531  0.2386 -0.1977
    3TCq1    C514378   0.235   2.829  14.239 -0.4747  0.0602 -1.0732
    3TCq1    C614379   0.249   2.849  14.105  0.4533 -0.0855  0.0982
    3TCq1    C714380   0.177   2.776  14.019 -0.7684 -0.8662  0.6828
    3TCq1    C814381   0.337   2.958  14.058  0.3010  0.6116  1.1960
    3TCq1    O414382   0.420   3.005  14.133  0.3331 -0.5597 -0.3749
    3TCq1    C914383   0.120   2.746  14.438 -0.1696  0.1482 -0.3992
    3TCq1    O514384   0.025   2.675  14.480  0.0354 -0.4957 -0.3656
    3TCq1    O614385   0.215   2.793  14.503 -0.3653  0.0168 -0.0352
    3TCq1    H114386   0.058   2.463  14.140 -2.9848  0.5699 -0.9800
    3TCq1    H214387   4.716   2.623  14.242 -1.2081  1.5339 -0.7049
    3TCq1    H314388   0.298   2.883  14.309  0.4841 -2.5439  0.0383
    3TCq1    H414389   0.197   2.764  13.913 -2.2892 -0.6899  0.3712
    1MPD2     C14390   0.394   4.336  14.773  0.2937 -0.3497 -0.7990
    1MPD2    C114391   0.259   4.358  14.780 -0.1355  0.1873 -0.0034
    1MPD2    C214392   0.187   4.289  14.875 -0.1791 -0.4984  0.0013
    1MPD2    C314393   0.252   4.199  14.960  0.5252 -0.1620  0.1170
    1MPD2    C414394   0.388   4.182  14.955 -0.2476 -0.3666  0.0397
    1MPD2    C514395   0.464   4.249  14.861 -0.7831  0.0638  0.1777
    1MPD2     H14396   0.083   4.317  14.891 -0.8524 -1.6213 -2.4341
    1MPD2    H114397   0.443   4.121  15.025  2.6664  1.6453 -0.4869
    1MPD2    H214398   0.457   4.378  14.696  1.3139 -1.7588 -0.7254
    1MPD2    H314399   0.572   4.260  14.853 -0.3694 -3.1581  1.5859
    1MPD2     N14400   0.178   4.128  15.057 -0.1988  0.2044  0.3112
    1MPD2    H514401   0.236   4.084  15.127 -1.7088 -0.4634  1.1486
    1MPD2    N114402   0.213   4.460  14.691  0.3892 -0.0864 -0.9992
    1MPD2    H714403   0.280   4.517  14.640  1.2184 -0.1302  0.0630
    2TMC3    C114404   0.061   4.620  14.621 -0.3494 -0.0579 -0.7354
    2TMC3    C214405   4.671   4.651  14.622 -0.1454 -0.1282  0.9091
    2TMC3    C314406   4.627   0.037  14.657 -0.1824  0.4215  0.3236
    2TMC3    C414407   0.151   4.727  14.638  0.0730 -0.2409  0.4274
    2TMC3    C514408   0.107   0.120  14.648  0.0927  0.2934 -0.3991
    2TMC3    C614409   4.708   0.145  14.657  0.6353  0.6935  0.2783
    2TMC3     C14410   0.084   4.491  14.681 -0.4391  0.4762 -0.0403
    2TMC3     O14411   4.722   4.441  14.731  0.0946  0.2381 -0.8420
    2TMC3     H14412   4.595   4.574  14.618 -0.0021 -0.2071 -0.3254
    2TMC3    H114413   0.253   4.692  14.647 -0.3914 -1.3868  1.3184
    2TMC3    H214414   4.674   0.247  14.673 -1.0678  0.2714 -0.5836
    2TMC3    C714415   0.208   0.226  14.638 -0.3192  0.8993 -0.5386
    2TMC3    C814416   4.517   0.029  14.746 -0.1568  0.3548 -0.3473
    2TMC3    O114417   0.171   0.336  14.605 -0.0978 -0.0291  0.0033
    2TMC3    O214418   4.444   0.126  14.750 -0.2429  0.1768 -0.4250
    3TCq1    O114419   1.373   0.348  14.893 -0.1695 -0.3760 -0.0154
    3TCq1    C114420   1.332   0.341  15.020 -0.6983  0.6294 -0.3429
    3TCq1    O214421   1.386   0.386  15.115 -0.2302 -0.7082  0.0209
    3TCq1    C214422   1.202   0.282  15.019 -0.8531 -0.2293  0.1584
    3TCq1    C314423   1.159   0.237  15.140 -0.1500 -0.1300  0.3763
    3TCq1    C414424   1.026   0.212  15.156  0.2498 -0.5927  0.8305
    3TCq1    C514425   0.941   0.229  15.052 -0.1473 -0.7385  0.1041
    3TCq1    C614426   0.988   0.270  14.930 -0.3818  1.0860  0.6466
    3TCq1    C714427   1.118   0.302  14.910 -0.0986 -0.3535 -0.2371
    3TCq1    C814428   0.903   0.304  14.815 -0.2855 -0.5093  0.4007
    3TCq1    O414429   0.955   0.362  14.727 -0.1653  0.3004 -0.1377
    3TCq1    C914430   0.966   0.171  15.277 -0.3839  0.5126 -0.5210
    3TCq1    O514431   0.849   0.122  15.274 -0.4665 -0.5195  0.0308
    3TCq1    O614432   1.032   0.190  15.386  0.3289 -0.1195  0.3153
    3TCq1    H114433   1.330   0.277  14.839  0.4691 -1.4870  0.9438
    3TCq1    H214434   1.225   0.221  15.224 -1.8082 -1.3375  1.4405
    3TCq1    H314435   0.837   0.200  15.061 -0.9445  2.0393 -0.1296
    3TCq1    H414436   1.150   0.352  14.819  1.0265  0.5517  0.6509
    4MPD2     C14437   0.678   0.434  14.669 -1.2238 -0.2816  0.4321
    4MPD2    C114438   0.668   0.319  14.747  0.2424 -0.0902 -0.1815
    4MPD2    C214439   0.554   0.249  14.743 -0.3992  0.0334  0.7943
    4MPD2    C314440   0.445   0.283  14.666  0.4852 -0.2648 -0.0279
    4MPD2    C414441   0.449   0.393  14.584  0.1415 -0.0902  0.5590
    4MPD2    C514442   0.571   0.464  14.588 -0.9433  0.0927 -0.3091
    4MPD2     H14443   0.545   0.166  14.812 -3.3707  0.6605  1.1813
    4MPD2    H114444   0.374   0.415  14.510 -1.1545  2.1101  2.5394
    4MPD2    H214445   0.772   0.486  14.657 -2.0128  0.7693 -1.2432
    4MPD2    H314446   0.581   0.528  14.502 -1.9986 -0.0997 -0.5809
    4MPD2     N14447   0.341   0.191  14.660 -0.2277  0.2847  0.3223
    4MPD2    H514448   0.357   0.096  14.694 -3.0449  0.0911  1.1015
    4MPD2    N114449   0.766   0.271  14.834 -0.0203 -0.1373 -0.2232
    4MPD2    H714450   0.741   0.194  14.895  1.9067 -0.3186  0.3253
    5TMC2    C114451   4.542   4.165  15.316  0.4648 -0.6599 -0.5142
    5TMC2    C214452   4.618   4.212  15.418  0.5828 -0.1414 -0.8592
    5TMC2    C314453   0.013   4.199  15.413 -0.7112  0.2840 -0.5495
    5TMC2    C414454   4.606   4.101  15.212 -0.5065  0.1828  0.2788
    5TMC2    C514455   0.002   4.094  15.202  0.5533 -0.2272  0.0356
    5TMC2    C614456   0.079   4.144  15.303  0.1025 -0.1578 -0.1650
    5TMC2     C14457   4.443   4.264  15.271  0.0313  0.1719 -0.6271
    5TMC2     O14458   4.352   4.302  15.349  0.6619  0.0904  0.1878
    5TMC2     H14459   4.590   4.282  15.496 -0.8743 -0.3779 -1.1747
    5TMC2    H114460   4.549   4.072  15.124 -0.4598  0.3858  0.1836
    5TMC2    H214461   0.187   4.136  15.312  0.3183  0.0178 -2.5386
    5TMC2    C714462   0.039   4.129  15.067 -0.2468  0.2361  0.5478
    5TMC2    C814463   0.089   4.197  15.534  0.6747 -0.0343 -0.0995
    5TMC2    O114464   4.691   4.187  15.006  0.4882 -0.1975  0.5905
    5TMC2    O214465   0.209   4.210  15.534 -0.3109 -0.3006  0.4071
    5TMC2    O514466   0.023   4.103  15.597  0.1458  0.0446  1.0349
    5TMC2    H514467   4.667   4.099  15.570  1.0799  1.1793 -2.3612
    6MPD2     C14468   4.359   4.689  14.982 -0.2132 -0.6407 -0.1061
    6MPD2    C114469   4.467   4.614  14.939 -0.2671  0.5029 -0.1598
    6MPD2    C214470   4.508   4.494  15.002  0.5920 -0.1611 -0.6639
    6MPD2    C314471   4.448   4.450  15.114 -0.1553  0.0953 -0.5041
    6MPD2    C414472   4.326   4.520  15.147  0.6477  0.6757 -0.0847
    6MPD2    C514473   4.291   4.632  15.084  0.5535  0.0515  0.4871
    6MPD2     H14474   4.594   4.441  14.963  0.6368  0.2589 -1.1310
    6MPD2    H114475   4.272   4.486  15.234  0.2115 -0.4557 -0.7922
    6MPD2    H214476   4.312   0.041  14.945  2.8469  0.9302 -0.1241
    6MPD2    H314477   4.207   4.693  15.117  0.5822  0.4961 -0.2564
    6MPD2     N14478   4.503   4.336  15.172  0.4024 -0.2725  0.9462
    6MPD2    H514479   4.591   4.293  15.143 -0.3501  0.2821 -2.1827
    6MPD2    N114480   4.540   4.656  14.826 -0.4546  0.0406  0.0941
    6MPD2    H714481   4.621   4.603  14.796 -0.9369 -1.0755  0.7528
  945NH4     N114482   0.396   1.100  13.227 -0.4333  0.0113 -0.1447
  945NH4     H214483   0.408   1.020  13.293  1.8449 -2.0989 -3.1047
  945NH4     H314484   0.412   1.186  13.283  1.2335 -0.3493 -0.0657
  945NH4     H414485   0.295   1.095  13.204 -0.5350  0.4812  0.2088
  945NH4     H514486   0.459   1.086  13.146 -0.0160  0.3904  0.1151
  946SOD     NA14487   0.437   3.286   1.865  0.4319  0.2171  0.2111
  947SOD     NA14488   3.880   1.244  15.167  0.2326  0.3992 -0.3892
  948SOD     NA14489   0.405   3.223  12.738  0.2616  0.0977 -0.2337
  949SOD     NA14490   0.868   1.276  16.896 -0.1606 -0.1150 -0.0599
  950SOD     NA14491   0.973   3.685   7.283  0.2201  0.7082  0.0850
  951SOD     NA14492   0.485   2.772   6.609 -0.5129 -0.0884 -0.3752
  952SOD     NA14493   0.813   3.999  11.288 -0.2012  0.6709 -0.3595
  953SOL     OW14494   3.826   4.630   9.394  0.0780  0.0727  0.1888
  953SOL    HW114495   3.748   4.672   9.431 -2.4882 -0.1817 -4.9606
  953SOL    HW214496   3.890   4.669   9.453 -1.1701  1.2238  0.7831
  954SOL     OW14497   4.568   1.523   9.126 -0.2743  0.4036 -0.5590
  954SOL    HW114498   4.540   1.487   9.211 -1.0719  1.4899 -0.3587
  954SOL    HW214499   4.640   1.585   9.140 -0.0294  0.3067 -1.3985
  955SOL     OW14500   1.262   2.853   6.146 -0.1742  0.2607 -0.1000
  955SOL    HW114501   1.220   2.773   6.177 -1.1241  1.1123  0.7889
  955SOL    HW214502   1.353   2.825   6.133  0.3562  1.2616  1.4661
  956SOL     OW14503   0.949   1.422   4.974 -0.1665 -0.2620 -1.2175
  956SOL    HW114504   0.884   1.487   5.003  0.2880 -0.7247  0.8258
  956SOL    HW214505   0.976   1.382   5.056 -0.2285  0.3994 -0.8733
  957SOL     OW14506   4.355   0.789   5.524 -0.1350  0.1908  0.2075
  957SOL    HW114507   4.433   0.758   5.480 -1.4311 -1.7421 -0.7457
  957SOL    HW214508   4.286   0.783   5.458  0.7723 -0.4403 -0.6678
  958SOL     OW14509   2.724   1.498   2.158 -0.1118  0.3094 -0.3432
  958SOL    HW114510   2.661   1.488   2.086 -0.2577 -2.8017  0.2006
  958SOL    HW214511   2.689   1.580   2.192  1.2918 -0.1140  2.1806
  959SOL     OW14512   2.593   3.570  13.177  0.2425 -0.0213  0.3486
  959SOL    HW114513   2.605   3.566  13.272  1.7119  0.8938  0.2060
  959SOL    HW214514   2.583   3.481  13.143  0.5731 -0.1474  0.5886
  960SOL     OW14515   3.349   2.459   3.872 -0.2666 -0.1844  0.0527
  960SOL    HW114516   3.406   2.415   3.936  1.1476  1.1109 -0.3346
  960SOL    HW214517   3.412   2.502   3.815 -0.6655 -0.5180 -0.6290
  961SOL     OW14518   1.833   0.026   9.063  0.3046 -0.3336  0.3025
  961SOL    HW114519   1.842   4.670   9.052  0.3476 -0.1517 -1.2220
  961SOL    HW214520   1.823   0.056   8.972  0.0592 -0.6289  0.2331
  962SOL     OW14521   2.214   3.734   0.459 -0.3680 -0.5130  0.3599
  962SOL    HW114522   2.170   3.819   0.446  1.1433 -0.2516 -3.1550
  962SOL    HW214523   2.306   3.758   0.467  0.0316 -2.4931  1.4830
  963SOL     OW14524   1.143   2.591   0.917  0.4395 -0.3516  0.8890
  963SOL    HW114525   1.136   2.566   1.009 -0.7489  2.1258  1.4843
  963SOL    HW214526   1.083   2.531   0.873 -0.7902  1.5037  0.0247
  964SOL     OW14527   0.780   2.874   6.157 -0.6366  0.3452  0.3009
  964SOL    HW114528   0.855   2.878   6.098 -0.3528 -0.5513  0.5965
  964SOL    HW214529   0.771   2.964   6.187  2.3525  0.9259 -0.5741
  965SOL     OW14530   2.240   3.296   2.429  0.2917  0.2497 -0.4165
  965SOL    HW114531   2.229   3.241   2.351  1.1958  1.2901 -1.2735
  965SOL    HW214532   2.260   3.227   2.492 -0.1155  0.4234 -0.0987
  966SOL     OW14533   2.179   1.255  12.380 -0.0679 -0.1506  0.6088
  966SOL    HW114534   2.135   1.175  12.409 -0.9841  0.1738  0.1051
  966SOL    HW214535   2.270   1.227  12.381 -0.5403 -1.6554  2.3029
  967SOL     OW14536   2.142   3.124   3.367  0.2238  0.1609  0.2445
  967SOL    HW114537   2.188   3.136   3.450  1.6690 -1.0542 -0.3756
  967SOL    HW214538   2.192   3.056   3.323 -1.1952 -0.9374  0.3346
  968SOL     OW14539   2.884   0.291   4.494  0.1802  0.0463 -0.0320
  968SOL    HW114540   2.862   0.309   4.402  2.8245  2.1631 -0.2427
  968SOL    HW214541   2.908   0.199   4.495 -0.1997 -0.0851 -2.3174
  969SOL     OW14542   2.865   1.684   8.702 -0.0565 -0.3999 -0.1081
  969SOL    HW114543   2.886   1.592   8.686  2.6622  0.7457 -3.1685
  969SOL    HW214544   2.950   1.708   8.738 -0.7113 -1.0634  1.8710
  970SOL     OW14545   2.479   1.614   4.545 -0.0541 -0.4532  0.1118
  970SOL    HW114546   2.456   1.552   4.614 -1.9696  0.4150  0.2530
  970SOL    HW214547   2.454   1.562   4.468  1.7500 -1.6673  0.3481
  971SOL     OW14548   1.398   4.049  13.968  0.6404  0.6199  0.5370
  971SOL    HW114549   1.463   4.038  13.899  2.0773  1.8471  1.6905
  971SOL    HW214550   1.365   4.137  13.948  2.9241  1.3230 -0.1635
  972SOL     OW14551   0.926   2.039   5.216 -0.2622  0.0623  0.1058
  972SOL    HW114552   1.021   2.042   5.226  0.0889 -0.0320 -3.2863
  972SOL    HW214553   0.923   2.061   5.123  2.2134 -1.3241 -0.2985
  973SOL     OW14554   0.382   1.399   6.244 -0.1916  0.6769  0.2284
  973SOL    HW114555   0.473   1.369   6.241 -0.0630  0.9641  1.3423
  973SOL    HW214556   0.334   1.318   6.227  0.2174  0.6841 -0.9777
  974SOL     OW14557   4.448   2.189   0.414  0.1213 -0.1876  0.1096
  974SOL    HW114558   4.465   2.269   0.365  2.0829  0.2161  1.4341
  974SOL    HW214559   4.369   2.162   0.367  2.6159 -3.1835 -2.3740
  975SOL     OW14560   3.521   2.273   1.703 -0.1696  0.5332 -0.1006
  975SOL    HW114561   3.562   2.189   1.724 -5.2400 -2.0651 -0.5935
  975SOL    HW214562   3.599   2.327   1.707  1.1828 -1.4848  0.6268
  976SOL     OW14563   0.160   1.315  16.483  0.0387 -0.0074 -0.5429
  976SOL    HW114564   0.140   1.340  16.573 -0.1463 -1.2544 -0.2355
  976SOL    HW214565   0.247   1.354  16.469  0.4654 -0.4393  0.8601
  977SOL     OW14566   3.617   2.612   4.142 -0.1632 -0.5607 -0.7445
  977SOL    HW114567   3.615   2.644   4.052  1.1908  0.1905 -0.5246
  977SOL    HW214568   3.712   2.604   4.154 -0.2471 -0.4077  0.0324
  978SOL     OW14569   3.425   0.152   9.898  0.2538  0.2779  0.2629
  978SOL    HW114570   3.461   0.064   9.890  0.0005  0.1405  0.6066
  978SOL    HW214571   3.495   0.206   9.863 -0.4306  0.8749 -0.1783
  979SOL     OW14572   4.370   2.482   8.302 -0.1224 -0.4198 -0.3313
  979SOL    HW114573   4.368   2.500   8.396  1.3956  0.5213 -0.4805
  979SOL    HW214574   4.283   2.514   8.278 -0.4732 -1.7083 -0.7814
  980SOL     OW14575   0.613   2.929  11.920  0.1421  0.0760  0.4731
  980SOL    HW114576   0.643   2.870  11.851 -1.6557 -1.9388  1.4188
  980SOL    HW214577   0.520   2.909  11.917  0.4238 -1.0314 -0.5338
  981SOL     OW14578   2.174   0.409  14.695 -0.0703 -0.8625 -0.0092
  981SOL    HW114579   2.124   0.475  14.647  0.7426  0.2782  0.7058
  981SOL    HW214580   2.217   0.362  14.625 -0.5756  0.9474 -1.5432
  982SOL     OW14581   3.172   1.330   6.604  0.1275  0.2361  0.0095
  982SOL    HW114582   3.115   1.363   6.535  0.9605  1.0221 -0.3021
  982SOL    HW214583   3.256   1.317   6.562 -0.5563 -0.4165 -1.1503
  983SOL     OW14584   2.332   1.231   2.866  0.6675  0.1555 -0.1288
  983SOL    HW114585   2.289   1.250   2.783  2.4555 -3.4850 -1.9204
  983SOL    HW214586   2.424   1.240   2.840  0.5514  2.2876  0.2304
  984SOL     OW14587   1.534   0.880  13.115  0.4812 -0.2212 -0.1227
  984SOL    HW114588   1.612   0.825  13.105 -0.0663 -0.4387 -3.0861
  984SOL    HW214589   1.460   0.825  13.089 -0.9680  1.7202 -0.1019
  985SOL     OW14590   0.996   2.491   1.446  0.0857 -0.2096  0.4407
  985SOL    HW114591   1.013   2.398   1.435 -4.1022 -0.9976  0.6459
  985SOL    HW214592   0.964   2.511   1.358  0.3951  5.5584  1.5853
  986SOL     OW14593   3.883   2.531   1.635 -0.1496 -0.3044  0.3713
  986SOL    HW114594   3.918   2.617   1.610 -0.3339 -0.5961 -0.9282
  986SOL    HW214595   3.821   2.524   1.562  1.7577  0.7758 -1.3691
  987SOL     OW14596   0.925   2.041   9.290  0.5454 -0.1220 -0.3053
  987SOL    HW114597   0.857   2.107   9.279  2.6846  1.8335 -1.7635
  987SOL    HW214598   0.866   1.977   9.329  0.3799  0.6543  0.7139
  988SOL     OW14599   2.440   0.473   9.211  0.4610  0.7514 -0.4879
  988SOL    HW114600   2.518   0.417   9.218  0.0771  0.3280  0.3148
  988SOL    HW214601   2.366   0.413   9.198  0.6149  0.9057 -2.1630
  989SOL     OW14602   2.868   1.500  16.227  0.1772 -0.1529 -0.1542
  989SOL    HW114603   2.947   1.553  16.241  1.2864 -1.5734 -0.9732
  989SOL    HW214604   2.803   1.565  16.200 -0.3495  0.2413  2.0596
  990SOL     OW14605   2.649   3.455  17.030 -0.0476  0.1027 -0.7890
  990SOL    HW114606   2.717   3.397  16.995  0.3234  0.0611 -0.0079
  990SOL    HW214607   2.675   3.539  16.994  0.3044 -1.1028 -3.2961
  991SOL     OW14608   2.115   0.359  15.970 -0.1708 -0.4648  0.4083
  991SOL    HW114609   2.101   0.447  16.005 -0.0177  0.0408 -0.8029
  991SOL    HW214610   2.094   0.375  15.878 -1.3940  0.9945  0.9362
  992SOL     OW14611   2.368   1.370   7.707  0.4334  0.0068 -0.1294
  992SOL    HW114612   2.274   1.389   7.698  0.0704 -1.3205  0.9332
  992SOL    HW214613   2.399   1.461   7.706  2.6950 -0.7761  0.0839
  993SOL     OW14614   3.840   3.580   5.230 -0.1765 -0.6701 -0.3762
  993SOL    HW114615   3.761   3.570   5.283  0.3231 -0.1562  0.4749
  993SOL    HW214616   3.811   3.650   5.172 -2.1180 -0.7992  0.4260
  994SOL     OW14617   2.772   4.222   0.656 -1.0548 -0.4038 -0.5169
  994SOL    HW114618   2.745   4.193   0.744  1.7317 -0.2527  0.4125
  994SOL    HW214619   2.744   4.146   0.606  1.7905 -2.6362  1.3105
  995SOL     OW14620   0.963   3.216   3.805  0.6839 -0.5352 -0.0845
  995SOL    HW114621   0.960   3.185   3.896 -0.2970  2.9577  1.0592
  995SOL    HW214622   0.893   3.280   3.815  0.1094 -1.4198  1.7090
  996SOL     OW14623   3.389   1.626   8.322 -0.7602 -0.1976 -0.4723
  996SOL    HW114624   3.352   1.713   8.334  0.2102 -0.1681  2.5074
  996SOL    HW214625   3.455   1.651   8.258  0.1641 -0.8618  0.2129
  997SOL     OW14626   4.523   0.742   5.330 -0.1178 -0.6306  0.8087
  997SOL    HW114627   4.494   0.725   5.240  0.2406  0.9096  0.4031
  997SOL    HW214628   4.593   0.678   5.343  1.0359  0.7253  1.2044
  998SOL     OW14629   3.126   3.781  17.336  0.1534  0.1871 -0.2881
  998SOL    HW114630   3.198   3.725  17.309  0.3931  0.9181 -1.1740
  998SOL    HW214631   3.069   3.753  17.264 -2.0748 -0.1168  1.5645
  999SOL     OW14632   0.902   0.684  14.428 -0.2775 -0.1078  0.1487
  999SOL    HW114633   0.910   0.681  14.333  1.1486 -1.5887  0.3146
  999SOL    HW214634   0.808   0.705  14.428 -0.4687 -0.9864 -1.6218
 1000SOL     OW14635   3.100   1.023   1.897  0.6611  0.3244  0.1463
 1000SOL    HW114636   3.120   1.011   1.804  1.9766 -1.2682  0.6408
 1000SOL    HW214637   3.125   1.114   1.912 -1.1626  1.1618 -1.9182
 1001SOL     OW14638   1.606   0.373   2.032 -0.1346 -0.5996 -0.0317
 1001SOL    HW114639   1.631   0.287   2.067 -2.6189 -1.6319 -0.7584
 1001SOL    HW214640   1.692   0.412   2.018 -0.2759 -0.3598 -0.2328
 1002SOL     OW14641   4.374   3.657   1.443  0.1527  0.5201 -0.2250
 1002SOL    HW114642   4.425   3.584   1.478  0.3389  0.6295 -0.2686
 1002SOL    HW214643   4.336   3.618   1.365  0.9286  0.3377 -0.5066
 1003SOL     OW14644   1.954   3.007   2.670  0.4322  0.3742  0.2677
 1003SOL    HW114645   2.008   2.942   2.625 -0.3505  1.8719 -2.8150
 1003SOL    HW214646   1.880   3.004   2.610  0.6807  0.9945 -0.0742
 1004SOL     OW14647   3.717   1.619   9.608  0.5231 -0.2203 -0.3905
 1004SOL    HW114648   3.773   1.592   9.536  1.6022 -0.8634  0.7062
 1004SOL    HW214649   3.751   1.570   9.683 -5.5753 -0.6905  2.1140
 1005SOL     OW14650   4.166   4.037   3.781 -0.1077 -0.1444  0.2044
 1005SOL    HW114651   4.133   4.060   3.868 -0.7903 -1.4915  0.2907
 1005SOL    HW214652   4.156   4.122   3.737 -3.0480 -0.0275  1.0607
 1006SOL     OW14653   2.118   2.007  14.552 -0.2425 -0.2141  0.1553
 1006SOL    HW114654   2.039   1.953  14.552 -0.3309 -0.0783  1.1572
 1006SOL    HW214655   2.093   2.097  14.569  0.6082  0.2505 -1.0271
 1007SOL     OW14656   0.541   4.392   0.622  0.1902 -0.0199 -0.1437
 1007SOL    HW114657   0.539   4.370   0.529  2.3526 -1.3626  0.1096
 1007SOL    HW214658   0.636   4.384   0.632 -0.1637 -1.6170  2.0645
 1008SOL     OW14659   2.732   3.051  14.330 -0.0233  0.1056 -0.2739
 1008SOL    HW114660   2.810   3.106  14.322 -0.9880  1.7575  1.6975
 1008SOL    HW214661   2.681   3.078  14.406  0.3678 -1.3704  0.5186
 1009SOL     OW14662   2.660   2.976   3.448 -0.1927 -0.3119  0.2214
 1009SOL    HW114663   2.611   2.896   3.427  1.2976 -1.1222 -0.1553
 1009SOL    HW214664   2.735   2.944   3.497 -0.0239  0.2479  0.3258
 1010SOL     OW14665   3.657   4.227  12.478  0.0288 -0.0187  0.2438
 1010SOL    HW114666   3.577   4.185  12.447  2.1463 -2.6942 -1.5516
 1010SOL    HW214667   3.715   4.224  12.402 -0.8988 -0.3613 -0.4517
 1011SOL     OW14668   0.698   2.513  16.550 -0.3340  0.0170  0.0784
 1011SOL    HW114669   0.713   2.543  16.639 -2.3764 -1.2769  0.8498
 1011SOL    HW214670   0.752   2.577  16.505 -2.1709 -0.0725 -2.3081
 1012SOL     OW14671   1.182   3.518  15.158 -0.3524  0.4801 -0.3320
 1012SOL    HW114672   1.266   3.521  15.204 -0.2690 -1.1109 -0.3872
 1012SOL    HW214673   1.195   3.553  15.069  0.4763 -1.3306 -0.9281
 1013SOL     OW14674   0.351   1.444  15.542  0.4364 -0.3900  0.1922
 1013SOL    HW114675   0.435   1.452  15.589  1.2893 -1.5370 -1.1258
 1013SOL    HW214676   0.351   1.532  15.503 -0.3713 -0.9976 -1.1613
 1014SOL     OW14677   2.400   0.286   6.293  0.0056 -0.7849 -0.1561
 1014SOL    HW114678   2.419   0.194   6.274  0.4100 -0.2191 -2.5065
 1014SOL    HW214679   2.428   0.325   6.210  0.9022  0.4573  0.7403
 1015SOL     OW14680   2.530   2.216   2.312  0.7855  0.3571  0.3989
 1015SOL    HW114681   2.606   2.272   2.327  2.2439 -1.3696 -0.5215
 1015SOL    HW214682   2.493   2.251   2.231  1.2863  0.0190  0.0193
 1016SOL     OW14683   4.539   2.104   9.076 -0.3454 -0.6356  0.4345
 1016SOL    HW114684   4.559   2.196   9.057 -2.5773 -0.5386 -1.5209
 1016SOL    HW214685   4.588   2.063   9.004  1.2846  1.1457  0.5289
 1017SOL     OW14686   3.124   1.537   5.862 -0.1775  0.4541 -0.9935
 1017SOL    HW114687   3.150   1.456   5.906 -2.0236 -1.0085 -2.6089
 1017SOL    HW214688   3.072   1.502   5.790  0.8567 -2.3277 -0.3797
 1018SOL     OW14689   1.936   1.688   6.252 -0.4930 -0.0575 -0.5250
 1018SOL    HW114690   1.890   1.769   6.271 -1.7614 -1.1082  0.8789
 1018SOL    HW214691   1.866   1.622   6.250 -0.7696  0.2416 -0.8974
 1019SOL     OW14692   2.478   3.833  13.146 -0.2317 -0.2160  0.4299
 1019SOL    HW114693   2.522   3.748  13.151  3.9668  1.7577 -2.8747
 1019SOL    HW214694   2.419   3.811  13.073 -1.4120  1.3472  0.9259
 1020SOL     OW14695   4.535   4.405  10.832  0.6924  0.6633 -0.0548
 1020SOL    HW114696   4.526   4.495  10.802 -0.9407 -0.1626 -2.0027
 1020SOL    HW214697   4.533   4.358  10.749 -1.4130 -0.7846  0.8346
 1021SOL     OW14698   4.185   0.686   8.321  0.3615 -0.0715 -0.3022
 1021SOL    HW114699   4.109   0.643   8.361 -0.2701  0.4792 -0.9022
 1021SOL    HW214700   4.144   0.772   8.314  0.0170 -0.2516 -0.5410
 1022SOL     OW14701   2.655   2.603  12.987  0.6410 -0.4721  0.2006
 1022SOL    HW114702   2.737   2.578  13.029  0.4877 -2.8050 -0.8561
 1022SOL    HW214703   2.631   2.669  13.051 -0.9154 -0.2024 -0.6529
 1023SOL     OW14704   0.615   0.378  17.420  0.2735 -0.1611 -0.4796
 1023SOL    HW114705   0.657   0.433  17.486 -1.7832  0.1860  0.5477
 1023SOL    HW214706   0.529   0.396  17.459  1.0135 -1.4857  1.8004
 1024SOL     OW14707   3.246   0.381   6.973  0.2628  0.6893  0.2954
 1024SOL    HW114708   3.281   0.390   7.062 -0.7340 -0.0453  0.7528
 1024SOL    HW214709   3.216   0.291   6.974 -1.6390  1.3153 -1.4139
 1025SOL     OW14710   3.962   4.530   8.716  0.3569  0.7472 -0.0234
 1025SOL    HW114711   3.901   4.457   8.726 -1.2963  2.0661 -0.4159
 1025SOL    HW214712   4.036   4.470   8.724 -1.1435 -1.4079 -2.0585
 1026SOL     OW14713   0.053   2.252   6.076  0.2126 -0.0586 -0.0590
 1026SOL    HW114714   0.031   2.182   6.138 -1.0580 -0.3379 -0.8142
 1026SOL    HW214715   0.125   2.300   6.117 -1.7609  2.4636  0.4698
 1027SOL     OW14716   3.619   2.637   7.055 -0.0895 -0.8211  0.0924
 1027SOL    HW114717   3.714   2.630   7.058 -0.0269 -0.0067  0.0637
 1027SOL    HW214718   3.600   2.687   7.135 -1.2730  0.4697 -0.9926
 1028SOL     OW14719   0.010   2.793   7.678 -0.3919  0.2552  0.0631
 1028SOL    HW114720   0.018   2.729   7.749  2.5513 -0.3926 -0.8479
 1028SOL    HW214721   4.653   2.799   7.673 -0.0795  2.8249 -2.8954
 1029SOL     OW14722   2.863   3.835  16.294  0.0642 -0.0967 -0.0264
 1029SOL    HW114723   2.834   3.793  16.375 -0.7868  0.1703 -0.1858
 1029SOL    HW214724   2.854   3.760  16.236  0.3591  0.6645 -1.0514
 1030SOL     OW14725   2.385   2.498   3.117  0.0546 -0.4277  0.0238
 1030SOL    HW114726   2.304   2.548   3.126  0.7478  1.7583 -5.9816
 1030SOL    HW214727   2.373   2.464   3.028 -1.6409  0.4490 -0.0662
 1031SOL     OW14728   0.197   3.492   7.329  0.5546  0.5312 -0.5263
 1031SOL    HW114729   0.275   3.522   7.282  0.2280  1.0002 -0.7715
 1031SOL    HW214730   0.192   3.399   7.308 -1.4848  0.6969 -0.7427
 1032SOL     OW14731   4.638   1.477   4.951  0.5304  0.0629  0.0552
 1032SOL    HW114732   4.710   1.517   4.902  0.2340 -2.2249 -2.2413
 1032SOL    HW214733   4.683   1.451   5.032  2.6858 -1.6342 -1.6793
 1033SOL     OW14734   1.419   4.595   3.702  0.1612 -0.0705  0.2587
 1033SOL    HW114735   1.333   4.635   3.698 -2.3254 -5.2785  1.2988
 1033SOL    HW214736   1.464   4.644   3.633  3.9867 -3.4810  0.2737
 1034SOL     OW14737   1.838   1.689   0.082 -0.1279 -0.0906 -0.5459
 1034SOL    HW114738   1.871   1.756   0.143  0.1615 -0.4618 -0.2951
 1034SOL    HW214739   1.826   1.745   0.005 -1.1814 -0.3796 -0.5912
 1035SOL     OW14740   2.468   1.878  13.663 -0.4268  0.0810  0.1453
 1035SOL    HW114741   2.505   1.789  13.667 -0.5765  0.0784  1.2434
 1035SOL    HW214742   2.431   1.887  13.751 -2.1641 -1.2899 -0.4283
 1036SOL     OW14743   3.153   1.791   0.577  0.7293  0.1172 -0.3741
 1036SOL    HW114744   3.190   1.852   0.641  1.0043 -3.1689  2.5914
 1036SOL    HW214745   3.221   1.725   0.586  0.2158 -0.2938  0.4497
 1037SOL     OW14746   2.152   2.022   4.405 -0.3839  0.0809  0.6277
 1037SOL    HW114747   2.115   2.093   4.458 -1.3675  0.3401 -0.3970
 1037SOL    HW214748   2.131   2.051   4.316  3.2276 -1.3498 -0.6495
 1038SOL     OW14749   2.527   0.592  12.051  0.1151 -0.3135  0.0715
 1038SOL    HW114750   2.433   0.610  12.054  0.7395  2.9973 -0.3157
 1038SOL    HW214751   2.540   0.571  11.958  0.9960  0.7660 -0.0479
 1039SOL     OW14752   3.330   2.067   3.768 -0.3055 -0.0396  0.1197
 1039SOL    HW114753   3.351   2.097   3.856  0.9979  0.4287 -0.3528
 1039SOL    HW214754   3.263   2.004   3.795  0.4239  0.3603  2.8136
 1040SOL     OW14755   0.388   1.295   5.640 -0.7061 -0.4822 -0.6942
 1040SOL    HW114756   0.433   1.226   5.689 -1.7392 -0.1601  0.7036
 1040SOL    HW214757   0.305   1.312   5.686  0.4040 -0.7775  1.4180
 1041SOL     OW14758   0.389   1.074  15.560  0.4701 -0.0984 -0.2444
 1041SOL    HW114759   0.350   1.021  15.491  0.5000  0.6264 -0.8181
 1041SOL    HW214760   0.442   1.008  15.605 -0.2136 -1.3451 -1.2594
 1042SOL     OW14761   4.118   0.054   5.228  0.5386  0.0550  0.0414
 1042SOL    HW114762   4.122   0.146   5.201  0.2319  0.4289  1.2588
 1042SOL    HW214763   4.025   0.037   5.244  0.8497 -0.1012  1.6747
 1043SOL     OW14764   3.824   0.251   7.709 -0.1548 -0.1182 -0.3100
 1043SOL    HW114765   3.772   0.199   7.648  0.0028  1.5061 -1.8138
 1043SOL    HW214766   3.883   0.299   7.651  1.8721  0.4330  2.2263
 1044SOL     OW14767   2.677   2.664   7.170 -0.3520 -0.2081 -0.3177
 1044SOL    HW114768   2.738   2.681   7.242  0.0457 -0.7355 -0.5287
 1044SOL    HW214769   2.736   2.616   7.111 -1.6575 -0.8605 -1.0952
 1045SOL     OW14770   1.990   1.797   9.412 -0.6276 -0.1788 -0.2823
 1045SOL    HW114771   1.931   1.859   9.368 -2.3067 -2.0358 -0.6788
 1045SOL    HW214772   2.069   1.810   9.360 -0.5802 -0.0922 -0.1889
 1046SOL     OW14773   4.720   3.549   4.717 -0.1198  0.2173 -0.0834
 1046SOL    HW114774   4.646   3.521   4.662 -0.0101  0.2298 -0.2382
 1046SOL    HW214775   4.683   3.634   4.738 -0.0067 -0.1391  1.5545
 1047SOL     OW14776   3.381   1.838   7.805  0.2511  0.3672 -0.2040
 1047SOL    HW114777   3.409   1.916   7.757  1.3606 -0.6424 -1.1913
 1047SOL    HW214778   3.461   1.788   7.791  0.4286  0.5417  0.1798
 1048SOL     OW14779   0.711   0.654   2.346 -0.2738  0.1609 -0.1150
 1048SOL    HW114780   0.763   0.655   2.426 -1.6082  1.6304  0.7315
 1048SOL    HW214781   0.654   0.580   2.368  1.9974 -1.3406  0.7083
 1049SOL     OW14782   4.601   2.474  15.939  0.6611  0.4710  0.1805
 1049SOL    HW114783   4.604   2.567  15.916  0.7947  0.2612 -0.6382
 1049SOL    HW214784   4.532   2.452  15.877  1.9378 -1.4935 -0.5515
 1050SOL     OW14785   0.849   3.734   3.822  0.1162  0.0670 -0.5024
 1050SOL    HW114786   0.773   3.779   3.859  0.7911  1.9483 -1.4008
 1050SOL    HW214787   0.870   3.779   3.740  0.6527  0.3450 -0.2139
 1051SOL     OW14788   1.686   1.195   8.742 -0.2986  0.1125  0.4754
 1051SOL    HW114789   1.777   1.221   8.752  0.3810 -2.9061  2.0674
 1051SOL    HW214790   1.693   1.101   8.758  0.2663  0.1251  0.2980
 1052SOL     OW14791   3.632   1.484  16.828 -0.2330 -0.2966 -0.2532
 1052SOL    HW114792   3.595   1.396  16.821  1.7327 -1.0933 -0.7364
 1052SOL    HW214793   3.593   1.526  16.751 -1.1058  0.0081  0.3538
 1053SOL     OW14794   1.810   1.620   9.766  0.1457 -0.6502  0.1617
 1053SOL    HW114795   1.748   1.693   9.758  0.2731 -0.6125 -0.4745
 1053SOL    HW214796   1.794   1.564   9.690  4.6254 -0.9721 -0.5204
 1054SOL     OW14797   0.244   0.516   1.503  0.0535 -0.0129  0.2904
 1054SOL    HW114798   0.275   0.428   1.527 -0.7013 -0.3853 -0.0774
 1054SOL    HW214799   0.319   0.571   1.523 -0.5444  1.0955 -0.4873
 1055SOL     OW14800   0.714   0.656   7.671  0.1035 -0.6704 -1.1964
 1055SOL    HW114801   0.768   0.717   7.620 -1.2479  0.5718 -1.1472
 1055SOL    HW214802   0.708   0.590   7.602 -0.9793  0.0549 -1.7940
 1056SOL     OW14803   0.287   4.679  12.551 -0.2549  0.1715  0.1182
 1056SOL    HW114804   0.344   4.612  12.588 -0.5093  0.2688  0.6888
 1056SOL    HW214805   0.337   4.705  12.474 -1.6606  0.1847 -0.7996
 1057SOL     OW14806   4.718   3.571   2.354  0.5930 -0.4082 -0.1988
 1057SOL    HW114807   4.709   3.510   2.281  0.4532 -0.9796  0.2958
 1057SOL    HW214808   4.638   3.621   2.341  0.6664 -0.7538 -1.9315
 1058SOL     OW14809   2.941   1.139   4.611 -0.4160 -0.3192 -0.6697
 1058SOL    HW114810   2.920   1.225   4.649 -0.4386 -0.4993 -0.2806
 1058SOL    HW214811   2.868   1.129   4.549  0.1244  1.1386 -1.5602
 1059SOL     OW14812   3.123   0.462   3.325  0.0299  0.5906  0.0540
 1059SOL    HW114813   3.063   0.389   3.319 -1.5974  2.0222 -1.0443
 1059SOL    HW214814   3.195   0.425   3.377 -0.7722  1.2914  1.6885
 1060SOL     OW14815   3.222   0.013   5.869  0.5225 -0.6426  0.6183
 1060SOL    HW114816   3.140   0.063   5.870  1.1314  0.3540 -1.2416
 1060SOL    HW214817   3.240   0.027   5.776  3.2587 -0.3699  1.2199
 1061SOL     OW14818   1.005   4.643  17.667  0.3796  0.7900 -0.1276
 1061SOL    HW114819   0.995   4.576  17.600  0.1586 -0.7162  1.4150
 1061SOL    HW214820   0.973   4.579  17.731  1.1417 -1.7516 -2.3005
 1062SOL     OW14821   0.575   3.466   4.189  0.0010  0.4997  0.2078
 1062SOL    HW114822   0.505   3.524   4.221  0.2945  0.5705  0.7170
 1062SOL    HW214823   0.543   3.388   4.234 -0.2961 -0.0123 -0.8870
 1063SOL     OW14824   1.876   2.929  11.756 -0.4964 -0.1266  0.5287
 1063SOL    HW114825   1.880   2.869  11.831  1.9472  0.9927  1.2900
 1063SOL    HW214826   1.962   2.970  11.761 -0.7857  0.4807  0.4655
 1064SOL     OW14827   2.493   1.028   2.521  0.3825  0.2962  0.4740
 1064SOL    HW114828   2.501   1.002   2.613  0.8680  1.4101  0.7504
 1064SOL    HW214829   2.512   1.122   2.522 -1.8830  0.7531  0.3082
 1065SOL     OW14830   0.190   2.899   4.334 -0.1490 -0.3435 -0.2420
 1065SOL    HW114831   0.122   2.955   4.297 -0.2453 -0.5698 -0.4054
 1065SOL    HW214832   0.193   2.812   4.295 -0.7955 -0.2581 -0.4870
 1066SOL     OW14833   2.973   1.477   5.636 -0.2179 -0.2620 -0.3873
 1066SOL    HW114834   2.917   1.416   5.682  2.1851 -1.6884  0.6629
 1066SOL    HW214835   2.999   1.437   5.552  1.0851 -1.3555  0.5357
 1067SOL     OW14836   1.120   1.014   6.592  0.2072 -0.2116  0.3630
 1067SOL    HW114837   1.047   0.976   6.640  0.1280  0.0740  0.4705
 1067SOL    HW214838   1.165   1.048   6.670  0.2946  2.0867 -0.6852
 1068SOL     OW14839   2.025   0.041   3.979  0.2079  0.7686 -0.6159
 1068SOL    HW114840   1.991   0.000   4.059 -0.6614 -0.4844 -1.6241
 1068SOL    HW214841   1.944   0.064   3.934  0.8802 -1.0043 -2.7557
 1069SOL     OW14842   2.295   2.604   1.825  0.6918  0.3960  0.1172
 1069SOL    HW114843   2.207   2.567   1.821  0.7001  0.2270  1.5967
 1069SOL    HW214844   2.342   2.524   1.802 -1.0855 -0.9854  1.2635
 1070SOL     OW14845   0.601   3.442   2.552  0.4014 -0.1202 -0.1272
 1070SOL    HW114846   0.635   3.510   2.610  0.2507 -1.1643  1.1888
 1070SOL    HW214847   0.519   3.440   2.600 -0.0385  1.6800 -0.7944
 1071SOL     OW14848   1.720   0.843  14.528  0.9069 -0.7726  0.0828
 1071SOL    HW114849   1.787   0.903  14.496 -1.2702  0.1280 -2.7627
 1071SOL    HW214850   1.727   0.762  14.478 -0.5805 -0.6962 -0.2514
 1072SOL     OW14851   2.920   3.981   3.338 -0.2587  0.3330 -0.5306
 1072SOL    HW114852   2.936   3.938   3.422  1.4981 -1.7333 -1.9265
 1072SOL    HW214853   2.827   3.970   3.321 -0.4596 -1.9313  2.0251
 1073SOL     OW14854   0.084   2.609   6.293  0.3514  0.0631  0.8016
 1073SOL    HW114855   0.151   2.557   6.248  0.9363 -0.4537  2.2536
 1073SOL    HW214856   0.004   2.559   6.280  0.4958  0.0928 -0.2022
 1074SOL     OW14857   0.230   0.407   0.647  0.0138 -0.1223  0.2728
 1074SOL    HW114858   0.192   0.339   0.702 -0.8728 -0.5300 -0.8453
 1074SOL    HW214859   0.295   0.369   0.588 -0.0789 -0.0637  0.1318
 1075SOL     OW14860   2.912   2.864   4.904 -0.0459  0.4375 -0.2024
 1075SOL    HW114861   2.998   2.905   4.904 -0.3597  1.0715  1.8370
 1075SOL    HW214862   2.936   2.772   4.915  1.2371  0.9612  1.4238
 1076SOL     OW14863   3.268   3.446   4.763  0.7386 -0.0602 -0.2014
 1076SOL    HW114864   3.181   3.466   4.797 -0.1664 -1.0693 -1.8943
 1076SOL    HW214865   3.298   3.389   4.834  1.2039 -1.4001 -1.4461
 1077SOL     OW14866   4.690   0.214  17.425  0.4540 -0.1948  0.0887
 1077SOL    HW114867   4.669   0.276  17.355 -2.5507 -1.2934  0.0324
 1077SOL    HW214868   0.047   0.226  17.423  0.4624 -0.4838 -1.2814
 1078SOL     OW14869   2.122   3.950   9.517  0.0569 -0.2056  0.5867
 1078SOL    HW114870   2.072   3.887   9.568 -1.2908 -0.1009 -0.5988
 1078SOL    HW214871   2.089   4.035   9.545  0.0980  0.4346 -1.2969
 1079SOL     OW14872   3.250   4.284   2.458  0.3172 -0.0662 -0.6993
 1079SOL    HW114873   3.311   4.326   2.518  0.3470 -0.7715 -0.2282
 1079SOL    HW214874   3.225   4.360   2.406 -0.3420 -0.1107 -0.4474
 1080SOL     OW14875   2.103   0.886   6.588 -0.3437  0.3179 -0.3769
 1080SOL    HW114876   2.170   0.818   6.593 -1.1122 -0.3514  0.9149
 1080SOL    HW214877   2.138   0.943   6.656  0.2502  1.3956 -1.5823
 1081SOL     OW14878   3.462   1.872   5.037  0.5713  0.2209 -0.2126
 1081SOL    HW114879   3.430   1.938   5.098 -0.8502  2.1104 -2.9867
 1081SOL    HW214880   3.534   1.923   4.998  2.0806 -0.4130  1.7368
 1082SOL     OW14881   0.644   4.632   2.492  0.0766 -0.1755 -0.4624
 1082SOL    HW114882   0.712   4.622   2.426  1.0869 -0.4251  0.6138
 1082SOL    HW214883   0.696   4.647   2.570 -1.0704  0.3722  0.2023
 1083SOL     OW14884   2.893   2.123   7.594 -0.5016  0.1921  0.2378
 1083SOL    HW114885   2.884   2.108   7.688 -2.2316  3.3664  0.5897
 1083SOL    HW214886   2.971   2.177   7.589 -0.9591  1.1023  2.6008
 1084SOL     OW14887   4.098   1.296   4.875  0.4468  1.0594 -0.1101
 1084SOL    HW114888   4.158   1.275   4.803 -0.2026  1.4483 -0.7609
 1084SOL    HW214889   4.166   1.329   4.934  0.0242 -3.1495  2.6729
 1085SOL     OW14890   2.372   4.287   7.142 -0.1892  0.3716  0.3055
 1085SOL    HW114891   2.396   4.333   7.062  0.2938 -0.3285  0.0417
 1085SOL    HW214892   2.462   4.274   7.171  0.4837  2.0883 -1.0459
 1086SOL     OW14893   3.969   4.498  13.798 -0.0254  0.7587  0.1570
 1086SOL    HW114894   3.919   4.574  13.767  0.0717  0.0949 -1.6479
 1086SOL    HW214895   3.919   4.459  13.870 -0.3620  1.0918  0.1052
 1087SOL     OW14896   1.144   3.223   3.071 -0.7736  0.7713 -0.1869
 1087SOL    HW114897   1.081   3.291   3.045  0.0976  1.3776 -0.7043
 1087SOL    HW214898   1.194   3.265   3.141 -1.9759  1.9299 -0.0134
 1088SOL     OW14899   2.206   2.287   7.895 -0.2658 -0.2952  0.9309
 1088SOL    HW114900   2.159   2.204   7.907 -0.1487 -0.4585  0.2394
 1088SOL    HW214901   2.188   2.299   7.802  1.7272 -1.0733  0.4363
 1089SOL     OW14902   0.054   2.506   9.318 -0.6461 -0.0614  0.4514
 1089SOL    HW114903   0.116   2.560   9.269 -0.7071  1.0759  1.6460
 1089SOL    HW214904   0.102   2.478   9.396  0.2063 -0.5339 -0.2306
 1090SOL     OW14905   4.203   1.040   7.968 -0.2710  0.0230  0.4077
 1090SOL    HW114906   4.180   1.103   8.037  1.8946  0.0927  1.0481
 1090SOL    HW214907   4.290   1.014   7.997 -0.8416  0.5917  2.6261
 1091SOL     OW14908   4.602   1.608  13.887 -0.3709 -0.2027 -0.2430
 1091SOL    HW114909   4.596   1.534  13.827 -0.1557  0.9650 -1.7027
 1091SOL    HW214910   4.685   1.593  13.931 -0.7487  0.9974  0.8891
 1092SOL     OW14911   0.099   0.784  15.790  0.2436  0.0602 -0.3219
 1092SOL    HW114912   0.147   0.702  15.802  0.8642  0.9729  3.2804
 1092SOL    HW214913   0.131   0.816  15.705 -0.6067  1.6603 -0.0460
 1093SOL     OW14914   2.856   3.022   1.538 -0.6939 -0.2422  0.3871
 1093SOL    HW114915   2.834   3.028   1.445 -2.4986 -1.1844  0.7508
 1093SOL    HW214916   2.879   2.931   1.558  0.3327  0.7691  3.8283
 1094SOL     OW14917   0.835   1.142  16.265  0.0900 -0.0377 -0.0733
 1094SOL    HW114918   0.806   1.233  16.256  0.4337 -0.0951 -1.7596
 1094SOL    HW214919   0.914   1.158  16.316  0.0391 -2.2528  0.6762
 1095SOL     OW14920   4.318   0.413   5.501 -0.0329  0.7374  0.2328
 1095SOL    HW114921   4.323   0.473   5.427 -0.2859 -0.0476 -0.4238
 1095SOL    HW214922   4.287   0.330   5.464  0.6042 -0.0277  1.4110
 1096SOL     OW14923   4.274   4.528   8.641  0.0342 -0.1775  0.7683
 1096SOL    HW114924   4.342   4.585   8.605 -2.3554  1.2297 -1.5216
 1096SOL    HW214925   4.300   4.438   8.618 -1.0802 -0.3938  0.3765
 1097SOL     OW14926   2.401   2.755   2.595 -0.0576 -0.5622  0.2417
 1097SOL    HW114927   2.434   2.737   2.683  0.8779  2.3281  0.4674
 1097SOL    HW214928   2.460   2.825   2.568  0.2011 -0.7472  0.3234
 1098SOL     OW14929   0.526   2.767   9.203 -0.0280 -0.5040 -0.3383
 1098SOL    HW114930   0.571   2.775   9.119  1.4650 -0.5496  0.4589
 1098SOL    HW214931   0.593   2.724   9.256  1.5449  2.2320 -0.1078
 1099SOL     OW14932   1.633   0.227   7.643  0.0267  0.2156 -0.2980
 1099SOL    HW114933   1.719   0.239   7.603  0.6960 -0.1980  1.0409
 1099SOL    HW214934   1.641   0.152   7.701 -0.2096  0.0199 -0.5174
 1100SOL     OW14935   2.745   2.501  10.705 -0.1832  0.5195  0.6276
 1100SOL    HW114936   2.736   2.552  10.785  1.5098  0.2032  1.0174
 1100SOL    HW214937   2.688   2.425  10.718  0.1251 -0.1631 -1.9964
 1101SOL     OW14938   4.386   0.677   6.021  0.0115  0.1060 -0.5376
 1101SOL    HW114939   4.335   0.750   6.058 -2.2834 -1.1264 -1.3024
 1101SOL    HW214940   4.328   0.631   5.961  1.2897 -0.2531 -1.5158
 1102SOL     OW14941   0.125   1.808   9.311 -0.2159  0.5141  0.2410
 1102SOL    HW114942   0.212   1.847   9.319 -0.6084  1.6567 -0.9160
 1102SOL    HW214943   0.065   1.878   9.338  0.2224  0.4441  1.3610
 1103SOL     OW14944   4.465   3.000   4.317  0.2295  0.9417 -0.0620
 1103SOL    HW114945   4.426   2.962   4.396 -1.2252 -1.6488 -2.0194
 1103SOL    HW214946   4.408   2.976   4.243 -0.9206 -1.6263  1.6463
 1104SOL     OW14947   1.793   1.428   6.560  1.0238 -0.3396  0.2809
 1104SOL    HW114948   1.811   1.378   6.480  0.4087 -0.9247  0.5029
 1104SOL    HW214949   1.880   1.464   6.577  1.2850 -1.4721  1.3640
 1105SOL     OW14950   1.063   2.235   2.840 -0.2488 -0.2884  0.1424
 1105SOL    HW114951   1.081   2.206   2.751  0.2251  0.7849 -0.1036
 1105SOL    HW214952   1.098   2.323   2.848 -0.5302 -0.1513 -0.1241
 1106SOL     OW14953   3.163   4.001  17.530  0.1023 -0.4910 -0.7546
 1106SOL    HW114954   3.160   3.928  17.468 -1.5616 -0.6435 -0.4891
 1106SOL    HW214955   3.076   4.010  17.568 -0.0112 -2.1537 -0.6387
 1107SOL     OW14956   2.132   3.935   8.119 -0.4544  0.3891 -0.2103
 1107SOL    HW114957   2.142   3.995   8.193 -0.6784 -0.8042  0.7696
 1107SOL    HW214958   2.054   3.887   8.146  0.3159  0.1889  1.5964
 1108SOL     OW14959   2.668   1.279   7.304 -0.2010 -0.5237 -0.1224
 1108SOL    HW114960   2.651   1.329   7.385 -0.0336 -1.7297  0.6540
 1108SOL    HW214961   2.623   1.334   7.240 -0.7089 -1.3720 -0.4957
 1109SOL     OW14962   2.165   3.682  15.173 -0.1475  0.3885 -0.0857
 1109SOL    HW114963   2.122   3.745  15.115  0.5864  0.5049 -0.5063
 1109SOL    HW214964   2.216   3.747  15.222  2.4212 -1.5448 -0.2019
 1110SOL     OW14965   1.207   3.837  17.065  0.1184 -0.3637 -0.4003
 1110SOL    HW114966   1.172   3.827  16.977 -2.0054  1.0258  0.2713
 1110SOL    HW214967   1.298   3.807  17.059  0.5941  1.0668 -0.4845
 1111SOL     OW14968   2.275   1.085   6.871 -0.1207  0.6101 -0.9165
 1111SOL    HW114969   2.364   1.119   6.883  0.7644 -2.2004  0.3913
 1111SOL    HW214970   2.299   0.994   6.888 -3.2423  0.2785  1.7452
 1112SOL     OW14971   0.568   4.016   6.353  0.1675  0.6375 -0.9165
 1112SOL    HW114972   0.495   3.958   6.371 -0.1310  1.9932  2.1325
 1112SOL    HW214973   0.519   4.094   6.379 -0.4624  0.1660 -0.7031
 1113SOL     OW14974   1.495   3.153  14.755 -0.3318 -0.4912 -0.1401
 1113SOL    HW114975   1.418   3.207  14.768  0.4946  1.0649 -1.7690
 1113SOL    HW214976   1.482   3.096  14.679 -1.6223 -1.5108  0.8486
 1114SOL     OW14977   1.687   1.040   2.670  0.0580  0.8029  0.3522
 1114SOL    HW114978   1.666   1.131   2.650 -1.3259  0.5717  0.7664
 1114SOL    HW214979   1.634   0.991   2.607  0.8976  0.2792  0.0524
 1115SOL     OW14980   2.428   2.776   6.553  0.3496 -0.1032 -0.1812
 1115SOL    HW114981   2.413   2.744   6.464 -0.1866 -1.2185  0.3148
 1115SOL    HW214982   2.404   2.695   6.598 -1.0451 -0.1411 -0.9710
 1116SOL     OW14983   0.665   0.104  17.113  0.2104 -0.7792  0.3527
 1116SOL    HW114984   0.698   0.071  17.197  1.4312 -0.8514 -0.1514
 1116SOL    HW214985   0.699   0.194  17.118 -0.6168 -0.3745 -1.3951
 1117SOL     OW14986   2.857   0.708  13.127  0.0670 -0.0307  0.2313
 1117SOL    HW114987   2.905   0.626  13.114  0.3824 -0.0947  1.7964
 1117SOL    HW214988   2.800   0.699  13.050  1.2061  1.2087 -0.7529
 1118SOL     OW14989   2.904   2.319   5.936  0.5118 -0.2273 -0.5085
 1118SOL    HW114990   2.833   2.261   5.907 -0.8567  0.7652  0.8579
 1118SOL    HW214991   2.876   2.411   5.925 -1.2236 -1.0858 -3.4530
 1119SOL     OW14992   2.928   1.529   3.437 -0.5087  0.2056  0.1744
 1119SOL    HW114993   2.958   1.547   3.526  0.1581 -0.5957  0.1122
 1119SOL    HW214994   2.842   1.489   3.453 -0.8135  1.2880  1.2407
 1120SOL     OW14995   3.298   4.644  10.231 -0.2900  0.0453 -0.0375
 1120SOL    HW114996   3.335   4.703  10.297 -0.3789 -1.7631  1.6358
 1120SOL    HW214997   3.287   4.564  10.282 -0.5818  0.0557 -0.0800
 1121SOL     OW14998   1.357   2.051   4.547  0.1653 -0.5940  0.4430
 1121SOL    HW114999   1.412   2.127   4.527  0.6304 -1.1767 -0.5460
 1121SOL    HW215000   1.278   2.073   4.497  0.8726  2.2548  0.6238
 1122SOL     OW15001   4.724   0.562   5.424 -0.0455  0.4385  0.0190
 1122SOL    HW115002   0.074   0.545   5.457 -0.5584  0.6734  1.4971
 1122SOL    HW215003   4.682   0.486   5.465  2.1553 -1.2274 -0.7761
 1123SOL     OW15004   1.079   1.027   7.778 -0.2068  0.3605 -0.0194
 1123SOL    HW115005   1.151   0.990   7.831 -0.3844 -0.6043 -0.4458
 1123SOL    HW215006   1.024   0.951   7.759 -0.4176  0.7879 -1.1293
 1124SOL     OW15007   3.770   1.405   4.102 -0.5103  0.1542 -0.3810
 1124SOL    HW115008   3.802   1.433   4.188 -0.2180 -1.9363  0.1865
 1124SOL    HW215009   3.851   1.411   4.053  0.1948  0.5467  0.8171
 1125SOL     OW15010   4.076   2.765  12.473  0.3318 -0.0562  0.0673
 1125SOL    HW115011   4.169   2.751  12.491  0.1099  0.4459  1.6392
 1125SOL    HW215012   4.037   2.685  12.437 -1.7598  0.5893  0.8819
 1126SOL     OW15013   3.628   2.264   5.704 -0.5201  0.1817 -0.3306
 1126SOL    HW115014   3.716   2.298   5.685 -0.7850  1.4978  0.7846
 1126SOL    HW215015   3.629   2.283   5.797 -0.0544 -1.6050  0.0297
 1127SOL     OW15016   3.283   0.997   8.887  0.7464 -0.5599  0.0426
 1127SOL    HW115017   3.237   0.933   8.833 -2.4159 -0.2628  2.3646
 1127SOL    HW215018   3.282   0.961   8.976  0.6643 -1.1110 -0.1798
 1128SOL     OW15019   2.552   1.536   5.810 -0.3659 -0.0409  0.1209
 1128SOL    HW115020   2.598   1.506   5.732 -1.2668 -1.2754  0.0650
 1128SOL    HW215021   2.502   1.604   5.764 -0.4227  0.1720  0.4929
 1129SOL     OW15022   4.708   3.938  10.332  0.0482  0.3072 -0.2279
 1129SOL    HW115023   4.711   3.842  10.328  2.0719  0.4532 -2.1952
 1129SOL    HW215024   0.056   3.949  10.371  1.3805 -1.1693 -2.8496
 1130SOL     OW15025   0.590   4.585  17.043 -0.1021 -0.0114  0.2637
 1130SOL    HW115026   0.542   4.533  17.107  0.0996 -0.9122 -0.3170
 1130SOL    HW215027   0.583   4.676  17.074  3.8491 -0.2150  1.6906
 1131SOL     OW15028   1.888   4.421   7.627  0.2610  0.4782 -0.0687
 1131SOL    HW115029   1.906   4.515   7.623  2.0470  0.1966  1.6021
 1131SOL    HW215030   1.977   4.390   7.610 -1.2151 -3.2002 -1.0548
 1132SOL     OW15031   3.279   4.596   3.830  0.4632  0.1174  0.3152
 1132SOL    HW115032   3.234   4.658   3.888  1.7714 -0.3399  1.8205
 1132SOL    HW215033   3.246   4.629   3.746  1.0481 -0.9106 -0.3050
 1133SOL     OW15034   4.214   2.361   7.139 -0.3728  1.0180  0.4742
 1133SOL    HW115035   4.303   2.327   7.141 -1.3285 -1.5245  0.2185
 1133SOL    HW215036   4.228   2.428   7.206 -1.9375 -0.0478  1.8533
 1134SOL     OW15037   2.237   2.339  12.722 -0.1309  0.2525  0.3793
 1134SOL    HW115038   2.213   2.391  12.646 -0.8579  1.7123  1.6167
 1134SOL    HW215039   2.221   2.401  12.792 -1.1665 -0.2406  0.5750
 1135SOL     OW15040   2.020   2.646   9.409 -0.3859 -0.4115 -0.1048
 1135SOL    HW115041   2.021   2.664   9.503  2.4169  0.7075 -0.3602
 1135SOL    HW215042   2.106   2.604   9.403 -0.3653 -0.2871 -0.6736
 1136SOL     OW15043   0.322   0.733  12.917 -0.1090 -0.5969  0.3774
 1136SOL    HW115044   0.303   0.744  13.010 -0.0294 -1.3389  0.4795
 1136SOL    HW215045   0.361   0.646  12.922  1.3030 -0.1466 -2.4715
 1137SOL     OW15046   1.400   4.483   6.146 -0.4149 -1.0389  0.3405
 1137SOL    HW115047   1.374   4.518   6.231  0.4635  0.9714 -0.2339
 1137SOL    HW215048   1.404   4.559   6.088 -1.1240 -1.3656 -0.1452
 1138SOL     OW15049   0.790   1.842   9.442 -0.6036 -0.7269 -0.2913
 1138SOL    HW115050   0.798   1.752   9.413  0.2419 -0.5551 -0.5831
 1138SOL    HW215051   0.712   1.843   9.498 -0.8347 -0.6230 -0.6116
 1139SOL     OW15052   2.617   0.961   7.897 -0.2299  0.1001  0.9031
 1139SOL    HW115053   2.605   1.006   7.814  0.6672 -1.4827 -0.0995
 1139SOL    HW215054   2.654   1.034   7.947 -0.6885  0.8333  0.1641
 1140SOL     OW15055   3.538   2.824   2.360  0.0162  0.2644 -0.0869
 1140SOL    HW115056   3.533   2.735   2.325  0.3827  0.0550  0.3925
 1140SOL    HW215057   3.626   2.850   2.333 -0.2015  1.0438 -0.0493
 1141SOL     OW15058   3.352   3.795   8.256 -0.4495 -0.0630 -0.0935
 1141SOL    HW115059   3.328   3.750   8.175  0.0364  0.5893 -0.6004
 1141SOL    HW215060   3.296   3.751   8.320 -0.4220  1.0638  0.7223
 1142SOL     OW15061   0.023   3.614   1.333 -0.1089 -0.7675 -0.4348
 1142SOL    HW115062   4.672   3.645   1.324  0.3403  0.5241 -0.5669
 1142SOL    HW215063   0.011   3.530   1.290  1.3928 -0.2208 -1.9427
 1143SOL     OW15064   1.137   3.908   6.524 -0.3588 -0.0206  0.4883
 1143SOL    HW115065   1.145   3.869   6.437  1.7100  1.2974  0.1064
 1143SOL    HW215066   1.126   3.829   6.577  2.5240 -0.8790 -0.2074
 1144SOL     OW15067   3.520   4.523   2.168 -0.3523  0.5181 -0.5951
 1144SOL    HW115068   3.531   4.540   2.074  2.1781  1.3583 -0.1364
 1144SOL    HW215069   3.563   4.438   2.181  0.1990  1.2051  1.9570
 1145SOL     OW15070   1.050   4.052   3.723 -0.3543  0.5631 -0.1605
 1145SOL    HW115071   1.098   4.018   3.647  0.7873  1.5431  0.1274
 1145SOL    HW215072   0.965   4.062   3.679 -0.7098  0.4993  0.5115
 1146SOL     OW15073   4.017   2.355   8.843  0.8704 -0.9672  0.1195
 1146SOL    HW115074   3.982   2.330   8.929  0.3999  2.1678  0.8322
 1146SOL    HW215075   4.110   2.332   8.853  1.2388  0.9604  1.1476
 1147SOL     OW15076   2.074   3.497   2.343  0.1674  0.5415  0.1578
 1147SOL    HW115077   2.066   3.559   2.416 -0.8729  0.8813 -0.2409
 1147SOL    HW215078   2.140   3.436   2.375 -0.6425 -1.0185 -1.1367
 1148SOL     OW15079   2.500   0.324   1.580  0.4797 -0.2579  0.8215
 1148SOL    HW115080   2.419   0.368   1.607  0.5988 -0.0291  0.8022
 1148SOL    HW215081   2.567   0.389   1.600  0.4608  0.0907 -0.2754
 1149SOL     OW15082   0.895   2.150   6.704 -0.0718 -0.2373  0.1324
 1149SOL    HW115083   0.847   2.073   6.734  0.0780 -0.1413  0.6053
 1149SOL    HW215084   0.984   2.115   6.703  0.2802  0.6547 -0.6279
 1150SOL     OW15085   0.778   3.395  13.583  0.1709  0.4036  0.5064
 1150SOL    HW115086   0.752   3.480  13.620 -1.0375  0.4369 -0.3788
 1150SOL    HW215087   0.869   3.420  13.594 -0.7325  3.5806  0.9606
 1151SOL     OW15088   3.793   2.065   6.693  0.4699  0.2347 -0.3553
 1151SOL    HW115089   3.841   2.046   6.612  2.1983  0.6744  0.5640
 1151SOL    HW215090   3.814   1.988   6.746  0.6951 -0.1913 -1.0562
 1152SOL     OW15091   0.034   2.016  14.294 -0.4990 -0.0425 -0.3107
 1152SOL    HW115092   4.720   1.974  14.226 -1.8959 -0.7867  1.2207
 1152SOL    HW215093   0.111   2.034  14.240  2.7614 -0.6884  4.0855
 1153SOL     OW15094   1.989   3.107   6.435 -0.2648 -0.3968 -0.7044
 1153SOL    HW115095   1.896   3.129   6.427 -0.2975 -0.1273  0.4264
 1153SOL    HW215096   2.021   3.178   6.378  1.4920  1.4142  2.5482
 1154SOL     OW15097   2.373   0.042   0.369  0.0935  0.1963  0.3568
 1154SOL    HW115098   2.301   4.719   0.383  0.6136 -0.9105 -1.9139
 1154SOL    HW215099   2.408   0.021   0.456  1.3519 -0.9403 -0.4465
 1155SOL     OW15100   0.152   1.639   2.001  0.0205  0.6414  0.3534
 1155SOL    HW115101   0.118   1.728   2.007  0.3477  0.7094  1.2455
 1155SOL    HW215102   0.246   1.651   2.010 -0.1132  3.5099 -2.1133
 1156SOL     OW15103   2.887   1.833   6.882 -0.1436  0.3481  0.5346
 1156SOL    HW115104   2.844   1.872   6.958 -0.2461 -1.8246  1.5774
 1156SOL    HW215105   2.860   1.888   6.808 -0.8327  0.6933  1.0465
 1157SOL     OW15106   1.138   0.390   1.927  0.3057 -0.4792  0.2573
 1157SOL    HW115107   1.045   0.367   1.934 -0.3811  2.6830  1.1673
 1157SOL    HW215108   1.157   0.387   1.833 -2.4713 -0.1203 -0.3341
 1158SOL     OW15109   4.162   3.135  10.951  0.1907  0.1462 -0.1952
 1158SOL    HW115110   4.106   3.141  10.874 -1.4733  1.1802  1.0924
 1158SOL    HW215111   4.246   3.149  10.908 -0.2664 -3.2063 -2.1710
 1159SOL     OW15112   3.336   2.649   7.969 -0.0764 -0.1861 -0.2152
 1159SOL    HW115113   3.363   2.727   8.018  0.8008  0.8643 -2.3859
 1159SOL    HW215114   3.242   2.658   7.982  0.0227 -1.5405  1.4359
 1160SOL     OW15115   4.132   2.683   9.263  0.1033  0.3079 -0.3793
 1160SOL    HW115116   4.161   2.769   9.294  0.5056  0.3315 -0.8235
 1160SOL    HW215117   4.148   2.685   9.169 -0.2814  2.1388 -0.3925
 1161SOL     OW15118   0.027   1.107  16.411  0.2059 -0.4410 -0.6372
 1161SOL    HW115119   0.077   1.179  16.450  3.0221 -1.8737 -1.5269
 1161SOL    HW215120   0.044   1.045  16.483 -0.6936 -1.3488 -1.2078
 1162SOL     OW15121   3.606   2.733   0.147 -0.2451  0.5373  0.1204
 1162SOL    HW115122   3.533   2.674   0.127 -0.8309  2.3517 -3.1325
 1162SOL    HW215123   3.575   2.817   0.114 -1.1416 -1.2523 -3.6255
 1163SOL     OW15124   3.514   2.869  10.143  0.2655 -0.1432 -0.8735
 1163SOL    HW115125   3.439   2.908  10.099  1.3086  2.6070 -0.2294
 1163SOL    HW215126   3.534   2.926  10.217 -1.9653  1.3525 -1.4118
 1164SOL     OW15127   2.485   4.503   6.488  0.5153 -0.3709  0.6306
 1164SOL    HW115128   2.545   4.437   6.521 -2.0274 -1.6444  2.6710
 1164SOL    HW215129   2.536   4.581   6.509 -1.5177  1.0556  0.3634
 1165SOL     OW15130   2.712   2.135   5.887 -0.0897 -0.1077 -0.1338
 1165SOL    HW115131   2.621   2.112   5.872 -0.0153  0.0228 -0.7892
 1165SOL    HW215132   2.728   2.059   5.942  0.8272  1.8592  2.3328
 1166SOL     OW15133   4.412   4.620   0.836 -0.3916 -0.1156  0.2750
 1166SOL    HW115134   4.423   4.653   0.747 -2.5816  3.8703  1.5104
 1166SOL    HW215135   4.422   4.699   0.890 -1.9833  1.8494 -2.3249
 1167SOL     OW15136   0.400   2.213   1.987 -0.1922  0.1429  0.4021
 1167SOL    HW115137   0.435   2.246   1.904  1.3774 -0.5535  0.7989
 1167SOL    HW215138   0.320   2.165   1.965 -0.9919  2.5508 -1.9134
 1168SOL     OW15139   1.503   1.519   4.571 -0.0896  0.0839  0.0638
 1168SOL    HW115140   1.491   1.611   4.547  1.2360  0.8905  2.5234
 1168SOL    HW215141   1.503   1.516   4.667 -0.0004 -2.1863  0.0069
 1169SOL     OW15142   0.854   2.590   6.263  0.5438  0.5512 -0.5308
 1169SOL    HW115143   0.840   2.678   6.228  0.8757  1.0776  0.6684
 1169SOL    HW215144   0.792   2.546   6.205  0.8347 -1.5329  0.7462
 1170SOL     OW15145   4.424   1.809   2.417  0.4253  0.3483 -0.0520
 1170SOL    HW115146   4.333   1.810   2.448  0.1570  1.0656 -0.8756
 1170SOL    HW215147   4.460   1.746   2.479  0.5708  1.9271  1.4650
 1171SOL     OW15148   2.909   0.371   5.201  0.6587 -0.0547  0.3719
 1171SOL    HW115149   2.897   0.426   5.278  0.7861 -0.5587  0.7504
 1171SOL    HW215150   2.890   0.285   5.239 -1.6593 -0.1705 -1.0796
 1172SOL     OW15151   3.907   4.004  13.420  0.0558  0.4190 -0.0036
 1172SOL    HW115152   3.884   4.086  13.462 -1.0436  0.6768 -1.1135
 1172SOL    HW215153   3.873   4.024  13.333  0.4060  1.0435  0.0025
 1173SOL     OW15154   0.693   1.738  12.300  0.2453  0.3662  0.0689
 1173SOL    HW115155   0.701   1.666  12.363 -0.1946  1.3853  1.3048
 1173SOL    HW215156   0.602   1.737  12.270  0.2974 -0.6513 -0.0614
 1174SOL     OW15157   4.572   2.247   2.630  0.0487 -0.2845  0.2433
 1174SOL    HW115158   4.651   2.199   2.652 -0.0583 -1.4591 -1.8973
 1174SOL    HW215159   4.607   2.333   2.650  2.8685 -0.9385 -1.8348
 1175SOL     OW15160   4.386   3.744   8.219  0.3409 -0.2554 -0.0921
 1175SOL    HW115161   4.294   3.769   8.209 -0.1947 -1.1041  2.5807
 1175SOL    HW215162   4.382   3.669   8.278 -0.4511  0.4269  0.7336
 1176SOL     OW15163   4.345   4.012   7.132 -0.4503 -0.5171 -0.4408
 1176SOL    HW115164   4.436   4.028   7.105 -0.6664 -0.4161 -1.0963
 1176SOL    HW215165   4.304   3.991   7.048 -2.1753  1.1782 -0.0239
 1177SOL     OW15166   0.318   3.961   4.399 -0.3312 -0.0416  0.2878
 1177SOL    HW115167   0.318   3.903   4.475  0.9918 -0.1812  0.1812
 1177SOL    HW215168   0.259   3.913   4.341  0.6786 -1.8830  0.7871
 1178SOL     OW15169   1.364   3.373   5.994  0.4192  0.1213 -0.0159
 1178SOL    HW115170   1.347   3.432   5.921 -1.0103 -0.9481 -0.5516
 1178SOL    HW215171   1.406   3.302   5.946  1.7174 -0.0408  1.3691
 1179SOL     OW15172   0.677   2.695  13.960 -0.1356 -0.1143 -0.0574
 1179SOL    HW115173   0.715   2.675  13.875 -0.8463  0.8294 -0.5982
 1179SOL    HW215174   0.596   2.733  13.924  0.5801  1.2131 -0.2731
 1180SOL     OW15175   2.014   2.314   8.133 -0.3158 -0.1244 -0.0817
 1180SOL    HW115176   1.967   2.367   8.196 -1.6184 -1.2318 -0.1167
 1180SOL    HW215177   2.052   2.375   8.069 -0.8789  0.2498 -0.0528
 1181SOL     OW15178   2.560   3.157   7.048 -0.4196  0.1772 -0.3504
 1181SOL    HW115179   2.590   3.067   7.065 -0.2829  0.2268 -0.3318
 1181SOL    HW215180   2.488   3.132   6.990 -0.9717 -1.2893  0.9675
 1182SOL     OW15181   1.443   2.156   2.056 -0.2870 -0.0794 -0.2872
 1182SOL    HW115182   1.447   2.066   2.024 -2.0528 -0.5004  0.6624
 1182SOL    HW215183   1.371   2.146   2.118 -0.5545 -0.8884 -0.7395
 1183SOL     OW15184   0.210   3.595   5.058  0.7369  0.3787 -0.3525
 1183SOL    HW115185   0.272   3.659   5.093 -0.0575  1.6708 -1.3276
 1183SOL    HW215186   0.250   3.515   5.092 -0.3239 -0.2085 -0.4748
 1184SOL     OW15187   4.156   0.897   9.155 -0.4595  0.2463  0.4377
 1184SOL    HW115188   4.250   0.916   9.152 -0.3218 -0.3693  0.8678
 1184SOL    HW215189   4.134   0.915   9.064 -0.2702  1.1337  0.5640
 1185SOL     OW15190   4.602   1.924   2.761 -0.3754  0.9673  0.5761
 1185SOL    HW115191   4.571   1.845   2.716  0.2991  1.0577 -0.0590
 1185SOL    HW215192   4.680   1.901   2.811 -0.1730 -1.1742 -0.7138
 1186SOL     OW15193   1.602   1.582   2.399 -0.1808 -0.0400  0.1439
 1186SOL    HW115194   1.593   1.487   2.395 -0.7730 -0.0063  0.6072
 1186SOL    HW215195   1.620   1.599   2.491 -0.5907  0.2488  0.1729
 1187SOL     OW15196   2.431   3.444   6.471 -0.3523 -0.2164 -0.0505
 1187SOL    HW115197   2.519   3.428   6.503  0.5971  2.2380 -1.4475
 1187SOL    HW215198   2.388   3.359   6.474 -0.8240 -0.0239 -1.2507
 1188SOL     OW15199   1.153   3.151   9.129  0.3135  0.2073  0.3454
 1188SOL    HW115200   1.196   3.075   9.089 -1.0205 -1.1107  1.4064
 1188SOL    HW215201   1.163   3.227   9.071  0.0528 -1.1977 -1.5725
 1189SOL     OW15202   2.143   1.475   6.161  0.0018  0.4185 -0.4299
 1189SOL    HW115203   2.084   1.541   6.199 -0.7724 -0.7789  0.4671
 1189SOL    HW215204   2.192   1.529   6.099  3.9680 -0.3282  2.0803
 1190SOL     OW15205   3.424   0.155   1.707 -0.0204 -0.1913 -0.1795
 1190SOL    HW115206   3.393   0.073   1.668 -1.0297 -0.6407  1.5773
 1190SOL    HW215207   3.396   0.211   1.635  1.7898 -0.4342 -1.0688
 1191SOL     OW15208   2.198   3.659   0.208  0.1620 -0.1149  0.2451
 1191SOL    HW115209   2.248   3.577   0.205  2.1491  1.0633  0.9864
 1191SOL    HW215210   2.223   3.707   0.288 -2.5259  1.9524 -0.1604
 1192SOL     OW15211   0.948   4.134   9.837 -0.1656 -0.3376  0.5217
 1192SOL    HW115212   0.883   4.192   9.875 -1.5510  0.1343 -2.5499
 1192SOL    HW215213   0.908   4.114   9.753  0.2992  1.2045 -0.0732
 1193SOL     OW15214   1.430   3.154   3.332  0.2761  0.7681  0.2463
 1193SOL    HW115215   1.487   3.138   3.257  0.1516 -1.3795  0.5994
 1193SOL    HW215216   1.385   3.234   3.306  0.7549  1.3004  1.0437
 1194SOL     OW15217   2.062   1.024  12.469 -0.5767 -0.3652 -0.1297
 1194SOL    HW115218   2.061   0.988  12.557  0.0881  1.9945  0.8239
 1194SOL    HW215219   2.091   0.945  12.422 -1.2855 -1.6104  1.5155
 1195SOL     OW15220   4.050   3.821   0.535 -0.5096 -0.1449 -0.4854
 1195SOL    HW115221   4.049   3.896   0.476  0.1780  0.7394  0.6294
 1195SOL    HW215222   4.033   3.859   0.621  4.1697  0.5371  0.1632
 1196SOL     OW15223   0.670   3.105   8.296 -0.2317  0.3306 -0.2953
 1196SOL    HW115224   0.684   3.064   8.211 -3.2649  1.0949 -1.1876
 1196SOL    HW215225   0.748   3.086   8.348  0.2171  1.0254 -0.7176
 1197SOL     OW15226   2.702   3.788  12.540  0.2903 -0.7377 -0.0812
 1197SOL    HW115227   2.611   3.766  12.517 -0.1084  0.9423 -0.1128
 1197SOL    HW215228   2.702   3.795  12.636 -2.0554  0.7139 -0.1683
 1198SOL     OW15229   4.358   3.395   6.510 -0.4485  0.3081 -0.1762
 1198SOL    HW115230   4.381   3.359   6.596 -0.1464  0.5340 -0.1611
 1198SOL    HW215231   4.441   3.438   6.489  0.1673 -0.1593  1.2720
 1199SOL     OW15232   2.334   1.160  15.299 -0.6248 -0.1530  0.8997
 1199SOL    HW115233   2.261   1.219  15.280  0.4195  0.1728 -2.1626
 1199SOL    HW215234   2.344   1.168  15.394  0.0769  2.9475  0.5962
 1200SOL     OW15235   1.707   3.254   4.240 -0.0567 -0.1762  0.3830
 1200SOL    HW115236   1.696   3.348   4.225 -1.4812 -0.1927  1.2754
 1200SOL    HW215237   1.730   3.256   4.333 -3.1147  1.9626  1.1062
 1201SOL     OW15238   4.341   0.442  16.172  0.0114  0.4708 -0.5672
 1201SOL    HW115239   4.416   0.386  16.150 -0.3598 -0.4477  0.4979
 1201SOL    HW215240   4.374   0.516  16.121  1.1550  0.9747  0.9100
 1202SOL     OW15241   0.338   2.887  11.932  0.1078  0.5439 -0.0300
 1202SOL    HW115242   0.258   2.904  11.881  0.2077 -1.0931 -0.7128
 1202SOL    HW215243   0.321   2.793  11.938 -1.4159  0.9015  1.2492
 1203SOL     OW15244   0.629   2.449  13.156  0.0031 -0.6141  0.2717
 1203SOL    HW115245   0.635   2.422  13.064 -0.2293  0.9391 -0.1983
 1203SOL    HW215246   0.719   2.440  13.187 -0.1507 -1.9384  0.3697
 1204SOL     OW15247   2.926   4.691   9.302  0.0967 -0.0509 -0.0995
 1204SOL    HW115248   2.985   4.633   9.349  0.8560  0.8451  0.0659
 1204SOL    HW215249   2.954   0.039   9.332 -1.1793  0.2521  0.2373
 1205SOL     OW15250   1.715   0.025   0.669  0.1613  0.1633 -0.0182
 1205SOL    HW115251   1.660   4.712   0.610 -1.0524  0.2815  1.0213
 1205SOL    HW215252   1.774   4.690   0.684 -1.3515 -0.9842  0.2995
 1206SOL     OW15253   3.052   0.989   7.562 -0.3512  0.0421  0.2589
 1206SOL    HW115254   3.048   0.942   7.479 -4.5026  0.2386  0.3363
 1206SOL    HW215255   2.992   1.064   7.561 -2.4656 -1.6400  1.1792
 1207SOL     OW15256   3.384   2.776   1.818  0.0964 -0.2114 -0.0339
 1207SOL    HW115257   3.399   2.860   1.861 -1.9477 -0.9602  2.1374
 1207SOL    HW215258   3.312   2.732   1.863  0.7710  0.3833  1.6266
 1208SOL     OW15259   3.515   1.061   9.502 -0.0655  0.2240  0.0855
 1208SOL    HW115260   3.574   1.085   9.430 -2.0989  1.1474 -1.2863
 1208SOL    HW215261   3.491   1.148   9.532 -1.1638 -0.2933  0.7184
 1209SOL     OW15262   3.990   2.357   6.096 -0.4723 -0.0333 -0.4417
 1209SOL    HW115263   3.986   2.419   6.023 -1.5084 -0.6124 -0.8730
 1209SOL    HW215264   4.084   2.341   6.096 -0.3835  0.4756 -0.5372
 1210SOL     OW15265   1.192   3.952   3.984 -0.3477  0.1619  0.1143
 1210SOL    HW115266   1.249   4.028   3.969 -0.3407  0.0025 -0.6525
 1210SOL    HW215267   1.119   3.980   3.929 -1.4137 -0.3453  1.2645
 1211SOL     OW15268   2.081   4.202   3.217  0.2786 -0.3486  0.0589
 1211SOL    HW115269   2.163   4.177   3.259 -0.9572 -1.7768  1.6413
 1211SOL    HW215270   2.032   4.197   3.299  1.6735 -2.0248  0.7847
 1212SOL     OW15271   1.981   1.442   8.550 -0.5598 -0.3819 -0.7128
 1212SOL    HW115272   1.942   1.360   8.517 -0.4895 -0.4123 -0.7203
 1212SOL    HW215273   1.908   1.481   8.597  0.7817  1.5370 -0.2617
 1213SOL     OW15274   2.550   2.095   3.599 -0.5658 -0.0713 -0.3513
 1213SOL    HW115275   2.477   2.033   3.605 -0.5971 -0.0006  0.0014
 1213SOL    HW215276   2.627   2.042   3.618 -0.6483 -0.3809 -0.8877
 1214SOL     OW15277   3.561   1.941   2.769 -0.2734 -0.0083  0.4922
 1214SOL    HW115278   3.498   1.967   2.835 -0.1439  1.1391  0.1626
 1214SOL    HW215279   3.645   1.980   2.793  0.0535 -0.9783  0.9231
 1215SOL     OW15280   2.642   1.092   0.537  0.1404  0.3361  0.3595
 1215SOL    HW115281   2.610   1.016   0.586  2.7074 -0.0768  1.3705
 1215SOL    HW215282   2.596   1.069   0.456 -0.0978 -2.1904  1.1969
 1216SOL     OW15283   2.189   0.421   4.814 -0.0233  0.2111 -0.0431
 1216SOL    HW115284   2.262   0.414   4.752 -0.7591 -0.5885 -0.8288
 1216SOL    HW215285   2.153   0.505   4.785  2.9942  0.7683 -2.2273
 1217SOL     OW15286   4.292   1.696   5.247  0.2838  0.0200 -0.1432
 1217SOL    HW115287   4.297   1.602   5.261 -4.2178 -0.6859 -3.4919
 1217SOL    HW215288   4.291   1.722   5.340 -0.8734 -0.3274 -0.0593
 1218SOL     OW15289   3.765   0.996   1.931  0.2258  0.0594 -0.2215
 1218SOL    HW115290   3.773   0.922   1.872  2.6036  0.1632 -0.0212
 1218SOL    HW215291   3.852   1.008   1.971  0.0413  0.2042  0.1412
 1219SOL     OW15292   3.807   3.668   2.651  0.2304  0.1379 -0.2236
 1219SOL    HW115293   3.775   3.593   2.601  1.0532  1.5313 -2.8687
 1219SOL    HW215294   3.837   3.618   2.727 -2.0086 -0.6335  0.1392
 1220SOL     OW15295   0.687   0.559  12.810  0.3890  0.1280  0.0678
 1220SOL    HW115296   0.653   0.648  12.796 -1.6734 -0.9331 -1.6021
 1220SOL    HW215297   0.623   0.505  12.765 -0.7873  0.4621  1.3295
 1221SOL     OW15298   0.862   0.432   9.213  0.6320 -0.4238 -0.2312
 1221SOL    HW115299   0.809   0.427   9.292 -1.0717 -1.6856 -1.4570
 1221SOL    HW215300   0.794   0.462   9.153  1.3583 -1.0331 -1.3500
 1222SOL     OW15301   3.440   3.319   8.784 -0.0081  0.3324 -0.1713
 1222SOL    HW115302   3.462   3.238   8.737 -0.2216  1.1054 -1.6081
 1222SOL    HW215303   3.470   3.288   8.869 -0.6814  2.9988  1.0342
 1223SOL     OW15304   0.524   2.674   1.997  0.5468 -0.6142 -1.1303
 1223SOL    HW115305   0.608   2.692   1.956  1.2656  0.1396  0.6595
 1223SOL    HW215306   0.554   2.630   2.076 -1.2348  0.0506 -0.0755
 1224SOL     OW15307   3.357   4.714   4.474 -0.0539  0.2063  0.7380
 1224SOL    HW115308   3.307   0.026   4.537  0.0375 -1.0867  1.8525
 1224SOL    HW215309   3.411   0.046   4.437  1.0515 -1.2220 -0.3678
 1225SOL     OW15310   0.948   2.597   3.562  0.3331 -0.2911  0.3896
 1225SOL    HW115311   0.874   2.576   3.505  0.6017 -2.7571  0.9521
 1225SOL    HW215312   1.022   2.618   3.505 -0.3851 -1.0655 -0.8112
 1226SOL     OW15313   0.516   1.022   5.139  0.1070 -0.0032  0.4591
 1226SOL    HW115314   0.475   0.939   5.117  1.6296 -0.6554  0.1017
 1226SOL    HW215315   0.439   1.061   5.181 -1.7045 -1.7518 -1.2635
 1227SOL     OW15316   0.042   3.390   8.003 -0.7275 -0.1116  0.1037
 1227SOL    HW115317   0.077   3.384   7.914 -2.9252  0.3119 -0.7958
 1227SOL    HW215318   4.686   3.380   7.992 -0.6417 -0.8775  0.0862
 1228SOL     OW15319   1.588   0.489  11.042  0.0976  0.5509 -0.2120
 1228SOL    HW115320   1.576   0.433  10.965  1.7221 -0.7536  0.4852
 1228SOL    HW215321   1.673   0.531  11.025 -0.1354  1.4010  0.7743
 1229SOL     OW15322   4.008   3.908  16.024 -0.4394 -0.5668 -0.3351
 1229SOL    HW115323   3.996   3.924  15.931 -0.3793  0.3268 -0.1874
 1229SOL    HW215324   4.102   3.901  16.038 -0.5498  0.2116  0.8241
 1230SOL     OW15325   0.995   1.629   5.681  0.2594 -0.3805 -0.3461
 1230SOL    HW115326   0.975   1.542   5.716 -1.0606  0.0007 -0.1445
 1230SOL    HW215327   1.079   1.628   5.727 -0.6148 -0.7329  1.2441
 1231SOL     OW15328   3.039   4.317   3.028  0.3253 -0.7632 -0.4773
 1231SOL    HW115329   3.094   4.368   3.088 -4.2075  0.7861  2.2845
 1231SOL    HW215330   3.035   4.231   3.069  1.2436  0.2231  1.6840
 1232SOL     OW15331   4.256   0.762  13.765 -0.0494  0.0500  0.4438
 1232SOL    HW115332   4.290   0.675  13.743 -1.1989 -0.3024  0.0256
 1232SOL    HW215333   4.265   0.808  13.682  2.3999 -3.3092 -1.1687
 1233SOL     OW15334   1.218   3.299   4.221 -0.4643 -0.0799  0.1127
 1233SOL    HW115335   1.285   3.297   4.153 -0.3555  2.8376  0.1451
 1233SOL    HW215336   1.277   3.296   4.296 -0.7590 -1.2609  0.3063
 1234SOL     OW15337   0.009   2.413   5.137  0.6653  0.9384  0.4882
 1234SOL    HW115338   0.003   2.455   5.222 -0.2621 -0.8500  1.3119
 1234SOL    HW215339   0.042   2.483   5.081  0.3459  0.9774  0.3513
 1235SOL     OW15340   4.692   4.052  11.106 -0.4345  0.1508  0.3740
 1235SOL    HW115341   4.679   4.147  11.100 -2.7653 -0.1571  0.2448
 1235SOL    HW215342   0.031   4.044  11.160 -0.4875 -0.3151  0.3811
 1236SOL     OW15343   3.714   3.067  10.598  0.3344  0.3542 -0.3265
 1236SOL    HW115344   3.631   3.066  10.645  1.0156 -1.1468  0.8278
 1236SOL    HW215345   3.723   2.972  10.593 -0.3325  0.2585  0.3325
 1237SOL     OW15346   1.839   1.369  15.942 -0.1115 -0.4502  0.0694
 1237SOL    HW115347   1.911   1.422  15.909  0.4800 -0.2636  1.6341
 1237SOL    HW215348   1.817   1.306  15.874  2.9896 -1.2203 -0.2252
 1238SOL     OW15349   1.175   2.774   4.279  0.4237 -0.4392  0.3900
 1238SOL    HW115350   1.270   2.783   4.285  0.4202  0.4282 -0.7895
 1238SOL    HW215351   1.161   2.828   4.201  2.0330  0.9718  1.0874
 1239SOL     OW15352   1.318   1.233   3.336  0.6286 -0.5286  0.1878
 1239SOL    HW115353   1.382   1.224   3.266 -1.4492  0.4690 -1.8298
 1239SOL    HW215354   1.248   1.182   3.297 -0.4411  1.5907 -0.6611
 1240SOL     OW15355   2.308   3.198   6.535  0.2198  0.2042  0.0632
 1240SOL    HW115356   2.324   3.166   6.447  0.7871  2.3878 -0.6211
 1240SOL    HW215357   2.290   3.112   6.573  2.2911 -0.0244  0.5311
 1241SOL     OW15358   0.387   4.726   7.616  0.3512 -0.0870 -0.0357
 1241SOL    HW115359   0.322   4.686   7.674  0.9086  0.1177  0.7188
 1241SOL    HW215360   0.357   4.694   7.531  0.9533 -0.2727 -0.1780
 1242SOL     OW15361   0.973   3.001   2.206 -0.1934  0.2082  0.1163
 1242SOL    HW115362   1.042   3.006   2.140 -0.5660 -0.3288 -0.3200
 1242SOL    HW215363   1.005   3.064   2.270  0.4729  0.3739 -0.3864
 1243SOL     OW15364   2.022   1.923  15.256 -0.1893  0.0276  0.1075
 1243SOL    HW115365   2.084   1.884  15.317  1.4049 -0.0066 -1.5324
 1243SOL    HW215366   2.034   2.015  15.278 -2.4631  0.3480  0.0141
 1244SOL     OW15367   0.391   0.286   2.689  0.0565  0.2721  0.6936
 1244SOL    HW115368   0.476   0.244   2.699  0.5721  0.8317 -1.2014
 1244SOL    HW215369   0.357   0.305   2.776 -3.3529 -2.3852 -0.0096
 1245SOL     OW15370   3.144   0.099   2.572  0.4382  0.4593 -0.6325
 1245SOL    HW115371   3.139   0.112   2.666 -2.1019  0.2211 -0.7145
 1245SOL    HW215372   3.216   0.038   2.561 -0.0656 -0.1788 -0.3736
 1246SOL     OW15373   3.149   3.039   5.411  0.0435  0.3639  0.1859
 1246SOL    HW115374   3.180   3.055   5.500  0.6248 -0.5620  0.1577
 1246SOL    HW215375   3.079   2.977   5.431 -1.0244  1.4917 -0.1226
 1247SOL     OW15376   2.615   1.722   4.280 -0.1107  0.1090  0.4390
 1247SOL    HW115377   2.611   1.680   4.366 -2.1390  0.0355  0.2941
 1247SOL    HW215378   2.615   1.649   4.219 -0.5106  0.1341  0.4101
 1248SOL     OW15379   1.669   4.671   2.326 -0.2358  0.4494 -0.2646
 1248SOL    HW115380   1.693   0.007   2.381 -0.2144 -0.2076  0.6081
 1248SOL    HW215381   1.677   4.596   2.385  0.5803 -0.8351 -2.0156
 1249SOL     OW15382   3.679   0.733   4.051  0.0029  0.6796  0.2583
 1249SOL    HW115383   3.646   0.811   4.097 -1.0737 -0.7080  1.8571
 1249SOL    HW215384   3.698   0.783   3.972 -0.4290  0.9071  0.2987
 1250SOL     OW15385   3.934   1.137   6.702 -0.5288 -0.5445 -0.1696
 1250SOL    HW115386   3.884   1.124   6.782  0.0682  1.5403  0.5252
 1250SOL    HW215387   3.935   1.232   6.700 -1.5720 -0.5405 -0.7473
 1251SOL     OW15388   2.286   2.146  11.745  0.0096  0.3339  0.2196
 1251SOL    HW115389   2.199   2.107  11.737  0.7349 -1.1594 -0.4004
 1251SOL    HW215390   2.271   2.220  11.686  3.2039  0.5035 -0.3724
 1252SOL     OW15391   3.682   3.522   9.114 -0.0982 -0.2431 -0.0655
 1252SOL    HW115392   3.684   3.593   9.049 -0.1512 -1.3766 -1.3179
 1252SOL    HW215393   3.586   3.516   9.122 -0.3003 -0.1773 -2.3119
 1253SOL     OW15394   4.595   1.795  16.997  0.1000  0.1853  0.0518
 1253SOL    HW115395   4.515   1.815  17.045  0.2084  2.5407 -0.7818
 1253SOL    HW215396   4.636   1.881  17.000 -0.0585  0.2530  0.2686
 1254SOL     OW15397   2.154   3.353   9.713 -0.3196 -0.9960 -0.5202
 1254SOL    HW115398   2.198   3.294   9.775  0.8935  0.7529  0.2969
 1254SOL    HW215399   2.063   3.339   9.738 -0.2042  0.7333  0.8836
 1255SOL     OW15400   0.419   2.502  13.474  0.0928 -0.2252 -0.2418
 1255SOL    HW115401   0.511   2.489  13.453 -0.1024  0.7423 -1.7230
 1255SOL    HW215402   0.429   2.546  13.558 -3.0516 -1.2722  0.7051
 1256SOL     OW15403   2.172   2.643  12.053  0.0167 -0.0494 -0.1810
 1256SOL    HW115404   2.213   2.728  12.038  0.6808 -0.6499 -1.8033
 1256SOL    HW215405   2.225   2.588  11.995 -1.8786 -0.3608 -1.5982
 1257SOL     OW15406   4.398   2.329   0.878 -0.3286 -0.4396 -0.0194
 1257SOL    HW115407   4.400   2.423   0.895 -0.2210 -0.5435  0.5408
 1257SOL    HW215408   4.439   2.309   0.794  0.4261 -0.6067  0.3867
 1258SOL     OW15409   3.553   2.546   6.128  0.6135  0.2243  0.1668
 1258SOL    HW115410   3.459   2.558   6.114  0.2933 -0.1989  1.9200
 1258SOL    HW215411   3.572   2.589   6.212  1.8013 -0.0753  0.0417
 1259SOL     OW15412   2.873   4.346   3.836  0.6966 -0.2569 -0.3308
 1259SOL    HW115413   2.918   4.270   3.800  1.6507  0.0989  0.1188
 1259SOL    HW215414   2.938   4.370   3.902  0.3250  0.4126 -0.2102
 1260SOL     OW15415   3.322   2.001   1.881 -0.1771 -0.1923 -0.7476
 1260SOL    HW115416   3.336   1.924   1.826 -2.9380 -1.6913  0.6673
 1260SOL    HW215417   3.391   1.995   1.948 -1.5416  0.7467  0.7446
 1261SOL     OW15418   1.894   4.401   7.183  0.8645 -0.2044 -0.1725
 1261SOL    HW115419   1.866   4.435   7.098  0.5905 -0.6390 -0.2564
 1261SOL    HW215420   1.891   4.489   7.222 -1.7573  0.2482 -1.3836
 1262SOL     OW15421   1.931   3.138   7.986  0.4172 -0.2518 -0.2680
 1262SOL    HW115422   2.014   3.187   7.985 -0.3157  0.9950 -0.4381
 1262SOL    HW215423   1.970   3.059   8.021  1.0159 -0.5467 -1.5751
 1263SOL     OW15424   0.034   2.152   9.904 -0.1466  0.1629  0.1086
 1263SOL    HW115425   4.737   2.215   9.840 -2.5423 -0.4265  0.8544
 1263SOL    HW215426   4.696   2.099   9.926 -0.3332  0.6811  0.6962
 1264SOL     OW15427   0.067   3.671  12.087 -0.1079 -0.5441 -0.3089
 1264SOL    HW115428   0.123   3.699  12.015  0.9336  0.8462  1.0148
 1264SOL    HW215429   0.027   3.757  12.104 -1.7948 -1.3183 -0.3969
 1265SOL     OW15430   1.623   1.526   9.210 -0.1220  0.3189 -0.1446
 1265SOL    HW115431   1.645   1.438   9.243 -0.9516  0.7564  1.6019
 1265SOL    HW215432   1.708   1.567   9.194 -0.8515  1.6389 -0.6106
 1266SOL     OW15433   0.968   4.214   1.157 -0.4507  0.1299  0.0237
 1266SOL    HW115434   0.950   4.122   1.143 -1.6607  0.1991  1.1673
 1266SOL    HW215435   0.885   4.258   1.175 -1.1760 -0.9797 -0.5873
 1267SOL     OW15436   4.631   4.094   5.786 -0.0653 -0.8002  0.2178
 1267SOL    HW115437   4.720   4.082   5.821  1.3452  0.2328 -3.0596
 1267SOL    HW215438   4.606   4.178   5.824 -1.0149  0.1284 -2.5096
 1268SOL     OW15439   1.479   1.697   8.909 -0.0885 -0.0055  0.1225
 1268SOL    HW115440   1.449   1.611   8.937 -0.3124  0.4587  1.3312
 1268SOL    HW215441   1.436   1.756   8.971  0.5794 -0.1440  0.7211
 1269SOL     OW15442   0.815   0.213   6.473  0.3069 -0.7039 -0.5620
 1269SOL    HW115443   0.892   0.238   6.421 -1.0496 -1.0106 -2.7582
 1269SOL    HW215444   0.746   0.245   6.413 -1.0253 -0.6261  1.0282
 1270SOL     OW15445   2.378   2.248  13.215  0.5709  0.6855 -0.0764
 1270SOL    HW115446   2.394   2.295  13.133 -0.7454  0.6936 -0.3296
 1270SOL    HW215447   2.445   2.179  13.210 -0.4499 -0.2248 -1.3288
 1271SOL     OW15448   2.420   0.341  16.917 -0.1227 -0.2820 -0.5305
 1271SOL    HW115449   2.486   0.282  16.880 -0.6450 -0.6021 -0.9374
 1271SOL    HW215450   2.348   0.320  16.859 -0.4947 -1.1326  0.2425
 1272SOL     OW15451   2.780   3.881   9.208  0.6362  0.3245  0.0056
 1272SOL    HW115452   2.782   3.866   9.113 -1.5306  2.1573 -0.3284
 1272SOL    HW215453   2.685   3.881   9.221  0.8743 -1.8726  1.6542
 1273SOL     OW15454   3.764   2.670   8.664 -0.1824  0.4298  0.2079
 1273SOL    HW115455   3.797   2.614   8.593 -1.7599 -0.8307  0.4815
 1273SOL    HW215456   3.839   2.674   8.723  0.0468 -0.6258 -0.0032
 1274SOL     OW15457   4.623   4.700   5.107 -0.6762  0.1310 -0.0219
 1274SOL    HW115458   4.697   0.020   5.123  0.7705 -1.4970 -0.6977
 1274SOL    HW215459   4.553   0.004   5.156  0.3507  0.0228  1.5148
 1275SOL     OW15460   2.408   3.084   9.373 -0.4689 -0.0722  0.0980
 1275SOL    HW115461   2.322   3.107   9.408 -0.6824  0.6905 -0.9336
 1275SOL    HW215462   2.444   3.039   9.449 -1.0007 -1.0587 -0.2261
 1276SOL     OW15463   1.804   3.990   5.592 -0.2038  0.0346 -0.5594
 1276SOL    HW115464   1.732   4.043   5.557  1.0651  2.1239  0.0195
 1276SOL    HW215465   1.864   3.972   5.520  1.1282  0.0184  0.5443
 1277SOL     OW15466   3.172   0.619   9.786 -0.2527  0.0897  0.0140
 1277SOL    HW115467   3.201   0.530   9.806  0.6814  0.5604  0.7911
 1277SOL    HW215468   3.214   0.622   9.700 -3.2632 -2.4328 -1.5269
 1278SOL     OW15469   4.368   0.251   3.088  0.7838 -0.4161 -0.1155
 1278SOL    HW115470   4.454   0.229   3.123  0.8109 -0.9541 -0.5168
 1278SOL    HW215471   4.376   0.210   3.002  1.3258 -0.0670 -0.2319
 1279SOL     OW15472   0.562   3.754   3.730 -0.0442  0.7001 -0.0430
 1279SOL    HW115473   0.617   3.761   3.651 -0.2061 -2.5213 -0.4092
 1279SOL    HW215474   0.552   3.659   3.725 -1.3016  0.7257  1.9856
 1280SOL     OW15475   4.530   1.278   1.342  1.1725  0.3297  0.1979
 1280SOL    HW115476   4.484   1.361   1.348  1.0243  0.1468  1.8193
 1280SOL    HW215477   4.570   1.263   1.428  1.5365 -2.0186 -0.3641
 1281SOL     OW15478   2.327   2.269   9.598 -0.2706  0.5867 -0.0839
 1281SOL    HW115479   2.390   2.311   9.656 -2.3072  4.6789 -0.8972
 1281SOL    HW215480   2.361   2.179   9.590 -1.1098  0.3718 -1.3113
 1282SOL     OW15481   1.776   2.534   5.339  0.7412  0.7785  1.0782
 1282SOL    HW115482   1.781   2.574   5.252 -2.6143  0.0918  0.5652
 1282SOL    HW215483   1.807   2.612   5.386  1.8649  1.4592 -0.7784
 1283SOL     OW15484   0.487   0.775  12.165  0.2619 -0.0413 -0.6267
 1283SOL    HW115485   0.444   0.756  12.248 -1.0798 -0.5689 -1.4343
 1283SOL    HW215486   0.563   0.817  12.204 -1.3859  1.5017  0.8886
 1284SOL     OW15487   0.032   0.425  15.992  0.7419 -0.3163  0.1156
 1284SOL    HW115488   4.709   0.371  15.944  0.7198 -0.6436  0.5181
 1284SOL    HW215489   4.725   0.442  16.075 -1.7602 -1.9845 -0.9142
 1285SOL     OW15490   1.118   4.249   2.891 -0.0348  0.1172  0.4380
 1285SOL    HW115491   1.119   4.345   2.893  2.2333  0.2089 -4.9117
 1285SOL    HW215492   1.039   4.226   2.842 -0.0170 -0.4770  0.6869
 1286SOL     OW15493   2.002   2.015   6.873  0.2758  0.0888  0.0057
 1286SOL    HW115494   1.945   2.064   6.932  0.4986  0.1433  0.1766
 1286SOL    HW215495   1.946   1.938   6.865  2.9475 -1.8361 -0.0575
 1287SOL     OW15496   3.658   2.034   4.968 -1.0608 -0.0845 -0.4658
 1287SOL    HW115497   3.650   2.123   4.934  1.1994  0.5115  0.5191
 1287SOL    HW215498   3.692   2.061   5.053  0.4013  0.3891 -1.1968
 1288SOL     OW15499   0.766   0.124   3.656 -0.6019 -0.4285  0.2184
 1288SOL    HW115500   0.798   0.114   3.745 -1.3921 -0.2817  0.5134
 1288SOL    HW215501   0.833   0.078   3.604  1.0696  0.7824  1.2924
 1289SOL     OW15502   3.041   1.661  11.635 -0.1907  0.0840  0.1174
 1289SOL    HW115503   3.131   1.678  11.608 -0.2304  1.6393  0.9883
 1289SOL    HW215504   3.021   1.594  11.569 -0.4853 -0.3086  0.6082
 1290SOL     OW15505   4.722   1.051  12.346 -0.9041  0.4311  0.3341
 1290SOL    HW115506   0.008   0.966  12.384 -5.0940 -0.3201  1.4642
 1290SOL    HW215507   4.648   1.078  12.400 -1.8508  3.1263 -2.3316
 1291SOL     OW15508   0.167   0.128   3.990  0.4997  0.4526  0.1785
 1291SOL    HW115509   0.240   0.145   3.931 -2.0400  2.2770 -2.4251
 1291SOL    HW215510   0.179   0.197   4.055  3.0770  0.3448 -0.1661
 1292SOL     OW15511   4.684   4.398   2.561  0.0164  0.3389  0.3416
 1292SOL    HW115512   4.674   4.471   2.622 -0.2631  2.8724 -2.7334
 1292SOL    HW215513   4.723   4.435   2.481  0.0512 -0.5181 -0.0360
 1293SOL     OW15514   0.060   3.151   2.458 -1.0601 -0.2272 -0.9608
 1293SOL    HW115515   0.112   3.138   2.537 -3.3072  1.6572  0.8599
 1293SOL    HW215516   4.708   3.160   2.489  0.1181 -0.4917  2.6356
 1294SOL     OW15517   3.162   3.958  14.970 -0.0324 -0.0774 -0.2684
 1294SOL    HW115518   3.082   3.945  14.919 -0.7053 -1.8565  1.2349
 1294SOL    HW215519   3.196   3.869  14.984 -0.7074 -0.1853  0.7067
 1295SOL     OW15520   4.304   0.930  15.550 -0.0947 -0.0085  0.3634
 1295SOL    HW115521   4.374   0.982  15.509  1.5723 -2.5876 -0.0608
 1295SOL    HW215522   4.258   0.997  15.601  0.2503  1.9408 -1.8811
 1296SOL     OW15523   3.745   3.696   7.172 -0.3037  0.8050 -0.2348
 1296SOL    HW115524   3.733   3.772   7.228  0.0830 -0.1501  1.1389
 1296SOL    HW215525   3.831   3.711   7.134 -0.1059  2.2040  0.7858
 1297SOL     OW15526   1.174   2.315   4.681  0.4522  0.4687 -0.4705
 1297SOL    HW115527   1.119   2.237   4.687 -0.0889  0.9979  1.6533
 1297SOL    HW215528   1.211   2.300   4.768 -0.0985  1.9559  0.0333
 1298SOL     OW15529   1.229   2.113   8.816 -0.1136 -0.0844 -0.5076
 1298SOL    HW115530   1.158   2.110   8.880  1.2680 -1.1325  0.9447
 1298SOL    HW215531   1.197   2.158   8.737  0.6966  2.7805  0.8031
 1299SOL     OW15532   2.066   2.206  10.111 -0.6230  0.5882  0.7297
 1299SOL    HW115533   1.987   2.254  10.133  0.0237  1.1705  1.7732
 1299SOL    HW215534   2.032   2.166  10.031 -1.7539  0.0167  1.4967
 1300SOL     OW15535   0.100   2.217   2.688  0.6915  0.7512 -0.3345
 1300SOL    HW115536   0.145   2.290   2.732  2.9220  0.2701 -1.7780
 1300SOL    HW215537   0.150   2.217   2.606  0.3328  2.4365 -0.5621
 1301SOL     OW15538   1.050   2.000   2.992 -0.0373  0.6780 -0.0130
 1301SOL    HW115539   1.075   2.081   2.946  1.4312  1.2196  1.7692
 1301SOL    HW215540   0.969   2.028   3.035 -0.0630  3.3592 -1.7602
 1302SOL     OW15541   3.543   3.910   3.634 -0.0551 -0.5256 -0.0795
 1302SOL    HW115542   3.549   3.853   3.557 -1.7374 -0.9380  0.0919
 1302SOL    HW215543   3.629   3.953   3.639  0.1311 -0.8665 -0.3352
 1303SOL     OW15544   4.153   2.302   9.634 -0.2176 -0.0298 -0.2329
 1303SOL    HW115545   4.175   2.391   9.607  0.3127 -0.7026 -2.0080
 1303SOL    HW215546   4.150   2.264   9.546 -1.5048  0.5306 -0.4277
 1304SOL     OW15547   4.049   2.914   1.715  0.0552 -0.0747  0.0991
 1304SOL    HW115548   4.125   2.962   1.747 -0.5172  1.0915 -0.3154
 1304SOL    HW215549   4.004   2.899   1.798 -2.2656 -2.2110 -1.5465
 1305SOL     OW15550   1.368   3.109   5.039 -0.0185 -0.2258 -0.2551
 1305SOL    HW115551   1.450   3.159   5.032  1.2922 -2.6678 -2.4030
 1305SOL    HW215552   1.302   3.177   5.027 -0.6753 -0.9323 -0.6616
 1306SOL     OW15553   0.352   3.048  12.843  0.1262  0.2708  0.1827
 1306SOL    HW115554   0.273   2.994  12.833 -0.2558  0.6023  1.3636
 1306SOL    HW215555   0.382   3.000  12.921 -0.3278  1.8611  1.3297
 1307SOL     OW15556   3.139   0.185   0.482  0.2101 -0.3659 -0.3461
 1307SOL    HW115557   3.163   0.278   0.488 -3.3363  0.4364  1.2786
 1307SOL    HW215558   3.081   0.192   0.406 -2.2722  1.7300  1.7386
 1308SOL     OW15559   3.622   0.393  17.267 -0.5099 -0.3987 -0.6302
 1308SOL    HW115560   3.626   0.444  17.186  0.1135  1.1178  0.3744
 1308SOL    HW215561   3.580   0.310  17.242  1.0261 -2.2230  2.8170
 1309SOL     OW15562   0.867   2.919  11.370 -0.0883  0.4232 -0.5731
 1309SOL    HW115563   0.780   2.935  11.335 -1.3678 -1.4530  1.7612
 1309SOL    HW215564   0.886   3.006  11.405 -1.4140  0.3469  0.3392
 1310SOL     OW15565   3.329   2.566   6.904  0.1724 -0.0928 -0.2366
 1310SOL    HW115566   3.419   2.570   6.937  0.3479  0.6720 -0.7980
 1310SOL    HW215567   3.350   2.520   6.822 -1.0252 -0.0684 -0.5533
 1311SOL     OW15568   4.466   0.303   4.010 -0.0418  0.6902  0.4298
 1311SOL    HW115569   4.447   0.309   4.104 -0.2120  1.7627  0.3249
 1311SOL    HW215570   4.561   0.313   4.018  0.0880  0.1024 -0.3512
 1312SOL     OW15571   2.618   0.501   8.257  0.2814 -0.8525 -0.2615
 1312SOL    HW115572   2.596   0.580   8.306  1.1700 -1.9596  1.9672
 1312SOL    HW215573   2.660   0.537   8.180  1.7191 -0.4499  0.7194
 1313SOL     OW15574   4.186   2.157  17.172  0.2026  0.3110 -0.3444
 1313SOL    HW115575   4.133   2.088  17.211  0.1054  0.1361 -0.7910
 1313SOL    HW215576   4.203   2.135  17.080 -0.1790  1.1360 -0.6065
 1314SOL     OW15577   2.954   0.623   1.002  0.2597  0.3252  0.1436
 1314SOL    HW115578   2.983   0.714   0.998 -0.8479  0.6149 -1.2966
 1314SOL    HW215579   3.016   0.592   1.069 -0.8829 -0.2494  0.9368
 1315SOL     OW15580   1.821   3.382   5.028  0.1665 -0.3285  0.0042
 1315SOL    HW115581   1.858   3.425   4.951  0.5323  0.2508  0.5051
 1315SOL    HW215582   1.875   3.303   5.027  0.1948 -0.3030 -0.7352
 1316SOL     OW15583   4.627   1.847  10.460 -0.0803 -0.3155  0.3399
 1316SOL    HW115584   4.630   1.780  10.529  4.2879 -0.5133 -0.0306
 1316SOL    HW215585   4.592   1.921  10.510 -1.6845 -1.7137  1.2875
 1317SOL     OW15586   4.590   0.115  15.076 -0.0936  0.0519 -0.2528
 1317SOL    HW115587   4.516   0.061  15.047 -0.7399 -1.0679  3.4667
 1317SOL    HW215588   4.658   0.052  15.096  0.2683  0.8444  1.0718
 1318SOL     OW15589   2.807   1.735   7.195  0.5322 -0.3836 -0.3362
 1318SOL    HW115590   2.728   1.718   7.247 -0.5408 -0.6269 -2.0528
 1318SOL    HW215591   2.789   1.821   7.158  1.5661  1.0196  2.4277
 1319SOL     OW15592   0.943   1.278   7.738 -0.8268 -0.1083  0.0704
 1319SOL    HW115593   0.991   1.197   7.756 -0.6693  0.5462  2.6809
 1319SOL    HW215594   1.010   1.340   7.710  2.0357 -3.9224 -1.5348
 1320SOL     OW15595   2.187   2.325  10.694 -0.2364  0.3076 -0.1424
 1320SOL    HW115596   2.182   2.416  10.665  0.5827  0.6404  0.7971
 1320SOL    HW215597   2.113   2.278  10.654 -0.5167 -0.0934  0.8469
 1321SOL     OW15598   2.973   0.821  11.932 -0.2285  0.5780 -0.1560
 1321SOL    HW115599   2.938   0.838  12.019 -0.6851 -1.0034 -0.0303
 1321SOL    HW215600   2.914   0.751  11.903 -1.1028  0.6433  1.5048
 1322SOL     OW15601   0.408   3.532   5.269 -0.2414  0.1704  0.0180
 1322SOL    HW115602   0.337   3.474   5.296  1.8133 -2.3004  0.1024
 1322SOL    HW215603   0.484   3.474   5.264  1.5175  2.3620  1.9689
 1323SOL     OW15604   3.086   0.588   7.679  0.4687 -0.2238 -0.0630
 1323SOL    HW115605   3.005   0.600   7.729  0.5211  0.1411 -0.0665
 1323SOL    HW215606   3.124   0.675   7.685  0.3253 -0.2106  0.7261
 1324SOL     OW15607   0.652   0.910   9.410  0.1456  0.7739  0.2407
 1324SOL    HW115608   0.642   0.820   9.380  1.1640  1.3743 -1.8768
 1324SOL    HW215609   0.742   0.929   9.383  0.8679 -2.3330  0.4637
 1325SOL     OW15610   4.723   4.479   5.289 -0.6029  0.1169  0.1460
 1325SOL    HW115611   4.695   4.538   5.218 -0.0063 -0.5061 -0.6062
 1325SOL    HW215612   0.009   4.397   5.247 -0.9200  0.5568 -0.9045
 1326SOL     OW15613   4.480   2.832   8.552 -0.1818  0.1168 -0.2427
 1326SOL    HW115614   4.437   2.767   8.498 -1.8746  0.0870  1.1365
 1326SOL    HW215615   4.480   2.917   8.507 -0.2301  1.6487  2.6453
 1327SOL     OW15616   1.667   3.785   4.391  0.2039  0.1315 -0.0343
 1327SOL    HW115617   1.603   3.843   4.350  0.3956  0.7358  0.5272
 1327SOL    HW215618   1.742   3.795   4.332  1.0816  1.3293  1.2869
 1328SOL     OW15619   4.549   3.749   9.261 -0.2055  0.0219  0.2972
 1328SOL    HW115620   4.521   3.818   9.321  0.1111 -1.0514  1.6822
 1328SOL    HW215621   4.638   3.752   9.295 -0.6437  0.2255  1.4243
 1329SOL     OW15622   4.312   3.397   5.356 -0.4412 -0.1106 -0.0993
 1329SOL    HW115623   4.266   3.320   5.321  1.2488 -1.1689 -0.0054
 1329SOL    HW215624   4.392   3.351   5.379 -1.1474 -1.3723 -0.1678
 1330SOL     OW15625   1.548   1.830  10.129 -0.0042 -0.4646  0.3076
 1330SOL    HW115626   1.598   1.911  10.135 -0.6596  0.1020 -1.8897
 1330SOL    HW215627   1.478   1.860  10.187 -0.1143  0.9928 -0.5889
 1331SOL     OW15628   2.166   2.023   9.509 -0.2195  0.5795  0.0475
 1331SOL    HW115629   2.083   1.992   9.547  0.1917  0.1372  0.5906
 1331SOL    HW215630   2.143   2.105   9.465 -2.1266  0.4843  0.8697
 1332SOL     OW15631   0.658   2.600  13.605  0.1543  0.0239  0.0084
 1332SOL    HW115632   0.688   2.641  13.524 -0.9481 -0.5675 -0.6915
 1332SOL    HW215633   0.619   2.675  13.650  1.3958  0.0177  1.1263
 1333SOL     OW15634   2.022   3.632  15.432 -0.0631  0.5336 -0.0027
 1333SOL    HW115635   2.073   3.668  15.359 -0.0599  0.1047 -0.2096
 1333SOL    HW215636   1.982   3.559  15.385 -2.2926  2.2451 -0.7583
 1334SOL     OW15637   1.616   2.577   9.629 -0.0522  0.0913 -0.4504
 1334SOL    HW115638   1.539   2.614   9.672  0.9948  2.9881 -1.1114
 1334SOL    HW215639   1.623   2.636   9.554 -1.7784 -0.3555 -0.9529
 1335SOL     OW15640   1.545   3.020   4.367  0.4322 -0.2302  0.7190
 1335SOL    HW115641   1.475   3.079   4.395 -1.2868 -1.7181 -0.4505
 1335SOL    HW215642   1.614   3.087   4.368  0.0735  0.1272  1.2400
 1336SOL     OW15643   0.634   4.390  16.875  0.4711 -0.3016 -0.1772
 1336SOL    HW115644   0.619   4.465  16.931  2.3960 -0.4102  0.5119
 1336SOL    HW215645   0.728   4.368  16.875  0.7204  0.7639  0.5009
 1337SOL     OW15646   4.322   3.861   3.435 -0.7007  0.6664 -0.5092
 1337SOL    HW115647   4.297   3.799   3.366  0.2479 -0.5882  0.2642
 1337SOL    HW215648   4.405   3.822   3.462 -1.0687  1.4566  1.7666
 1338SOL     OW15649   0.508   3.654   0.358  0.2340  0.4622 -0.0213
 1338SOL    HW115650   0.438   3.603   0.317 -0.3882 -0.3099  2.0067
 1338SOL    HW215651   0.456   3.700   0.424  0.3633  2.2926 -1.1979
 1339SOL     OW15652   2.774   2.698   8.585  0.2827 -0.6029  0.5564
 1339SOL    HW115653   2.758   2.679   8.493  0.9680 -0.1231  0.3377
 1339SOL    HW215654   2.730   2.634   8.640 -1.7660  1.4490  1.3254
 1340SOL     OW15655   4.120   2.587   3.029  0.4090 -0.1010  0.2592
 1340SOL    HW115656   4.043   2.641   3.045  0.7679 -0.7106  4.0227
 1340SOL    HW215657   4.189   2.646   3.059  0.4269  0.5878 -1.1464
 1341SOL     OW15658   2.079   1.717   5.683  0.0628 -0.1600 -0.0655
 1341SOL    HW115659   2.108   1.630   5.710 -0.2393  0.5165  2.4159
 1341SOL    HW215660   1.984   1.711   5.683 -0.0049  0.7921 -1.1003
 1342SOL     OW15661   3.591   0.523   9.700 -0.3719 -0.2492  0.4714
 1342SOL    HW115662   3.610   0.614   9.676  1.0275  0.1828  3.3127
 1342SOL    HW215663   3.663   0.482   9.652 -1.2150  0.2342 -1.2121
 1343SOL     OW15664   3.244   1.807   5.471 -0.0191 -0.3243  0.0243
 1343SOL    HW115665   3.279   1.729   5.514  1.3273  0.5289  0.4624
 1343SOL    HW215666   3.165   1.826   5.521 -0.4848 -2.1438 -0.0123
 1344SOL     OW15667   4.392   2.043  14.206  0.0966  0.5170 -0.7917
 1344SOL    HW115668   4.354   2.112  14.260  3.2804  1.4722  0.2146
 1344SOL    HW215669   4.334   1.976  14.241  0.7191  0.5551  0.2978
 1345SOL     OW15670   2.962   0.920   7.300  0.2748 -0.3183 -0.6803
 1345SOL    HW115671   2.867   0.919   7.308  0.5499 -1.6577  2.3310
 1345SOL    HW215672   2.965   1.015   7.284 -0.5474 -0.5095 -1.9667
 1346SOL     OW15673   1.641   4.188  15.620 -0.0676 -0.0765  0.5036
 1346SOL    HW115674   1.689   4.105  15.621  0.1859  0.0342 -1.9293
 1346SOL    HW215675   1.683   4.239  15.688  0.3604  2.0525 -1.3550
 1347SOL     OW15676   3.265   2.269   8.487 -0.1548 -0.3090  0.3080
 1347SOL    HW115677   3.275   2.223   8.404  1.4937 -0.1427  0.4101
 1347SOL    HW215678   3.356   2.289   8.508  0.3476 -1.5625 -0.6621
 1348SOL     OW15679   3.444   3.130  12.815  0.1009 -0.5680  0.6001
 1348SOL    HW115680   3.415   3.169  12.732  0.7722 -1.1961  0.0648
 1348SOL    HW215681   3.531   3.100  12.788 -0.2181 -0.0609 -1.0328
 1349SOL     OW15682   1.023   4.260   5.934 -0.3035  0.1045 -0.2053
 1349SOL    HW115683   1.104   4.218   5.905 -0.6390 -0.0204 -0.9534
 1349SOL    HW215684   1.029   4.241   6.028  2.0443 -0.3658 -0.4649
 1350SOL     OW15685   0.661   1.745   3.733  0.6344 -0.5153 -0.3639
 1350SOL    HW115686   0.725   1.677   3.755  1.9405  0.0328 -2.5255
 1350SOL    HW215687   0.605   1.749   3.811 -0.4796  0.2572 -1.2047
 1351SOL     OW15688   2.472   3.517   7.827 -0.6341  0.2875 -0.3591
 1351SOL    HW115689   2.550   3.492   7.777 -0.9310  0.0744 -0.7087
 1351SOL    HW215690   2.465   3.613   7.831 -1.3686  0.1553  1.3874
 1352SOL     OW15691   3.115   1.601   0.367  0.0480  0.3910 -0.2543
 1352SOL    HW115692   3.153   1.673   0.417  0.3416  1.1380 -1.5428
 1352SOL    HW215693   3.051   1.656   0.323 -2.1978 -0.2378  2.2177
 1353SOL     OW15694   2.698   2.043   3.026  0.6708  0.2035  0.1259
 1353SOL    HW115695   2.627   2.105   3.007  2.1440  0.4967 -4.4413
 1353SOL    HW215696   2.719   2.010   2.938 -1.6105  0.9668 -0.7055
 1354SOL     OW15697   4.360   0.139   2.821 -0.0092  0.1465  0.0491
 1354SOL    HW115698   4.305   0.091   2.759  1.7962  0.2885 -1.6658
 1354SOL    HW215699   4.437   0.158   2.767  0.8328 -2.6778  0.2643
 1355SOL     OW15700   3.289   4.676   7.206 -0.7730 -0.4696 -0.2720
 1355SOL    HW115701   3.321   4.711   7.123  0.0211  0.2063  0.3224
 1355SOL    HW215702   3.194   4.669   7.192 -0.6482  1.4811 -2.1945
 1356SOL     OW15703   0.673   2.879   6.527 -1.0623 -0.0363  0.4004
 1356SOL    HW115704   0.680   2.952   6.465  0.6831 -1.1334 -0.7009
 1356SOL    HW215705   0.718   2.922   6.600  0.9346 -1.5462  0.0621
 1357SOL     OW15706   3.929   3.350   7.930 -0.2002  0.6002  0.6610
 1357SOL    HW115707   3.879   3.327   7.851  2.1991 -0.6688 -0.4978
 1357SOL    HW215708   3.864   3.323   7.994 -1.2692 -0.4908 -0.8939
 1358SOL     OW15709   0.248   4.062  12.000 -0.3526  0.2764 -0.4633
 1358SOL    HW115710   0.283   4.038  11.914 -1.3828  0.0153 -0.8177
 1358SOL    HW215711   0.166   4.103  11.974 -0.2174  0.0733 -1.1998
 1359SOL     OW15712   2.001   0.109   8.729  0.2948 -0.1659 -0.5798
 1359SOL    HW115713   1.917   0.087   8.690 -0.7369 -0.2132  1.6283
 1359SOL    HW215714   1.976   0.179   8.789 -1.0440  0.0858 -1.4492
 1360SOL     OW15715   3.953   0.159  15.256  0.8287  0.3389 -0.2878
 1360SOL    HW115716   4.010   0.206  15.317  0.1691  0.7056  0.0457
 1360SOL    HW215717   3.967   0.070  15.288 -0.7945  1.0297  2.3038
 1361SOL     OW15718   3.921   0.845   8.979 -0.7104 -0.0843  0.4240
 1361SOL    HW115719   3.877   0.902   8.917  0.2161  0.4786  0.2774
 1361SOL    HW215720   3.918   0.895   9.061 -0.7391 -0.9503  0.9552
 1362SOL     OW15721   3.873   3.570   2.905  0.1052  0.6493 -0.2595
 1362SOL    HW115722   3.837   3.567   2.994  0.9628  1.8603  0.1160
 1362SOL    HW215723   3.871   3.477   2.882  2.0425  0.5216  0.0952
 1363SOL     OW15724   0.602   2.034  12.194 -0.0211  0.2140  0.4082
 1363SOL    HW115725   0.627   1.971  12.126  1.0441 -0.8728  1.8178
 1363SOL    HW215726   0.674   2.095  12.184 -0.3181  0.3988 -0.6568
 1364SOL     OW15727   2.976   3.283   4.082 -0.1390 -0.3308 -0.4206
 1364SOL    HW115728   2.945   3.373   4.070 -0.3773 -0.3099  0.3632
 1364SOL    HW215729   2.960   3.249   3.994 -0.8682 -0.9807 -0.0244
 1365SOL     OW15730   4.075   1.787   8.595 -0.0640 -0.4546 -0.1611
 1365SOL    HW115731   4.009   1.825   8.653 -0.1431  0.0261 -0.5603
 1365SOL    HW215732   4.130   1.738   8.655  1.4880 -1.1186 -2.1276
 1366SOL     OW15733   0.588   1.765   5.788  0.2767  0.1804 -0.4898
 1366SOL    HW115734   0.633   1.737   5.868 -1.8628  0.5115  0.8643
 1366SOL    HW215735   0.551   1.842   5.831  0.0617 -1.2759  1.9463
 1367SOL     OW15736   3.504   1.425  14.158  0.1120 -0.0373 -0.1963
 1367SOL    HW115737   3.428   1.441  14.102 -1.1300  1.1902  1.8534
 1367SOL    HW215738   3.534   1.343  14.119  0.3578  0.1945 -0.4974
 1368SOL     OW15739   2.173   1.417   1.964 -0.3496 -0.2569 -0.3065
 1368SOL    HW115740   2.215   1.392   1.882 -0.1824 -2.2261  0.3730
 1368SOL    HW215741   2.237   1.476   2.004  0.5902 -1.6942  0.2902
 1369SOL     OW15742   2.726   4.584   0.760  0.4465  0.5703 -0.0917
 1369SOL    HW115743   2.699   4.673   0.786  0.1638 -0.0804  1.8439
 1369SOL    HW215744   2.759   4.609   0.673  1.3823 -2.0023 -0.4611
 1370SOL     OW15745   3.654   3.735   4.833  0.3187  0.2859 -0.1292
 1370SOL    HW115746   3.585   3.699   4.777 -1.4195  1.9033  0.9859
 1370SOL    HW215747   3.644   3.674   4.906  2.5471  0.3141  0.2085
 1371SOL     OW15748   2.305   2.523   6.619 -0.4196 -0.1275  0.0701
 1371SOL    HW115749   2.242   2.498   6.552  1.1318 -2.3598 -0.5704
 1371SOL    HW215750   2.245   2.546   6.689  0.5687  0.8146  0.6020
 1372SOL     OW15751   3.805   4.327   5.248  0.1184 -0.1659 -0.2263
 1372SOL    HW115752   3.821   4.390   5.318 -0.4725  1.6023 -1.6806
 1372SOL    HW215753   3.718   4.298   5.274  1.4810 -1.3731  3.0173
 1373SOL     OW15754   1.431   3.721   0.504 -0.1897  0.1313 -0.6664
 1373SOL    HW115755   1.398   3.676   0.426 -0.5255  0.9021 -0.9643
 1373SOL    HW215756   1.524   3.703   0.486  0.1993  1.2339  0.3205
 1374SOL     OW15757   4.458   1.950  13.082 -0.0347 -0.6612 -0.1403
 1374SOL    HW115758   4.394   1.980  13.017  0.7223  0.3499 -0.4152
 1374SOL    HW215759   4.509   2.031  13.080  0.2137 -0.8639 -1.8888
 1375SOL     OW15760   1.143   4.308   7.938  0.2770  0.1446  0.2628
 1375SOL    HW115761   1.082   4.306   7.865  0.4433 -2.3782  0.2001
 1375SOL    HW215762   1.137   4.402   7.956  2.4465  0.1929  0.7665
 1376SOL     OW15763   2.228   2.158   8.221  0.1781 -0.3687 -0.1743
 1376SOL    HW115764   2.140   2.192   8.203 -0.0002  0.6147  2.5250
 1376SOL    HW215765   2.274   2.165   8.137  0.3141 -1.3198 -0.1736
 1377SOL     OW15766   3.811   3.255   8.182  0.2124 -0.4148  0.3952
 1377SOL    HW115767   3.800   3.343   8.216 -2.7251 -0.9605  0.8371
 1377SOL    HW215768   3.732   3.204   8.198 -0.5185  0.4841 -0.3738
 1378SOL     OW15769   3.046   2.901   9.383 -0.0587 -0.5797  0.0056
 1378SOL    HW115770   2.964   2.947   9.365  0.5501  0.2073 -0.8035
 1378SOL    HW215771   3.042   2.810   9.353 -1.3214 -0.8230  0.9340
 1379SOL     OW15772   4.728   4.005   7.431 -0.0215  1.0344 -0.1384
 1379SOL    HW115773   4.657   3.942   7.423 -0.5723  1.8939 -2.2525
 1379SOL    HW215774   0.028   4.011   7.343  0.6907 -1.0660  0.0344
 1380SOL     OW15775   2.295   1.097   1.436 -0.4290 -0.5272 -0.2401
 1380SOL    HW115776   2.277   1.099   1.530 -1.0751  1.8256 -0.4220
 1380SOL    HW215777   2.369   1.158   1.435 -0.0115 -1.0404 -0.3650
 1381SOL     OW15778   3.841   2.858   5.979  0.0255 -0.3857 -0.3399
 1381SOL    HW115779   3.776   2.853   6.049  0.8051 -0.5679  0.3694
 1381SOL    HW215780   3.801   2.932   5.935 -0.9656 -1.6910 -1.6488
 1382SOL     OW15781   4.529   0.605   1.047  0.6012  0.1000 -0.2072
 1382SOL    HW115782   4.498   0.661   0.975 -0.8454  0.5298  0.7627
 1382SOL    HW215783   4.613   0.652   1.051  0.4742  0.2399  0.7106
 1383SOL     OW15784   2.645   3.200   4.451 -0.2905 -0.2072 -0.4013
 1383SOL    HW115785   2.697   3.279   4.468  0.1809 -0.2377 -1.6631
 1383SOL    HW215786   2.687   3.181   4.367 -0.4392  2.3510 -1.0694
 1384SOL     OW15787   3.377   0.019   8.907 -0.2958  0.2490  0.1695
 1384SOL    HW115788   3.307   4.708   8.951 -0.4434  0.3688  0.0707
 1384SOL    HW215789   3.451   4.722   8.957 -0.4490  0.8521  0.8239
 1385SOL     OW15790   4.040   2.987   3.639  0.1825  0.1793  0.4301
 1385SOL    HW115791   4.093   2.942   3.574  0.7682  3.1303 -1.1582
 1385SOL    HW215792   4.041   2.923   3.710  0.2685  2.2358  2.3030
 1386SOL     OW15793   4.180   1.853   9.188  0.2170 -0.7153  0.4425
 1386SOL    HW115794   4.095   1.861   9.145  0.8309 -0.8695 -0.8047
 1386SOL    HW215795   4.224   1.803   9.119  1.2939  1.8963 -0.7424
 1387SOL     OW15796   3.999   4.118  10.109 -0.0264  0.5610  0.1873
 1387SOL    HW115797   3.928   4.053  10.116  1.0435 -0.7589 -1.3855
 1387SOL    HW215798   3.969   4.163  10.030  1.5533  0.5773 -0.4064
 1388SOL     OW15799   1.799   3.926   3.537  0.4063  0.1388  0.0146
 1388SOL    HW115800   1.791   3.962   3.449  2.1752  0.2898 -0.0768
 1388SOL    HW215801   1.888   3.946   3.566 -0.1844  0.0324  1.9412
 1389SOL     OW15802   1.717   4.329  11.022 -0.2562  0.2265 -0.4055
 1389SOL    HW115803   1.671   4.281  10.954  0.9623  0.3958 -1.3572
 1389SOL    HW215804   1.717   4.413  10.976 -3.4620  1.4438  1.8801
 1390SOL     OW15805   3.985   4.477   4.069  0.0961 -0.8416 -0.4236
 1390SOL    HW115806   3.908   4.454   4.121 -0.4171 -0.3917 -0.9838
 1390SOL    HW215807   3.943   4.522   3.996 -0.8497 -1.9097 -0.5490
 1391SOL     OW15808   2.729   3.064   5.132  0.7453  0.2016 -0.0875
 1391SOL    HW115809   2.704   3.108   5.051 -0.7689  1.6794  1.1775
 1391SOL    HW215810   2.822   3.063   5.110  1.4505 -0.7537  2.9523
 1392SOL     OW15811   2.003   0.548   1.551  0.2096 -0.2206 -0.2948
 1392SOL    HW115812   1.994   0.566   1.457 -0.5903  0.4596 -0.0969
 1392SOL    HW215813   1.951   0.469   1.562  1.8094 -1.0170  1.5936
 1393SOL     OW15814   0.385   0.798   5.023  0.1627 -0.1854 -0.1546
 1393SOL    HW115815   0.302   0.757   5.046  1.2652 -1.4615  1.5799
 1393SOL    HW215816   0.404   0.739   4.951  1.0378  3.2539 -2.7329
 1394SOL     OW15817   0.981   3.605   7.490 -0.3550  0.6302 -0.0367
 1394SOL    HW115818   1.055   3.621   7.548 -1.1993  3.7684  0.1892
 1394SOL    HW215819   0.940   3.532   7.537 -0.2517  0.9937  0.6224
 1395SOL     OW15820   2.665   2.514   8.750 -0.6990 -0.4903 -0.3132
 1395SOL    HW115821   2.710   2.490   8.831  0.3585 -1.2665 -1.1276
 1395SOL    HW215822   2.678   2.433   8.700  1.5512  0.6975 -1.6489
 1396SOL     OW15823   2.590   2.999  14.067 -0.1195  0.6129  0.0349
 1396SOL    HW115824   2.541   2.926  14.103  2.5437  0.1210  2.7060
 1396SOL    HW215825   2.657   3.009  14.135 -0.4423 -1.1246  0.5975
 1397SOL     OW15826   0.261   2.073  14.056  0.3722  0.0712  0.6911
 1397SOL    HW115827   0.238   2.165  14.043 -3.3783 -0.7049  1.8934
 1397SOL    HW215828   0.340   2.079  14.110  0.8131  1.2591 -0.1080
 1398SOL     OW15829   1.314   1.912   9.023 -0.3552 -0.3255  0.0678
 1398SOL    HW115830   1.327   1.979   8.956  0.5184  1.4032  1.9530
 1398SOL    HW215831   1.226   1.936   9.054 -0.5488 -1.8341  0.6726
 1399SOL     OW15832   0.713   3.768   2.983  0.2671  0.1703 -0.2402
 1399SOL    HW115833   0.686   3.835   3.046  1.1729 -0.0897  0.4346
 1399SOL    HW215834   0.790   3.733   3.029 -0.4016  0.4750  1.1112
 1400SOL     OW15835   0.474   2.241   6.886  0.0206  0.6795 -0.6307
 1400SOL    HW115836   0.525   2.176   6.837  0.7455  0.6438  0.1698
 1400SOL    HW215837   0.416   2.183   6.936  0.4408 -0.7795 -1.8540
 1401SOL     OW15838   1.015   2.877   9.097  0.0226  0.0380 -0.0184
 1401SOL    HW115839   1.082   2.908   9.036  0.8970  1.2637  1.5706
 1401SOL    HW215840   1.045   2.853   9.185 -0.7549 -0.1405  0.1998
 1402SOL     OW15841   2.525   4.578   3.721  0.7294  0.2016  0.0930
 1402SOL    HW115842   2.512   4.487   3.747 -0.7652 -0.1618 -1.9203
 1402SOL    HW215843   2.552   4.611   3.807  0.9449  1.2710 -0.3868
 1403SOL     OW15844   1.557   2.773   9.412 -0.2200  0.2593 -0.1896
 1403SOL    HW115845   1.548   2.732   9.326 -2.9724  0.2935  0.0733
 1403SOL    HW215846   1.478   2.827   9.424  0.4147  0.7166  1.9486
 1404SOL     OW15847   4.145   2.183   9.403 -0.8579  0.4056 -0.0175
 1404SOL    HW115848   4.227   2.151   9.366  0.9330 -0.1158  4.4470
 1404SOL    HW215849   4.119   2.241   9.330  2.7600  0.8175 -0.9742
 1405SOL     OW15850   0.479   3.512   7.721  0.6566 -0.3827 -0.1975
 1405SOL    HW115851   0.430   3.437   7.753  0.9264  0.3586  2.0298
 1405SOL    HW215852   0.514   3.476   7.640 -1.9425  0.1650 -1.5337
 1406SOL     OW15853   0.516   1.031   3.214 -0.5742 -0.0549 -0.5644
 1406SOL    HW115854   0.596   0.980   3.197 -0.8284 -0.0936 -1.5900
 1406SOL    HW215855   0.456   0.963   3.244  0.8359 -0.6528  0.9500
 1407SOL     OW15856   2.776   4.499   7.303  0.0740 -0.6037  0.3325
 1407SOL    HW115857   2.718   4.427   7.282 -0.8905 -0.3430  2.0644
 1407SOL    HW215858   2.720   4.577   7.298 -0.4495 -1.0483 -0.6567
 1408SOL     OW15859   0.634   2.741   7.349 -0.0433 -0.0731 -0.2018
 1408SOL    HW115860   0.549   2.699   7.361  0.4534 -0.5389  1.7491
 1408SOL    HW215861   0.597   2.823   7.317 -0.4485  0.4516  1.5634
 1409SOL     OW15862   2.227   3.032  16.108 -0.3737 -0.0239  0.1316
 1409SOL    HW115863   2.296   3.050  16.044 -1.7652  0.1028 -1.3131
 1409SOL    HW215864   2.150   3.002  16.061 -1.7308  1.2367  1.5485
 1410SOL     OW15865   3.712   4.636  14.663 -0.3180 -0.0380  0.7296
 1410SOL    HW115866   3.624   4.615  14.693 -1.2510  1.5006 -0.9688
 1410SOL    HW215867   3.693   4.686  14.584 -0.9555  0.4629  1.1999
 1411SOL     OW15868   2.283   2.456   3.421 -0.4495 -0.2446  0.1057
 1411SOL    HW115869   2.329   2.494   3.346  0.5342 -0.5336  0.5579
 1411SOL    HW215870   2.227   2.392   3.377 -1.1961 -0.1805  0.9581
 1412SOL     OW15871   3.833   4.289  14.267  0.3123  0.0238  0.4875
 1412SOL    HW115872   3.755   4.305  14.320 -0.2272 -1.0390  0.0174
 1412SOL    HW215873   3.838   4.197  14.294 -0.1119 -0.2697 -0.4510
 1413SOL     OW15874   3.207   3.548   5.803  0.7072 -0.3127 -0.3102
 1413SOL    HW115875   3.123   3.508   5.782 -0.4724  2.0587 -0.1899
 1413SOL    HW215876   3.233   3.572   5.714  0.4569 -0.6910 -0.4813
 1414SOL     OW15877   1.377   1.683   3.532 -0.0158  0.2139 -0.5883
 1414SOL    HW115878   1.294   1.719   3.503 -0.9235  0.8545  2.8117
 1414SOL    HW215879   1.372   1.668   3.627 -0.0785 -0.5639 -0.7093
 1415SOL     OW15880   1.939   3.984  16.541 -0.2833 -0.1914 -0.0806
 1415SOL    HW115881   1.886   4.023  16.611  0.0627 -2.0877  1.2537
 1415SOL    HW215882   1.870   3.938  16.492 -1.2411  2.5489 -1.3112
 1416SOL     OW15883   1.774   0.654   3.923  0.0616  0.0898 -0.4168
 1416SOL    HW115884   1.828   0.682   3.997  1.3808 -2.6060 -0.3822
 1416SOL    HW215885   1.833   0.594   3.878  1.0185  0.6876  0.0407
 1417SOL     OW15886   1.422   3.487   4.538 -0.7073  0.5254  0.1501
 1417SOL    HW115887   1.462   3.545   4.473  0.6700 -1.4094 -0.7412
 1417SOL    HW215888   1.357   3.549   4.570 -1.7865 -0.8204  0.5744
 1418SOL     OW15889   0.022   3.575   1.674  0.1534 -0.2502 -0.4109
 1418SOL    HW115890   0.014   3.668   1.653 -3.1450 -0.7230 -1.3029
 1418SOL    HW215891   4.735   3.573   1.766  1.5270 -1.6571 -0.0524
 1419SOL     OW15892   1.469   0.991   0.463 -0.2170 -0.9674 -0.1642
 1419SOL    HW115893   1.461   0.997   0.558 -1.9742 -3.1449 -0.1891
 1419SOL    HW215894   1.504   1.077   0.439 -0.9185 -0.1677  1.7174
 1420SOL     OW15895   1.430   0.484  16.424 -0.0937  0.2022  0.8580
 1420SOL    HW115896   1.340   0.504  16.400 -0.7293 -2.1528  1.2971
 1420SOL    HW215897   1.458   0.436  16.345 -1.7294 -1.5093  1.3173
 1421SOL     OW15898   0.347   2.282   3.516  0.4375  0.4444  0.0411
 1421SOL    HW115899   0.347   2.220   3.443  1.8990 -0.0105  0.4327
 1421SOL    HW215900   0.271   2.336   3.494  0.2379  0.0283 -0.2924
 1422SOL     OW15901   0.023   2.931   7.965  0.4599  0.0849  0.4671
 1422SOL    HW115902   4.726   2.999   7.908 -1.5549 -1.9940 -0.7835
 1422SOL    HW215903   0.101   2.913   7.912  1.4609 -2.5732  2.8638
 1423SOL     OW15904   4.037   1.630   3.763  0.1890 -0.3178  0.6404
 1423SOL    HW115905   4.091   1.679   3.701 -1.3947 -0.1688 -0.6261
 1423SOL    HW215906   4.009   1.558   3.707  0.8449 -0.1111  0.0436
 1424SOL     OW15907   4.443   4.163   7.986  0.3601  0.2751 -0.1983
 1424SOL    HW115908   4.369   4.185   8.043  1.3971  2.2198  0.3678
 1424SOL    HW215909   4.506   4.216   8.034  0.5946  0.3962 -0.6410
 1425SOL     OW15910   2.023   3.523   2.970  0.1647  0.6047 -0.3784
 1425SOL    HW115911   2.075   3.518   3.050  0.5551  1.1379 -0.6004
 1425SOL    HW215912   1.956   3.456   2.985  0.4402  0.1162 -1.2946
 1426SOL     OW15913   2.944   1.494  15.579 -0.7392 -0.1058 -0.4966
 1426SOL    HW115914   2.939   1.401  15.554  0.6462 -1.0809  2.8005
 1426SOL    HW215915   2.892   1.497  15.659  0.0320 -0.5898  0.0233
 1427SOL     OW15916   4.359   3.139  13.669 -0.3720 -0.2019  0.1422
 1427SOL    HW115917   4.291   3.134  13.735  0.8164 -0.4210  1.3466
 1427SOL    HW215918   4.354   3.056  13.622  0.4392 -1.5289  2.4253
 1428SOL     OW15919   0.126   3.245  10.721  0.2215 -0.5830  0.0769
 1428SOL    HW115920   0.089   3.255  10.633 -0.9519  1.4385  0.7786
 1428SOL    HW215921   0.118   3.335  10.755  3.9618 -0.4155  0.5521
 1429SOL     OW15922   1.771   3.070   8.583  0.1058  0.2615 -0.4690
 1429SOL    HW115923   1.754   2.987   8.538 -2.4032  0.4274  0.2016
 1429SOL    HW215924   1.844   3.111   8.535  0.0946 -0.8998 -1.4756
 1430SOL     OW15925   4.337   3.217   6.302 -0.6648  0.3112  0.1077
 1430SOL    HW115926   4.317   3.266   6.381  0.1064 -1.5546  1.4627
 1430SOL    HW215927   4.430   3.202   6.321 -0.1052  1.5664 -1.6363
 1431SOL     OW15928   2.741   3.503  16.698 -0.3088  0.0867 -0.1494
 1431SOL    HW115929   2.710   3.481  16.610 -0.7133  0.0833 -0.0009
 1431SOL    HW215930   2.774   3.416  16.720 -1.5275 -0.4524 -0.4747
 1432SOL     OW15931   1.777   0.119  13.039  0.0838  0.0697  0.0536
 1432SOL    HW115932   1.715   0.152  13.105  1.6165  2.5464  0.2685
 1432SOL    HW215933   1.859   0.106  13.088  1.7260 -1.4620 -3.1397
 1433SOL     OW15934   3.997   2.027  16.468 -0.4967  0.3414  0.3751
 1433SOL    HW115935   4.004   2.123  16.469  2.2655  0.1314  0.2204
 1433SOL    HW215936   3.945   2.015  16.548 -0.3667  2.2867  0.7559
 1434SOL     OW15937   2.262   3.048  13.949 -0.1220 -0.3251  0.0408
 1434SOL    HW115938   2.234   3.140  13.956  0.6402 -0.1486  0.6724
 1434SOL    HW215939   2.268   3.023  13.856  3.1357 -3.0852  1.0050
 1435SOL     OW15940   3.530   0.126   3.579 -0.0592  0.2867  0.6609
 1435SOL    HW115941   3.561   0.145   3.668  0.8604 -0.3577  0.4761
 1435SOL    HW215942   3.510   0.033   3.584 -0.4664  0.3259 -0.2028
 1436SOL     OW15943   1.055   0.418  14.483  0.3383  0.8107  0.1185
 1436SOL    HW115944   1.016   0.380  14.562  1.6140 -1.3820 -0.3335
 1436SOL    HW215945   1.034   0.511  14.497  0.2750  0.8493 -0.2303
 1437SOL     OW15946   2.230   3.773   1.070  0.0650  0.8869  0.2128
 1437SOL    HW115947   2.169   3.744   1.002  1.9895  0.4903 -1.3533
 1437SOL    HW215948   2.302   3.802   1.013 -0.5809 -0.1720 -1.1356
 1438SOL     OW15949   4.631   0.774   6.390  0.0303  0.0894 -0.3010
 1438SOL    HW115950   4.722   0.798   6.372 -0.2227  1.2590 -0.0241
 1438SOL    HW215951   4.636   0.678   6.387  0.7204  0.1558 -1.5660
 1439SOL     OW15952   2.305   2.412  11.921 -0.1473  0.5011 -0.1794
 1439SOL    HW115953   2.291   2.318  11.933 -1.2610  0.8168  1.0176
 1439SOL    HW215954   2.391   2.411  11.879 -0.2100 -0.0707 -0.2979
 1440SOL     OW15955   2.404   2.077   6.886 -0.0403 -0.1238  0.0223
 1440SOL    HW115956   2.351   2.006   6.850  0.4100 -0.7557  0.6104
 1440SOL    HW215957   2.402   2.066   6.981  1.0067 -0.0844  0.0490
 1441SOL     OW15958   3.855   0.910   8.345  0.0164 -0.5700 -0.2362
 1441SOL    HW115959   3.835   0.823   8.380  2.6075 -0.8376  0.5882
 1441SOL    HW215960   3.773   0.956   8.363 -1.0511 -3.3669  2.1276
 1442SOL     OW15961   0.340   1.254   9.425  0.1463 -0.1576 -0.2436
 1442SOL    HW115962   0.409   1.193   9.452  0.9128  0.6951 -0.2833
 1442SOL    HW215963   0.383   1.296   9.350  2.5531 -4.0815 -1.0415
 1443SOL     OW15964   2.997   0.935   8.748  0.3442 -0.7516  0.0049
 1443SOL    HW115965   2.944   0.935   8.828  0.2704  0.8654 -0.0353
 1443SOL    HW215966   3.024   1.026   8.737  0.8371 -0.9590 -0.5120
 1444SOL     OW15967   1.418   3.529  13.617  0.2664  0.2746 -0.2767
 1444SOL    HW115968   1.335   3.508  13.660  0.8030  0.0319  0.6290
 1444SOL    HW215969   1.473   3.452  13.633  0.5374  1.0855  2.5906
 1445SOL     OW15970   3.261   1.946   6.287  0.5054 -1.2081  0.3985
 1445SOL    HW115971   3.182   1.999   6.280  1.0938 -0.1265  1.8503
 1445SOL    HW215972   3.233   1.862   6.250  2.3757 -1.3854 -0.6576
 1446SOL     OW15973   1.215   3.330   9.669  0.3667 -0.8254 -0.2542
 1446SOL    HW115974   1.276   3.403   9.679 -0.8475  0.4214 -1.9012
 1446SOL    HW215975   1.254   3.286   9.593  3.9092  1.7847  0.0419
 1447SOL     OW15976   0.280   3.651   3.431 -0.0463  0.0835 -0.5751
 1447SOL    HW115977   0.294   3.745   3.422 -1.0140  0.1799 -1.0118
 1447SOL    HW215978   0.225   3.652   3.509  0.1314 -1.8869 -0.4065
 1448SOL     OW15979   1.155   0.693  11.590  0.7870 -0.6336  0.2437
 1448SOL    HW115980   1.093   0.736  11.531 -2.4340 -1.8928  2.6728
 1448SOL    HW215981   1.225   0.757  11.604 -1.0959  1.3363  0.6327
 1449SOL     OW15982   1.382   3.118  11.336 -0.0850 -0.4217  0.1599
 1449SOL    HW115983   1.321   3.071  11.279 -0.6645 -0.1778  0.5791
 1449SOL    HW215984   1.382   3.057  11.410 -1.7046  1.7366  1.9056
 1450SOL     OW15985   2.928   1.167   5.996  0.3368 -1.0653  0.6931
 1450SOL    HW115986   2.990   1.212   6.053  1.9201 -2.6413  0.2409
 1450SOL    HW215987   2.858   1.154   6.060  0.1449 -0.7357  0.5479
 1451SOL     OW15988   3.317   3.852   1.607 -0.0884  0.2475 -0.6564
 1451SOL    HW115989   3.292   3.939   1.640  1.5636  0.6227 -0.4130
 1451SOL    HW215990   3.264   3.798   1.667 -0.0603  2.0909  1.0435
 1452SOL     OW15991   0.338   0.971   4.778 -0.3507  0.1043  0.0296
 1452SOL    HW115992   0.409   0.947   4.718  0.7698  0.0114  1.3943
 1452SOL    HW215993   0.381   0.934   4.854 -0.4930  0.2459  0.1790
 1453SOL     OW15994   2.901   4.679   1.473  0.2853 -0.0172  0.0279
 1453SOL    HW115995   2.861   4.735   1.406  0.4660  1.2502  0.9858
 1453SOL    HW215996   2.852   4.721   1.544  1.0082 -0.5408  0.8253
 1454SOL     OW15997   2.363   2.648   3.848  0.2902  0.2009  0.1041
 1454SOL    HW115998   2.375   2.568   3.797  2.6333  0.0772  0.8396
 1454SOL    HW215999   2.402   2.710   3.785 -1.5454 -0.0127 -1.2386
 1455SOL     OW16000   4.569   4.052   9.055  0.5969  0.0868 -0.8152
 1455SOL    HW116001   4.582   4.097   8.972 -1.7638  0.4288 -0.9888
 1455SOL    HW216002   4.546   3.966   9.022 -0.0669  0.3246 -0.9629
 1456SOL     OW16003   0.270   2.326   6.213  0.0522 -0.1800 -0.0120
 1456SOL    HW116004   0.314   2.299   6.133  0.0022 -0.6867  0.1299
 1456SOL    HW216005   0.329   2.301   6.284  0.6945  2.6298  0.4512
 1457SOL     OW16006   0.368   2.675   6.199 -0.1357  0.3667 -0.2475
 1457SOL    HW116007   0.306   2.746   6.217  0.9381  1.3420 -0.3445
 1457SOL    HW216008   0.411   2.671   6.284  2.3629  0.5954 -1.5003
 1458SOL     OW16009   0.858   3.136   6.452 -0.2226 -0.3767 -0.0894
 1458SOL    HW116010   0.832   3.125   6.361  0.4592 -1.0363 -0.2031
 1458SOL    HW216011   0.943   3.094   6.444 -0.0894 -0.2848  0.7838
 1459SOL     OW16012   3.713   2.260  12.832 -0.0607  0.5480  0.1027
 1459SOL    HW116013   3.699   2.181  12.780 -0.5288  1.1859 -0.7377
 1459SOL    HW216014   3.677   2.330  12.777  0.6698  0.7253 -0.1520
 1460SOL     OW16015   4.474   1.705  13.215 -0.3110 -0.1580  0.3734
 1460SOL    HW116016   4.450   1.784  13.166  1.0968  0.5564  0.8348
 1460SOL    HW216017   4.519   1.654  13.149  0.1715 -1.5637  1.7763
 1461SOL     OW16018   0.352   0.964  14.967  0.1531  0.3300  0.2897
 1461SOL    HW116019   0.435   0.935  14.930 -2.0373 -0.5536 -3.8793
 1461SOL    HW216020   0.380   1.012  15.045  0.9851  2.2400 -1.1693
 1462SOL     OW16021   2.031   0.985   3.696  0.0151  0.4620  0.2931
 1462SOL    HW116022   2.085   0.908   3.678  1.9875  1.4970  1.7581
 1462SOL    HW216023   2.084   1.037   3.756 -0.2726  0.8897  0.1799
 1463SOL     OW16024   4.566   2.757   8.160  0.1217  0.1718  0.3375
 1463SOL    HW116025   4.481   2.763   8.117 -0.6249 -1.3852  1.6302
 1463SOL    HW216026   4.610   2.828   8.112  1.1300 -1.3746 -1.0568
 1464SOL     OW16027   4.225   3.649   2.143  0.3739  0.6835  0.0292
 1464SOL    HW116028   4.177   3.589   2.200 -0.8780 -0.9410 -2.7613
 1464SOL    HW216029   4.161   3.653   2.072 -2.6593  0.2701  2.7686
 1465SOL     OW16030   2.501   4.041   5.487  0.0667  0.0393  0.7543
 1465SOL    HW116031   2.522   3.955   5.524  2.8746  0.9738  1.3809
 1465SOL    HW216032   2.583   4.061   5.442 -0.2154 -1.3344 -0.3819
 1466SOL     OW16033   0.926   3.802   8.285  0.4542 -0.2809  0.0733
 1466SOL    HW116034   0.978   3.751   8.224 -0.1468 -1.2849  0.3943
 1466SOL    HW216035   0.853   3.822   8.227  0.7000  0.3406 -0.0209
 1467SOL     OW16036   3.307   1.988   8.070 -0.0081  0.0031  0.1702
 1467SOL    HW116037   3.361   1.971   7.993  0.7792  4.4922 -0.2359
 1467SOL    HW216038   3.243   1.917   8.062  0.2588 -0.2428  0.1731
 1468SOL     OW16039   0.400   3.717   7.892 -0.4223 -0.2629  0.1095
 1468SOL    HW116040   0.481   3.769   7.889 -0.6710  0.2016  1.2317
 1468SOL    HW216041   0.414   3.657   7.819  0.8355 -2.2458  1.9645
 1469SOL     OW16042   2.040   0.433   4.284 -0.1999 -0.3793  0.0353
 1469SOL    HW116043   1.999   0.489   4.350 -2.7619 -0.5030 -1.4769
 1469SOL    HW216044   1.975   0.440   4.214 -1.0925  1.2509  1.0358
 1470SOL     OW16045   0.020   3.790   9.685 -0.5146 -0.5871 -0.2757
 1470SOL    HW116046   4.692   3.818   9.747 -2.3880 -0.3215 -2.3808
 1470SOL    HW216047   0.018   3.695   9.701  2.7048 -0.5441  0.3575
 1471SOL     OW16048   0.890   1.754   6.824  0.2381  0.1069  0.0900
 1471SOL    HW116049   0.819   1.690   6.821  1.1847 -0.9669  1.0047
 1471SOL    HW216050   0.856   1.790   6.742  1.6345 -2.7918 -1.7480
 1472SOL     OW16051   0.990   1.067   5.052  0.1699  0.0880  0.1630
 1472SOL    HW116052   0.902   1.065   5.091 -0.6315  0.6598 -1.6418
 1472SOL    HW216053   1.043   1.023   5.119  0.4065 -0.8868 -0.6633
 1473SOL     OW16054   3.228   3.324   6.709  0.0915 -0.6419 -0.2921
 1473SOL    HW116055   3.196   3.401   6.757  0.5967  0.2712 -1.3950
 1473SOL    HW216056   3.306   3.304   6.761 -1.6322 -1.5898  1.8754
 1474SOL     OW16057   0.983   3.693  15.293  0.2799 -0.6136  0.1957
 1474SOL    HW116058   1.050   3.625  15.287  2.2334  1.4072 -1.2370
 1474SOL    HW216059   1.017   3.770  15.247 -2.6435  0.4520 -0.1994
 1475SOL     OW16060   2.417   3.920  13.403  0.3146  0.1404 -0.1517
 1475SOL    HW116061   2.477   3.918  13.328 -2.1196  1.8661 -2.1477
 1475SOL    HW216062   2.474   3.928  13.480 -1.2621  0.0373  1.0136
 1476SOL     OW16063   0.745   2.305   8.246 -0.5170  0.9875  0.3791
 1476SOL    HW116064   0.812   2.332   8.184  0.6678 -2.1687  0.3030
 1476SOL    HW216065   0.805   2.281   8.316  0.8944  1.0950 -0.8014
 1477SOL     OW16066   0.577   3.980   3.093  0.7012  0.9462 -0.4641
 1477SOL    HW116067   0.486   3.964   3.121  0.1671  3.3971 -0.8140
 1477SOL    HW216068   0.602   4.037   3.166 -0.3998  1.0880 -0.1884
 1478SOL     OW16069   3.240   3.713   8.495 -0.0151  0.3248 -0.1937
 1478SOL    HW116070   3.160   3.763   8.516  0.8823  0.9206  1.8290
 1478SOL    HW216071   3.273   3.695   8.583 -0.3859 -0.9609 -0.3212
 1479SOL     OW16072   2.418   2.633   6.328  0.3432  0.0340  0.1416
 1479SOL    HW116073   2.384   2.591   6.249 -1.2665  0.6488  0.5150
 1479SOL    HW216074   2.494   2.679   6.290 -0.8681 -1.2880 -3.8914
 1480SOL     OW16075   2.089   1.063   2.210  0.1851  0.0565 -0.3637
 1480SOL    HW116076   2.057   1.114   2.135  1.4862 -2.3330 -2.5396
 1480SOL    HW216077   2.174   1.105   2.219  0.3973 -0.1650 -1.4273
 1481SOL     OW16078   1.461   2.475  15.550  0.2057 -0.2117  0.1824
 1481SOL    HW116079   1.442   2.432  15.467  0.4066  0.9817 -0.4892
 1481SOL    HW216080   1.420   2.561  15.536 -0.5404 -0.6034 -0.0391
 1482SOL     OW16081   2.688   4.439   7.868  0.0557 -0.0790  0.5998
 1482SOL    HW116082   2.608   4.414   7.914  0.0731 -0.8526  0.2182
 1482SOL    HW216083   2.662   4.507   7.806  0.0219 -0.9674 -0.3601
 1483SOL     OW16084   4.188   0.961   6.987  0.5189  0.6016 -0.3011
 1483SOL    HW116085   4.236   0.894   6.939  1.4808  2.0140 -1.3220
 1483SOL    HW216086   4.253   1.029   7.006 -0.7572  2.1047 -1.2568
 1484SOL     OW16087   2.857   1.711   0.310 -0.3124 -0.1612 -0.1702
 1484SOL    HW116088   2.812   1.788   0.344 -1.2324 -0.1183 -1.4819
 1484SOL    HW216089   2.803   1.692   0.233  1.0030 -1.2246 -0.8338
 1485SOL     OW16090   0.020   3.108   5.191 -0.2709  0.4258  0.1758
 1485SOL    HW116091   0.082   3.077   5.125 -1.1161 -0.2486 -0.2985
 1485SOL    HW216092   0.043   3.046   5.261  1.5798  1.3971  0.4385
 1486SOL     OW16093   1.557   2.865   7.924 -0.4459 -0.3199  0.4927
 1486SOL    HW116094   1.647   2.837   7.910 -0.6294 -0.1537 -1.0983
 1486SOL    HW216095   1.562   2.960   7.910  1.2681 -0.5667 -0.5197
 1487SOL     OW16096   0.587   4.459   4.363 -0.2856  0.1614 -0.3488
 1487SOL    HW116097   0.542   4.378   4.337  0.8876  0.0286 -1.9898
 1487SOL    HW216098   0.513   4.517   4.348 -0.2365  0.6954  1.4752
 1488SOL     OW16099   2.059   2.838   3.926 -0.4363 -0.0976 -0.4635
 1488SOL    HW116100   2.134   2.827   3.985 -2.0060  0.3429  1.6265
 1488SOL    HW216101   1.992   2.876   3.982  0.7844  1.5490 -0.1051
 1489SOL     OW16102   0.210   3.825  16.301 -0.6045 -0.3690 -0.4824
 1489SOL    HW116103   0.302   3.851  16.289  0.0022 -2.1756  0.3182
 1489SOL    HW216104   0.163   3.876  16.235 -1.5406 -0.4471  0.1188
 1490SOL     OW16105   4.058   3.764  15.406  0.1492 -0.4512  0.2333
 1490SOL    HW116106   4.100   3.800  15.484  1.9202 -2.1178  0.0381
 1490SOL    HW216107   3.969   3.793  15.428  0.4329  0.7478 -0.2156
 1491SOL     OW16108   3.934   3.888  17.479 -0.6475 -0.0768 -0.0387
 1491SOL    HW116109   3.905   3.816  17.423 -1.5529  1.4011 -1.5092
 1491SOL    HW216110   4.016   3.903  17.432 -0.8164 -1.4903 -0.7724
 1492SOL     OW16111   2.641   3.706  11.626  0.4701  0.9683 -0.1362
 1492SOL    HW116112   2.659   3.625  11.675  1.2152  1.3033  0.1366
 1492SOL    HW216113   2.548   3.718  11.644  0.7953  0.4730  1.8773
 1493SOL     OW16114   2.606   3.655   5.052  0.4984 -0.0874 -0.2626
 1493SOL    HW116115   2.690   3.684   5.016  0.3561 -0.7021 -1.1000
 1493SOL    HW216116   2.634   3.568   5.080 -0.4431  0.6290  2.9100
 1494SOL     OW16117   0.027   4.720  15.908  0.2631  0.5544 -0.3068
 1494SOL    HW116118   4.711   0.057  15.887  0.7273  0.9517 -0.0857
 1494SOL    HW216119   0.061   4.706  15.819 -1.1839 -1.3648 -0.5566
 1495SOL     OW16120   1.583   3.465   9.416 -0.0154  0.1114  0.3264
 1495SOL    HW116121   1.620   3.479   9.328  1.7247  0.1623  1.0568
 1495SOL    HW216122   1.660   3.454   9.472 -1.3339 -0.0313  2.1108
 1496SOL     OW16123   3.067   0.775  16.046 -0.5503  0.3074  0.4726
 1496SOL    HW116124   3.036   0.694  16.089  1.0984 -0.2498  0.6159
 1496SOL    HW216125   3.045   0.836  16.117  0.3801 -2.6512  3.3550
 1497SOL     OW16126   0.337   0.737   2.379  0.2844 -0.2539  0.3710
 1497SOL    HW116127   0.311   0.677   2.449 -0.4987  1.3565  1.4666
 1497SOL    HW216128   0.386   0.805   2.426  0.0064  0.0228  0.2602
 1498SOL     OW16129   3.177   2.163  15.418 -0.0595 -0.0754 -0.4050
 1498SOL    HW116130   3.093   2.201  15.394 -0.7715  0.5034  2.9583
 1498SOL    HW216131   3.162   2.070  15.399  0.1626  0.3415 -2.6362
 1499SOL     OW16132   2.482   4.220   4.625 -0.3660  0.1125  0.2177
 1499SOL    HW116133   2.522   4.226   4.538  1.7593  0.0100  1.1837
 1499SOL    HW216134   2.480   4.311   4.654 -0.8048 -0.4087  1.7779
 1500SOL     OW16135   3.194   4.167   2.698  0.1927  0.8172 -0.7411
 1500SOL    HW116136   3.209   4.191   2.606 -1.9646  1.6257 -0.8677
 1500SOL    HW216137   3.102   4.143   2.708  0.7315 -1.1655 -0.5513
 1501SOL     OW16138   3.046   1.460   4.120  0.3186  0.1286 -0.5860
 1501SOL    HW116139   2.952   1.450   4.133  0.6676  0.7222  2.1942
 1501SOL    HW216140   3.063   1.388   4.058  0.5798 -0.3655  0.0612
 1502SOL     OW16141   4.194   4.451   0.764 -0.4270  0.4903  0.5072
 1502SOL    HW116142   4.217   4.420   0.852 -1.5845 -0.0315  0.6213
 1502SOL    HW216143   4.246   4.531   0.762  0.9210 -0.4073 -0.2342
 1503SOL     OW16144   2.353   0.844  11.463  0.2399  0.3750 -0.0049
 1503SOL    HW116145   2.329   0.854  11.555 -0.7455  1.3730 -0.3680
 1503SOL    HW216146   2.370   0.750  11.471 -1.4633  0.1724  1.1704
 1504SOL     OW16147   0.392   1.367   4.052  0.2392  0.0925 -0.3170
 1504SOL    HW116148   0.345   1.301   4.103 -1.5678  3.0816  1.9042
 1504SOL    HW216149   0.341   1.442   4.082 -2.2311 -1.4981 -0.5827
 1505SOL     OW16150   1.260   3.292   0.832  0.1239 -0.5999 -0.0082
 1505SOL    HW116151   1.327   3.358   0.815 -0.1271 -0.6567 -1.2143
 1505SOL    HW216152   1.201   3.302   0.757 -0.5044 -0.5493  0.4907
 1506SOL     OW16153   0.166   1.197   1.935 -0.1128 -0.3261  0.7866
 1506SOL    HW116154   0.169   1.258   1.862  0.3713  0.7859  1.7438
 1506SOL    HW216155   0.246   1.210   1.985  1.2129 -0.7939 -1.1901
 1507SOL     OW16156   1.881   2.637   7.358  0.3727 -0.2514 -0.1111
 1507SOL    HW116157   1.955   2.699   7.363  1.9202 -2.2661  2.0977
 1507SOL    HW216158   1.818   2.692   7.312 -2.4059 -2.7704  0.7769
 1508SOL     OW16159   2.288   4.361   1.883 -0.0955 -0.6727  0.5226
 1508SOL    HW116160   2.300   4.418   1.959  1.1891 -0.3479  0.0799
 1508SOL    HW216161   2.305   4.430   1.818 -3.5650  1.4102  1.8244
 1509SOL     OW16162   2.467   0.556   3.495  0.2433  0.3964  0.5142
 1509SOL    HW116163   2.547   0.503   3.496 -2.2219 -3.2702  0.4247
 1509SOL    HW216164   2.443   0.545   3.403  2.5209  0.7793 -0.1371
 1510SOL     OW16165   3.684   1.551   7.222  0.5443  0.3798  0.2235
 1510SOL    HW116166   3.727   1.569   7.139  0.3960 -1.0801 -0.1653
 1510SOL    HW216167   3.697   1.636   7.264  0.1309  1.4637 -1.8396
 1511SOL     OW16168   3.861   3.980   6.018  0.4161  0.4714  0.3364
 1511SOL    HW116169   3.789   3.966   5.956  0.3417 -1.1153  0.7822
 1511SOL    HW216170   3.896   3.894   6.040  0.3026  0.5433  0.8154
 1512SOL     OW16171   4.332   1.222  15.227 -0.1301  0.1207 -0.6108
 1512SOL    HW116172   4.273   1.293  15.251  0.3212  0.1257  0.4901
 1512SOL    HW216173   4.377   1.207  15.310  1.2020  2.2950 -0.9256
 1513SOL     OW16174   2.069   3.816   4.318 -0.4499  0.5713 -0.3398
 1513SOL    HW116175   2.151   3.791   4.276 -1.2431  0.7386 -1.9636
 1513SOL    HW216176   2.002   3.829   4.251 -1.7014  0.9217  0.9771
 1514SOL     OW16177   0.313   1.062   8.539  0.7457 -0.5986  0.4025
 1514SOL    HW116178   0.292   1.022   8.455 -0.4164  1.6554 -0.3788
 1514SOL    HW216179   0.299   0.989   8.599 -0.4439  0.5677  1.5505
 1515SOL     OW16180   2.266   2.414   4.061 -0.1650  0.3221  0.3705
 1515SOL    HW116181   2.199   2.374   4.006  0.7771 -1.7305  0.7029
 1515SOL    HW216182   2.311   2.461   3.991  1.0119  0.9109  1.5246
 1516SOL     OW16183   2.642   0.770   3.496 -0.2807  0.2245 -0.5771
 1516SOL    HW116184   2.699   0.748   3.569 -1.0601 -3.2955 -0.9913
 1516SOL    HW216185   2.587   0.691   3.495 -1.2916  0.9231 -0.1611
 1517SOL     OW16186   1.830   2.502   2.731 -0.0847  1.0652  0.6587
 1517SOL    HW116187   1.766   2.521   2.800 -1.7931  1.1101 -0.9459
 1517SOL    HW216188   1.852   2.412   2.753 -0.5255  0.8927  0.3998
 1518SOL     OW16189   2.213   0.657  16.012  0.1041  0.0880  0.0927
 1518SOL    HW116190   2.231   0.750  16.026 -1.3755  0.1185  1.8368
 1518SOL    HW216191   2.165   0.631  16.091  0.6759 -2.4517 -0.3759
 1519SOL     OW16192   2.832   2.570  15.151 -0.0852 -0.3898  0.2360
 1519SOL    HW116193   2.905   2.625  15.176  0.1013  0.0415 -1.2831
 1519SOL    HW216194   2.764   2.633  15.174 -0.9089 -1.0929 -0.2286
 1520SOL     OW16195   2.154   3.477   3.206 -0.4676 -0.5475 -0.2507
 1520SOL    HW116196   2.191   3.506   3.289 -0.3807  2.4644 -1.3408
 1520SOL    HW216197   2.227   3.425   3.173 -1.2878  0.0119 -3.0386
 1521SOL     OW16198   1.518   0.790   7.794  1.0013 -0.5704  0.4321
 1521SOL    HW116199   1.475   0.710   7.764 -1.1749  0.5228  0.6396
 1521SOL    HW216200   1.610   0.788   7.766  1.0417  1.6020  0.4223
 1522SOL     OW16201   1.999   4.327   6.628 -0.5880 -0.1295  0.6583
 1522SOL    HW116202   2.028   4.287   6.545  0.8040 -0.2364  1.2054
 1522SOL    HW216203   2.078   4.303   6.676 -0.7747 -0.0469  1.0036
 1523SOL     OW16204   2.719   0.597   0.841  0.0133 -0.8440 -0.0602
 1523SOL    HW116205   2.757   0.542   0.772  0.2551 -0.1567 -0.4794
 1523SOL    HW216206   2.804   0.628   0.873 -0.6086  0.2408  0.5244
 1524SOL     OW16207   2.929   4.107   4.345 -0.4929 -0.2789 -0.2319
 1524SOL    HW116208   2.853   4.129   4.291 -0.0209  3.5040  0.6331
 1524SOL    HW216209   3.005   4.157   4.313 -0.5613 -0.5359 -0.7909
 1525SOL     OW16210   1.797   3.358   7.853 -0.7469  0.6907 -0.1542
 1525SOL    HW116211   1.845   3.277   7.870  0.8461  1.4536 -0.9859
 1525SOL    HW216212   1.800   3.354   7.757 -1.5134  0.2399 -0.1559
 1526SOL     OW16213   2.101   0.257   2.413 -0.1131 -0.5014  0.1965
 1526SOL    HW116214   2.020   0.290   2.374  0.3692  2.2535  1.4569
 1526SOL    HW216215   2.111   0.320   2.485  0.2105 -1.4343  0.9613
 1527SOL     OW16216   1.460   1.744  13.651 -0.5547 -0.5544  0.5650
 1527SOL    HW116217   1.523   1.766  13.719 -2.1562 -3.1737  2.8990
 1527SOL    HW216218   1.385   1.792  13.688 -1.8559 -0.9283 -1.6136
 1528SOL     OW16219   4.307   3.752   0.591  0.2320 -0.3642 -0.4522
 1528SOL    HW116220   4.283   3.844   0.590  0.8928 -0.1849 -0.2383
 1528SOL    HW216221   4.252   3.718   0.520  0.2109 -1.5959  0.1452
 1529SOL     OW16222   4.433   0.974   9.219 -0.4862  0.3041 -0.3036
 1529SOL    HW116223   4.442   0.884   9.188 -0.6901 -0.5727  2.2210
 1529SOL    HW216224   4.522   1.003   9.202  0.5067 -2.7052 -0.1967
 1530SOL     OW16225   4.065   0.333   0.253 -0.1375  0.2233 -0.3175
 1530SOL    HW116226   4.009   0.350   0.178 -0.2990 -1.5374 -0.5964
 1530SOL    HW216227   4.032   0.248   0.282 -0.0043 -0.1940 -1.4184
 1531SOL     OW16228   0.138   3.280   4.215  0.1406 -0.4111 -0.4328
 1531SOL    HW116229   0.063   3.222   4.222  0.6441 -0.8236  1.5359
 1531SOL    HW216230   0.202   3.220   4.176  0.2544  1.1023 -2.6112
 1532SOL     OW16231   1.328   2.929   2.613 -0.3824 -0.3716  0.1234
 1532SOL    HW116232   1.303   2.932   2.705  3.2268 -2.1193  1.1747
 1532SOL    HW216233   1.397   2.996   2.613 -1.0041  0.2610  2.7601
 1533SOL     OW16234   1.092   0.439   5.116  0.0749 -0.6558 -0.1912
 1533SOL    HW116235   1.003   0.453   5.084 -1.0687 -1.8094  2.5384
 1533SOL    HW216236   1.064   0.420   5.205 -1.1331 -1.0627 -0.6632
 1534SOL     OW16237   3.071   4.415  11.403  0.1696  0.0825 -0.4578
 1534SOL    HW116238   3.125   4.390  11.328  1.5462 -0.4818  0.7134
 1534SOL    HW216239   3.107   4.357  11.471 -0.4768 -0.1221 -0.2861
 1535SOL     OW16240   2.295   1.131   6.377  0.3553  0.0188  0.3076
 1535SOL    HW116241   2.259   1.167   6.296  2.3420 -0.6990 -0.8924
 1535SOL    HW216242   2.241   1.177   6.441  0.3685  0.8924 -0.3074
 1536SOL     OW16243   1.010   3.774   2.192  0.3486  0.1507  0.3282
 1536SOL    HW116244   1.070   3.702   2.173  0.7460  1.1252 -2.0365
 1536SOL    HW216245   1.066   3.852   2.190  0.4327  0.0412 -1.2126
 1537SOL     OW16246   0.029   0.941   8.454  0.7187 -0.0412 -0.5051
 1537SOL    HW116247   0.051   1.033   8.472 -0.5597 -0.3301  2.5768
 1537SOL    HW216248   0.044   0.902   8.540  0.0718  1.2751  0.2110
 1538SOL     OW16249   2.797   0.153   5.320 -0.3020  0.1870  0.1317
 1538SOL    HW116250   2.834   0.088   5.380  1.3863 -0.9459 -2.1114
 1538SOL    HW216251   2.726   0.101   5.283 -1.0733 -0.0861  2.0390
 1539SOL     OW16252   4.702   1.816   7.738 -0.2917  0.4472 -0.5542
 1539SOL    HW116253   4.700   1.830   7.833 -0.8144  0.2141 -0.5331
 1539SOL    HW216254   4.609   1.809   7.719 -0.7740 -0.0731  1.9552
 1540SOL     OW16255   3.685   4.425   9.894 -0.1833  0.2842  0.4183
 1540SOL    HW116256   3.658   4.334   9.878  0.5691  0.4891 -2.1589
 1540SOL    HW216257   3.736   4.416   9.974  1.5237 -1.8596 -0.8868
 1541SOL     OW16258   4.654   0.564   7.975 -0.0646  0.1060  0.1932
 1541SOL    HW116259   4.559   0.575   7.985 -0.1078  0.1695 -0.2838
 1541SOL    HW216260   4.684   0.542   8.063  0.8656  1.5653  0.2456
 1542SOL     OW16261   1.706   1.572   5.253  0.4622 -0.1988 -0.0626
 1542SOL    HW116262   1.724   1.478   5.251 -2.3467 -0.7540 -0.3390
 1542SOL    HW216263   1.610   1.575   5.251  0.4794  0.0865 -0.4122
 1543SOL     OW16264   0.250   1.319  11.812 -0.4227 -0.4103  0.3691
 1543SOL    HW116265   0.285   1.285  11.894  2.5208  0.5469 -0.5004
 1543SOL    HW216266   0.327   1.317  11.755 -0.5713  0.3799  0.1252
 1544SOL     OW16267   3.254   2.145   2.263  0.0699 -0.0784 -0.0091
 1544SOL    HW116268   3.313   2.163   2.190 -0.7319 -1.1987 -0.9333
 1544SOL    HW216269   3.170   2.186   2.238  1.1373  1.6087 -0.8384
 1545SOL     OW16270   3.121   1.771   3.523 -0.1739 -0.0846 -0.4626
 1545SOL    HW116271   3.039   1.819   3.536 -0.6870 -1.6486  2.2368
 1545SOL    HW216272   3.124   1.716   3.601  1.0020  1.2351  0.4298
 1546SOL     OW16273   2.635   0.698   2.477  0.2116  0.4302  0.1673
 1546SOL    HW116274   2.614   0.692   2.570  3.2745  0.8764  0.8649
 1546SOL    HW216275   2.676   0.613   2.460 -1.9635 -0.6246  0.1624
 1547SOL     OW16276   0.767   1.598  15.416 -0.6938 -0.3167  0.3717
 1547SOL    HW116277   0.857   1.630  15.426 -0.2787 -1.7155  1.1579
 1547SOL    HW216278   0.788   1.532  15.350 -0.4600 -0.7074  0.8344
 1548SOL     OW16279   4.613   0.229   8.778 -0.0235 -0.3733  0.3450
 1548SOL    HW116280   4.707   0.217   8.764  0.3926  0.2105  2.5784
 1548SOL    HW216281   4.599   0.273   8.694 -1.5027 -1.0696  0.2336
 1549SOL     OW16282   1.271   2.925   8.990 -0.5863 -0.1931 -0.5070
 1549SOL    HW116283   1.346   2.875   9.019 -0.5810 -0.6180 -1.2535
 1549SOL    HW216284   1.233   2.858   8.933 -1.8664 -0.9471  1.2434
 1550SOL     OW16285   3.850   0.084   3.558 -0.1980  0.2133  0.0955
 1550SOL    HW116286   3.861   0.125   3.644 -0.6080 -0.7469  0.6101
 1550SOL    HW216287   3.924   0.132   3.520 -0.2839  0.3516  0.1018
 1551SOL     OW16288   3.021   3.439   7.937 -0.1265 -0.5146 -0.4644
 1551SOL    HW116289   3.093   3.395   7.983  0.7828  0.1455 -1.2725
 1551SOL    HW216290   3.045   3.529   7.958 -0.2827 -0.4282 -0.6548
 1552SOL     OW16291   4.546   3.050   8.436 -0.2104  0.0418  0.1173
 1552SOL    HW116292   4.626   3.090   8.402 -1.1422 -0.7135 -2.9548
 1552SOL    HW216293   4.551   3.098   8.519  0.2154 -1.1938  0.7911
 1553SOL     OW16294   4.356   1.542   3.654 -0.4333 -0.1261  0.2809
 1553SOL    HW116295   4.306   1.480   3.601 -1.0270  1.5581 -1.1297
 1553SOL    HW216296   4.389   1.596   3.581 -1.3437 -0.5952 -0.4846
 1554SOL     OW16297   2.332   3.815   6.989  0.3906 -0.0880  0.4708
 1554SOL    HW116298   2.252   3.766   6.969  0.3986  0.4747 -0.9256
 1554SOL    HW216299   2.302   3.900   7.022  0.9152  0.4608 -0.4489
 1555SOL     OW16300   2.077   4.401   4.340  0.1216  0.1454 -0.0214
 1555SOL    HW116301   2.113   4.319   4.372  0.5132  0.0819 -0.6321
 1555SOL    HW216302   2.146   4.453   4.381 -1.1119  2.3091 -0.6658
 1556SOL     OW16303   3.707   2.591   1.423 -0.3149  0.3743  0.3041
 1556SOL    HW116304   3.648   2.598   1.499  0.2313  2.9694  0.4910
 1556SOL    HW216305   3.636   2.573   1.362  0.3367  0.5487 -0.4974
 1557SOL     OW16306   1.973   2.829  10.599 -0.0872 -0.5301  0.9285
 1557SOL    HW116307   2.018   2.747  10.580 -1.3542 -1.0024 -0.1200
 1557SOL    HW216308   1.908   2.827  10.528 -0.0783 -2.5320  0.9682
 1558SOL     OW16309   0.811   3.474   4.923  0.2861  0.1294 -0.0173
 1558SOL    HW116310   0.767   3.391   4.941 -2.0404  1.3651 -0.1257
 1558SOL    HW216311   0.735   3.532   4.924  0.2327  0.0559  0.0974
 1559SOL     OW16312   1.594   2.086   6.550  0.3862  0.7166  0.2977
 1559SOL    HW116313   1.616   2.057   6.639  1.4948  0.5739 -0.0170
 1559SOL    HW216314   1.664   2.152   6.546  1.0732  0.0685  1.7375
 1560SOL     OW16315   0.639   3.908   5.466 -0.9145  0.4682  1.5765
 1560SOL    HW116316   0.588   3.829   5.448  0.8899 -0.3179 -0.0444
 1560SOL    HW216317   0.729   3.877   5.463 -1.3183  0.0634 -5.0446
 1561SOL     OW16318   2.320   4.112   9.717 -0.2653  0.4807  0.0819
 1561SOL    HW116319   2.338   4.028   9.675 -1.0167  0.9381 -1.1489
 1561SOL    HW216320   2.257   4.093   9.787  0.1173 -1.9549 -0.2607
 1562SOL     OW16321   1.634   1.859   9.780 -0.2176  0.4023  0.0306
 1562SOL    HW116322   1.545   1.829   9.799  0.3120 -0.5481  1.0379
 1562SOL    HW216323   1.656   1.899   9.864  0.6975  0.9013 -0.4519
 1563SOL     OW16324   3.077   3.903   5.736 -0.0796 -0.4040 -0.2606
 1563SOL    HW116325   3.015   3.976   5.732  2.1984  1.5761  0.4759
 1563SOL    HW216326   3.081   3.872   5.646  0.4812 -0.2493 -0.2910
 1564SOL     OW16327   1.486   1.421  10.562  0.0922 -0.0874  0.0036
 1564SOL    HW116328   1.396   1.452  10.556 -0.5637 -2.0903 -0.4953
 1564SOL    HW216329   1.462   1.332  10.538 -0.8018 -0.3218  1.7820
 1565SOL     OW16330   1.693   1.598  16.172  0.4047  0.9854  0.0880
 1565SOL    HW116331   1.731   1.683  16.196  3.0239 -0.2967  0.5201
 1565SOL    HW216332   1.736   1.560  16.095 -2.3729 -3.2630  0.6523
 1566SOL     OW16333   1.613   4.041   7.960  0.1938 -0.7227 -0.6034
 1566SOL    HW116334   1.615   4.058   8.054 -1.4315 -0.1350 -0.6672
 1566SOL    HW216335   1.704   4.020   7.940  0.2430 -0.6921 -0.4041
 1567SOL     OW16336   0.061   2.333   3.470  0.3206 -0.1981 -0.5562
 1567SOL    HW116337   0.061   2.248   3.427  0.6804 -0.8373  0.6861
 1567SOL    HW216338   0.082   2.300   3.558  0.6619  2.0885  0.2375
 1568SOL     OW16339   2.426   2.910   9.635  0.3245 -0.0331  0.4241
 1568SOL    HW116340   2.507   2.885   9.679  0.7733  0.8808  0.1126
 1568SOL    HW216341   2.389   2.828   9.601  1.3901  0.5530 -2.1431
 1569SOL     OW16342   0.521   1.495   8.910  0.4541 -0.2724  0.2915
 1569SOL    HW116343   0.434   1.490   8.950  0.2637  1.2956  0.0429
 1569SOL    HW216344   0.499   1.483   8.818 -2.4213  0.8400  0.8328
 1570SOL     OW16345   4.645   0.838   8.234  0.3571  0.7160  0.1096
 1570SOL    HW116346   4.705   0.812   8.165 -2.2227  0.0706 -1.8750
 1570SOL    HW216347   4.702   0.886   8.295 -0.6116  0.6439  1.0788
 1571SOL     OW16348   3.308   0.542   4.037  0.4124 -0.1307  0.7330
 1571SOL    HW116349   3.226   0.522   3.992  1.1615 -1.7050  0.0890
 1571SOL    HW216350   3.284   0.589   4.117  2.3584 -1.3329  2.0255
 1572SOL     OW16351   2.784   3.104   4.871  0.6392 -0.0680 -0.3152
 1572SOL    HW116352   2.831   3.021   4.862 -0.9962 -0.9034 -1.3332
 1572SOL    HW216353   2.853   3.169   4.857  0.5523 -0.5307 -2.9844
 1573SOL     OW16354   4.182   0.923   0.836 -0.3728 -0.0550 -0.3977
 1573SOL    HW116355   4.229   0.990   0.786  0.3790  0.6451  1.2342
 1573SOL    HW216356   4.134   0.884   0.764  0.1218 -0.6654 -0.4064
 1574SOL     OW16357   2.898   1.214   7.517  0.3578  0.4699  0.6631
 1574SOL    HW116358   2.941   1.238   7.435  0.3089 -0.5799  0.3336
 1574SOL    HW216359   2.820   1.267   7.502  0.4479 -0.0540 -1.7404
 1575SOL     OW16360   2.895   0.282   1.498  0.1535  0.2746  0.2174
 1575SOL    HW116361   2.906   0.316   1.410  2.0424 -0.7273  0.0687
 1575SOL    HW216362   2.974   0.230   1.513 -0.0357 -0.4904 -1.5265
 1576SOL     OW16363   3.958   3.227   6.763  0.1715  0.0208 -0.5355
 1576SOL    HW116364   3.907   3.252   6.686 -0.6875  0.2141  0.1054
 1576SOL    HW216365   3.934   3.295   6.825  0.6361 -0.0665 -0.2633
 1577SOL     OW16366   1.483   2.666   1.052 -0.6102 -0.2495  0.2088
 1577SOL    HW116367   1.574   2.686   1.033 -0.4376 -0.6319  0.6277
 1577SOL    HW216368   1.479   2.571   1.064 -1.2040 -0.3323 -0.6889
 1578SOL     OW16369   3.481   0.676   3.797 -0.0855  0.2419  0.4796
 1578SOL    HW116370   3.550   0.621   3.835 -0.1964 -0.1547  0.1018
 1578SOL    HW216371   3.517   0.706   3.714  0.2377  2.1831  1.3071
 1579SOL     OW16372   4.636   1.153   3.038 -0.5837  0.7596  0.1092
 1579SOL    HW116373   4.583   1.120   2.965  1.4499  0.4942 -1.2422
 1579SOL    HW216374   4.629   1.078   3.098 -1.0673  0.6839 -0.0426
 1580SOL     OW16375   0.781   0.161   8.184  0.0280 -0.4811 -0.3488
 1580SOL    HW116376   0.873   0.158   8.159 -0.6414 -1.1635 -2.6966
 1580SOL    HW216377   0.751   0.073   8.204 -1.4819 -0.0726 -0.8009
 1581SOL     OW16378   0.249   0.202  10.597  0.5394  0.5793  0.1356
 1581SOL    HW116379   0.194   0.182  10.673  1.6930 -1.1286  0.4964
 1581SOL    HW216380   0.247   0.298  10.586  1.3842  0.7030  1.1240
 1582SOL     OW16381   0.548   3.466   2.270  0.1649  0.6687 -0.0803
 1582SOL    HW116382   0.538   3.560   2.254 -0.1890  0.4490 -1.1121
 1582SOL    HW216383   0.563   3.466   2.365  0.5742 -0.4535 -0.1474
 1583SOL     OW16384   1.838   4.199   6.397  0.0703 -0.1612 -0.3397
 1583SOL    HW116385   1.803   4.171   6.482  0.6162 -0.5210 -0.2352
 1583SOL    HW216386   1.919   4.148   6.392  0.5355  0.6216 -0.6653
 1584SOL     OW16387   2.818   0.945   1.175  0.3948 -0.0429 -0.0401
 1584SOL    HW116388   2.887   0.902   1.123  0.0307  0.8577 -1.2635
 1584SOL    HW216389   2.750   0.947   1.108 -0.8600 -3.2676  1.1129
 1585SOL     OW16390   2.088   0.656  16.255 -0.7454  0.7651 -0.2774
 1585SOL    HW116391   2.158   0.701  16.303 -0.5749 -0.4053  0.5518
 1585SOL    HW216392   2.017   0.720  16.257 -2.1565 -0.7266 -2.6032
 1586SOL     OW16393   2.921   1.983   9.504 -0.4487  0.3577  0.1444
 1586SOL    HW116394   2.927   1.894   9.541  1.1509  0.9253  1.2299
 1586SOL    HW216395   2.830   2.000   9.530 -0.4195 -1.1576  1.2855
 1587SOL     OW16396   0.011   3.222  10.990  0.2815  0.2717  0.3647
 1587SOL    HW116397   0.037   3.240  10.900 -0.0353  0.7515  0.3675
 1587SOL    HW216398   4.715   3.303  11.028 -2.0010  0.7701 -2.7652
 1588SOL     OW16399   2.533   2.302   8.939  0.2807  0.3507 -0.1738
 1588SOL    HW116400   2.497   2.338   8.857 -0.7684  2.1428  1.0768
 1588SOL    HW216401   2.615   2.347   8.961 -0.0833  0.0810  1.6947
 1589SOL     OW16402   3.331   2.247   5.262 -0.5195 -0.2479  0.0452
 1589SOL    HW116403   3.284   2.239   5.345  1.5045  1.1667  1.3313
 1589SOL    HW216404   3.400   2.181   5.269  0.5975  0.9359  0.1694
 1590SOL     OW16405   2.041   2.269  14.587 -0.1965  0.6249  0.0409
 1590SOL    HW116406   2.084   2.351  14.611  2.6192 -1.3384  1.6925
 1590SOL    HW216407   1.973   2.268  14.654 -0.5068 -1.7203 -0.3055
 1591SOL     OW16408   0.706   4.568   3.855 -0.4615 -0.7873 -0.4691
 1591SOL    HW116409   0.740   4.656   3.871  2.0175 -1.5661 -1.5841
 1591SOL    HW216410   0.763   4.508   3.903  0.0413  0.1385  0.0927
 1592SOL     OW16411   0.085   4.062  17.390  0.1303 -0.3042 -0.2983
 1592SOL    HW116412   0.032   3.983  17.381  0.3175 -0.4630  0.0235
 1592SOL    HW216413   0.134   4.070  17.308 -0.6853  0.1873 -0.7342
 1593SOL     OW16414   3.218   1.878  16.329  0.3901 -0.1647  0.5246
 1593SOL    HW116415   3.188   1.914  16.246  2.6774 -1.7733 -0.9990
 1593SOL    HW216416   3.297   1.930  16.347  1.2403 -0.9557 -0.8910
 1594SOL     OW16417   1.445   2.805  11.096  0.0369  0.1184 -0.5437
 1594SOL    HW116418   1.504   2.827  11.168 -1.8083 -0.0154  1.0150
 1594SOL    HW216419   1.359   2.796  11.138  0.5873 -1.8142  0.1301
 1595SOL     OW16420   0.382   2.447   1.762  0.7095  0.2032 -0.4338
 1595SOL    HW116421   0.400   2.524   1.816 -0.6378 -0.2706  0.6715
 1595SOL    HW216422   0.454   2.387   1.779 -1.0727 -1.2995  1.8137
 1596SOL     OW16423   2.764   4.016  12.732  0.6680 -0.1720  0.1505
 1596SOL    HW116424   2.757   4.104  12.771  2.0886 -0.2260  0.5044
 1596SOL    HW216425   2.685   3.973  12.765  1.6357 -0.3424  2.2122
 1597SOL     OW16426   2.683   3.941  17.069 -0.4790 -0.9438 -0.2891
 1597SOL    HW116427   2.614   3.957  17.134  0.6220 -3.0883  1.4430
 1597SOL    HW216428   2.759   3.978  17.113 -1.5012  1.0277 -0.1913
 1598SOL     OW16429   3.083   2.407   6.893  0.0224  0.4822  0.0302
 1598SOL    HW116430   3.159   2.464   6.903 -0.6112  1.1230  1.2380
 1598SOL    HW216431   3.125   2.323   6.913 -0.6967  0.1819  0.2872
 1599SOL     OW16432   3.897   3.553   8.869 -0.2221  0.2684  1.0590
 1599SOL    HW116433   3.833   3.531   8.801 -0.3166  1.0547  0.8978
 1599SOL    HW216434   3.913   3.464   8.902 -1.4656 -0.5154 -0.4468
 1600SOL     OW16435   0.154   2.953   3.180 -0.1388 -0.3778  0.4194
 1600SOL    HW116436   0.119   3.038   3.156  1.3957 -0.5770 -2.4673
 1600SOL    HW216437   0.099   2.941   3.258  0.2505  2.1473  1.0915
 1601SOL     OW16438   0.415   0.240   4.396  0.1603  0.6022  0.0963
 1601SOL    HW116439   0.509   0.251   4.407  0.6581 -0.5645 -3.1467
 1601SOL    HW216440   0.394   0.323   4.354 -3.4435  0.0610  0.7820
 1602SOL     OW16441   2.461   4.415   8.839  0.2565  0.5875 -0.1004
 1602SOL    HW116442   2.481   4.489   8.897 -1.7779  0.4151  0.8203
 1602SOL    HW216443   2.524   4.349   8.868  0.3095  1.7628  2.4763
 1603SOL     OW16444   2.434   0.037   6.176  0.3950 -0.2911 -0.1639
 1603SOL    HW116445   2.400   4.721   6.106 -2.4643  3.5151 -1.7574
 1603SOL    HW216446   2.526   0.056   6.154  0.4778 -1.6073 -0.9195
 1604SOL     OW16447   0.726   0.078  10.713  0.4791 -0.1974  0.1537
 1604SOL    HW116448   0.791   0.037  10.770  0.8904 -1.4537 -1.2319
 1604SOL    HW216449   0.783   0.086  10.637  1.6925 -0.6102  1.0175
 1605SOL     OW16450   4.665   2.624   6.932 -0.5014 -0.1875  0.1228
 1605SOL    HW116451   4.573   2.649   6.934 -0.4578  0.0029 -0.3116
 1605SOL    HW216452   4.705   2.710   6.944 -0.8833 -0.1892  1.3255
 1606SOL     OW16453   2.142   3.619   5.973 -0.2500  0.2777 -0.1995
 1606SOL    HW116454   2.050   3.615   5.944  0.2954  1.0623 -2.0501
 1606SOL    HW216455   2.149   3.708   6.008  1.2529 -0.1049  0.4602
 1607SOL     OW16456   3.262   1.189   1.350 -0.1185  0.6027  0.2395
 1607SOL    HW116457   3.272   1.095   1.342 -0.3553  0.5244  0.9354
 1607SOL    HW216458   3.182   1.200   1.298  0.6499  1.4624 -0.7653
 1608SOL     OW16459   2.468   4.144   6.663  0.2652  0.2132 -0.0225
 1608SOL    HW116460   2.477   4.142   6.567 -1.5052 -4.2407 -0.1198
 1608SOL    HW216461   2.488   4.054   6.689  0.3875  0.4531  0.7155
 1609SOL     OW16462   1.513   4.630   6.803  0.3437  0.2722  0.3641
 1609SOL    HW116463   1.421   4.636   6.777  0.6283 -2.2569 -1.2672
 1609SOL    HW216464   1.549   4.596   6.721 -0.2219 -2.1214  1.1068
 1610SOL     OW16465   0.742   3.264  14.439 -0.1703  0.1420 -0.3705
 1610SOL    HW116466   0.714   3.208  14.511  0.1120  0.5363  0.0527
 1610SOL    HW216467   0.676   3.249  14.372  0.3915  1.4542 -1.2265
 1611SOL     OW16468   2.602   2.325   8.012  0.4081 -0.2142  0.1837
 1611SOL    HW116469   2.662   2.260   7.976 -0.8402 -0.3003 -1.6978
 1611SOL    HW216470   2.656   2.403   8.021 -0.3113  0.4768 -1.6136
 1612SOL     OW16471   0.932   4.301   8.606  0.0339 -0.0251  0.7146
 1612SOL    HW116472   0.875   4.378   8.601 -1.5989 -1.1498  1.9618
 1612SOL    HW216473   0.889   4.234   8.552 -0.3193  1.1387 -0.4424
 1613SOL     OW16474   4.448   2.206  15.648  0.0493 -0.9226  0.4428
 1613SOL    HW116475   4.464   2.295  15.678  0.5056 -1.4480  1.7411
 1613SOL    HW216476   4.431   2.227  15.556 -1.3930  0.4792  1.0316
 1614SOL     OW16477   3.896   0.383   5.279 -0.3913 -0.2189  0.0020
 1614SOL    HW116478   3.839   0.347   5.211 -0.7855 -0.5279  0.4984
 1614SOL    HW216479   3.873   0.345   5.364  2.3716 -1.0056  0.4045
 1615SOL     OW16480   0.031   2.004   5.905  0.2197 -0.5972 -0.3878
 1615SOL    HW116481   0.041   1.924   5.853  0.8482 -0.3015 -0.7376
 1615SOL    HW216482   0.113   2.048   5.880  0.8502 -1.5425  0.0106
 1616SOL     OW16483   4.295   3.923   6.144 -0.3225  0.5491 -0.3373
 1616SOL    HW116484   4.365   3.863   6.168 -0.2868 -0.0906 -2.0064
 1616SOL    HW216485   4.222   3.890   6.196  0.1673  0.7007  0.4504
 1617SOL     OW16486   0.968   3.359   8.438  0.5232  0.4433 -1.0218
 1617SOL    HW116487   1.022   3.401   8.371 -0.8968  3.0981 -0.5179
 1617SOL    HW216488   0.880   3.389   8.414 -0.4213 -0.3294  1.4602
 1618SOL     OW16489   0.424   3.831   2.673 -0.2529  0.2920 -0.7983
 1618SOL    HW116490   0.338   3.798   2.700 -0.5329  0.1335 -1.8765
 1618SOL    HW216491   0.413   3.838   2.578 -1.1991  0.4613 -0.6770
 1619SOL     OW16492   2.931   4.718   4.424 -0.2970 -0.3082 -0.2444
 1619SOL    HW116493   2.861   4.654   4.410 -0.4160 -0.1509 -0.3650
 1619SOL    HW216494   2.971   4.689   4.506  1.4050  0.5315 -0.7744
 1620SOL     OW16495   1.595   1.474   9.580  0.4025 -0.0670  0.3665
 1620SOL    HW116496   1.626   1.413   9.647  2.2997  0.6681  0.1520
 1620SOL    HW216497   1.658   1.466   9.508 -0.0211  2.4220 -0.2723
 1621SOL     OW16498   3.259   1.694   4.425 -0.3903  0.1959 -0.4630
 1621SOL    HW116499   3.171   1.672   4.394  0.3301  0.0327 -2.3787
 1621SOL    HW216500   3.307   1.663   4.348 -0.5988 -0.1747 -0.4437
 1622SOL     OW16501   4.132   2.709   6.150 -0.0439  0.1850 -0.1881
 1622SOL    HW116502   4.080   2.664   6.083  0.6848  0.2504 -0.8003
 1622SOL    HW216503   4.210   2.732   6.099 -0.5383  0.7240 -0.7065
 1623SOL     OW16504   1.888   1.649   4.661 -0.0908 -0.3896 -0.7184
 1623SOL    HW116505   1.932   1.726   4.699 -1.7009  0.0083  0.3247
 1623SOL    HW216506   1.831   1.627   4.734  0.1019  0.2914 -0.3524
 1624SOL     OW16507   3.915   2.056   9.454 -0.0579 -0.8118 -0.0950
 1624SOL    HW116508   3.948   1.999   9.524  2.9835 -0.8386 -1.5786
 1624SOL    HW216509   3.995   2.099   9.426 -0.2465 -2.1941 -2.7430
 1625SOL     OW16510   1.909   2.663  11.900 -0.1782  1.0850 -0.4562
 1625SOL    HW116511   1.984   2.684  11.955  0.3044 -1.8922 -0.0042
 1625SOL    HW216512   1.952   2.599  11.844 -2.3756  3.7529 -5.1958
 1626SOL     OW16513   3.465   1.405   8.472 -0.0493 -0.6037 -0.1952
 1626SOL    HW116514   3.428   1.474   8.417  0.4680 -1.3953 -1.5526
 1626SOL    HW216515   3.499   1.454   8.547 -0.9277  0.8425 -0.7574
 1627SOL     OW16516   4.255   1.498   4.642  0.0445  0.3740  0.1677
 1627SOL    HW116517   4.277   1.562   4.710  0.0706 -2.0698  2.4357
 1627SOL    HW216518   4.323   1.500   4.575  1.0063 -0.6262  1.1256
 1628SOL     OW16519   2.716   1.046   4.084 -0.0928  0.1410  0.3942
 1628SOL    HW116520   2.675   1.021   4.166  1.2083  1.5293  1.4814
 1628SOL    HW216521   2.637   1.054   4.031  2.3586  3.2011 -2.8468
 1629SOL     OW16522   0.166   1.906   5.018 -0.4715  0.8692  0.1858
 1629SOL    HW116523   0.159   1.999   5.042  0.3879  0.4939  1.8619
 1629SOL    HW216524   0.162   1.869   5.106  0.5235  1.0310  0.3096
 1630SOL     OW16525   1.579   4.470   2.923 -0.1839  0.3398 -0.2521
 1630SOL    HW116526   1.626   4.533   2.978 -1.7491  1.6327 -0.3894
 1630SOL    HW216527   1.646   4.409   2.893 -0.8867 -0.5358 -0.0484
 1631SOL     OW16528   3.954   1.921   7.267  0.3143  0.3591  0.3013
 1631SOL    HW116529   3.859   1.926   7.262  0.0667 -2.8756  1.7622
 1631SOL    HW216530   3.969   1.837   7.225 -0.9511 -0.5142  1.5827
 1632SOL     OW16531   4.734   3.398   1.162 -0.6605 -0.0146 -0.3274
 1632SOL    HW116532   4.722   3.309   1.130  2.7043  0.4528 -2.9767
 1632SOL    HW216533   4.681   3.444   1.097  2.2559  2.5433 -0.9093
 1633SOL     OW16534   0.549   4.254  16.592 -0.4736 -0.0699  0.2087
 1633SOL    HW116535   0.562   4.255  16.687 -0.7796 -1.1969  0.2616
 1633SOL    HW216536   0.488   4.180  16.589 -0.0787 -0.4004  0.3880
 1634SOL     OW16537   3.688   1.386   2.415  0.2270  0.0469 -0.0946
 1634SOL    HW116538   3.607   1.347   2.382  0.0164  1.1290 -0.8588
 1634SOL    HW216539   3.728   1.404   2.330  0.9620  2.1272  0.6895
 1635SOL     OW16540   3.116   4.323   9.981 -0.2391  0.3481 -0.2561
 1635SOL    HW116541   3.029   4.362   9.986 -0.0625  0.7153 -0.0639
 1635SOL    HW216542   3.162   4.384   9.923  1.2358 -0.6966 -0.2021
 1636SOL     OW16543   4.549   3.789   6.917  0.3298 -0.0025 -0.0186
 1636SOL    HW116544   4.541   3.884   6.928 -0.1276 -0.3775  2.8144
 1636SOL    HW216545   4.614   3.766   6.983  0.3285 -1.8555 -0.6621
 1637SOL     OW16546   1.923   1.866  13.547  0.3834  0.1466 -0.4574
 1637SOL    HW116547   2.001   1.812  13.538  1.9253  1.9611  1.9455
 1637SOL    HW216548   1.957   1.949  13.581  0.3293 -0.6648  1.5901
 1638SOL     OW16549   1.723   3.565   8.868  0.4861 -0.1497  0.3106
 1638SOL    HW116550   1.646   3.582   8.923  1.4874  0.8355  1.4077
 1638SOL    HW216551   1.763   3.495   8.919  0.7819  2.1677  3.2579
 1639SOL     OW16552   1.238   4.261   2.260 -0.0874  0.5814 -0.0329
 1639SOL    HW116553   1.299   4.272   2.333 -1.7646  0.4891  1.3695
 1639SOL    HW216554   1.282   4.322   2.201  0.8162  3.0010  3.1485
 1640SOL     OW16555   3.184   0.055   3.679  0.2343  0.0350 -0.4953
 1640SOL    HW116556   3.231   0.137   3.696 -0.1314 -0.5062  3.2152
 1640SOL    HW216557   3.117   0.060   3.747 -0.2596  0.1432 -0.9936
 1641SOL     OW16558   4.582   1.470  13.587 -0.3545 -0.2175  0.2774
 1641SOL    HW116559   4.661   1.435  13.627 -0.3150  0.7314  1.0324
 1641SOL    HW216560   4.547   1.391  13.546 -0.2735 -0.7854  1.3232
 1642SOL     OW16561   0.660   0.434   9.035 -0.0389 -0.3616 -0.1850
 1642SOL    HW116562   0.677   0.341   9.049  0.6036 -0.0160  1.2934
 1642SOL    HW216563   0.572   0.441   9.072  1.6289  5.4288  2.6879
 1643SOL     OW16564   3.285   3.809   7.818  0.1253  0.0935 -0.3686
 1643SOL    HW116565   3.272   3.878   7.883 -0.8167 -0.2870 -0.1483
 1643SOL    HW216566   3.378   3.793   7.827  0.0536 -0.6330 -0.9130
 1644SOL     OW16567   3.122   4.265   4.230 -0.2836  0.3487 -0.1624
 1644SOL    HW116568   3.154   4.342   4.278 -0.7809  1.5010 -1.6858
 1644SOL    HW216569   3.204   4.215   4.234  0.0210  0.8046 -0.6201
 1645SOL     OW16570   2.007   4.373   8.772 -0.3061 -0.1061  0.0385
 1645SOL    HW116571   2.012   4.284   8.738 -0.4292 -0.2391  0.3703
 1645SOL    HW216572   2.095   4.407   8.757  1.1579 -2.8313  2.4315
 1646SOL     OW16573   3.739   2.061   1.724  0.6187  0.0779  0.2252
 1646SOL    HW116574   3.762   2.148   1.756 -0.9359  0.0762  1.3709
 1646SOL    HW216575   3.793   2.062   1.645  1.4894  2.7551  0.8454
 1647SOL     OW16576   3.979   4.185   5.863  0.1782  0.1668  0.5768
 1647SOL    HW116577   3.912   4.206   5.798  0.2732  0.2066  0.4919
 1647SOL    HW216578   3.928   4.129   5.922 -0.9592  1.4527  0.8174
 1648SOL     OW16579   2.298   4.143  14.143 -0.1975 -0.6759  0.0847
 1648SOL    HW116580   2.377   4.169  14.189 -0.3490  1.3807 -0.8378
 1648SOL    HW216581   2.237   4.158  14.216 -0.0398  0.7678 -0.0836
 1649SOL     OW16582   4.732   4.246   2.873 -0.4865  0.1293  0.5397
 1649SOL    HW116583   4.654   4.260   2.926 -0.5600 -0.4924  0.6014
 1649SOL    HW216584   0.018   4.338   2.868 -1.0454  0.1912 -1.0410
 1650SOL     OW16585   0.918   1.070   8.756  0.2018  0.1578 -0.4292
 1650SOL    HW116586   1.000   1.121   8.757 -1.2591  2.5663 -2.7128
 1650SOL    HW216587   0.896   1.062   8.849  0.0324  3.2267 -0.2058
 1651SOL     OW16588   2.315   4.526   3.533  0.1507 -0.0499  0.2574
 1651SOL    HW116589   2.250   4.596   3.534  1.2740  0.9995  0.8904
 1651SOL    HW216590   2.379   4.544   3.603  0.0902 -3.1112  1.1171
 1652SOL     OW16591   0.073   0.008  15.616  0.4455 -0.1546 -0.2116
 1652SOL    HW116592   0.105   4.670  15.568  0.3072 -1.9618  2.6107
 1652SOL    HW216593   0.153   0.061  15.625 -0.2333  0.7121  0.7843
 1653SOL     OW16594   0.952   1.858  16.414  0.4839  0.5013  0.2953
 1653SOL    HW116595   1.006   1.792  16.457 -0.1365 -0.2616 -0.1021
 1653SOL    HW216596   0.862   1.826  16.401  0.2792  1.2478 -0.1385
 1654SOL     OW16597   4.547   0.121   3.600  0.1038 -0.4589 -0.0935
 1654SOL    HW116598   4.468   0.132   3.652 -0.4350 -1.2259 -0.7396
 1654SOL    HW216599   4.595   0.091   3.677 -0.1027  0.8074  0.5149
 1655SOL     OW16600   4.345   3.629   4.770  0.8505 -0.4999  0.3167
 1655SOL    HW116601   4.293   3.702   4.738 -0.3667 -0.9757  1.2379
 1655SOL    HW216602   4.427   3.678   4.759 -1.1297  2.9508  1.1634
 1656SOL     OW16603   1.471   4.681   7.244 -0.3582  0.5765 -0.1465
 1656SOL    HW116604   1.444   0.034   7.255 -3.2174 -0.1536 -0.9911
 1656SOL    HW216605   1.543   4.677   7.306  0.8192 -0.8818 -1.6229
 1657SOL     OW16606   2.554   0.967   9.650 -0.1626  0.0554  0.4391
 1657SOL    HW116607   2.564   1.028   9.577 -1.4154 -0.0068  0.2167
 1657SOL    HW216608   2.633   0.914   9.639  0.1529  0.6347 -0.0697
 1658SOL     OW16609   1.310   1.105   0.941  0.2795 -0.2279 -0.0595
 1658SOL    HW116610   1.373   1.175   0.960  0.9030 -1.3352  1.8857
 1658SOL    HW216611   1.295   1.058   1.022  3.3158  1.6721  1.6207
 1659SOL     OW16612   4.293   0.721   4.263  0.0285  0.3053  0.2199
 1659SOL    HW116613   4.230   0.787   4.235 -1.1128 -0.3114  1.3075
 1659SOL    HW216614   4.348   0.788   4.304 -0.7126  0.6519  0.6445
 1660SOL     OW16615   1.328   2.971   9.440 -0.0311  0.1540  0.4249
 1660SOL    HW116616   1.301   3.057   9.409 -1.4598 -1.2204 -2.1189
 1660SOL    HW216617   1.310   2.995   9.531  0.7238  2.4818 -0.0527
 1661SOL     OW16618   3.527   1.375   5.132  0.0798 -0.4020 -0.6674
 1661SOL    HW116619   3.609   1.389   5.179  0.7180  0.4923 -2.0367
 1661SOL    HW216620   3.492   1.462   5.115 -0.8160 -0.4665  0.9101
 1662SOL     OW16621   4.134   4.551   6.648 -0.2566  0.2433 -0.1071
 1662SOL    HW116622   4.228   4.537   6.643 -0.2290 -0.5788  2.6013
 1662SOL    HW216623   4.120   4.556   6.743 -2.4651 -0.0776 -0.4177
 1663SOL     OW16624   0.415   2.606  17.199  0.2179 -0.0875  0.0302
 1663SOL    HW116625   0.438   2.544  17.131 -2.6413 -1.1705  0.0761
 1663SOL    HW216626   0.395   2.676  17.137 -1.5051  0.0401  0.7403
 1664SOL     OW16627   3.508   2.921   3.723 -0.3697 -0.0610 -0.3781
 1664SOL    HW116628   3.548   2.834   3.721  1.7552  0.9153 -0.0478
 1664SOL    HW216629   3.464   2.921   3.809  0.3770 -0.6985 -0.0031
 1665SOL     OW16630   1.193   2.895  11.212 -0.1730  0.4231  0.2366
 1665SOL    HW116631   1.128   2.825  11.203  0.6522 -0.3441  0.2344
 1665SOL    HW216632   1.167   2.953  11.141  0.0292 -2.2942 -2.0787
 1666SOL     OW16633   0.450   2.298  10.351  0.0364  0.4435 -0.1409
 1666SOL    HW116634   0.464   2.375  10.406  1.4964  0.9573 -1.2163
 1666SOL    HW216635   0.374   2.264  10.398 -1.1536  2.5076 -0.5860
 1667SOL     OW16636   0.568   1.199   9.076 -0.0875  0.3156  0.5187
 1667SOL    HW116637   0.542   1.279   9.030  0.4775  1.5097  2.2748
 1667SOL    HW216638   0.662   1.217   9.088  0.2079 -0.0905 -1.2780
 1668SOL     OW16639   0.995   3.268  15.063 -0.2916  0.4899 -0.4518
 1668SOL    HW116640   0.984   3.351  15.016 -1.2528  0.5800 -0.0728
 1668SOL    HW216641   1.021   3.297  15.151  1.7334  0.9142 -1.1933
 1669SOL     OW16642   3.324   1.003  14.225 -0.6720  0.2056  0.2173
 1669SOL    HW116643   3.281   1.053  14.156 -0.2008 -1.7485 -1.4839
 1669SOL    HW216644   3.353   0.931  14.169  2.4441 -0.1073  2.2417
 1670SOL     OW16645   2.210   3.778   6.233 -0.2611  0.3811 -0.1180
 1670SOL    HW116646   2.236   3.697   6.277  0.1812  0.1651 -0.7737
 1670SOL    HW216647   2.257   3.832   6.296  0.3860 -1.6303  1.1078
 1671SOL     OW16648   0.978   1.902  17.638 -0.0206 -0.2047  0.3433
 1671SOL    HW116649   0.884   1.906  17.618 -0.0025 -1.8146 -0.0739
 1671SOL    HW216650   0.970   1.854  17.721 -3.4866 -1.9233 -0.9901
 1672SOL     OW16651   2.150   1.990   7.706 -0.4830  0.1000 -0.1131
 1672SOL    HW116652   2.071   1.987   7.761  0.2564 -0.6678  0.9130
 1672SOL    HW216653   2.112   1.958   7.624 -1.4674  0.4192  0.2094
 1673SOL     OW16654   0.154   4.589  11.019  0.0996  0.3540 -0.4227
 1673SOL    HW116655   0.153   4.685  11.022 -0.0094  0.3091  0.8379
 1673SOL    HW216656   0.234   4.568  11.069  0.3154  1.7436 -0.1927
 1674SOL     OW16657   1.703   1.937  15.160 -0.1221  0.2446 -0.5864
 1674SOL    HW116658   1.769   1.934  15.230  1.0389 -1.1645 -1.7501
 1674SOL    HW216659   1.639   1.887  15.212 -2.4360  3.4288 -0.4211
 1675SOL     OW16660   0.745   0.387  17.148  0.1794 -0.2969 -0.0680
 1675SOL    HW116661   0.685   0.396  17.222  0.5452  1.5684  0.0116
 1675SOL    HW216662   0.786   0.474  17.146  1.0550 -0.6596  2.9904
 1676SOL     OW16663   3.678   2.648   3.876 -0.3208 -0.2375 -0.3091
 1676SOL    HW116664   3.705   2.571   3.826  0.6562  0.9596 -1.5939
 1676SOL    HW216665   3.755   2.704   3.879 -0.5575  0.0752 -0.1625
 1677SOL     OW16666   1.640   0.754   3.590 -0.4002 -0.0234 -0.2420
 1677SOL    HW116667   1.598   0.669   3.601 -0.0412 -0.2393 -0.5604
 1677SOL    HW216668   1.579   0.793   3.527 -0.3768 -0.7598 -0.7216
 1678SOL     OW16669   0.458   0.823   4.257 -0.0696 -0.5366 -0.6779
 1678SOL    HW116670   0.500   0.905   4.282  2.1631 -2.7209  2.7751
 1678SOL    HW216671   0.440   0.792   4.346  2.3076 -0.1609 -0.0788
 1679SOL     OW16672   2.192   2.370   5.002  0.0145  0.0985  0.2928
 1679SOL    HW116673   2.287   2.383   5.005  0.1233 -0.9163  1.4710
 1679SOL    HW216674   2.190   2.281   4.966  0.8334  1.4016 -2.9952
 1680SOL     OW16675   0.101   4.133   7.742  0.4454  0.3403  0.1523
 1680SOL    HW116676   0.021   4.179   7.767 -1.3902 -3.1785  0.6554
 1680SOL    HW216677   0.149   4.148   7.824 -1.4699 -1.5975  1.6252
 1681SOL     OW16678   0.497   3.598   5.818 -0.2691  0.0884 -0.2733
 1681SOL    HW116679   0.463   3.595   5.907  1.1176 -0.8452  0.2419
 1681SOL    HW216680   0.521   3.506   5.806 -1.9573 -0.3281 -0.3958
 1682SOL     OW16681   3.156   1.905  15.058 -0.3420 -0.1069 -0.5138
 1682SOL    HW116682   3.125   1.815  15.049  1.5635 -0.7748 -0.3376
 1682SOL    HW216683   3.141   1.917  15.152  0.7384 -0.8840 -0.2368
 1683SOL     OW16684   0.167   0.480  10.674  0.2952 -0.7409 -1.0802
 1683SOL    HW116685   0.170   0.451  10.765 -0.5412 -0.0342 -0.8232
 1683SOL    HW216686   0.087   0.532  10.683  1.9109  1.8868 -1.8959
 1684SOL     OW16687   0.531   3.361   0.490  0.0455 -0.3341  0.0748
 1684SOL    HW116688   0.562   3.383   0.402  0.9977  1.6509  0.9152
 1684SOL    HW216689   0.454   3.418   0.493  1.4214  1.5400  0.0800
 1685SOL     OW16690   3.352   4.088   9.216  0.1780  0.1113 -0.2300
 1685SOL    HW116691   3.432   4.141   9.222  0.6242 -0.6940  0.8531
 1685SOL    HW216692   3.335   4.079   9.123 -1.0937 -3.1636  0.3345
 1686SOL     OW16693   2.520   3.317   7.255 -0.4512 -0.2881  0.1977
 1686SOL    HW116694   2.578   3.374   7.205  0.8653 -1.7665  0.0425
 1686SOL    HW216695   2.517   3.235   7.206  2.4986 -0.1425 -0.1931
 1687SOL     OW16696   3.826   3.493   6.807  0.4631 -0.0121  0.0090
 1687SOL    HW116697   3.835   3.586   6.788 -2.4424  0.4246  0.8384
 1687SOL    HW216698   3.768   3.463   6.736 -0.1865 -1.5588  1.1854
 1688SOL     OW16699   3.271   0.060   1.245  0.9711 -0.2906  0.4299
 1688SOL    HW116700   3.291   0.085   1.335 -1.2190 -1.1637  1.1526
 1688SOL    HW216701   3.182   0.090   1.228  0.7167 -0.3962  1.5724
 1689SOL     OW16702   1.856   1.107   6.539 -0.8660  0.0861  0.3776
 1689SOL    HW116703   1.816   1.058   6.611  0.9323  0.0540  1.3620
 1689SOL    HW216704   1.920   1.144   6.599 -0.3340 -0.2355  0.0092
 1690SOL     OW16705   3.978   0.414   3.298  0.0820  0.6448 -0.1451
 1690SOL    HW116706   3.901   0.470   3.296 -0.9621 -0.7515  1.0802
 1690SOL    HW216707   4.044   0.481   3.279 -0.6129  1.1780 -0.6836
 1691SOL     OW16708   0.295   1.850   3.124  0.6563  0.0323 -0.3650
 1691SOL    HW116709   0.312   1.910   3.052  0.6022  0.5927  0.0943
 1691SOL    HW216710   0.279   1.764   3.084 -2.2827  0.9061 -1.0755
 1692SOL     OW16711   1.369   4.679   5.741  0.1444 -0.2564  0.5682
 1692SOL    HW116712   1.417   4.729   5.676  1.2052 -0.6449  1.0536
 1692SOL    HW216713   1.412   4.715   5.818  2.5059 -1.7849 -0.0351
 1693SOL     OW16714   1.696   0.942   5.058  0.9376  0.1912  0.3000
 1693SOL    HW116715   1.620   0.929   5.115 -1.0444  2.3266 -1.8642
 1693SOL    HW216716   1.750   0.867   5.084  1.5707  0.3168 -0.6659
 1694SOL     OW16717   1.466   2.823   4.206 -0.7730  0.0976 -0.0025
 1694SOL    HW116718   1.497   2.908   4.237  1.1766 -0.8382  0.6134
 1694SOL    HW216719   1.541   2.783   4.161 -0.6811 -0.1279  0.3482
 1695SOL     OW16720   2.470   2.135   4.180  0.0139 -0.2170 -0.1533
 1695SOL    HW116721   2.396   2.122   4.122 -1.0178  2.5827  0.5763
 1695SOL    HW216722   2.461   2.064   4.245  0.0952 -0.5697 -0.5266
 1696SOL     OW16723   4.692   0.509  11.100  0.1891 -0.2216  0.1115
 1696SOL    HW116724   0.036   0.462  11.116  0.8888  0.1778 -2.2152
 1696SOL    HW216725   4.721   0.600  11.111  2.8661 -1.1140  0.4354
 1697SOL     OW16726   0.100   1.531   2.607 -0.5565  0.4619  0.0069
 1697SOL    HW116727   0.009   1.506   2.618  0.2059 -0.8682  3.3025
 1697SOL    HW216728   0.093   1.606   2.548 -0.4232 -0.4638 -1.1679
 1698SOL     OW16729   2.878   0.397   7.330 -0.4810  0.1391 -0.7468
 1698SOL    HW116730   2.961   0.396   7.377 -1.2534  1.9112  0.6254
 1698SOL    HW216731   2.819   0.398   7.405 -0.6570 -0.2690 -0.8730
 1699SOL     OW16732   0.158   2.681   5.779  0.0089 -0.0762  0.1814
 1699SOL    HW116733   0.142   2.718   5.692  0.4403  3.2396  1.5421
 1699SOL    HW216734   0.136   2.591   5.755  2.4414 -0.5470 -0.3087
 1700SOL     OW16735   1.619   1.931  12.662 -0.4669  0.1787 -0.0213
 1700SOL    HW116736   1.658   1.851  12.697  0.0363 -0.7003 -2.6160
 1700SOL    HW216737   1.651   2.001  12.720  1.0709  1.8411 -2.8908
 1701SOL     OW16738   3.695   4.301  15.539 -0.3375 -0.1661 -0.0195
 1701SOL    HW116739   3.667   4.393  15.540 -1.2684 -0.4615  1.3676
 1701SOL    HW216740   3.675   4.282  15.447  3.1002  0.5432 -0.8988
 1702SOL     OW16741   1.695   2.273   8.350 -0.5544  0.2897  0.3886
 1702SOL    HW116742   1.758   2.336   8.315 -1.3044  0.2163 -1.1063
 1702SOL    HW216743   1.622   2.291   8.291 -0.7662 -0.7643  0.3236
 1703SOL     OW16744   2.341   2.882   5.589  0.2979  0.7155  0.8515
 1703SOL    HW116745   2.245   2.879   5.590  0.2879  0.8266  0.1817
 1703SOL    HW216746   2.348   2.796   5.630 -1.5341 -0.2879 -0.9360
 1704SOL     OW16747   0.802   3.386   0.045 -0.0437 -0.3066  0.9968
 1704SOL    HW116748   0.736   3.440   0.002  1.5674  1.1827  0.4072
 1704SOL    HW216749   0.848   3.446   0.104  1.2919 -0.2091 -0.1653
 1705SOL     OW16750   1.306   4.546   9.118  0.2621  0.0816  0.0774
 1705SOL    HW116751   1.299   4.634   9.156  1.0029  0.4793 -0.7126
 1705SOL    HW216752   1.354   4.507   9.190  2.1258  3.8188  0.8339
 1706SOL     OW16753   0.221   3.480  12.392 -0.1608  0.1627  0.5620
 1706SOL    HW116754   0.269   3.553  12.353 -2.6711  2.0629  1.0424
 1706SOL    HW216755   0.186   3.446  12.309  1.7712 -0.7543  0.1070
 1707SOL     OW16756   2.525   0.555   7.216  0.1528 -0.6068 -0.1050
 1707SOL    HW116757   2.459   0.595   7.273 -0.4990  0.0196 -1.2974
 1707SOL    HW216758   2.488   0.467   7.215  1.2634 -1.0612 -0.6825
 1708SOL     OW16759   4.729   3.838   1.803  0.3448  0.7430 -0.2835
 1708SOL    HW116760   4.722   3.929   1.831 -0.7207  1.2037 -2.0142
 1708SOL    HW216761   0.018   3.784   1.877  0.4704 -0.6804 -1.3564
 1709SOL     OW16762   0.328   2.813   8.225  0.1096  0.0242  0.1188
 1709SOL    HW116763   0.389   2.793   8.297 -0.7974 -1.6873  0.4074
 1709SOL    HW216764   0.253   2.756   8.243 -1.9477  2.2303 -1.5685
 1710SOL     OW16765   1.164   4.528  15.303  0.0342  0.2888  0.8926
 1710SOL    HW116766   1.206   4.614  15.307 -2.8915  1.7479 -0.1529
 1710SOL    HW216767   1.178   4.485  15.387 -0.6025 -1.1585  0.2679
 1711SOL     OW16768   0.885   3.091   0.005 -0.0492 -0.3801 -0.0889
 1711SOL    HW116769   0.890   3.186   0.013  0.8480 -0.2731 -1.9030
 1711SOL    HW216770   0.794   3.066  17.742 -0.3138 -0.2045  1.1631
 1712SOL     OW16771   3.039   3.786   7.683  0.5271 -0.1397 -0.4188
 1712SOL    HW116772   3.037   3.864   7.738 -1.1649 -0.2347 -0.3621
 1712SOL    HW216773   3.131   3.762   7.691  0.5029  0.5738  1.8389
 1713SOL     OW16774   0.660   3.229   9.289 -0.0908  0.1629 -0.2854
 1713SOL    HW116775   0.745   3.189   9.269 -0.9174 -1.5953 -0.3515
 1713SOL    HW216776   0.606   3.149   9.283 -0.4981  0.2441  2.4457
 1714SOL     OW16777   0.926   0.464  12.925  0.0642  0.7987 -0.1957
 1714SOL    HW116778   1.010   0.501  12.898  0.5906  1.5500  2.4818
 1714SOL    HW216779   0.863   0.477  12.854  0.8657  0.8851 -0.8967
 1715SOL     OW16780   1.449   3.545   2.021 -0.5658  0.0216  0.1304
 1715SOL    HW116781   1.526   3.502   2.059 -1.0462 -0.1547  0.9191
 1715SOL    HW216782   1.477   3.559   1.931  2.6734  0.4446  1.1972
 1716SOL     OW16783   1.697   1.713  13.447  0.0733  0.0713 -0.9541
 1716SOL    HW116784   1.721   1.719  13.354  0.3525  0.4824 -0.8588
 1716SOL    HW216785   1.756   1.781  13.480  1.0661 -0.9678 -0.5998
 1717SOL     OW16786   1.191   2.674   8.434  0.1893 -0.0848  0.2323
 1717SOL    HW116787   1.111   2.724   8.420  0.6627  0.3044 -1.1845
 1717SOL    HW216788   1.253   2.747   8.435 -1.3286  1.1670  3.4861
 1718SOL     OW16789   0.614   1.653   7.855  0.8358  0.1761 -0.5279
 1718SOL    HW116790   0.621   1.668   7.761  0.9184  0.9303 -0.3982
 1718SOL    HW216791   0.649   1.735   7.890  0.2768  0.5787 -0.9222
 1719SOL     OW16792   1.198   0.321   4.807 -0.1790  0.4796 -0.4972
 1719SOL    HW116793   1.112   0.356   4.785  0.2606  0.0312 -2.9716
 1719SOL    HW216794   1.197   0.343   4.900  1.3415  0.9692 -0.6091
 1720SOL     OW16795   3.993   4.411  17.672 -0.7726 -0.0409  0.4130
 1720SOL    HW116796   4.028   4.481  17.618 -1.4246 -0.3715 -0.4492
 1720SOL    HW216797   3.899   4.418  17.655 -0.4240  3.0656 -0.0784
 1721SOL     OW16798   2.724   3.418   5.355  1.0309 -0.0673 -0.0517
 1721SOL    HW116799   2.646   3.427   5.300 -0.7816 -1.5634  2.2591
 1721SOL    HW216800   2.796   3.385   5.301  1.9945 -0.3613  1.4226
 1722SOL     OW16801   1.284   0.501   3.363 -0.5138  0.3335 -0.0419
 1722SOL    HW116802   1.307   0.502   3.270  1.5704  1.2708  0.4862
 1722SOL    HW216803   1.260   0.592   3.378 -2.3928 -0.1746  0.0608
 1723SOL     OW16804   1.311   2.503   5.138  0.3330 -0.2280 -0.4536
 1723SOL    HW116805   1.395   2.461   5.160  1.2482  2.5763  1.4209
 1723SOL    HW216806   1.340   2.560   5.067  0.5116  1.0318  0.6350
 1724SOL     OW16807   2.385   0.046   4.971 -0.0943 -0.2189 -0.7429
 1724SOL    HW116808   2.319   0.042   4.901 -0.5253 -0.3644 -0.3344
 1724SOL    HW216809   2.463   0.085   4.932  0.0540  1.0862  0.8603
 1725SOL     OW16810   2.663   4.368  13.786 -0.3525 -0.0924  0.8450
 1725SOL    HW116811   2.707   4.305  13.729 -0.0037  1.0267 -0.1337
 1725SOL    HW216812   2.724   4.375  13.860 -0.7017 -1.6627  1.2841
 1726SOL     OW16813   1.368   0.300   7.653  0.0168 -0.1034  0.2692
 1726SOL    HW116814   1.319   0.239   7.598 -2.4357  0.0349  2.2904
 1726SOL    HW216815   1.458   0.273   7.637 -0.3878 -1.2296 -0.1585
 1727SOL     OW16816   0.721   2.740   3.285 -0.2948  0.3661  0.1452
 1727SOL    HW116817   0.625   2.743   3.287 -0.3181  0.3266 -0.8472
 1727SOL    HW216818   0.738   2.811   3.347 -0.2634 -0.4954  1.1188
 1728SOL     OW16819   0.639   1.421   2.241 -0.6850  0.5794  0.6616
 1728SOL    HW116820   0.611   1.339   2.282 -0.6381  1.0709  1.6911
 1728SOL    HW216821   0.734   1.410   2.242 -0.6190  1.2001  1.4344
 1729SOL     OW16822   0.059   0.970  13.916  0.9650  0.2354 -0.2243
 1729SOL    HW116823   0.092   0.938  14.000 -0.9484  1.0103  0.8273
 1729SOL    HW216824   4.706   0.994  13.930  1.0447  0.4483 -0.0719
 1730SOL     OW16825   2.230   4.114   8.291  0.7057  0.5427  0.0333
 1730SOL    HW116826   2.321   4.093   8.308  0.4726 -0.8377 -0.4405
 1730SOL    HW216827   2.202   4.157   8.372  0.2077  0.3533 -0.0371
 1731SOL     OW16828   4.693   1.146   5.487  0.0034  0.1088 -0.5521
 1731SOL    HW116829   4.618   1.203   5.469  1.1365  1.3927 -1.2822
 1731SOL    HW216830   4.646   1.079   5.536  0.3210  1.4150  1.5454
 1732SOL     OW16831   2.588   4.580   4.866 -0.4409  0.2156  0.4900
 1732SOL    HW116832   2.512   4.605   4.814  0.7410  2.0729 -0.3594
 1732SOL    HW216833   2.645   4.522   4.816 -0.3343  0.6290  0.1299
 1733SOL     OW16834   4.546   0.410   7.146  0.5332 -0.0676 -1.1750
 1733SOL    HW116835   4.612   0.352   7.184  1.5615  1.7788 -0.1096
 1733SOL    HW216836   4.498   0.433   7.225  2.0687 -1.1286  0.0481
 1734SOL     OW16837   4.677   3.731   6.675  0.1285  0.0555 -0.2040
 1734SOL    HW116838   4.628   3.753   6.754 -0.3044 -1.0046 -0.1705
 1734SOL    HW216839   4.727   3.812   6.673  0.0883  0.1099  0.8899
 1735SOL     OW16840   2.761   0.269   8.161 -0.6132  0.1817  0.1563
 1735SOL    HW116841   2.844   0.317   8.166 -0.6406  0.5379 -2.8609
 1735SOL    HW216842   2.702   0.339   8.191 -1.7306 -1.1636  1.1334
 1736SOL     OW16843   3.329   3.450  16.454 -0.3208  0.0455  0.2664
 1736SOL    HW116844   3.335   3.537  16.415  0.4191 -1.1300 -2.2272
 1736SOL    HW216845   3.337   3.389  16.380 -1.2132 -0.4555  0.5804
 1737SOL     OW16846   4.098   4.679   1.378 -0.2709  0.1689 -0.6232
 1737SOL    HW116847   4.120   0.015   1.322 -0.8205 -2.1533 -3.9208
 1737SOL    HW216848   4.005   4.663   1.362  0.1867 -2.9233 -0.2574
 1738SOL     OW16849   1.858   1.903  17.678  0.4464 -0.5482  0.4734
 1738SOL    HW116850   1.840   1.952  17.598 -0.2550  0.0718  1.0042
 1738SOL    HW216851   1.848   1.972  17.745  1.3032 -0.8457  0.9045
 1739SOL     OW16852   2.792   0.916  10.275 -0.0869  0.7061  0.1538
 1739SOL    HW116853   2.764   0.966  10.351  0.5242  0.4484  0.5405
 1739SOL    HW216854   2.842   0.845  10.315 -1.0724 -0.7304 -1.1492
 1740SOL     OW16855   3.138   1.031  12.350 -0.0077 -0.0255  1.2652
 1740SOL    HW116856   3.128   1.105  12.291 -0.5697  0.3335  1.8032
 1740SOL    HW216857   3.227   1.011  12.323 -0.2705  0.3157  0.1485
 1741SOL     OW16858   0.055   3.015   6.673  0.1745  0.0563  0.2408
 1741SOL    HW116859   0.052   3.106   6.704 -2.2959 -0.1500  0.5526
 1741SOL    HW216860   4.720   3.011   6.613  0.4809 -2.2815  0.0208
 1742SOL     OW16861   0.741   1.241  15.418  0.0285 -0.6057  1.0928
 1742SOL    HW116862   0.792   1.163  15.396  0.1297 -0.3504  0.4336
 1742SOL    HW216863   0.650   1.215  15.401  0.0504  1.5436 -2.3395
 1743SOL     OW16864   1.546   2.297   8.065  0.0159  0.4370 -0.5887
 1743SOL    HW116865   1.599   2.241   8.008 -0.2513 -0.1023 -0.3095
 1743SOL    HW216866   1.461   2.281   8.025 -0.1993  0.9790 -0.3501
 1744SOL     OW16867   3.153   1.016   2.193 -0.2856  0.1414  0.3889
 1744SOL    HW116868   3.130   1.053   2.108  1.9744 -1.3906 -0.8853
 1744SOL    HW216869   3.078   0.959   2.213 -1.3524  2.1811  2.2433
 1745SOL     OW16870   1.231   3.264  14.794  0.7110 -0.2739  0.0215
 1745SOL    HW116871   1.216   3.329  14.726 -0.0983  0.4861  0.9211
 1745SOL    HW216872   1.142   3.238  14.821  1.5056 -1.7967  1.1946
 1746SOL     OW16873   2.883   3.201   9.841  0.5479 -0.1992  0.3788
 1746SOL    HW116874   2.791   3.186   9.866  0.8086 -2.1524  0.1218
 1746SOL    HW216875   2.888   3.289   9.879  0.1237  0.9769 -2.2553
 1747SOL     OW16876   1.094   2.028  13.946  0.2877 -0.7064  0.2503
 1747SOL    HW116877   1.009   2.018  13.989 -0.8777 -1.2019 -2.1338
 1747SOL    HW216878   1.124   2.112  13.982  1.9856 -0.3096 -2.0998
 1748SOL     OW16879   1.499   4.437   7.661  0.3540  0.4939 -0.1486
 1748SOL    HW116880   1.456   4.482   7.734  1.5668  1.5395 -0.0661
 1748SOL    HW216881   1.496   4.346   7.688 -0.3202  0.5461 -0.0671
 1749SOL     OW16882   4.163   1.099   1.334 -0.0391  0.5687  0.6879
 1749SOL    HW116883   4.172   1.096   1.238  3.1201  1.6132  0.9463
 1749SOL    HW216884   4.072   1.129   1.326 -0.5484 -1.0725  0.4163
 1750SOL     OW16885   0.381   2.082   7.743  0.0942 -0.3286 -0.4542
 1750SOL    HW116886   0.382   2.104   7.836  2.1044  0.5223 -0.6906
 1750SOL    HW216887   0.474   2.065   7.728  0.1967 -0.6394  0.5220
 1751SOL     OW16888   2.732   3.733   2.169  0.0862 -0.1115 -0.4641
 1751SOL    HW116889   2.820   3.697   2.168  0.7088  1.4387 -0.4657
 1751SOL    HW216890   2.679   3.655   2.149 -1.5305  0.4919  1.5266
 1752SOL     OW16891   1.690   3.749   0.858  0.1215  0.0207 -0.2951
 1752SOL    HW116892   1.732   3.721   0.939  2.7855 -0.4759 -1.8410
 1752SOL    HW216893   1.765   3.769   0.802  1.2338 -1.1437  0.7829
 1753SOL     OW16894   3.409   2.534   5.308  0.1061 -0.1740  0.2363
 1753SOL    HW116895   3.399   2.455   5.360 -2.7122 -0.1764 -0.3073
 1753SOL    HW216896   3.335   2.540   5.247  0.6659 -0.6289 -0.4756
 1754SOL     OW16897   3.443   0.303   8.907  0.0602 -0.1904 -0.2685
 1754SOL    HW116898   3.421   0.352   8.986 -1.7224 -1.8328  0.2494
 1754SOL    HW216899   3.410   0.217   8.934 -0.7845  1.0398  2.5170
 1755SOL     OW16900   4.222   0.625   8.934  0.3490 -0.4781 -0.5542
 1755SOL    HW116901   4.235   0.606   8.840 -1.3237  0.5279 -0.9812
 1755SOL    HW216902   4.137   0.588   8.960  0.1018  0.7262  0.3258
 1756SOL     OW16903   0.082   2.517  10.003  0.8351  0.2090 -0.2601
 1756SOL    HW116904   0.110   2.535  10.093 -2.3421 -0.6417  0.8767
 1756SOL    HW216905   0.133   2.436   9.996  2.6854  1.4035 -0.6446
 1757SOL     OW16906   1.386   1.225   5.834  0.5694  0.5684 -0.1995
 1757SOL    HW116907   1.311   1.284   5.845 -0.4975 -0.6852 -0.7952
 1757SOL    HW216908   1.413   1.204   5.924 -0.2037 -2.8378 -0.7598
 1758SOL     OW16909   4.621   0.467   8.938 -0.0346  0.1831 -0.1158
 1758SOL    HW116910   4.598   0.400   8.874 -0.0039  1.1376 -1.1258
 1758SOL    HW216911   4.596   0.549   8.896  2.6525 -0.6742 -3.3728
 1759SOL     OW16912   1.658   1.019   6.196 -0.1044  0.0300 -0.1766
 1759SOL    HW116913   1.687   1.068   6.119 -1.6321 -0.3221 -0.9736
 1759SOL    HW216914   1.719   0.946   6.211  1.5255  1.3897 -0.0851
 1760SOL     OW16915   0.148   0.016   6.813 -0.2996 -0.2421  0.2781
 1760SOL    HW116916   0.193   0.064   6.882  1.4038  1.9717 -2.3827
 1760SOL    HW216917   0.059   0.032   6.846 -0.9553 -1.0615 -1.0818
 1761SOL     OW16918   3.763   0.567   7.921  0.7689  0.0308 -0.4167
 1761SOL    HW116919   3.790   0.564   8.013  0.5669  0.6355 -0.3361
 1761SOL    HW216920   3.688   0.507   7.923  0.9332 -0.1142  1.1041
 1762SOL     OW16921   2.924   1.271   9.236 -0.2838 -0.0217 -0.1872
 1762SOL    HW116922   2.927   1.352   9.186  0.2421  0.4901  0.6830
 1762SOL    HW216923   2.830   1.256   9.228 -0.6547  0.4989  3.0644
 1763SOL     OW16924   0.436   3.097   2.766  0.0996  0.4424  0.0191
 1763SOL    HW116925   0.523   3.106   2.726  0.7734 -0.8580  1.1668
 1763SOL    HW216926   0.454   3.025   2.827  0.8316  0.7181  0.1317
 1764SOL     OW16927   4.670   1.815   4.882  0.1839  0.3684  0.0269
 1764SOL    HW116928   4.733   1.855   4.942  1.0529 -0.8010 -0.0977
 1764SOL    HW216929   4.641   1.750   4.946  0.4042  2.4199  2.2256
 1765SOL     OW16930   3.079   0.063   1.832 -0.3991 -0.5141  0.2056
 1765SOL    HW116931   3.011   0.003   1.802  0.2759  0.5426 -3.5016
 1765SOL    HW216932   3.135   0.014   1.891 -0.0348  1.1854  1.2471
 1766SOL     OW16933   1.534   1.032   2.308 -0.1263  0.2620  0.7640
 1766SOL    HW116934   1.521   0.966   2.240 -1.9512  0.9506  0.4435
 1766SOL    HW216935   1.505   0.983   2.384  1.2360 -0.0914  1.0434
 1767SOL     OW16936   1.655   1.578  11.137 -1.0012  0.0639 -0.4366
 1767SOL    HW116937   1.570   1.558  11.098 -1.8049  1.7236  0.4841
 1767SOL    HW216938   1.630   1.657  11.184 -0.0770  1.0631 -1.6311
 1768SOL     OW16939   4.545   1.971  15.757  0.4005  0.0040  0.5113
 1768SOL    HW116940   4.518   1.921  15.680 -0.3265 -0.1387  0.8536
 1768SOL    HW216941   4.520   2.057  15.721  0.2718  0.1712  0.9886
 1769SOL     OW16942   0.944   0.570   1.454 -0.2291  0.6292  0.1152
 1769SOL    HW116943   0.986   0.537   1.375 -0.9042 -0.7367  0.3279
 1769SOL    HW216944   1.017   0.616   1.495 -1.0235  1.2927  0.7623
 1770SOL     OW16945   1.940   2.082   3.841 -0.0780 -0.1112  0.0865
 1770SOL    HW116946   1.923   2.085   3.936 -2.2502 -0.8174 -0.2942
 1770SOL    HW216947   1.884   2.153   3.810 -1.1450 -0.4233  1.2778
 1771SOL     OW16948   3.820   2.933   8.023  0.6972  0.4480 -0.2060
 1771SOL    HW116949   3.825   3.022   7.988  1.4522  1.4052  2.2959
 1771SOL    HW216950   3.910   2.906   8.004  0.4154 -0.5663 -0.0852
 1772SOL     OW16951   1.477   2.131   9.494 -0.3419 -0.1237 -0.3911
 1772SOL    HW116952   1.523   2.202   9.538 -1.2123  1.4277 -1.9586
 1772SOL    HW216953   1.548   2.068   9.489 -0.7890 -0.5150 -1.8325
 1773SOL     OW16954   1.426   2.185  14.909  0.7481 -0.4109  0.4842
 1773SOL    HW116955   1.335   2.158  14.897 -0.0150  1.5572  1.6774
 1773SOL    HW216956   1.426   2.259  14.849 -0.4774 -0.0010  0.9871
 1774SOL     OW16957   4.175   0.074   2.042 -0.0760 -0.0545 -0.0611
 1774SOL    HW116958   4.102   0.133   2.021  0.8715  0.8330 -0.8666
 1774SOL    HW216959   4.197   0.048   1.952 -1.6917  1.9047 -1.0188
 1775SOL     OW16960   2.884   4.129   2.712 -0.0552 -0.4152  0.1462
 1775SOL    HW116961   2.811   4.187   2.689  0.0050 -1.6170 -3.1134
 1775SOL    HW216962   2.853   4.095   2.796  0.1340 -0.1983  0.3020
 1776SOL     OW16963   4.046   4.270   3.882  0.1150  0.2622 -0.5879
 1776SOL    HW116964   4.042   4.349   3.936 -1.8560 -0.8062  0.8189
 1776SOL    HW216965   3.966   4.282   3.831 -0.5024 -3.4204 -0.4646
 1777SOL     OW16966   3.696   3.909   2.561  0.1088 -0.7708 -0.1831
 1777SOL    HW116967   3.741   3.825   2.555  1.1201 -0.2892  0.6305
 1777SOL    HW216968   3.683   3.919   2.656  1.6918 -1.4777  0.1121
 1778SOL     OW16969   4.040   3.950   4.044 -0.7147  0.2639 -0.0312
 1778SOL    HW116970   4.047   4.002   4.125  0.3469 -0.3055  0.2424
 1778SOL    HW216971   4.104   3.880   4.047  0.7243  1.5791  0.0779
 1779SOL     OW16972   0.864   3.146  14.866  0.0642  0.2232 -0.5059
 1779SOL    HW116973   0.856   3.210  14.795 -0.2063  0.0925 -0.5927
 1779SOL    HW216974   0.924   3.188  14.928 -0.9199  1.5614 -0.4465
 1780SOL     OW16975   1.332   0.014   3.434 -0.2702 -0.4201 -0.0750
 1780SOL    HW116976   1.264   4.690   3.458 -0.6739  0.1020  0.1485
 1780SOL    HW216977   1.291   0.097   3.460  2.1848 -0.3575  3.5746
 1781SOL     OW16978   4.734   1.879  14.530 -0.2995  0.4979 -0.4241
 1781SOL    HW116979   4.691   1.804  14.489  1.2532 -0.5552 -0.1561
 1781SOL    HW216980   0.018   1.931  14.453 -0.7417  0.6001 -0.4823
 1782SOL     OW16981   1.769   4.380   3.463 -0.1588 -0.8946  0.2609
 1782SOL    HW116982   1.704   4.389   3.393 -0.5901 -0.9379  0.6584
 1782SOL    HW216983   1.729   4.315   3.520 -0.8278  0.5408  1.4271
 1783SOL     OW16984   3.273   0.434   2.480 -0.6179 -0.1481 -0.5090
 1783SOL    HW116985   3.312   0.516   2.449 -0.9959 -0.2406 -1.2279
 1783SOL    HW216986   3.233   0.408   2.397  1.0833 -0.6565 -1.1760
 1784SOL     OW16987   2.227   1.537   8.965 -0.2402 -0.2012 -0.3523
 1784SOL    HW116988   2.139   1.575   8.959  0.2477  0.5383 -2.5803
 1784SOL    HW216989   2.274   1.615   8.937 -1.0061 -0.1423 -1.4899
 1785SOL     OW16990   4.536   1.994   9.871 -0.2461 -0.3290 -0.2310
 1785SOL    HW116991   4.489   1.921   9.830 -0.9696  1.4678 -2.6251
 1785SOL    HW216992   4.463   2.055   9.869 -0.6462 -0.8709 -2.7878
 1786SOL     OW16993   1.384   3.807   5.186  0.0713  0.0626  0.0761
 1786SOL    HW116994   1.315   3.873   5.184 -0.7629 -0.7651  1.7659
 1786SOL    HW216995   1.391   3.784   5.278  0.0704  0.3627  0.1499
 1787SOL     OW16996   1.922   1.597   8.301 -0.8536  0.3177  0.0096
 1787SOL    HW116997   1.923   1.587   8.206 -2.6975 -1.0526  0.1235
 1787SOL    HW216998   1.982   1.530   8.334 -2.4825 -1.7724 -1.2044
 1788SOL     OW16999   3.625   4.693   5.573 -0.6343  0.1543  0.4909
 1788SOL    HW117000   3.536   4.700   5.607  0.0527 -0.3022  2.4234
 1788SOL    HW217001   3.685   4.675   5.646  0.4947  0.4318 -0.3658
 1789SOL     OW17002   1.754   4.201   2.492  0.0371  0.0928 -0.1719
 1789SOL    HW117003   1.818   4.132   2.476 -0.9662 -1.0726  0.9146
 1789SOL    HW217004   1.674   4.150   2.485  0.1658 -0.0372 -0.7111
 1790SOL     OW17005   1.351   0.443   5.052  0.1326 -0.2732  0.0399
 1790SOL    HW117006   1.263   0.429   5.089  0.3277 -1.3685  0.1051
 1790SOL    HW217007   1.379   0.352   5.059  0.3256 -0.3144 -1.3354
 1791SOL     OW17008   3.149   1.840  10.164  0.4510  0.2826  0.2952
 1791SOL    HW117009   3.151   1.768  10.228 -1.1500  2.0359  2.3155
 1791SOL    HW217010   3.170   1.800  10.080 -0.7541 -0.0329  0.1505
 1792SOL     OW17011   0.553   3.089   3.812  0.4211 -0.3366  0.4634
 1792SOL    HW117012   0.554   3.172   3.860  0.9432  0.9700 -1.8055
 1792SOL    HW217013   0.632   3.053   3.851 -0.9821 -2.2152  1.6102
 1793SOL     OW17014   2.204   1.482   3.522 -0.3584  0.5721  0.2072
 1793SOL    HW117015   2.239   1.549   3.463 -0.1516  1.2947  1.1366
 1793SOL    HW217016   2.135   1.443   3.469  1.9523 -2.0265 -0.8753
 1794SOL     OW17017   1.884   4.488   6.341 -0.8003  0.3075  0.0974
 1794SOL    HW117018   1.964   4.504   6.392 -0.4127  0.1169 -0.4475
 1794SOL    HW217019   1.858   4.401   6.373 -0.5206 -0.0152 -0.5491
 1795SOL     OW17020   2.393   4.069   3.895 -0.3564 -0.3399  0.5202
 1795SOL    HW117021   2.387   4.091   3.988  1.2695 -2.2309  1.0514
 1795SOL    HW217022   2.427   3.980   3.895  0.9466  0.1472 -0.5062
 1796SOL     OW17023   1.401   4.200   2.854  0.1429 -0.0460 -0.0693
 1796SOL    HW117024   1.412   4.245   2.937 -0.6057  0.7190 -0.3790
 1796SOL    HW217025   1.306   4.184   2.852  0.4901 -2.0349 -0.4513
 1797SOL     OW17026   3.712   1.112   3.415 -0.3916 -0.5146  0.5279
 1797SOL    HW117027   3.751   1.159   3.489  0.7629  0.5004 -0.7067
 1797SOL    HW217028   3.645   1.061   3.459 -0.6645 -0.0397  0.6706
 1798SOL     OW17029   4.196   2.349   3.358 -0.4963  0.0337 -0.2358
 1798SOL    HW117030   4.141   2.307   3.292  0.2369 -1.0732 -0.1348
 1798SOL    HW217031   4.247   2.279   3.398  1.5511  1.6255 -0.0330
 1799SOL     OW17032   3.125   0.551   8.447  0.1098  0.2305 -0.4987
 1799SOL    HW117033   3.076   0.549   8.530  0.3438 -1.1226 -0.3953
 1799SOL    HW217034   3.180   0.473   8.456 -1.9450 -1.1413  0.1430
 1800SOL     OW17035   4.009   0.596   2.670  0.5238 -0.4195 -0.1516
 1800SOL    HW117036   3.919   0.606   2.637  0.4152 -0.3866  0.1527
 1800SOL    HW217037   4.038   0.687   2.674  0.3082 -0.2602 -2.0475
 1801SOL     OW17038   3.803   1.730   2.808  0.1331  0.0759 -0.4109
 1801SOL    HW117039   3.818   1.659   2.745 -1.4291 -0.7628  0.1769
 1801SOL    HW217040   3.709   1.743   2.800  0.1757  0.2647 -0.6120
 1802SOL     OW17041   1.187   3.586   2.144 -0.6341  0.5452  0.2497
 1802SOL    HW117042   1.270   3.588   2.097 -0.2491 -1.0330  0.8528
 1802SOL    HW217043   1.143   3.509   2.108 -2.3513  1.6067  0.0758
 1803SOL     OW17044   0.267   2.947  10.059 -0.4381  1.0292  0.4409
 1803SOL    HW117045   0.321   2.889  10.113  0.6949  0.2919 -1.5167
 1803SOL    HW217046   0.247   3.017  10.122  1.0282  0.9493  0.9825
 1804SOL     OW17047   0.541   0.506   3.942  0.2305 -0.0014 -0.7490
 1804SOL    HW117048   0.492   0.588   3.942 -0.3212 -0.3223  1.0775
 1804SOL    HW217049   0.575   0.509   4.031  0.6922  1.0623 -0.9700
 1805SOL     OW17050   2.634   3.313   8.861  0.3088 -0.6588  0.3795
 1805SOL    HW117051   2.729   3.316   8.852  0.1523 -0.8429 -1.2359
 1805SOL    HW217052   2.614   3.404   8.839 -1.1328 -0.6621  1.6037
 1806SOL     OW17053   1.378   0.410   6.863 -0.2280  0.0398  0.3329
 1806SOL    HW117054   1.383   0.388   6.770 -2.5367  0.7686  0.0446
 1806SOL    HW217055   1.455   0.467   6.866  1.3059 -2.0155 -0.0586
 1807SOL     OW17056   4.714   3.013   4.215 -0.2672 -0.5192 -0.1415
 1807SOL    HW117057   4.705   2.973   4.128 -0.7094  0.7269 -0.6740
 1807SOL    HW217058   4.622   3.012   4.242 -0.4829 -0.8027 -0.8598
 1808SOL     OW17059   1.993   0.755   8.841  0.0524 -0.1279 -0.4317
 1808SOL    HW117060   2.078   0.737   8.881  0.7161 -0.0582 -1.7773
 1808SOL    HW217061   1.993   0.687   8.773 -0.6964 -1.0390  0.4959
 1809SOL     OW17062   0.785   4.002   8.714 -0.5929 -0.2904  0.0917
 1809SOL    HW117063   0.725   4.004   8.640  0.1778 -3.1218 -0.6391
 1809SOL    HW217064   0.730   3.971   8.786 -0.4443  0.2684  0.4441
 1810SOL     OW17065   3.406   0.242   4.289 -0.1859  0.0306 -0.0967
 1810SOL    HW117066   3.325   0.254   4.339 -1.2675  0.1388 -1.8576
 1810SOL    HW217067   3.448   0.326   4.306 -0.3779 -0.2340  1.6412
 1811SOL     OW17068   2.321   2.244   6.661  0.2898 -0.0209  0.1278
 1811SOL    HW117069   2.378   2.202   6.725 -1.0325  0.8589  1.9060
 1811SOL    HW217070   2.354   2.333   6.655 -0.1216  0.1013 -0.3724
 1812SOL     OW17071   4.417   3.711   1.111  0.2083 -0.4364  0.0919
 1812SOL    HW117072   4.365   3.783   1.148  0.0779  0.5871 -2.0484
 1812SOL    HW217073   4.364   3.644   1.154 -1.6626  0.3698 -0.9239
 1813SOL     OW17074   4.450   1.511   6.155  0.0298 -0.3808  0.1541
 1813SOL    HW117075   4.430   1.419   6.172  1.6606 -0.6026  0.8728
 1813SOL    HW217076   4.545   1.507   6.158  0.0394  0.9658  1.2911
 1814SOL     OW17077   3.762   1.360   1.866 -0.2409 -0.4478 -0.2135
 1814SOL    HW117078   3.814   1.440   1.858  0.5731 -0.9356  0.2262
 1814SOL    HW217079   3.833   1.300   1.844 -0.0143  0.5819 -2.3404
 1815SOL     OW17080   1.898   2.853   6.320  0.9088 -0.4037  0.0832
 1815SOL    HW117081   1.868   2.848   6.229 -0.8594 -1.7085  0.7293
 1815SOL    HW217082   1.915   2.946   6.330 -3.0473  0.4980 -1.5017
 1816SOL     OW17083   3.605   1.474  13.545  0.6443 -0.3352 -0.7596
 1816SOL    HW117084   3.657   1.543  13.585  1.2139 -0.4792 -1.2544
 1816SOL    HW217085   3.593   1.406  13.611 -1.4559  0.4556 -0.3263
 1817SOL     OW17086   1.189   4.453   5.302 -0.4022 -0.0093  0.1344
 1817SOL    HW117087   1.246   4.505   5.360 -1.0196  1.4525 -0.5766
 1817SOL    HW217088   1.146   4.385   5.353 -0.8821 -1.2650 -1.9414
 1818SOL     OW17089   0.410   4.322   2.913 -0.2558  0.0230 -0.4869
 1818SOL    HW117090   0.479   4.257   2.920 -2.4106 -2.3063 -1.0165
 1818SOL    HW217091   0.361   4.306   2.832  3.1434 -3.3020 -1.8859
 1819SOL     OW17092   2.284   2.856  14.495 -0.1999 -0.1075 -0.0645
 1819SOL    HW117093   2.195   2.820  14.495 -0.3414  0.2250  0.9606
 1819SOL    HW217094   2.280   2.903  14.579 -1.3563  0.7307 -0.5966
 1820SOL     OW17095   3.688   1.387   5.835  0.2394 -0.0872  0.0553
 1820SOL    HW117096   3.626   1.442   5.883  0.5250  1.9942 -1.9927
 1820SOL    HW217097   3.740   1.456   5.793 -2.1395  1.6322 -0.0541
 1821SOL     OW17098   4.510   3.323  14.704 -0.1693 -0.2599 -0.6357
 1821SOL    HW117099   4.431   3.334  14.652  0.1128  0.2399 -0.9584
 1821SOL    HW217100   4.530   3.233  14.679  1.8507  0.3801 -1.4014
 1822SOL     OW17101   0.792   2.310   2.931 -0.1723 -0.3184  0.6949
 1822SOL    HW117102   0.854   2.253   2.885 -0.7198 -1.2869  1.1615
 1822SOL    HW217103   0.709   2.264   2.918  0.6340 -1.2322 -1.2353
 1823SOL     OW17104   4.164   2.984  10.544 -0.0559  0.2280  0.1894
 1823SOL    HW117105   4.140   2.991  10.452 -2.7064 -0.1124  0.8384
 1823SOL    HW217106   4.121   3.062  10.579 -0.2246 -0.0852  0.6809
 1824SOL     OW17107   0.692   0.577   1.362 -0.4641  0.4593  0.4912
 1824SOL    HW117108   0.713   0.636   1.289 -1.6315  2.5190  1.7960
 1824SOL    HW217109   0.775   0.571   1.409  0.0699 -1.0190 -0.6440
 1825SOL     OW17110   1.002   2.578  10.436 -0.1587 -0.1691  0.3761
 1825SOL    HW117111   1.069   2.525  10.393  1.0399  1.0844  0.6931
 1825SOL    HW217112   1.064   2.602  10.505 -0.6364  1.7203  0.1324
 1826SOL     OW17113   1.559   2.409   2.316 -0.1837 -0.0898 -0.1297
 1826SOL    HW117114   1.465   2.394   2.330 -0.0005 -0.3968  0.7941
 1826SOL    HW217115   1.586   2.388   2.405  0.5357  0.7924 -0.1472
 1827SOL     OW17116   3.395   1.005   8.051 -0.6145  0.3945 -0.5231
 1827SOL    HW117117   3.323   1.050   8.005 -1.3582  0.6324  0.8809
 1827SOL    HW217118   3.466   1.009   7.988  0.2153  2.0430  0.5268
 1828SOL     OW17119   3.923   0.236   9.713 -0.7114 -0.1176  0.0848
 1828SOL    HW117120   4.005   0.284   9.723 -0.5425 -0.7104  1.6936
 1828SOL    HW217121   3.944   0.175   9.643  1.8614  0.3553  0.4654
 1829SOL     OW17122   1.352   3.425  10.465 -0.8042 -0.9097  0.1046
 1829SOL    HW117123   1.276   3.482  10.477  0.4898  0.2258  2.9097
 1829SOL    HW217124   1.315   3.337  10.456 -0.6000 -0.8312 -1.4410
 1830SOL     OW17125   2.128   2.393  12.445 -0.2253  0.6947  0.2032
 1830SOL    HW117126   2.047   2.342  12.438  1.4211 -1.2920 -4.8190
 1830SOL    HW217127   2.173   2.347  12.374 -1.6187 -0.4877  0.0691
 1831SOL     OW17128   2.603   1.434  16.363  0.3464 -1.1218  0.3001
 1831SOL    HW117129   2.645   1.491  16.298  3.2442 -1.5211  1.8238
 1831SOL    HW217130   2.565   1.498  16.423 -2.0296 -2.1686 -0.1083
 1832SOL     OW17131   0.505   0.621  13.471 -0.3447 -0.0727  0.5931
 1832SOL    HW117132   0.410   0.621  13.461 -0.1731  0.9360 -1.1229
 1832SOL    HW217133   0.536   0.652  13.386  0.6951  0.7082  1.2631
 1833SOL     OW17134   2.098   1.322  15.319 -0.8063  0.2165  0.0839
 1833SOL    HW117135   2.094   1.340  15.413  0.2877  1.9554 -0.2098
 1833SOL    HW217136   2.031   1.253  15.321 -0.2332 -0.3557 -1.0552
 1834SOL     OW17137   1.504   3.133   6.887 -0.2131  0.4158 -0.2743
 1834SOL    HW117138   1.480   3.094   6.803  2.8073 -0.2029 -0.8516
 1834SOL    HW217139   1.500   3.054   6.942 -0.8714  0.3868 -0.3700
 1835SOL     OW17140   1.106   3.011   8.086  0.4430  0.3074 -0.1493
 1835SOL    HW117141   1.051   2.932   8.084  2.3477 -0.9986 -1.4905
 1835SOL    HW217142   1.164   3.003   8.162 -1.8716  0.0832  1.5951
 1836SOL     OW17143   0.723   1.090   8.086  0.0482  0.4990  0.0672
 1836SOL    HW117144   0.808   1.108   8.127 -0.1175  0.9209  0.2327
 1836SOL    HW217145   0.744   1.016   8.029  4.0483 -0.4891  2.8181
 1837SOL     OW17146   1.713   2.242   2.513  0.4882 -0.0897  0.4586
 1837SOL    HW117147   1.801   2.239   2.475  0.7687  1.6147  0.9751
 1837SOL    HW217148   1.740   2.243   2.604 -1.3922 -0.6032  1.0229
 1838SOL     OW17149   3.139   3.745  17.734  0.2357  0.5738 -0.4482
 1838SOL    HW117150   3.196   3.755   0.057  0.4669  0.5125 -0.6154
 1838SOL    HW217151   3.072   3.808   0.007  0.2288 -0.0812  1.1709
 1839SOL     OW17152   2.275   4.387  13.829 -0.3661  0.7450 -0.2729
 1839SOL    HW117153   2.334   4.318  13.797 -0.5653  0.1897  0.5798
 1839SOL    HW217154   2.281   4.452  13.759  0.8942 -0.7990 -1.6246
 1840SOL     OW17155   2.592   3.617   1.600  0.1128 -0.1431 -0.4742
 1840SOL    HW117156   2.600   3.677   1.525  0.2328 -0.4345 -0.6923
 1840SOL    HW217157   2.599   3.666   1.682  1.5391  1.1597 -1.3667
 1841SOL     OW17158   0.934   3.075   8.366  0.1903  0.4970 -0.1111
 1841SOL    HW117159   1.013   3.024   8.385  1.0242  0.0679 -4.7823
 1841SOL    HW217160   0.949   3.152   8.421 -2.3913  1.5154 -0.8872
 1842SOL     OW17161   0.373   4.708   4.304 -0.1049  0.0545  0.0334
 1842SOL    HW117162   0.378   0.059   4.339 -0.5779  0.1697 -0.1928
 1842SOL    HW217163   0.418   4.724   4.221 -0.0917 -1.9176 -0.3321
 1843SOL     OW17164   4.120   3.883   2.595 -0.3213 -0.4362  0.4464
 1843SOL    HW117165   4.176   3.936   2.538 -1.6622  2.0964  1.4636
 1843SOL    HW217166   4.057   3.939   2.640  2.1506  1.0693  2.0131
 1844SOL     OW17167   3.147   4.629   6.825 -0.6543  0.1247  0.1064
 1844SOL    HW117168   3.174   4.673   6.744  0.4848 -1.8760 -0.5892
 1844SOL    HW217169   3.206   4.672   6.887  0.0386  0.3828 -0.7377
 1845SOL     OW17170   1.117   4.710  15.962  0.1676 -0.7888  0.2422
 1845SOL    HW117171   1.037   0.012  15.928  0.3141 -1.2323 -0.6243
 1845SOL    HW217172   1.158   4.676  15.882  0.7988  2.2535 -0.7371
 1846SOL     OW17173   2.218   0.395  17.377  0.2036  0.6701 -0.1243
 1846SOL    HW117174   2.201   0.354  17.292 -2.1959 -1.6658  1.4553
 1846SOL    HW217175   2.300   0.443  17.367 -0.7981  2.4754  0.5074
 1847SOL     OW17176   2.851   4.087   7.074 -0.3536 -0.3798  0.0352
 1847SOL    HW117177   2.931   4.048   7.110  0.6403  1.2396 -0.4472
 1847SOL    HW217178   2.832   4.020   7.008  0.3110 -1.5071  0.9796
 1848SOL     OW17179   0.941   3.383   3.010  0.0257 -0.1536 -0.2163
 1848SOL    HW117180   0.855   3.344   3.027 -0.4745  0.7824 -0.6519
 1848SOL    HW217181   0.931   3.402   2.917 -1.3712  0.0800 -0.0205
 1849SOL     OW17182   0.920   0.423   2.955  0.1422 -0.1008 -0.4542
 1849SOL    HW117183   0.840   0.371   2.951 -0.1732  0.3560  0.1012
 1849SOL    HW217184   0.982   0.352   2.975  0.0769  0.3196  1.2355
 1850SOL     OW17185   2.979   3.123   7.604  0.1937 -0.2713  0.3144
 1850SOL    HW117186   3.042   3.056   7.632  0.5229  0.0656  0.3853
 1850SOL    HW217187   3.032   3.202   7.616 -0.9637  0.3170  1.5087
 1851SOL     OW17188   3.627   0.122   5.901  0.3463 -0.7411 -0.6566
 1851SOL    HW117189   3.690   0.055   5.873  0.1904 -0.1598 -2.4431
 1851SOL    HW217190   3.578   0.140   5.821 -1.0351  0.5252  0.4941
 1852SOL     OW17191   1.871   4.063  12.002  0.4165  0.4184  0.0948
 1852SOL    HW117192   1.936   4.045  11.934 -2.9095 -0.3145 -2.8623
 1852SOL    HW217193   1.876   4.158  11.993 -2.3458  0.4841 -0.5181
 1853SOL     OW17194   4.308   4.019   0.521  0.3429  0.0268 -0.6185
 1853SOL    HW117195   4.333   4.027   0.429 -1.0617  1.8990 -0.8426
 1853SOL    HW217196   4.258   4.101   0.526  0.8620  0.2409  1.3509
 1854SOL     OW17197   1.189   2.529  13.853  0.6548 -0.2125  0.1162
 1854SOL    HW117198   1.260   2.499  13.910 -0.1233 -1.5567  0.3934
 1854SOL    HW217199   1.126   2.463  13.883  1.5363 -0.8859  0.4921
 1855SOL     OW17200   1.756   0.527   9.529 -0.0969  0.0231  0.1759
 1855SOL    HW117201   1.755   0.552   9.621 -1.7860 -0.2214  0.2331
 1855SOL    HW217202   1.797   0.441   9.535 -0.5390 -0.1689  0.4408
 1856SOL     OW17203   1.992   1.702  14.535  0.8721  0.1438 -0.0951
 1856SOL    HW117204   2.047   1.631  14.570 -0.1918  0.0895  1.4827
 1856SOL    HW217205   1.966   1.746  14.616 -1.6265  1.9336 -1.8880
 1857SOL     OW17206   0.852   2.347   9.026 -0.4849  0.0044 -0.3159
 1857SOL    HW117207   0.851   2.312   9.115  2.0916 -2.2567 -1.1793
 1857SOL    HW217208   0.907   2.424   9.041 -1.7507  1.4158 -2.9762
 1858SOL     OW17209   3.210   4.029   8.934  0.0890 -0.2379  0.0244
 1858SOL    HW117210   3.270   3.956   8.924  1.0147  0.6122 -0.6994
 1858SOL    HW217211   3.135   3.974   8.913 -0.0391 -0.0485 -0.0158
 1859SOL     OW17212   1.043   2.223   4.137 -0.4510  0.1017 -0.3599
 1859SOL    HW117213   0.957   2.233   4.098 -0.6733 -2.2226 -0.4586
 1859SOL    HW217214   1.077   2.312   4.121 -0.7961  0.7528  2.4994
 1860SOL     OW17215   1.710   3.226   6.660 -0.0057  0.1646 -0.0603
 1860SOL    HW117216   1.767   3.288   6.613 -1.5184  0.0278 -2.0653
 1860SOL    HW217217   1.710   3.272   6.744  0.4416  1.1709 -0.5950
 1861SOL     OW17218   1.302   3.074  10.639 -0.2297  0.0850 -0.0204
 1861SOL    HW117219   1.342   3.070  10.726 -0.9088 -0.1881  0.2818
 1861SOL    HW217220   1.241   3.000  10.647 -1.0478  0.6668 -0.9581
 1862SOL     OW17221   3.357   1.871  14.058  0.2159 -0.1628 -0.0674
 1862SOL    HW117222   3.331   1.949  14.108 -1.6577 -0.6434 -0.2836
 1862SOL    HW217223   3.283   1.864  13.998 -0.2289  1.9117  0.2250
 1863SOL     OW17224   0.566   2.507   2.865  0.0176  0.3857  0.1020
 1863SOL    HW117225   0.563   2.424   2.913 -2.7890 -0.8931 -2.3400
 1863SOL    HW217226   0.651   2.504   2.821  0.1514  1.8975  0.2444
 1864SOL     OW17227   2.101   4.442   5.569  0.8741 -0.2094 -0.5593
 1864SOL    HW117228   2.022   4.406   5.610  0.2226  0.4510 -1.2311
 1864SOL    HW217229   2.071   4.468   5.482  0.5733 -0.9093 -0.6655
 1865SOL     OW17230   1.521   2.411   9.065  0.1918  0.2891  0.3986
 1865SOL    HW117231   1.475   2.385   9.145  1.6454  1.6714  1.6881
 1865SOL    HW217232   1.464   2.387   8.993 -1.0589  2.5463  0.6380
 1866SOL     OW17233   2.355   4.367  11.414  0.9584  0.4740  0.1133
 1866SOL    HW117234   2.322   4.371  11.504  2.4250 -2.4065  0.7969
 1866SOL    HW217235   2.430   4.424  11.429  0.1693  1.5412 -0.0099
 1867SOL     OW17236   2.599   2.782  13.183  0.0671 -0.1669  0.2226
 1867SOL    HW117237   2.518   2.786  13.233  1.7296 -0.9786  3.0258
 1867SOL    HW217238   2.645   2.855  13.225  1.6862 -0.9463 -0.1906
 1868SOL     OW17239   2.581   3.189   8.369  0.6832  0.2890 -0.2368
 1868SOL    HW117240   2.635   3.111   8.382  1.4743  0.5036 -2.2220
 1868SOL    HW217241   2.571   3.209   8.462 -1.5722  2.0028 -0.8628
 1869SOL     OW17242   3.164   2.953   4.954  0.1104 -0.4654 -0.2943
 1869SOL    HW117243   3.208   3.014   4.894  1.4605 -1.7545 -0.5924
 1869SOL    HW217244   3.215   2.876   4.927  2.7151  0.3378  2.4002
 1870SOL     OW17245   1.956   4.112   8.613 -0.0314 -0.1090  0.1745
 1870SOL    HW117246   1.922   4.057   8.543  1.1269  0.4707 -0.8521
 1870SOL    HW217247   1.998   4.037   8.653  1.3623  0.5539 -0.0404
 1871SOL     OW17248   4.412   0.694   3.989  0.1810  0.0351 -0.0712
 1871SOL    HW117249   4.381   0.637   4.059  1.7942 -0.4481  0.2535
 1871SOL    HW217250   4.469   0.640   3.933  0.2272  1.4017 -1.3304
 1872SOL     OW17251   1.284   4.174   4.145 -0.1550 -0.4441  0.7735
 1872SOL    HW117252   1.271   4.260   4.186 -1.5399 -0.7945  1.0709
 1872SOL    HW217253   1.191   4.152   4.144 -0.6387  1.5931  1.7329
 1873SOL     OW17254   3.134   3.339  16.174 -0.0283  0.1909  0.4058
 1873SOL    HW117255   3.206   3.305  16.120 -0.0399 -0.4124  0.7628
 1873SOL    HW217256   3.087   3.389  16.107  0.5078 -1.0590 -0.9101
 1874SOL     OW17257   4.376   2.140  16.465 -0.1583  0.5070  0.9358
 1874SOL    HW117258   4.284   2.162  16.449  0.1442  2.5333  1.8908
 1874SOL    HW217259   4.396   2.125  16.373 -0.9401 -1.0556  1.0105
 1875SOL     OW17260   3.302   3.345   5.010 -0.7319  0.0933 -0.4245
 1875SOL    HW117261   3.392   3.314   4.999 -0.9565 -0.5138 -0.5276
 1875SOL    HW217262   3.270   3.287   5.078  3.6060 -0.0689  1.4766
 1876SOL     OW17263   2.793   3.974   2.982  0.4648 -0.7841  0.2109
 1876SOL    HW117264   2.764   3.895   3.028 -2.6626  0.2776  0.0604
 1876SOL    HW217265   2.747   4.046   3.026  1.8775 -0.0845  0.5271
 1877SOL     OW17266   0.470   0.661   1.542  0.0627 -0.3310  0.2018
 1877SOL    HW117267   0.469   0.747   1.501 -0.1277 -0.1779  0.5239
 1877SOL    HW217268   0.537   0.611   1.495  0.0309  2.9236 -3.3104
 1878SOL     OW17269   1.740   0.847   7.228  0.0959  0.3558  0.3294
 1878SOL    HW117270   1.802   0.892   7.170  0.1569  1.6169  1.3701
 1878SOL    HW217271   1.737   0.759   7.192 -0.3307  0.3136  0.4629
 1879SOL     OW17272   1.279   4.098   3.409 -0.1864  0.3235 -0.2586
 1879SOL    HW117273   1.284   4.052   3.326 -1.6856 -1.7630  0.8149
 1879SOL    HW217274   1.233   4.028   3.455 -1.8578  0.2812 -2.0040
 1880SOL     OW17275   0.663   1.528   4.605 -0.0240  0.0509 -0.0751
 1880SOL    HW117276   0.701   1.593   4.664  3.0200 -2.3477  0.5872
 1880SOL    HW217277   0.728   1.457   4.609  1.0611  1.0742  0.4882
 1881SOL     OW17278   0.029   3.348  12.529  0.3300  0.2700  0.1322
 1881SOL    HW117279   0.091   3.296  12.580 -1.1301  0.1063  1.7420
 1881SOL    HW217280   0.096   3.388  12.474  0.5346  0.4282  0.4929
 1882SOL     OW17281   0.249   0.848  10.553 -0.6049  0.2402  0.5851
 1882SOL    HW117282   0.225   0.940  10.543 -3.0764 -0.3130  1.3179
 1882SOL    HW217283   0.174   0.820  10.500 -1.5568  1.7554  1.1470
 1883SOL     OW17284   1.317   2.836   7.667 -0.0036 -0.1569  0.4350
 1883SOL    HW117285   1.301   2.803   7.578 -0.4127 -1.3382  0.9446
 1883SOL    HW217286   1.258   2.911   7.659  1.6223  0.9185 -1.7391
 1884SOL     OW17287   4.705   0.322   5.556 -0.4420  0.4577 -0.0574
 1884SOL    HW117288   4.736   0.252   5.499  0.8475  0.5281  0.5572
 1884SOL    HW217289   4.640   0.276   5.610 -0.7387 -0.1124 -0.8941
 1885SOL     OW17290   1.185   4.250   0.966  0.3550  0.0277 -0.0257
 1885SOL    HW117291   1.248   4.180   0.983 -1.2216 -1.4625 -0.3538
 1885SOL    HW217292   1.105   4.219   1.009  1.3220 -0.4676  1.4195
 1886SOL     OW17293   1.178   1.099   8.859  0.1618 -0.7294  0.2052
 1886SOL    HW117294   1.188   1.194   8.853 -0.5083 -0.4064  4.3803
 1886SOL    HW217295   1.181   1.084   8.953 -3.2326 -0.6876  0.3243
 1887SOL     OW17296   3.768   4.426  10.152  0.2429 -0.3985 -0.2518
 1887SOL    HW117297   3.692   4.429  10.210 -0.0065  0.4263 -0.6230
 1887SOL    HW217298   3.846   4.421  10.208  0.1756 -0.2915 -0.1503
 1888SOL     OW17299   4.608   1.635   2.189 -0.0343 -0.6116  0.0809
 1888SOL    HW117300   4.673   1.574   2.155 -0.6388 -0.7081 -0.8978
 1888SOL    HW217301   4.525   1.600   2.157 -0.6833  1.5145 -0.6063
 1889SOL     OW17302   1.289   0.113   3.173  0.2213  0.2135  0.1479
 1889SOL    HW117303   1.293   0.053   3.248  1.9781 -0.1629 -0.2473
 1889SOL    HW217304   1.373   0.110   3.127 -0.5968  0.0961 -1.3276
 1890SOL     OW17305   1.102   3.605   7.980 -0.4466  0.0425 -0.1658
 1890SOL    HW117306   1.114   3.674   7.914 -0.9630 -0.9290 -1.2717
 1890SOL    HW217307   1.152   3.535   7.937  0.5759  2.0085 -2.2175
 1891SOL     OW17308   0.642   3.610  17.752 -0.0922  0.7835 -0.4751
 1891SOL    HW117309   0.640   3.677   0.068  2.4351 -0.6032  0.9667
 1891SOL    HW217310   0.700   3.654  17.690 -1.0665  1.2951 -1.0150
 1892SOL     OW17311   0.725   4.265   3.721  0.4240  0.2196 -0.0378
 1892SOL    HW117312   0.759   4.313   3.796  0.3069 -0.2404  0.3124
 1892SOL    HW217313   0.635   4.251   3.752  0.8821 -1.6916  0.4607
 1893SOL     OW17314   1.012   1.907   5.667  0.4891  0.4324 -0.9779
 1893SOL    HW117315   0.979   1.824   5.633  1.9102  0.1618 -1.6894
 1893SOL    HW217316   1.070   1.876   5.736 -0.2815  2.8937  0.7710
 1894SOL     OW17317   3.604   4.678   5.080  0.5209 -0.3152  0.5093
 1894SOL    HW117318   3.600   4.695   4.986  0.7203  0.5029  0.6449
 1894SOL    HW217319   3.532   4.617   5.095  0.9549 -0.5617  1.5827
 1895SOL     OW17320   1.598   3.196   8.268  0.2364 -0.4483  0.0728
 1895SOL    HW117321   1.517   3.242   8.244 -0.3106 -0.9272  1.0022
 1895SOL    HW217322   1.655   3.272   8.281 -0.5450  0.1664 -0.0858
 1896SOL     OW17323   3.800   2.257  16.554  0.5246 -0.1585 -0.2707
 1896SOL    HW117324   3.851   2.328  16.594 -0.4537 -0.2173  1.0538
 1896SOL    HW217325   3.763   2.219  16.633  2.2503  0.6472  0.9270
 1897SOL     OW17326   0.036   2.048   1.026  0.6524  0.3825 -0.4155
 1897SOL    HW117327   0.035   2.050   0.930  0.4284  2.3865 -0.3806
 1897SOL    HW217328   0.129   2.062   1.045  1.3053 -0.5318 -3.0174
 1898SOL     OW17329   1.747   2.631  15.690 -0.2925  0.6305  0.3798
 1898SOL    HW117330   1.771   2.587  15.608 -1.4493 -0.2857  0.5376
 1898SOL    HW217331   1.694   2.698  15.646 -1.8620  0.6310  2.2638
 1899SOL     OW17332   4.098   1.338  15.512  0.0040  0.2370  0.1261
 1899SOL    HW117333   4.143   1.394  15.575  0.0455 -1.5676  1.6816
 1899SOL    HW217334   4.148   1.258  15.527  1.0289  0.9288  0.3770
 1900SOL     OW17335   3.714   1.413   6.491  0.3179 -0.1120  0.3866
 1900SOL    HW117336   3.781   1.391   6.427  1.7933  3.1777  0.7993
 1900SOL    HW217337   3.646   1.448   6.434 -1.4496 -2.4785  1.0385
 1901SOL     OW17338   1.906   3.778   8.127 -0.0453 -0.4114  0.0655
 1901SOL    HW117339   1.812   3.790   8.117 -0.2392 -0.1512  2.3066
 1901SOL    HW217340   1.910   3.702   8.069  1.1017  0.7051 -1.3363
 1902SOL     OW17341   1.440   4.679  12.828 -0.2804  0.0099  0.2010
 1902SOL    HW117342   1.423   4.584  12.835 -0.8335  0.1595  0.8760
 1902SOL    HW217343   1.522   4.678  12.876 -0.2188 -0.7339  0.0900
 1903SOL     OW17344   0.324   3.845  14.940 -0.0320 -0.0872 -0.2425
 1903SOL    HW117345   0.370   3.863  15.022 -1.7578  0.0461  0.7051
 1903SOL    HW217346   0.234   3.829  14.966 -0.6169  1.0426 -1.5566
 1904SOL     OW17347   2.085   3.842  15.584 -0.0757 -0.3561 -0.5545
 1904SOL    HW117348   2.018   3.887  15.532  0.3952  0.2524 -0.6352
 1904SOL    HW217349   2.093   3.757  15.541  1.7142 -2.1966  3.4537
 1905SOL     OW17350   2.763   3.370   8.216 -0.3498  0.1827  0.0727
 1905SOL    HW117351   2.687   3.331   8.259  0.0471 -1.1562 -0.4396
 1905SOL    HW217352   2.838   3.328   8.258 -0.5192 -1.4098 -1.1955
 1906SOL     OW17353   2.597   1.753   6.666  0.3224 -0.4121 -0.4383
 1906SOL    HW117354   2.542   1.770   6.589  0.5798  0.0085 -0.5275
 1906SOL    HW217355   2.666   1.817   6.650 -0.3315  0.5637  0.5826
 1907SOL     OW17356   0.541   1.926   7.118 -0.0354  0.3154 -0.1903
 1907SOL    HW117357   0.471   1.980   7.081 -0.6057 -1.7577 -2.1444
 1907SOL    HW217358   0.513   1.847   7.071 -1.5811  0.1087  1.0737
 1908SOL     OW17359   1.781   4.316   2.800  0.4437 -0.1881  0.5648
 1908SOL    HW117360   1.875   4.302   2.788  0.6479  1.5023  0.2427
 1908SOL    HW217361   1.749   4.284   2.715 -1.7706 -2.0018  2.0507
 1909SOL     OW17362   0.968   2.042   8.694  0.4142 -0.2309 -0.4706
 1909SOL    HW117363   1.001   1.952   8.698  0.4764 -0.1138  2.1887
 1909SOL    HW217364   0.872   2.044   8.693  0.3744 -0.1035  1.9150
 1910SOL     OW17365   1.141   3.036   5.704 -0.3958  0.0537 -0.3102
 1910SOL    HW117366   1.046   3.032   5.693 -0.1569 -0.0213 -2.4496
 1910SOL    HW217367   1.153   3.131   5.700  1.8686 -0.2929 -1.6529
 1911SOL     OW17368   4.389   1.849   6.417 -0.0391  0.4227  0.4209
 1911SOL    HW117369   4.352   1.912   6.479 -1.5846 -1.2152  1.1875
 1911SOL    HW217370   4.376   1.892   6.332  1.2284 -0.8116 -0.3914
 1912SOL     OW17371   2.831   3.914   6.838  0.4612  0.4189 -0.4757
 1912SOL    HW117372   2.773   3.839   6.843  1.1448 -0.1329 -0.7693
 1912SOL    HW217373   2.919   3.877   6.850  1.8289  3.5327 -0.6485
 1913SOL     OW17374   0.438   4.229   6.440  0.3812 -0.2446 -0.1464
 1913SOL    HW117375   0.431   4.285   6.517 -0.0327 -0.9648  0.3386
 1913SOL    HW217376   0.383   4.270   6.373 -1.1474 -0.1295  1.1870
 1914SOL     OW17377   1.300   4.458   1.502  0.4128  0.3686 -0.1200
 1914SOL    HW117378   1.231   4.398   1.471  0.7881  0.4777 -1.1522
 1914SOL    HW217379   1.376   4.400   1.498  1.2861  1.6064 -1.5212
 1915SOL     OW17380   4.497   4.468   0.518  0.2308 -0.1502 -0.5747
 1915SOL    HW117381   4.547   4.435   0.592 -0.0760 -0.2218 -0.4007
 1915SOL    HW217382   4.552   4.448   0.442 -0.7215 -1.2063 -0.9831
 1916SOL     OW17383   3.886   4.314   4.464 -0.0748 -0.5910  0.4051
 1916SOL    HW117384   3.955   4.373   4.434 -0.5161 -0.2362  0.0784
 1916SOL    HW217385   3.936   4.261   4.526  3.2012 -0.9963 -2.5842
 1917SOL     OW17386   2.504   2.676   9.099  0.1807  0.0450  0.1163
 1917SOL    HW117387   2.524   2.758   9.144  0.4526  1.4460 -2.5408
 1917SOL    HW217388   2.522   2.699   9.008 -0.0792  2.3361  0.6470
 1918SOL     OW17389   0.651   0.353   5.977 -0.1159  0.4304 -0.5691
 1918SOL    HW117390   0.711   0.397   6.038  0.7975 -1.5090 -0.0847
 1918SOL    HW217391   0.566   0.363   6.019  0.2683 -0.2057  0.3643
 1919SOL     OW17392   3.745   2.830  12.990  0.3673 -0.2220 -0.2953
 1919SOL    HW117393   3.757   2.867  13.078  2.6325 -0.3142 -0.5764
 1919SOL    HW217394   3.801   2.753  12.997  0.8450  0.1873  0.4173
 1920SOL     OW17395   4.311   4.380  12.214 -0.1176  0.7584 -0.4999
 1920SOL    HW117396   4.305   4.468  12.177  0.4565  0.8025 -0.4801
 1920SOL    HW217397   4.267   4.330  12.146 -0.4365  2.3090 -1.4228
 1921SOL     OW17398   3.040   3.303   2.464  0.1235 -0.3556 -0.3142
 1921SOL    HW117399   2.954   3.333   2.433 -0.1441 -1.7270 -0.9142
 1921SOL    HW217400   3.086   3.386   2.469 -0.2948 -0.0956 -0.7869
 1922SOL     OW17401   3.335   0.801   7.808 -0.5507  0.4615  0.9475
 1922SOL    HW117402   3.396   0.800   7.734 -1.4861 -0.3214  0.1823
 1922SOL    HW217403   3.317   0.895   7.806 -1.8923  0.2035  0.5397
 1923SOL     OW17404   3.731   3.488   2.281 -0.0579 -0.0339  0.0769
 1923SOL    HW117405   3.728   3.501   2.376 -2.3021  0.4592 -0.0553
 1923SOL    HW217406   3.640   3.479   2.254 -0.3310  2.1487  0.2705
 1924SOL     OW17407   1.958   4.497  13.445 -0.3390 -0.1192  0.2711
 1924SOL    HW117408   1.897   4.531  13.380 -0.8155  1.5366  1.5834
 1924SOL    HW217409   2.021   4.462  13.382 -0.2299  0.9668 -0.2257
 1925SOL     OW17410   1.291   0.686  15.102 -0.1100 -0.1677 -0.5917
 1925SOL    HW117411   1.379   0.670  15.066  0.2789 -0.1789  0.3593
 1925SOL    HW217412   1.231   0.669  15.029 -0.8606 -1.2263  0.2914
 1926SOL     OW17413   0.119   2.560   3.315 -0.0958  0.0009 -0.3269
 1926SOL    HW117414   0.097   2.475   3.352 -2.2901 -0.1442 -2.0428
 1926SOL    HW217415   0.072   2.616   3.377  2.3612  0.8390  0.7877
 1927SOL     OW17416   0.149   1.404   8.865  0.1050 -0.1223  0.1670
 1927SOL    HW117417   0.229   1.385   8.816 -0.5388  0.0662 -0.9526
 1927SOL    HW217418   0.194   1.433   8.944 -0.6640 -1.8432  1.2373
 1928SOL     OW17419   3.001   0.678   7.183 -0.2066 -0.7282  0.3293
 1928SOL    HW117420   2.982   0.770   7.199  0.5331 -0.5407  0.0967
 1928SOL    HW217421   3.092   0.667   7.211  0.0672 -2.6774 -1.3189
 1929SOL     OW17422   0.405   2.283   2.235 -0.3394 -0.4892 -0.1802
 1929SOL    HW117423   0.378   2.375   2.225 -1.4218 -1.0174 -2.0374
 1929SOL    HW217424   0.373   2.253   2.150 -1.4929  0.4592 -0.0787
 1930SOL     OW17425   4.148   0.740   1.038  0.3497  0.0983 -0.3769
 1930SOL    HW117426   4.239   0.724   1.061  0.7296  0.9297 -1.2506
 1930SOL    HW217427   4.163   0.791   0.958  2.0471  2.3836  1.4078
 1931SOL     OW17428   0.673   2.478   3.895 -0.2484  0.0682 -0.1841
 1931SOL    HW117429   0.580   2.463   3.877 -0.2029 -1.0948  0.5362
 1931SOL    HW217430   0.705   2.392   3.923  0.5209  0.4068 -0.0318
 1932SOL     OW17431   2.735   1.913  15.049  0.2229 -0.6444  0.1345
 1932SOL    HW117432   2.673   1.976  15.085 -1.7811 -2.4722 -0.1741
 1932SOL    HW217433   2.763   1.970  14.978 -1.7527  0.0701 -0.0587
 1933SOL     OW17434   1.964   1.978   8.525  0.2232 -0.2188 -0.2756
 1933SOL    HW117435   2.004   1.891   8.521 -1.3455 -0.9409 -0.0938
 1933SOL    HW217436   1.932   1.986   8.435 -1.0907  1.7114  0.3649
 1934SOL     OW17437   2.270   3.954   9.294 -0.4373  0.1398 -0.3647
 1934SOL    HW117438   2.209   3.959   9.368 -0.3259  0.8130 -0.3265
 1934SOL    HW217439   2.263   4.045   9.267 -0.0138 -0.0439 -1.1047
 1935SOL     OW17440   0.885   1.833   8.968 -0.4070  0.3882  0.0939
 1935SOL    HW117441   0.938   1.912   8.959 -1.0518  0.9036  0.7947
 1935SOL    HW217442   0.877   1.806   8.877  0.5933 -1.6658  0.6080
 1936SOL     OW17443   0.062   0.256   7.900 -0.2242  0.2394 -0.4496
 1936SOL    HW117444   0.113   0.207   7.835 -1.0950  1.4123 -2.0279
 1936SOL    HW217445   0.079   0.343   7.865  2.5442 -0.4956 -0.9502
 1937SOL     OW17446   4.531   0.327  15.247 -0.0526 -0.0992  0.5102
 1937SOL    HW117447   4.553   0.286  15.163 -0.4723  0.6594  0.0320
 1937SOL    HW217448   4.527   0.258  15.313  1.2616 -0.0889  0.6062
 1938SOL     OW17449   2.572   0.177   7.534 -0.6633  1.1749  0.1202
 1938SOL    HW117450   2.520   0.189   7.614  0.9037 -0.2379  1.3492
 1938SOL    HW217451   2.634   0.250   7.538  0.1095  0.5285 -0.1239
 1939SOL     OW17452   1.426   1.514   8.042 -0.7520 -0.0408 -0.2581
 1939SOL    HW117453   1.431   1.431   7.993 -1.4292  0.5319 -1.2896
 1939SOL    HW217454   1.508   1.510   8.092 -0.7084  1.1472 -0.2354
 1940SOL     OW17455   3.089   0.752   5.174  0.2225  0.2937  0.1286
 1940SOL    HW117456   3.034   0.740   5.251 -0.6682  0.2828 -0.5073
 1940SOL    HW217457   3.037   0.709   5.106  0.8722 -0.7264  0.2798
 1941SOL     OW17458   4.279   2.739   4.774  0.2723 -0.1105 -0.2183
 1941SOL    HW117459   4.336   2.686   4.830 -0.8233  1.0525  1.9978
 1941SOL    HW217460   4.201   2.742   4.829  2.2008 -4.2586  2.7394
 1942SOL     OW17461   4.583   4.507   4.552 -0.1041  0.3311 -0.3045
 1942SOL    HW117462   4.614   4.423   4.589  1.5943  0.6026 -1.1114
 1942SOL    HW217463   4.595   4.564   4.628 -2.7458 -0.0424  0.3857
 1943SOL     OW17464   1.752   4.101   4.457 -0.2466 -0.2223  0.0435
 1943SOL    HW117465   1.765   4.142   4.371 -3.2000 -2.3814 -1.4284
 1943SOL    HW217466   1.664   4.067   4.441  0.2496 -2.0114  1.2462
 1944SOL     OW17467   4.145   1.022   2.188 -0.3222  0.0426 -0.4486
 1944SOL    HW117468   4.116   1.109   2.216 -2.5516 -0.4784 -1.1429
 1944SOL    HW217469   4.241   1.028   2.193 -0.3439  1.1288 -1.3358
 1945SOL     OW17470   1.630   3.081   2.285  0.4637 -0.0962  0.2198
 1945SOL    HW117471   1.679   3.143   2.337  0.9981  0.6144 -1.1282
 1945SOL    HW217472   1.689   3.006   2.280 -0.1892 -0.3280 -4.6489
 1946SOL     OW17473   2.848   0.152   8.600 -0.4881  0.3289  0.3493
 1946SOL    HW117474   2.897   0.074   8.624 -0.6210 -0.3723 -1.6554
 1946SOL    HW217475   2.786   0.125   8.532  0.4704 -0.4693 -0.2105
 1947SOL     OW17476   1.888   4.108   5.132  0.2831 -0.9085  0.0064
 1947SOL    HW117477   1.892   4.046   5.205 -5.1938 -1.6049 -0.3179
 1947SOL    HW217478   1.975   4.147   5.146 -0.0811  0.4064 -1.4501
 1948SOL     OW17479   0.859   4.068   3.980  0.5990 -0.2837 -0.6315
 1948SOL    HW117480   0.902   4.073   3.894 -1.4466  0.0436 -1.6542
 1948SOL    HW217481   0.811   3.984   3.983 -0.3412  0.2996  0.6611
 1949SOL     OW17482   2.817   1.821   4.145 -0.4345 -0.2217 -0.5197
 1949SOL    HW117483   2.816   1.901   4.196 -0.6535 -1.6775  1.7601
 1949SOL    HW217484   2.742   1.785   4.192 -0.3398  0.1039 -0.1223
 1950SOL     OW17485   1.221   4.249  15.945  0.1064  0.3702  0.3908
 1950SOL    HW117486   1.187   4.288  15.865 -0.5230  1.8965  1.3894
 1950SOL    HW217487   1.174   4.166  15.942  0.0324  0.4866 -1.2944
 1951SOL     OW17488   1.112   4.266  12.860  0.5313  0.2474  0.6102
 1951SOL    HW117489   1.045   4.260  12.929  0.5089  0.7471  0.6312
 1951SOL    HW217490   1.194   4.278  12.909  1.6780  0.0911 -1.2817
 1952SOL     OW17491   0.591   0.076   2.234 -0.3253 -0.3480  0.1323
 1952SOL    HW117492   0.652   0.012   2.273 -1.0332 -1.0329  0.1265
 1952SOL    HW217493   0.565   0.125   2.312  2.2185 -2.8381  2.5501
 1953SOL     OW17494   0.356   2.705  10.183  0.3772  0.0950  0.0600
 1953SOL    HW117495   0.415   2.695  10.257 -0.4954 -0.6122  0.6649
 1953SOL    HW217496   0.284   2.651  10.217 -1.7454  2.9140  0.0345
 1954SOL     OW17497   1.063   1.776   2.810  0.0310  0.1641  0.2903
 1954SOL    HW117498   1.118   1.820   2.745  0.1437 -1.9654 -1.0504
 1954SOL    HW217499   1.058   1.851   2.870 -0.6974  1.1993 -1.0706
 1955SOL     OW17500   3.866   2.970   9.467 -0.0471  0.9389 -0.0086
 1955SOL    HW117501   3.788   2.917   9.448  0.0994  0.8776 -0.4419
 1955SOL    HW217502   3.896   2.917   9.540 -0.8195  0.0335 -0.3392
 1956SOL     OW17503   3.080   3.433   9.143 -0.0797 -0.0211  0.0288
 1956SOL    HW117504   2.998   3.478   9.123  0.7449  1.3419 -0.2927
 1956SOL    HW217505   3.087   3.427   9.238  1.6778  0.7169 -0.0491
 1957SOL     OW17506   3.112   1.151   6.987 -0.2421 -0.2965  0.6469
 1957SOL    HW117507   3.055   1.156   6.910 -0.2261  0.5813  0.6864
 1957SOL    HW217508   3.149   1.064   6.976  0.9620  0.2835  0.1137
 1958SOL     OW17509   3.787   4.620   7.244 -0.1732  0.4954  1.0295
 1958SOL    HW117510   3.701   4.650   7.275 -0.0228  0.3656  1.5651
 1958SOL    HW217511   3.789   4.532   7.281  1.4801 -0.9068 -2.4424
 1959SOL     OW17512   4.609   3.138   6.346 -0.1865 -0.3687 -0.5759
 1959SOL    HW117513   4.598   3.101   6.258 -1.7238  0.3016 -0.6531
 1959SOL    HW217514   4.605   3.056   6.395  1.7948 -0.4071 -0.4472
 1960SOL     OW17515   0.240   1.000   2.663  0.1590  0.1722 -0.2595
 1960SOL    HW117516   0.288   1.040   2.735 -1.1198 -1.3618  1.4400
 1960SOL    HW217517   0.302   0.964   2.599  0.6351 -0.1607  0.3960
 1961SOL     OW17518   1.961   1.885   3.116 -0.0534 -0.7278  0.6977
 1961SOL    HW117519   2.016   1.861   3.042  2.0832 -1.0717  2.4206
 1961SOL    HW217520   1.887   1.824   3.111 -0.0347 -0.6245 -0.6642
 1962SOL     OW17521   1.376   0.790  17.510 -0.3149  0.4779 -0.4952
 1962SOL    HW117522   1.307   0.742  17.463  0.5923  0.2055 -1.5651
 1962SOL    HW217523   1.364   0.876  17.471 -1.7470  0.4851 -0.0596
 1963SOL     OW17524   1.274   4.663  17.206  0.2278  0.2967  0.0925
 1963SOL    HW117525   1.269   0.008  17.159  0.8644  1.1854  1.6022
 1963SOL    HW217526   1.228   4.668  17.290 -0.9302  0.4746 -0.5488
 1964SOL     OW17527   3.924   4.249  11.981 -0.0136 -0.0606  0.2615
 1964SOL    HW117528   3.944   4.249  12.075 -0.4385 -3.1064  0.3666
 1964SOL    HW217529   4.007   4.238  11.933  0.1121 -1.0140  0.6856
 1965SOL     OW17530   3.098   1.155  13.789 -1.4949  0.7826  0.3040
 1965SOL    HW117531   3.032   1.086  13.778  0.5515 -1.0315 -0.6015
 1965SOL    HW217532   3.086   1.205  13.709  3.0319 -0.7907 -1.3182
 1966SOL     OW17533   0.117   3.358   7.078  0.3946  0.3457 -0.5641
 1966SOL    HW117534   0.201   3.391   7.110  0.6594  0.7227 -1.6723
 1966SOL    HW217535   0.134   3.327   6.989 -0.1087  2.0060 -1.2425
 1967SOL     OW17536   1.699   4.131   8.785 -0.1863  0.2898 -0.3907
 1967SOL    HW117537   1.623   4.157   8.836 -1.0326  0.4435 -1.7427
 1967SOL    HW217538   1.749   4.069   8.837  0.9368  2.2547  0.8603
 1968SOL     OW17539   4.147   0.594   3.624 -0.3762 -0.2200 -0.0859
 1968SOL    HW117540   4.171   0.658   3.558 -0.2384  0.6444  0.8063
 1968SOL    HW217541   4.206   0.522   3.601  0.2485  0.4817 -0.6326
 1969SOL     OW17542   0.982   0.594  10.094 -0.0996 -0.1340 -0.3625
 1969SOL    HW117543   0.946   0.528  10.035  0.9643  0.5737 -1.7956
 1969SOL    HW217544   0.938   0.584  10.179 -0.8911  2.0024 -0.5119
 1970SOL     OW17545   0.101   3.803  15.093  0.0797  0.1095 -0.3465
 1970SOL    HW117546   0.129   3.767  15.178  0.2264  0.5311 -0.2145
 1970SOL    HW217547   0.007   3.820  15.101  0.0707 -0.1524  0.1240
 1971SOL     OW17548   4.609   3.737   2.932 -0.2159  0.0619  0.3042
 1971SOL    HW117549   4.649   3.755   2.847 -2.0005  0.8125 -0.3704
 1971SOL    HW217550   4.515   3.737   2.914 -0.3561 -0.9164  1.0683
 1972SOL     OW17551   4.255   4.114   4.802 -0.0410  0.4121  0.0938
 1972SOL    HW117552   4.341   4.121   4.842  0.8067  1.2424 -1.8397
 1972SOL    HW217553   4.209   4.180   4.854 -1.3837  0.4215 -1.0917
 1973SOL     OW17554   4.191   2.555   3.539  0.1834 -0.4408  0.1576
 1973SOL    HW117555   4.185   2.493   3.466  1.4880 -2.2507  1.5548
 1973SOL    HW217556   4.248   2.507   3.599 -0.2537  1.7927  2.3616
 1974SOL     OW17557   2.357   1.801  15.636 -0.4612  0.1276 -0.4173
 1974SOL    HW117558   2.403   1.753  15.567 -0.1821 -0.8005  0.4163
 1974SOL    HW217559   2.423   1.814  15.704 -1.4693  4.4865 -0.2545
 1975SOL     OW17560   0.706   4.020   2.537 -0.1620  0.4399  0.2407
 1975SOL    HW117561   0.643   3.997   2.605 -1.6965  0.2127 -1.2562
 1975SOL    HW217562   0.784   4.005   2.591  0.8811  0.6063 -1.2276
 1976SOL     OW17563   2.214   2.549   4.456  0.2767 -0.6283  0.3338
 1976SOL    HW117564   2.276   2.515   4.391  0.3687  1.4295 -0.6610
 1976SOL    HW217565   2.274   2.595   4.513 -1.0673 -0.2983  1.4780
 1977SOL     OW17566   3.508   2.970   0.051  0.3394 -0.1651  0.2329
 1977SOL    HW117567   3.455   3.029  17.750 -0.4589 -3.8760 -3.1370
 1977SOL    HW217568   3.520   3.028   0.127  1.4836 -1.6074  1.1611
 1978SOL     OW17569   1.086   4.316   5.643 -0.1333  0.3724  0.0154
 1978SOL    HW117570   1.010   4.258   5.651  0.7734 -0.5887  1.7236
 1978SOL    HW217571   1.071   4.387   5.706 -0.3846 -0.0235  0.4068
 1979SOL     OW17572   2.932   3.927  14.827  0.0005 -0.1998  0.1892
 1979SOL    HW117573   2.840   3.953  14.838  0.4383  0.9386  1.1804
 1979SOL    HW217574   2.931   3.834  14.802 -0.1061  0.1199 -1.0152
 1980SOL     OW17575   2.213   4.161   2.075  0.1666  0.0302 -0.0533
 1980SOL    HW117576   2.305   4.134   2.068  0.0617 -0.1114 -0.9165
 1980SOL    HW217577   2.204   4.195   1.986 -1.1002  3.4049  1.3501
 1981SOL     OW17578   0.033   4.615   9.688  0.4176  0.0305 -0.0002
 1981SOL    HW117579   0.006   4.682   9.751  0.4399 -1.1533  1.2836
 1981SOL    HW217580   0.122   4.648   9.678 -0.4619  1.8350 -1.7235
 1982SOL     OW17581   2.549   1.579  14.338  0.2350 -0.0857  0.3733
 1982SOL    HW117582   2.484   1.636  14.296  0.1843  0.3328  1.0361
 1982SOL    HW217583   2.552   1.619  14.424  0.2976  0.1629  0.2561
 1983SOL     OW17584   2.020   1.796  14.276 -0.0861  0.6258  0.1607
 1983SOL    HW117585   2.072   1.873  14.298 -0.5102  0.9960 -0.1152
 1983SOL    HW217586   1.968   1.793  14.357  3.7756 -0.1091  2.6021
 1984SOL     OW17587   3.086   3.775  14.407  0.5679  0.3363 -0.1142
 1984SOL    HW117588   3.118   3.772  14.498  1.2726 -0.9948 -0.4049
 1984SOL    HW217589   3.168   3.807  14.370  0.7424  1.1371  0.9541
 1985SOL     OW17590   4.514   0.668  15.020 -0.5473  0.5379  0.7262
 1985SOL    HW117591   4.443   0.697  14.964  1.5508  0.0708 -2.2027
 1985SOL    HW217592   4.589   0.719  14.988  0.3705 -0.1319  1.8120
 1986SOL     OW17593   3.661   3.415   6.614  0.1331 -0.1619 -0.2043
 1986SOL    HW117594   3.652   3.320   6.601  1.2792 -0.5035  1.4496
 1986SOL    HW217595   3.602   3.450   6.548 -0.4387 -0.9664 -0.1211
 1987SOL     OW17596   2.516   0.920   5.438 -0.3664  0.4422  0.5610
 1987SOL    HW117597   2.476   1.005   5.419 -0.2468  0.7593  1.7444
 1987SOL    HW217598   2.510   0.872   5.355 -0.9084  0.8449  0.3668
 1988SOL     OW17599   3.312   3.613   5.145  0.2508  0.6143  0.1094
 1988SOL    HW117600   3.276   3.553   5.080  0.4603 -0.1341  0.6786
 1988SOL    HW217601   3.353   3.547   5.201 -0.7272  0.4334  0.6110
 1989SOL     OW17602   0.125   4.130   1.654 -0.0745 -0.3920 -0.2420
 1989SOL    HW117603   0.090   4.174   1.576  0.0986  2.9528  1.5870
 1989SOL    HW217604   0.219   4.129   1.636  0.2548 -2.7269  1.7002
 1990SOL     OW17605   3.547   3.925  11.512 -0.2021  0.2373 -0.2531
 1990SOL    HW117606   3.595   3.978  11.575  0.9689 -0.3736 -0.6391
 1990SOL    HW217607   3.486   3.997  11.493  0.3267  0.8446  0.3843
 1991SOL     OW17608   1.641   4.239   5.076 -0.5419 -0.3763 -0.3913
 1991SOL    HW117609   1.641   4.251   4.981 -3.0541  1.0067 -0.2154
 1991SOL    HW217610   1.715   4.178   5.081 -1.7354 -1.8108 -0.3007
 1992SOL     OW17611   4.179   2.960   9.404 -0.3587 -0.3325 -0.0075
 1992SOL    HW117612   4.087   2.936   9.414 -1.1585  2.8281  0.0718
 1992SOL    HW217613   4.182   3.019   9.479  0.2949 -1.0029  0.4951
 1993SOL     OW17614   1.232   4.044   4.533 -0.2176 -0.2890 -0.1715
 1993SOL    HW117615   1.171   3.974   4.556 -0.4422  0.5517  1.7527
 1993SOL    HW217616   1.316   4.002   4.552 -0.3531 -0.3309  0.3271
 1994SOL     OW17617   1.888   3.274   5.563 -0.0859 -0.4978  0.6050
 1994SOL    HW117618   1.867   3.185   5.534  0.5864 -1.2665  2.4258
 1994SOL    HW217619   1.976   3.258   5.598 -0.1540 -0.6779  0.6973
 1995SOL     OW17620   3.584   1.152   6.582  0.1965 -0.5486 -0.1118
 1995SOL    HW117621   3.501   1.128   6.621 -1.2682  2.9593 -1.0842
 1995SOL    HW217622   3.597   1.238   6.622 -2.0075 -0.6169  0.7114
 1996SOL     OW17623   2.359   2.679   9.505 -0.0064  0.1610  0.0122
 1996SOL    HW117624   2.319   2.604   9.462 -1.2970  0.9545 -0.1735
 1996SOL    HW217625   2.450   2.650   9.516  0.0441 -0.2659 -1.6313
 1997SOL     OW17626   1.984   1.274   1.758 -0.1439  0.4653  0.1059
 1997SOL    HW117627   1.987   1.299   1.850 -0.8780  1.7988 -0.2195
 1997SOL    HW217628   2.009   1.183   1.747 -3.5178 -0.2288 -2.0949
 1998SOL     OW17629   3.890   4.015  17.706 -0.1590 -0.3647  0.7312
 1998SOL    HW117630   3.960   3.966  17.750  0.9440 -0.8575 -1.5425
 1998SOL    HW217631   3.901   3.965  17.624 -1.8039  3.6078 -1.8824
 1999SOL     OW17632   3.016   0.201   3.863  0.3674  0.1802 -0.5839
 1999SOL    HW117633   2.925   0.205   3.834 -0.3144 -4.3250  0.9098
 1999SOL    HW217634   3.025   0.290   3.897  2.8596 -1.3595  2.8487
 2000SOL     OW17635   1.480   2.590   7.636 -0.2655  0.4549 -0.5632
 2000SOL    HW117636   1.407   2.639   7.673 -0.3972 -1.5063  1.8070
 2000SOL    HW217637   1.420   2.527   7.595 -0.4188  0.7546 -0.7961
 2001SOL     OW17638   3.013   2.625   8.764 -0.4284 -0.3693 -0.1116
 2001SOL    HW117639   2.920   2.619   8.741 -1.0584 -0.1805  2.3214
 2001SOL    HW217640   3.059   2.581   8.694  1.2790 -0.1297  0.8682
 2002SOL     OW17641   1.846   4.721   1.052  0.2082 -0.1813  0.7801
 2002SOL    HW117642   1.859   4.627   1.049 -2.2015 -0.4811 -0.7942
 2002SOL    HW217643   1.765   4.724   1.102 -0.2746  1.5191 -0.0700
 2003SOL     OW17644   1.727   1.874   4.222 -0.5577  0.7772  0.9365
 2003SOL    HW117645   1.641   1.908   4.198 -0.9824 -1.7076 -1.1418
 2003SOL    HW217646   1.724   1.787   4.180  0.7622  2.2044 -2.1619
 2004SOL     OW17647   2.062   0.566   5.668 -0.3262  0.1584  0.3661
 2004SOL    HW117648   2.082   0.544   5.759  2.1106  0.6532 -0.0226
 2004SOL    HW217649   1.996   0.634   5.680  1.3914  1.9191 -0.0194
 2005SOL     OW17650   3.388   2.904   5.246  0.1585  0.1541 -0.1407
 2005SOL    HW117651   3.303   2.865   5.268 -0.0975  1.0432  0.4424
 2005SOL    HW217652   3.443   2.883   5.321  1.0644 -0.5395 -0.9967
 2006SOL     OW17653   4.534   4.388   3.010  0.2552 -0.1028 -0.0932
 2006SOL    HW117654   4.461   4.404   3.071  0.4940 -0.6317  0.3376
 2006SOL    HW217655   4.505   4.432   2.931 -2.4076  0.5282  1.2107
 2007SOL     OW17656   1.033   4.063  13.892  0.1491 -0.4094 -0.6120
 2007SOL    HW117657   0.979   4.043  13.969  0.0667  2.0653 -0.0464
 2007SOL    HW217658   1.052   4.155  13.910 -2.3375 -0.0627  0.3097
 2008SOL     OW17659   4.696   2.508   1.825 -0.1320  0.2511  0.2862
 2008SOL    HW117660   4.690   2.593   1.781  2.1055  0.4136  0.2473
 2008SOL    HW217661   4.677   2.538   1.914  0.3187  3.2387 -0.6195
 2009SOL     OW17662   4.021   1.274   9.133 -0.5180  0.4287 -0.3108
 2009SOL    HW117663   4.117   1.264   9.127 -0.6087 -0.1104 -0.8742
 2009SOL    HW217664   4.005   1.244   9.222  0.4753  0.4976 -0.1090
 2010SOL     OW17665   4.318   2.185   7.691  0.1670 -0.0725  0.0046
 2010SOL    HW117666   4.338   2.111   7.634  0.6450 -1.4624  1.9933
 2010SOL    HW217667   4.405   2.212   7.719  0.3066 -1.1775  0.6627
 2011SOL     OW17668   4.376   1.216   4.596  0.0875  0.3683  0.5029
 2011SOL    HW117669   4.438   1.285   4.622  0.1946  0.5504 -0.2514
 2011SOL    HW217670   4.432   1.167   4.535 -0.0315  2.0018 -0.9182
 2012SOL     OW17671   4.692   4.317  11.045 -0.0852 -0.4266  0.1452
 2012SOL    HW117672   4.627   4.359  10.989  1.1455  1.1781 -0.1136
 2012SOL    HW217673   0.028   4.378  11.040  0.6032 -1.2678  0.1729
 2013SOL     OW17674   4.167   3.887   6.923 -0.6392  0.0688  0.2713
 2013SOL    HW117675   4.090   3.831   6.918 -1.1585  0.7977  0.1353
 2013SOL    HW217676   4.191   3.895   6.831 -0.4070 -0.1860  0.3104
 2014SOL     OW17677   2.280   2.052  15.044 -0.0490 -0.6015 -0.0872
 2014SOL    HW117678   2.284   1.991  15.117  2.0355  0.0169  0.3297
 2014SOL    HW217679   2.348   2.017  14.987  0.2696 -0.4492  0.1940
 2015SOL     OW17680   1.767   0.749   6.158  0.1543  0.0597  0.0398
 2015SOL    HW117681   1.832   0.751   6.229 -0.7113 -1.5776  0.8916
 2015SOL    HW217682   1.775   0.657   6.131 -0.4224 -0.3122  1.1110
 2016SOL     OW17683   3.563   0.790   5.276  0.6660 -0.1421 -0.5048
 2016SOL    HW117684   3.602   0.848   5.210  1.1901 -1.7883 -1.6384
 2016SOL    HW217685   3.481   0.835   5.298  0.6983 -0.7762  0.8961
 2017SOL     OW17686   3.596   3.115  15.125  0.2208 -0.4288 -0.2571
 2017SOL    HW117687   3.514   3.165  15.125  1.7790  2.1263 -0.2300
 2017SOL    HW217688   3.638   3.172  15.189 -0.7351  2.0205 -1.7813
 2018SOL     OW17689   3.074   2.412   0.004 -0.5401 -0.9440  0.0479
 2018SOL    HW117690   3.167   2.404   0.027 -0.2782 -0.7222 -0.9380
 2018SOL    HW217691   3.052   2.320  17.738  1.7547 -1.3975 -0.4547
 2019SOL     OW17692   2.337   1.924   0.789  0.4138  0.4063 -0.6902
 2019SOL    HW117693   2.300   2.005   0.824 -0.8598  0.1104 -1.3733
 2019SOL    HW217694   2.333   1.871   0.869  0.7386 -1.7083 -2.0797
 2020SOL     OW17695   3.674   0.295   9.815 -0.5737  0.4718 -0.1655
 2020SOL    HW117696   3.764   0.291   9.783  0.4916 -0.9316  3.0350
 2020SOL    HW217697   3.650   0.387   9.805 -0.7447  0.7849  2.9905
 2021SOL     OW17698   4.171   0.062   3.226 -0.1364  0.2111  0.3258
 2021SOL    HW117699   4.207   4.719   3.262 -2.7744 -0.3045  1.7855
 2021SOL    HW217700   4.218   0.075   3.144  1.3401 -1.2749  0.9371
 2022SOL     OW17701   4.094   2.125   7.030  0.1506  0.2457 -0.6007
 2022SOL    HW117702   4.003   2.116   7.056 -0.3253  0.8019 -2.0835
 2022SOL    HW217703   4.106   2.218   7.046 -0.0622  0.5666 -2.2800
 2023SOL     OW17704   3.190   1.894   3.920  0.3281 -0.3315  0.5214
 2023SOL    HW117705   3.155   1.805   3.928  0.6664 -0.5781 -0.8234
 2023SOL    HW217706   3.208   1.903   4.014 -0.2285 -2.1914  0.8040
 2024SOL     OW17707   4.589   0.276   9.143 -0.0099  0.2207 -0.2627
 2024SOL    HW117708   4.513   0.234   9.101 -0.6856  1.9833 -0.7875
 2024SOL    HW217709   4.620   0.334   9.073  0.6944  0.1737  0.0164
 2025SOL     OW17710   0.604   2.419   7.158 -0.2581  0.1073  0.0914
 2025SOL    HW117711   0.608   2.515   7.160  0.6257  0.0852 -0.9295
 2025SOL    HW217712   0.538   2.401   7.091  3.0292  0.1237 -3.1357
 2026SOL     OW17713   1.198   4.428   6.832 -0.0137  0.2656 -0.3808
 2026SOL    HW117714   1.225   4.462   6.917  2.0700  0.9230 -1.3191
 2026SOL    HW217715   1.146   4.352   6.861 -1.9816  1.3944 -0.9067
 2027SOL     OW17716   2.391   3.557   9.480  0.7034 -0.1623  0.6301
 2027SOL    HW117717   2.472   3.532   9.525  1.2384 -3.3133 -2.0655
 2027SOL    HW217718   2.375   3.489   9.415 -2.5435  0.2269  1.0134
 2028SOL     OW17719   1.412   2.012   1.726  0.0162  0.2606  0.0393
 2028SOL    HW117720   1.503   2.006   1.755  0.4923 -0.2791 -1.5666
 2028SOL    HW217721   1.407   2.100   1.687  0.8109 -0.2989 -1.3433
 2029SOL     OW17722   1.998   3.193   2.865  0.0064  0.0835 -0.0731
 2029SOL    HW117723   1.987   3.120   2.804  2.1079  0.0726 -0.4509
 2029SOL    HW217724   2.012   3.145   2.946 -3.1191  1.4787  1.2805
 2030SOL     OW17725   4.634   1.137   8.636 -0.5663  0.4084  0.0601
 2030SOL    HW117726   4.653   1.063   8.693  0.6418  2.6335  2.5377
 2030SOL    HW217727   4.541   1.121   8.620  0.2029 -0.3906 -3.5272
 2031SOL     OW17728   2.491   3.551   0.476  0.0093 -0.3352  0.3634
 2031SOL    HW117729   2.419   3.525   0.533 -1.5195  1.2342 -0.8899
 2031SOL    HW217730   2.572   3.522   0.519 -0.1756 -3.9904 -1.7503
 2032SOL     OW17731   3.904   3.715   3.373  0.6057 -0.1513  0.8688
 2032SOL    HW117732   3.957   3.744   3.447  1.6634 -0.6313  0.3005
 2032SOL    HW217733   3.977   3.676   3.324  1.4948 -0.7885  2.6917
 2033SOL     OW17734   1.594   0.307   8.472 -0.3097  0.2812  0.6915
 2033SOL    HW117735   1.640   0.240   8.522  1.7417 -0.2573 -1.9532
 2033SOL    HW217736   1.655   0.321   8.399 -2.7681  1.8504 -1.0643
 2034SOL     OW17737   1.522   3.714   2.508  0.0158  0.5942 -0.4693
 2034SOL    HW117738   1.446   3.685   2.457  1.0448  0.8275 -2.1592
 2034SOL    HW217739   1.489   3.717   2.597  0.0476 -3.2643 -0.3120
 2035SOL     OW17740   2.975   0.945   4.783  0.2674  0.1091 -0.0403
 2035SOL    HW117741   2.966   1.018   4.722 -2.9347  1.4032  1.9902
 2035SOL    HW217742   2.918   0.980   4.851  1.2554 -1.2140  1.4568
 2036SOL     OW17743   4.662   3.220  14.893  0.9486 -0.2973  0.1027
 2036SOL    HW117744   4.621   3.285  14.836 -0.1036 -0.3924  0.7423
 2036SOL    HW217745   0.015   3.246  14.899  0.5267  1.3460 -0.5176
 2037SOL     OW17746   0.753   4.137  10.898  0.1407  0.3983  0.6095
 2037SOL    HW117747   0.822   4.070  10.907 -2.0255 -2.1023 -1.4102
 2037SOL    HW217748   0.729   4.148  10.990 -1.6409  1.0039  0.0681
 2038SOL     OW17749   0.430   0.448   6.088  0.3021 -0.1048 -0.6033
 2038SOL    HW117750   0.390   0.388   6.151  0.3605  0.9635  0.4418
 2038SOL    HW217751   0.356   0.498   6.054  0.3782 -0.3465 -1.1352
 2039SOL     OW17752   3.923   4.152   3.120 -0.2042  0.6503 -0.0837
 2039SOL    HW117753   4.004   4.105   3.104 -2.1374 -3.0689  1.1644
 2039SOL    HW217754   3.911   4.188   3.032  0.6693  0.3053 -0.3398
 2040SOL     OW17755   2.769   2.157   6.322  0.1905  0.2879 -0.7635
 2040SOL    HW117756   2.693   2.146   6.379  1.1609 -0.8950  0.3059
 2040SOL    HW217757   2.802   2.237   6.363  0.1143 -0.4047  0.6668
 2041SOL     OW17758   0.806   0.784   3.454 -0.1284  0.0363  0.0354
 2041SOL    HW117759   0.850   0.836   3.522  0.5521  1.5775 -1.5749
 2041SOL    HW217760   0.831   0.698   3.488  1.7842  0.9204  0.8703
 2042SOL     OW17761   4.212   3.717   1.802 -0.0487  0.0043  0.2833
 2042SOL    HW117762   4.303   3.717   1.831  0.3024  2.0493 -0.7830
 2042SOL    HW217763   4.196   3.805   1.835 -0.2457 -0.2115  0.7561
 2043SOL     OW17764   0.312   2.770  13.516 -0.0970  0.1778 -0.2301
 2043SOL    HW117765   0.302   2.847  13.460  0.8495 -0.4130 -1.2087
 2043SOL    HW217766   0.330   2.695  13.460 -0.2857  0.3637 -0.5400
 2044SOL     OW17767   2.486   3.202   5.919  0.1529  0.3882 -0.3993
 2044SOL    HW117768   2.441   3.205   5.834  0.6741  1.6230 -0.6370
 2044SOL    HW217769   2.533   3.286   5.921 -2.3509  1.8151 -0.3272
 2045SOL     OW17770   1.634   2.710  11.994  0.0782 -0.1713 -0.7957
 2045SOL    HW117771   1.712   2.677  11.949  1.4119  1.4166  0.4000
 2045SOL    HW217772   1.668   2.722  12.082 -2.7793  1.8745  0.0339
 2046SOL     OW17773   0.672   3.345   8.451 -0.0869 -0.2405 -0.6757
 2046SOL    HW117774   0.691   3.275   8.514  0.9706 -1.0819 -1.9429
 2046SOL    HW217775   0.653   3.288   8.377 -0.7086  0.1347 -0.8068
 2047SOL     OW17776   0.857   0.420   1.938 -0.2647 -0.3390  0.5149
 2047SOL    HW117777   0.806   0.345   1.966  1.1966 -1.5766 -0.1098
 2047SOL    HW217778   0.857   0.409   1.843 -0.4425 -2.1733  0.7218
 2048SOL     OW17779   3.615   4.056   6.897  0.0283 -0.0519  0.2053
 2048SOL    HW117780   3.663   3.988   6.942 -0.2028  0.4175  1.1636
 2048SOL    HW217781   3.556   4.005   6.842 -0.2379 -0.3103  0.7343
 2049SOL     OW17782   2.657   3.919  16.797  0.5009 -0.0077 -0.1581
 2049SOL    HW117783   2.562   3.923  16.786  0.3988 -2.4435 -0.2854
 2049SOL    HW217784   2.661   3.948  16.888  0.5748 -1.3389  0.2568
 2050SOL     OW17785   3.278   1.721   2.823 -0.2049  0.3895  0.0320
 2050SOL    HW117786   3.216   1.791   2.844  0.8824  0.8930  1.5534
 2050SOL    HW217787   3.217   1.667   2.773  1.2771  0.7783 -2.1792
 2051SOL     OW17788   3.698   3.636  15.312  0.2642 -0.0206 -0.3119
 2051SOL    HW117789   3.706   3.730  15.295 -1.8926 -0.0112 -1.3977
 2051SOL    HW217790   3.605   3.615  15.320  1.0634 -2.7333  1.6251
 2052SOL     OW17791   1.498   3.334   9.078  0.0268  0.5813 -0.1361
 2052SOL    HW117792   1.483   3.347   8.984  1.6501  0.4538 -0.4053
 2052SOL    HW217793   1.412   3.359   9.113  0.3296 -0.0128  1.0237
 2053SOL     OW17794   0.633   2.011  17.326  0.2021  0.5041  0.4483
 2053SOL    HW117795   0.706   1.952  17.309 -2.1052 -1.8201 -1.4222
 2053SOL    HW217796   0.578   1.968  17.260 -0.8074 -1.1498  2.3685
 2054SOL     OW17797   1.801   3.309   6.117  0.0231 -0.0123 -0.0093
 2054SOL    HW117798   1.799   3.300   6.022 -0.8581  0.5711 -0.0457
 2054SOL    HW217799   1.778   3.221   6.147  0.6427 -0.5886 -1.2162
 2055SOL     OW17800   0.070   1.295  13.486  0.2145  0.1574  0.0473
 2055SOL    HW117801   0.163   1.280  13.465  0.5284  2.7529 -0.4342
 2055SOL    HW217802   0.077   1.304  13.581  0.5840 -1.6627  0.1912
 2056SOL     OW17803   2.576   4.209   9.909 -0.2757  0.8015  0.5194
 2056SOL    HW117804   2.491   4.206   9.863 -1.4970 -0.4697  2.8637
 2056SOL    HW217805   2.618   4.283   9.866  1.0283  0.2559  0.8794
 2057SOL     OW17806   0.621   2.725   7.623  0.3996  0.0033  0.1947
 2057SOL    HW117807   0.665   2.757   7.544  0.2219 -0.1964  0.0166
 2057SOL    HW217808   0.554   2.790   7.643  0.5613  0.7637 -1.7151
 2058SOL     OW17809   3.823   1.973   8.362  0.4363  0.2989 -0.3715
 2058SOL    HW117810   3.752   2.032   8.387 -0.5248 -1.4206  0.9817
 2058SOL    HW217811   3.813   1.909   8.433  0.2119 -0.5791 -1.1880
 2059SOL     OW17812   2.487   0.393   6.053 -0.0756 -0.2878  0.0797
 2059SOL    HW117813   2.520   0.409   5.965 -0.8925 -2.1804 -0.5605
 2059SOL    HW217814   2.449   0.478   6.078 -2.1064 -1.2679  0.2925
 2060SOL     OW17815   0.732   3.136   0.407  0.3180 -0.7992 -0.7568
 2060SOL    HW117816   0.656   3.195   0.411  0.9569 -0.0437  0.4053
 2060SOL    HW217817   0.698   3.058   0.451  0.4998 -0.0428  0.7451
 2061SOL     OW17818   1.312   0.340  15.442  0.2329 -0.4213 -0.4489
 2061SOL    HW117819   1.230   0.379  15.473  0.7806  0.1970  0.1959
 2061SOL    HW217820   1.323   0.376  15.353  2.0766 -0.5488 -0.2737
 2062SOL     OW17821   0.814   3.474   8.752  0.5137  0.0349 -0.0289
 2062SOL    HW117822   0.736   3.480   8.808  0.9455 -0.7999  0.6621
 2062SOL    HW217823   0.779   3.540   8.692 -0.2743  0.4538  0.9009
 2063SOL     OW17824   0.865   1.328  14.555  0.1288 -0.3564  0.3448
 2063SOL    HW117825   0.873   1.423  14.561 -0.4050 -0.2319 -1.0084
 2063SOL    HW217826   0.929   1.318  14.485  1.3456 -1.1340  1.5512
 2064SOL     OW17827   1.155   3.040  15.080 -0.1594  0.4752 -0.3226
 2064SOL    HW117828   1.157   3.066  15.172  1.6404  4.5233 -1.5002
 2064SOL    HW217829   1.078   3.091  15.056 -0.6010 -0.1427 -0.2146
 2065SOL     OW17830   4.055   1.414   7.277 -0.3136 -0.0163  0.7242
 2065SOL    HW117831   3.985   1.427   7.341  0.2966  0.2975  1.3368
 2065SOL    HW217832   4.104   1.343   7.320  0.3409 -0.1138 -0.1903
 2066SOL     OW17833   0.030   0.373  12.047  0.1365 -0.2811 -0.0166
 2066SOL    HW117834   0.091   0.300  12.036  1.0661  0.6088 -0.7743
 2066SOL    HW217835   0.058   0.402  12.134  1.6201 -2.0246  0.1002
 2067SOL     OW17836   3.676   3.381   4.308 -0.0508 -0.3627 -0.0169
 2067SOL    HW117837   3.675   3.445   4.236 -0.1712 -0.8532 -0.4472
 2067SOL    HW217838   3.735   3.311   4.279  1.2910  0.5079  0.6012
 2068SOL     OW17839   1.367   0.702   4.895  0.6153 -0.4358  0.5432
 2068SOL    HW117840   1.377   0.767   4.965  1.0843  1.0676 -0.9182
 2068SOL    HW217841   1.405   0.629   4.944 -1.7795 -3.2633 -1.7937
 2069SOL     OW17842   1.620   3.087   9.069  0.4895  0.1125  0.5639
 2069SOL    HW117843   1.676   3.110   8.995 -3.2927  3.1899 -1.3196
 2069SOL    HW217844   1.555   3.157   9.071 -0.0569 -0.3453 -1.1306
 2070SOL     OW17845   1.808   2.319  10.163  0.4358  0.3111 -0.4188
 2070SOL    HW117846   1.816   2.357  10.076  0.0802 -1.0595 -1.0551
 2070SOL    HW217847   1.787   2.394  10.219  0.4572 -1.1079  1.5093
 2071SOL     OW17848   3.191   3.382   5.447 -0.5202 -0.4919 -0.3783
 2071SOL    HW117849   3.243   3.357   5.370  1.6747  0.7079  0.7132
 2071SOL    HW217850   3.120   3.318   5.444 -1.9476  1.1616 -2.2003
 2072SOL     OW17851   4.535   2.495  14.828 -0.7222  0.1970  0.2080
 2072SOL    HW117852   4.456   2.447  14.853 -1.1463  0.6549 -0.2416
 2072SOL    HW217853   4.574   2.433  14.767  1.2577 -1.3324  3.0273
 2073SOL     OW17854   0.527   1.877   4.732 -0.1237  0.8307  0.5888
 2073SOL    HW117855   0.595   1.811   4.745 -0.3329 -0.1726 -3.4275
 2073SOL    HW217856   0.460   1.823   4.774 -0.1319  0.2057 -0.2372
 2074SOL     OW17857   2.083   2.174   5.603  0.0296 -0.0065 -0.9221
 2074SOL    HW117858   2.021   2.154   5.673 -0.1554  0.2835 -1.0027
 2074SOL    HW217859   2.030   2.222   5.540  2.4307  0.8102 -2.3203
 2075SOL     OW17860   0.002   1.960   2.533 -0.2251 -0.3986  0.0056
 2075SOL    HW117861   4.718   1.966   2.626  1.1485 -0.8764  0.3685
 2075SOL    HW217862   4.721   1.872   2.502  0.5528 -0.7348  0.4823
 2076SOL     OW17863   4.233   1.725   5.534 -0.0698  0.1398  0.6724
 2076SOL    HW117864   4.158   1.783   5.547 -1.3357 -1.8278  2.1790
 2076SOL    HW217865   4.206   1.648   5.584 -1.2710  0.7113  0.9279
 2077SOL     OW17866   0.536   4.600  13.313  0.5967  0.2867  0.3573
 2077SOL    HW117867   0.465   4.598  13.248  1.0975 -0.1120 -0.1871
 2077SOL    HW217868   0.523   4.687  13.349  0.9167  0.6415 -0.3793
 2078SOL     OW17869   2.950   3.754  14.170  0.1564  0.4716  0.1042
 2078SOL    HW117870   2.867   3.719  14.202 -0.1720  0.9409 -0.2231
 2078SOL    HW217871   3.002   3.765  14.250 -0.8301 -0.6368  0.8970
 2079SOL     OW17872   0.590   3.892   3.490  0.2622 -0.7681  0.1333
 2079SOL    HW117873   0.565   3.818   3.434  0.1772  0.8980 -2.0139
 2079SOL    HW217874   0.512   3.947   3.486 -1.2399 -2.5860  4.2568
 2080SOL     OW17875   1.612   1.977  14.877  0.2329  0.3260  0.3708
 2080SOL    HW117876   1.546   2.044  14.895 -1.5652 -1.5223  0.6140
 2080SOL    HW217877   1.657   1.965  14.961 -0.9110 -0.2758  0.8857
 2081SOL     OW17878   0.430   1.488   5.035  0.4640 -0.2635 -0.0919
 2081SOL    HW117879   0.410   1.527   5.120  2.6236 -0.3531  0.4530
 2081SOL    HW217880   0.401   1.549   4.966 -0.5715 -0.7738 -0.1098
 2082SOL     OW17881   1.028   3.003   9.792 -0.7340  0.4911 -0.5727
 2082SOL    HW117882   1.102   3.043   9.747 -0.2799  2.5072  1.9426
 2082SOL    HW217883   1.039   2.911   9.771  2.1727  0.5185  0.8495
 2083SOL     OW17884   1.604   2.816   6.265 -0.1347  0.0451 -0.3947
 2083SOL    HW117885   1.574   2.821   6.356  3.5495 -0.9024  0.8668
 2083SOL    HW217886   1.625   2.722   6.269 -0.1419  0.1591  2.2700
 2084SOL     OW17887   1.741   3.787   4.653  0.1211 -0.0116  0.0710
 2084SOL    HW117888   1.834   3.766   4.653  0.4574  1.4458  1.8405
 2084SOL    HW217889   1.722   3.782   4.559  0.0170 -1.3088  0.1589
 2085SOL     OW17890   3.842   0.028  13.718 -0.0460  0.2899 -0.4180
 2085SOL    HW117891   3.821   0.111  13.759 -0.6388 -0.8080  1.4901
 2085SOL    HW217892   3.766   4.720  13.753 -1.1162  0.0736 -3.0546
 2086SOL     OW17893   1.885   2.985  17.712 -0.3808 -0.3953  0.6295
 2086SOL    HW117894   1.813   2.983   0.021  0.3327 -0.1020  1.4784
 2086SOL    HW217895   1.870   2.908  17.657  0.3688 -0.2404  0.1899
 2087SOL     OW17896   4.328   1.395  13.049  0.3925  0.2445  0.0488
 2087SOL    HW117897   4.293   1.483  13.038  0.0740  0.1507  0.3198
 2087SOL    HW217898   4.411   1.404  13.002 -0.4549  0.7825 -1.3295
 2088SOL     OW17899   1.256   1.418   2.001  0.2374 -0.3109 -0.0519
 2088SOL    HW117900   1.350   1.403   1.993  0.1926 -0.7800  0.2557
 2088SOL    HW217901   1.253   1.420   2.097  1.1891  0.5218 -0.0410
 2089SOL     OW17902   2.202   2.325   2.523 -0.2409  0.0155  0.0056
 2089SOL    HW117903   2.261   2.376   2.579  0.4568 -0.2141 -0.5084
 2089SOL    HW217904   2.233   2.351   2.436 -1.0955  2.5213  0.4482
 2090SOL     OW17905   2.498   2.342   2.644  0.1915 -0.0253  0.3648
 2090SOL    HW117906   2.574   2.309   2.597 -0.5613  1.0407 -1.6080
 2090SOL    HW217907   2.532   2.390   2.720 -2.7452 -1.6948  2.7415
 2091SOL     OW17908   2.406   2.925   7.897 -0.4823  0.2514 -0.4710
 2091SOL    HW117909   2.427   2.900   7.987  1.0395  0.3200 -0.8159
 2091SOL    HW217910   2.434   3.016   7.891 -1.1560  0.4467 -0.6299
 2092SOL     OW17911   0.736   4.302   5.438  0.1759 -0.0681  0.1906
 2092SOL    HW117912   0.771   4.370   5.496  0.0532 -0.4425  0.7018
 2092SOL    HW217913   0.811   4.244   5.430 -0.7595 -1.4264  1.1401
 2093SOL     OW17914   3.962   4.538   5.103  0.4908  0.3703 -0.4864
 2093SOL    HW117915   3.909   4.460   5.123  1.8500 -0.7594 -1.2968
 2093SOL    HW217916   4.037   4.485   5.077 -0.4391  0.5618 -3.5547
 2094SOL     OW17917   4.043   1.504   7.942 -0.2461 -0.3109 -0.1719
 2094SOL    HW117918   3.967   1.561   7.950  0.7469  1.2520 -2.0997
 2094SOL    HW217919   4.055   1.502   8.037 -0.8385  1.4706 -0.0576
 2095SOL     OW17920   2.538   0.131   5.672 -0.4087 -0.3748  0.2911
 2095SOL    HW117921   2.588   0.137   5.754  0.9850  2.9854 -0.8102
 2095SOL    HW217922   2.581   0.201   5.624 -1.3710 -1.0255 -1.4883
 2096SOL     OW17923   3.114   1.750   8.803  0.2905  0.2927 -0.6776
 2096SOL    HW117924   3.129   1.656   8.812  0.6334  0.3758 -0.3839
 2096SOL    HW217925   3.200   1.787   8.785  1.1043 -1.1772  0.2381
 2097SOL     OW17926   2.228   1.430   5.486  0.2655  0.3318  0.3521
 2097SOL    HW117927   2.141   1.404   5.455  1.3748  0.1474 -2.5086
 2097SOL    HW217928   2.259   1.474   5.407  2.3321 -1.0862  0.3864
 2098SOL     OW17929   1.272   0.200   6.085 -0.1519 -0.1380  0.3399
 2098SOL    HW117930   1.199   0.257   6.109 -0.2282  0.4900 -1.4544
 2098SOL    HW217931   1.346   0.254   6.113  2.4263 -1.7543 -3.3775
 2099SOL     OW17932   0.318   2.063   7.021 -0.9044 -0.1651  0.3706
 2099SOL    HW117933   0.303   1.980   6.977 -0.7663 -0.0736  0.1487
 2099SOL    HW217934   0.232   2.087   7.056 -0.9009  1.1562 -0.4983
 2100SOL     OW17935   0.173   1.702  12.853 -0.1878 -0.0113 -0.2966
 2100SOL    HW117936   0.137   1.772  12.799 -1.0266  1.3412  1.9830
 2100SOL    HW217937   0.253   1.748  12.877 -0.7650  1.2171 -0.7306
 2101SOL     OW17938   2.824   1.094  10.747  0.3150  0.8180  0.1703
 2101SOL    HW117939   2.826   1.141  10.830  0.6040 -0.8073  1.0914
 2101SOL    HW217940   2.895   1.032  10.764 -1.6609 -1.7541 -0.9523
 2102SOL     OW17941   1.143   2.726   6.477 -0.1890 -0.0293  0.6308
 2102SOL    HW117942   1.092   2.645   6.476 -0.8189  0.3855 -0.5956
 2102SOL    HW217943   1.213   2.714   6.413 -0.0272 -0.2374  0.8458
 2103SOL     OW17944   4.146   1.829   6.794  0.3076 -0.1462 -0.3463
 2103SOL    HW117945   4.130   1.920   6.768 -2.1312 -0.3854  0.3296
 2103SOL    HW217946   4.242   1.830   6.791  0.3003  0.9032 -0.4347
 2104SOL     OW17947   0.113   0.208  10.830  0.3942  0.1889  0.5322
 2104SOL    HW117948   0.026   0.248  10.825 -0.4826 -1.7995  0.0119
 2104SOL    HW217949   0.103   0.177  10.920 -4.1083 -2.0219 -0.7340
 2105SOL     OW17950   4.241   1.611   9.369 -0.0004  0.2016 -0.1988
 2105SOL    HW117951   4.245   1.698   9.330 -0.8847  1.4165  2.3835
 2105SOL    HW217952   4.179   1.616   9.442 -0.8331 -0.3639 -0.8624
 2106SOL     OW17953   3.856   3.912  14.921 -0.0730  0.3298 -0.0777
 2106SOL    HW117954   3.881   4.004  14.907 -0.5747  0.9840  3.3723
 2106SOL    HW217955   3.895   3.870  14.844  1.3922 -1.2470  1.5381
 2107SOL     OW17956   4.476   3.694   6.228  0.6578 -0.2223 -0.1973
 2107SOL    HW117957   4.490   3.682   6.322  0.7628 -1.9837 -0.4308
 2107SOL    HW217958   4.514   3.617   6.186 -0.0103 -0.7238  0.1094
 2108SOL     OW17959   3.795   1.480   9.821  0.3924 -0.5303 -0.2315
 2108SOL    HW117960   3.855   1.522   9.883 -0.7367  0.3306  0.2765
 2108SOL    HW217961   3.776   1.399   9.868 -2.8042 -0.0178 -0.6719
 2109SOL     OW17962   2.826   0.777  12.393 -0.0421  0.0670  0.2723
 2109SOL    HW117963   2.830   0.815  12.305 -1.1736 -2.0042 -0.6529
 2109SOL    HW217964   2.866   0.845  12.448  0.4807  0.1176 -0.1659
 2110SOL     OW17965   3.575   0.581   5.091 -0.1382 -0.7703 -0.8685
 2110SOL    HW117966   3.558   0.650   5.155 -0.8227 -2.9687  1.3333
 2110SOL    HW217967   3.490   0.568   5.048 -1.7763  0.6925  1.8972
 2111SOL     OW17968   4.277   1.315   4.226  0.4940 -0.3403  0.4058
 2111SOL    HW117969   4.192   1.288   4.261  0.1474 -0.8727 -0.8498
 2111SOL    HW217970   4.296   1.261   4.149  1.6731  1.4519 -0.5471
 2112SOL     OW17971   0.309   3.016   6.773  0.0064 -0.5950 -0.8386
 2112SOL    HW117972   0.325   2.923   6.785  1.0491  0.1164  3.1950
 2112SOL    HW217973   0.214   3.019   6.755  0.2692  0.2747 -2.1360
 2113SOL     OW17974   2.576   4.162   9.320 -0.0847  0.9306 -0.0404
 2113SOL    HW117975   2.597   4.080   9.276  0.9199  0.0090  2.1281
 2113SOL    HW217976   2.635   4.227   9.283 -1.1714  0.0194 -3.3907
 2114SOL     OW17977   2.676   2.888   6.590  0.3696  0.1423  0.6321
 2114SOL    HW117978   2.714   2.839   6.517  0.7861 -0.1406  1.0358
 2114SOL    HW217979   2.588   2.851   6.583  0.3688 -0.2928  2.9827
 2115SOL     OW17980   1.904   1.773  14.790 -0.1618 -0.4096  0.0720
 2115SOL    HW117981   1.918   1.725  14.871 -1.7841 -1.7852 -0.4625
 2115SOL    HW217982   1.943   1.856  14.817  0.1199 -0.8401  0.9977
 2116SOL     OW17983   3.788   0.767   4.475 -0.2601 -0.5588  0.3963
 2116SOL    HW117984   3.776   0.691   4.418 -2.1179 -0.4264  0.6126
 2116SOL    HW217985   3.733   0.738   4.548  0.3736 -0.9237  0.7294
 2117SOL     OW17986   0.482   2.434  12.599 -0.3168 -0.0882 -0.0910
 2117SOL    HW117987   0.490   2.500  12.668  0.8032  0.1918 -0.4932
 2117SOL    HW217988   0.450   2.356  12.643  2.9696 -0.9410  0.8134
 2118SOL     OW17989   0.308   3.227  10.115 -0.2404 -0.1494 -0.4711
 2118SOL    HW117990   0.384   3.277  10.085  1.9357 -2.3753  1.3158
 2118SOL    HW217991   0.339   3.184  10.195 -1.7829  1.0634  0.7542
 2119SOL     OW17992   2.897   3.106   6.400  0.0795 -0.1729 -0.0050
 2119SOL    HW117993   2.809   3.115   6.436  0.6727  0.1719  1.3915
 2119SOL    HW217994   2.950   3.110   6.480  0.8122  0.8230 -0.5413
 2120SOL     OW17995   1.629   1.865   4.765  0.1842 -0.2350  0.0352
 2120SOL    HW117996   1.715   1.871   4.808 -0.5161 -2.9354  1.8029
 2120SOL    HW217997   1.661   1.873   4.675 -1.6458 -0.7995 -0.6622
 2121SOL     OW17998   0.892   1.619  14.567 -0.2166  0.0489  0.2030
 2121SOL    HW117999   0.860   1.581  14.649 -0.8888 -0.2504 -0.1946
 2121SOL    HW218000   0.870   1.712  14.571 -0.9535 -0.1541  0.8662
 2122SOL     OW18001   4.128   2.107   6.766  0.7861  0.0605 -0.7969
 2122SOL    HW118002   4.109   2.121   6.859 -2.6137 -3.4292 -0.9608
 2122SOL    HW218003   4.111   2.196   6.732 -0.0200  0.3749  0.4210
 2123SOL     OW18004   1.636   1.841   3.487  0.0328 -0.3807 -0.9952
 2123SOL    HW118005   1.556   1.811   3.531  0.4023 -0.7781 -0.5830
 2123SOL    HW218006   1.654   1.920   3.538 -1.8566 -0.5889  0.0142
 2124SOL     OW18007   1.536   1.398   8.797 -0.5887 -0.3200 -0.2821
 2124SOL    HW118008   1.580   1.314   8.786 -1.5815 -0.9898  0.8054
 2124SOL    HW218009   1.592   1.457   8.747 -1.4217 -0.1607 -1.0263
 2125SOL     OW18010   0.558   0.227  10.367  0.0291  0.0307  0.2274
 2125SOL    HW118011   0.526   0.217  10.457  0.5262 -0.8065  0.3124
 2125SOL    HW218012   0.564   0.133  10.350 -2.0024  0.2169 -1.4518
 2126SOL     OW18013   1.420   2.170  10.303  0.2816 -0.1930 -0.1076
 2126SOL    HW118014   1.378   2.085  10.315 -2.8447  1.5873  1.3647
 2126SOL    HW218015   1.442   2.167  10.210  1.0010  3.5917 -0.0719
 2127SOL     OW18016   3.491   4.487   3.219  0.1584 -0.1520  0.2744
 2127SOL    HW118017   3.546   4.560   3.193 -1.3095  1.3448  1.3706
 2127SOL    HW218018   3.473   4.501   3.312  2.4653 -2.3122  1.0313
 2128SOL     OW18019   2.200   1.546  10.394  0.2394 -0.0208  0.2159
 2128SOL    HW118020   2.195   1.479  10.326 -0.8687 -0.1161  0.3832
 2128SOL    HW218021   2.199   1.625  10.341  0.1776 -0.3909 -0.3361
 2129SOL     OW18022   0.828   0.804   4.914  0.2603 -0.0080 -0.2774
 2129SOL    HW118023   0.810   0.864   4.842  0.3359  1.2568  0.7510
 2129SOL    HW218024   0.923   0.810   4.913  0.1971  1.1295 -0.0017
 2130SOL     OW18025   3.124   0.264  10.287  0.2002 -0.7305 -0.4217
 2130SOL    HW118026   3.085   0.300  10.208  2.5145  0.4106 -1.0538
 2130SOL    HW218027   3.218   0.259  10.268  0.5475  1.0031  0.8815
 2131SOL     OW18028   2.305   4.258  10.684  0.2797 -0.0502 -0.5521
 2131SOL    HW118029   2.248   4.334  10.676  1.1137  0.5997 -0.3152
 2131SOL    HW218030   2.341   4.259  10.772 -1.7508 -0.8050  0.2816
 2132SOL     OW18031   0.255   4.202   3.254  1.1670 -0.2551  0.3731
 2132SOL    HW118032   0.185   4.168   3.199  1.6895 -1.0339  0.1910
 2132SOL    HW218033   0.242   4.293   3.228 -0.7557 -0.6469 -0.0499
 2133SOL     OW18034   4.360   1.250   5.649 -0.4528 -0.1263 -0.1953
 2133SOL    HW118035   4.327   1.172   5.605  1.1566 -1.0259  0.1770
 2133SOL    HW218036   4.410   1.289   5.578 -2.5008  0.1279 -1.4997
 2134SOL     OW18037   4.129   3.997   8.473 -0.1244  0.0479 -0.7804
 2134SOL    HW118038   4.082   3.931   8.420 -1.3051 -0.0388  0.3748
 2134SOL    HW218039   4.095   4.076   8.431  0.6380  0.8703  0.1602
 2135SOL     OW18040   3.560   4.101  16.619  0.0462  0.3890  0.4050
 2135SOL    HW118041   3.558   4.150  16.537 -0.1624  1.4340  1.0336
 2135SOL    HW218042   3.520   4.170  16.672 -0.8535 -1.8143  2.5964
 2136SOL     OW18043   0.086   2.825   5.566 -0.1229  0.3658 -0.2320
 2136SOL    HW118044   0.065   2.916   5.588  0.0270  0.8722 -2.1177
 2136SOL    HW218045   0.080   2.833   5.470  1.4869  0.8438 -0.2924
 2137SOL     OW18046   4.085   1.951   6.313  0.5050  0.1385 -0.2313
 2137SOL    HW118047   4.159   1.954   6.252  1.6238  2.3218  1.2524
 2137SOL    HW218048   4.102   2.038   6.348 -0.7690  1.3373 -2.6050
 2138SOL     OW18049   2.453   1.283   3.952 -0.0959 -0.5923 -0.5908
 2138SOL    HW118050   2.414   1.208   3.997  1.7510 -1.3924 -0.2965
 2138SOL    HW218051   2.392   1.301   3.880  0.4319 -0.5725 -1.0339
 2139SOL     OW18052   4.308   3.069  16.706  0.0628 -0.6334 -0.1019
 2139SOL    HW118053   4.339   3.022  16.783 -0.7712 -1.1600 -0.0814
 2139SOL    HW218054   4.215   3.046  16.708 -0.4904  1.6189 -0.1266
 2140SOL     OW18055   1.118   1.567   6.738 -0.2430 -0.0656  0.2342
 2140SOL    HW118056   1.205   1.591   6.771 -1.5018  2.9998  1.3550
 2140SOL    HW218057   1.076   1.649   6.764  0.8613  0.1345  1.3889
 2141SOL     OW18058   1.163   3.713   7.721 -0.1196 -0.4319 -0.2912
 2141SOL    HW118059   1.251   3.744   7.742 -0.4663  0.3595 -0.0090
 2141SOL    HW218060   1.124   3.787   7.675 -1.0440  1.0454  2.8804
 2142SOL     OW18061   1.456   2.931   8.171 -0.6189 -0.0686  0.0511
 2142SOL    HW118062   1.472   2.893   8.085 -0.7807 -1.8414  0.7963
 2142SOL    HW218063   1.529   2.993   8.175 -0.0819 -0.6050 -1.3768
 2143SOL     OW18064   1.943   3.857   6.834  0.1045  0.0256 -0.2669
 2143SOL    HW118065   1.937   3.951   6.852  0.5748  0.7252 -3.8597
 2143SOL    HW218066   2.021   3.861   6.779  0.5415 -1.3783  0.2670
 2144SOL     OW18067   0.910   3.131  17.342 -0.0934  0.0161  0.1329
 2144SOL    HW118068   0.883   3.189  17.271  1.9320  0.2290 -0.4746
 2144SOL    HW218069   0.915   3.198  17.410 -0.3461 -0.5246  0.6862
 2145SOL     OW18070   0.966   0.496   3.230 -0.2613 -0.0939  0.0035
 2145SOL    HW118071   0.929   0.504   3.143  2.3064 -0.8884 -1.1726
 2145SOL    HW218072   1.010   0.581   3.241 -2.0129  0.7970  0.0688
 2146SOL     OW18073   2.333   0.690   7.389  0.4069 -0.0962 -0.3313
 2146SOL    HW118074   2.249   0.737   7.380 -0.0598 -0.5674  1.6169
 2146SOL    HW218075   2.297   0.614   7.435  0.6188  1.0338  1.7317
 2147SOL     OW18076   3.796   1.170   3.899  0.4164 -0.6404 -0.0244
 2147SOL    HW118077   3.767   1.186   3.989 -1.1587  1.0111 -0.8201
 2147SOL    HW218078   3.890   1.158   3.908  0.2203 -1.8672  0.4477
 2148SOL     OW18079   0.539   4.615  10.767 -0.2600 -0.3523 -0.0776
 2148SOL    HW118080   0.601   4.686  10.782  0.1021 -0.8391  0.7365
 2148SOL    HW218081   0.462   4.655  10.807 -1.1238 -0.2447 -1.8397
 2149SOL     OW18082   0.000   0.345   3.575 -0.3537  0.4004 -0.1637
 2149SOL    HW118083   4.730   0.347   3.480  0.0635  6.3667 -0.0960
 2149SOL    HW218084   4.656   0.307   3.605 -1.5287  1.1142 -2.5325
 2150SOL     OW18085   0.326   4.338   1.181  0.2305  0.1698 -0.3850
 2150SOL    HW118086   0.407   4.289   1.194  0.1956  0.3809  0.6601
 2150SOL    HW218087   0.285   4.284   1.113 -1.9774  1.0243  0.2482
 2151SOL     OW18088   1.847   0.608   7.913 -0.5491 -0.1312 -0.4693
 2151SOL    HW118089   1.937   0.633   7.934 -1.0219  0.9132  0.3348
 2151SOL    HW218090   1.797   0.657   7.979 -1.4524 -1.7385  0.0442
 2152SOL     OW18091   2.432   3.422   8.074 -0.7119 -0.1402  0.0656
 2152SOL    HW118092   2.483   3.457   8.001  0.0631 -2.8700 -0.6917
 2152SOL    HW218093   2.348   3.427   8.027  0.2622  0.6020 -1.5742
 2153SOL     OW18094   0.066   0.158   5.944 -0.0325 -0.4215  0.3758
 2153SOL    HW118095   4.724   0.145   5.893 -0.2417  0.0253  0.5917
 2153SOL    HW218096   0.106   0.071   5.945  0.6206 -0.0800  3.5404
 2154SOL     OW18097   1.156   1.462   4.049  0.1367  0.0618  0.4345
 2154SOL    HW118098   1.116   1.466   3.961  0.1551  0.2721  0.4355
 2154SOL    HW218099   1.096   1.521   4.094 -1.0061 -1.2736  0.6598
 2155SOL     OW18100   1.117   4.288   9.314  0.1524 -0.0833  0.0831
 2155SOL    HW118101   1.127   4.335   9.397  1.2389 -0.2504  0.0566
 2155SOL    HW218102   1.047   4.236   9.352  0.5766  0.0459  1.0288
 2156SOL     OW18103   3.483   0.932  11.471 -0.2734 -0.6083 -0.0579
 2156SOL    HW118104   3.577   0.939  11.483 -0.1346 -0.6324 -1.1603
 2156SOL    HW218105   3.477   0.856  11.413 -2.7054  1.9089 -3.1239
 2157SOL     OW18106   0.030   2.370   7.628 -0.3225  0.0659 -0.0542
 2157SOL    HW118107   0.021   2.314   7.705  1.3835  1.1738  0.9411
 2157SOL    HW218108   0.106   2.331   7.585 -0.0341 -0.0803  0.5919
 2158SOL     OW18109   1.985   4.577   2.804  0.2896 -0.4690 -0.0075
 2158SOL    HW118110   1.984   4.498   2.857  1.9601 -0.0367  0.6486
 2158SOL    HW218111   2.078   4.595   2.794  0.2267 -0.6044 -0.8454
 2159SOL     OW18112   2.057   4.608   6.002 -0.0895  0.4873 -0.3829
 2159SOL    HW118113   2.147   4.601   6.033  0.3877  2.2144 -1.3961
 2159SOL    HW218114   2.081   4.638   5.914  3.2862  1.5443  0.9127
 2160SOL     OW18115   0.058   1.423   5.186 -0.8747 -0.7976  0.1580
 2160SOL    HW118116   0.119   1.399   5.255 -1.0320 -0.7862  0.3003
 2160SOL    HW218117   0.044   1.509   5.225 -1.1619 -0.9627  0.4129
 2161SOL     OW18118   4.246   1.485  16.853 -0.1048 -0.0781  0.2979
 2161SOL    HW118119   4.262   1.460  16.762  0.9545  0.2388  0.3982
 2161SOL    HW218120   4.206   1.408  16.896  1.8922 -2.0889 -1.4777
 2162SOL     OW18121   2.480   1.886   2.831 -0.1854 -0.5475  0.7348
 2162SOL    HW118122   2.445   1.873   2.919 -0.5227  0.4959  0.7634
 2162SOL    HW218123   2.519   1.973   2.841 -0.3826 -0.6880  2.8763
 2163SOL     OW18124   4.652   3.817   8.419  0.2727 -0.2374  0.1940
 2163SOL    HW118125   4.615   3.884   8.361 -2.3124 -2.3899 -0.6717
 2163SOL    HW218126   4.593   3.742   8.408  1.1580 -0.7217 -1.2697
 2164SOL     OW18127   4.156   1.677   1.994 -0.4249 -0.0126  0.0423
 2164SOL    HW118128   4.101   1.726   1.933 -0.7893 -0.2879  0.1528
 2164SOL    HW218129   4.160   1.745   2.062 -1.0711  0.2012 -0.1324
 2165SOL     OW18130   0.057   2.483  15.666 -0.3032 -0.5234  0.4793
 2165SOL    HW118131   0.001   2.550  15.705 -0.2596  0.3178 -0.8762
 2165SOL    HW218132   0.015   2.474  15.580 -2.8500  0.8066  1.5873
 2166SOL     OW18133   3.445   3.000   1.916  0.3487  0.2104 -0.3441
 2166SOL    HW118134   3.527   3.047   1.931  0.6152  0.9575 -4.1332
 2166SOL    HW218135   3.423   2.975   2.006  1.4454 -0.0009 -0.1381
 2167SOL     OW18136   2.792   0.086   3.602  0.1946 -0.2800 -0.0248
 2167SOL    HW118137   2.761   4.738   3.575 -2.4288  0.0361  1.9313
 2167SOL    HW218138   2.871   0.088   3.549 -0.5405 -0.2060 -1.1189
 2168SOL     OW18139   1.632   0.370  15.249  0.5645 -0.0070  0.3965
 2168SOL    HW118140   1.547   0.378  15.206  0.6934  2.5154  0.5600
 2168SOL    HW218141   1.672   0.445  15.206 -2.8932  1.5822 -0.0913
 2169SOL     OW18142   2.546   3.726  13.816  0.0039 -0.3759 -0.2817
 2169SOL    HW118143   2.626   3.766  13.852 -0.3330 -1.2291  1.4133
 2169SOL    HW218144   2.491   3.694  13.887  1.0517 -1.1561  0.1790
 2170SOL     OW18145   1.196   0.693   5.814 -1.0554  0.3551  0.0323
 2170SOL    HW118146   1.103   0.669   5.816 -1.0720  0.3614 -0.6734
 2170SOL    HW218147   1.195   0.779   5.773  0.7244  2.1634  3.8310
 2171SOL     OW18148   0.308   0.629   7.432 -0.0834 -0.0826  0.6244
 2171SOL    HW118149   0.352   0.545   7.447 -0.6989 -0.5124  0.0288
 2171SOL    HW218150   0.262   0.650   7.513 -2.0179 -1.3251 -0.1496
 2172SOL     OW18151   3.694   4.046   9.765 -0.6028  0.3213 -0.2800
 2172SOL    HW118152   3.641   4.039   9.686 -0.0088  1.0396 -0.7453
 2172SOL    HW218153   3.632   4.080   9.830  0.4064  1.7197 -0.0513
 2173SOL     OW18154   0.703   0.875   2.187  0.0425 -0.3673  0.1975
 2173SOL    HW118155   0.644   0.886   2.113  1.3798 -1.7200 -1.0610
 2173SOL    HW218156   0.690   0.789   2.227 -1.8632 -0.9388 -1.6416
 2174SOL     OW18157   3.793   0.975   4.732  0.0196 -0.1596  0.0454
 2174SOL    HW118158   3.780   1.055   4.783 -0.4441  0.8139 -1.6006
 2174SOL    HW218159   3.739   1.010   4.661 -1.3359 -0.4254  0.9491
 2175SOL     OW18160   4.051   2.545   2.787  0.0276 -0.3967 -0.4528
 2175SOL    HW118161   3.999   2.466   2.791 -0.8109  0.1485 -0.6540
 2175SOL    HW218162   4.089   2.545   2.875 -1.5983 -3.4250  0.2467
 2176SOL     OW18163   4.566   2.027   3.758  0.4238 -1.1630  0.4378
 2176SOL    HW118164   4.558   2.087   3.684 -2.6817  1.1298  2.6504
 2176SOL    HW218165   4.662   2.021   3.761  0.5954  0.6320 -1.2290
 2177SOL     OW18166   2.344   1.048   4.020  0.8503  0.2645 -0.2913
 2177SOL    HW118167   2.343   0.959   4.054 -0.9645 -0.3628 -1.9417
 2177SOL    HW218168   2.262   1.050   3.970  0.1131 -0.8846  0.8743
 2178SOL     OW18169   3.768   2.340   8.685  0.4475 -0.2243 -0.0140
 2178SOL    HW118170   3.689   2.377   8.725  2.3926 -0.0848  3.6943
 2178SOL    HW218171   3.827   2.330   8.759  0.0675 -0.7277  0.2182
 2179SOL     OW18172   1.613   2.376   7.760 -0.7273 -0.5075 -0.2269
 2179SOL    HW118173   1.552   2.311   7.725 -0.2216 -0.2457 -1.6061
 2179SOL    HW218174   1.571   2.457   7.734  1.2436  0.3762 -0.6642
 2180SOL     OW18175   3.095   0.433   9.448  0.1596 -0.0199 -0.0254
 2180SOL    HW118176   3.059   0.461   9.363 -2.9333 -3.8471  0.0053
 2180SOL    HW218177   3.172   0.488   9.457  0.4652 -0.3727 -0.5129
 2181SOL     OW18178   3.329   4.706  16.104  0.3448 -0.5253  0.0925
 2181SOL    HW118179   3.281   0.017  16.171 -0.1235 -1.8092  0.6953
 2181SOL    HW218180   3.264   4.653  16.059 -2.1094  1.5393  1.1705
 2182SOL     OW18181   3.145   2.123   9.496 -0.0822 -0.1300  0.1970
 2182SOL    HW118182   3.069   2.065   9.496 -0.0147 -0.2259  1.3788
 2182SOL    HW218183   3.176   2.118   9.405  0.6822  1.1066  0.3984
 2183SOL     OW18184   1.126   2.582  11.655 -0.5065  0.0394 -0.0094
 2183SOL    HW118185   1.134   2.670  11.619  2.4093  0.2460  1.1927
 2183SOL    HW218186   1.182   2.592  11.732  1.2975 -0.6524 -1.2287
 2184SOL     OW18187   3.618   1.006   8.436 -0.6752 -0.1063 -0.0123
 2184SOL    HW118188   3.594   1.016   8.528  0.0719 -1.6982  0.3503
 2184SOL    HW218189   3.529   1.011   8.400 -0.6653 -0.4468 -0.0863
 2185SOL     OW18190   3.283   2.284   4.835  0.0783  0.0318  0.4540
 2185SOL    HW118191   3.347   2.318   4.772 -0.3575 -1.2329 -0.6471
 2185SOL    HW218192   3.262   2.212   4.776  0.4562  1.5267 -1.5228
 2186SOL     OW18193   2.750   3.897   5.540 -0.5735  0.2849 -0.2685
 2186SOL    HW118194   2.757   3.843   5.619  2.8541  1.2479  0.0871
 2186SOL    HW218195   2.803   3.972   5.564 -0.1317 -0.3399  0.6844
 2187SOL     OW18196   2.002   3.778  17.144  0.5212 -0.3336 -0.0247
 2187SOL    HW118197   1.942   3.852  17.132  0.9178  0.3012  1.9615
 2187SOL    HW218198   2.081   3.833  17.139  0.4838 -0.2511  0.2964
 2188SOL     OW18199   2.284   2.123   5.013 -0.0200  0.7055  0.4140
 2188SOL    HW118200   2.315   2.070   4.940  0.3350 -0.2951  1.2942
 2188SOL    HW218201   2.364   2.144   5.061 -0.2048 -2.3300  2.0676
 2189SOL     OW18202   1.672   4.639  12.933 -0.0002 -0.4882  0.3176
 2189SOL    HW118203   1.716   4.722  12.951 -0.9192  0.4700 -1.7764
 2189SOL    HW218204   1.751   4.584  12.936  0.3190 -0.2520 -3.3533
 2190SOL     OW18205   3.627   2.920   6.171 -0.3822 -0.7239 -0.0128
 2190SOL    HW118206   3.620   2.860   6.245 -0.1658 -1.6081 -0.7083
 2190SOL    HW218207   3.560   2.986   6.192 -0.0018 -0.2462 -0.2969
 2191SOL     OW18208   4.671   0.049   3.865  0.1196 -0.3162  0.0211
 2191SOL    HW118209   0.015   0.072   3.907  0.8963  1.6855 -2.6185
 2191SOL    HW218210   4.665   4.696   3.895 -1.4908  0.8674  3.2701
 2192SOL     OW18211   4.141   2.418  16.833  0.3662 -0.2584 -0.2815
 2192SOL    HW118212   4.171   2.329  16.848  0.6046 -0.4971 -2.2600
 2192SOL    HW218213   4.225   2.454  16.805  1.3224 -1.0352  1.5563
 2193SOL     OW18214   2.899   3.286   8.832  0.0810  0.3975  0.2796
 2193SOL    HW118215   2.987   3.320   8.849  0.4119 -0.4743  0.3073
 2193SOL    HW218216   2.910   3.191   8.842  1.6796  0.6286  0.6058
 2194SOL     OW18217   4.530   2.972   5.799 -0.8524 -0.4017  0.0478
 2194SOL    HW118218   4.468   2.983   5.727 -0.0688 -0.7328 -0.6811
 2194SOL    HW218219   4.607   2.927   5.763  0.7475  1.9550  0.5695
 2195SOL     OW18220   4.315   0.752   7.467 -0.3127  0.1639  0.6150
 2195SOL    HW118221   4.352   0.717   7.548  3.1184  0.5240 -0.8154
 2195SOL    HW218222   4.226   0.763   7.501 -0.3402  0.0071  0.5935
 2196SOL     OW18223   2.480   3.204  16.253 -0.0163  0.3144  0.1521
 2196SOL    HW118224   2.428   3.209  16.173 -2.1095  2.1659  1.6313
 2196SOL    HW218225   2.417   3.214  16.324  2.9375 -0.9201  2.9471
 2197SOL     OW18226   2.682   3.279   2.818  0.4490  0.5309 -0.1219
 2197SOL    HW118227   2.758   3.337   2.819  0.7284  0.1633  1.2278
 2197SOL    HW218228   2.702   3.212   2.753  0.4958 -1.6126  2.0753
 2198SOL     OW18229   3.600   2.568  17.605  0.6235  1.1047  0.1499
 2198SOL    HW118230   3.680   2.616  17.628  1.0163  1.2719 -1.5055
 2198SOL    HW218231   3.538   2.641  17.599  0.1357  0.5624 -1.4403
 2199SOL     OW18232   3.427   1.992   5.323 -0.0839 -0.1567  0.0798
 2199SOL    HW118233   3.481   2.006   5.401 -0.9714  0.7924  0.5209
 2199SOL    HW218234   3.363   1.929   5.357  0.0160 -1.0349 -1.3659
 2200SOL     OW18235   1.988   4.153   7.106 -0.0791 -0.1231 -0.5314
 2200SOL    HW118236   1.963   4.228   7.159  1.5253 -0.8139  1.1833
 2200SOL    HW218237   1.933   4.161   7.027 -0.1584 -0.3057 -0.4945
 2201SOL     OW18238   2.833   3.304   1.192 -0.7661 -0.1665 -0.6503
 2201SOL    HW118239   2.748   3.269   1.165 -1.3170 -0.1430  1.0482
 2201SOL    HW218240   2.889   3.228   1.178  0.7202  0.6852  0.6251
 2202SOL     OW18241   1.822   4.038   3.280 -0.4658  0.4543 -0.5661
 2202SOL    HW118242   1.828   3.961   3.222 -0.5469 -0.6603  0.9012
 2202SOL    HW218243   1.829   4.112   3.220 -0.4851 -0.6567 -1.9567
 2203SOL     OW18244   0.217   3.173  14.798  0.0419  0.1283  0.4643
 2203SOL    HW118245   0.264   3.092  14.781  1.6860  0.7739  1.9215
 2203SOL    HW218246   0.140   3.135  14.840  0.3750 -1.3411 -0.2550
 2204SOL     OW18247   1.463   2.114   2.586  0.2926  0.1198 -0.0164
 2204SOL    HW118248   1.551   2.143   2.561  0.6396  2.2543  3.6556
 2204SOL    HW218249   1.450   2.040   2.527  0.5587 -0.0868  0.1879
 2205SOL     OW18250   1.706   0.837   5.864 -0.1720  0.3702  0.5892
 2205SOL    HW118251   1.612   0.817   5.864 -0.4463  1.6442  0.0600
 2205SOL    HW218252   1.730   0.806   5.951 -0.0146  2.6022  1.3557
 2206SOL     OW18253   1.486   3.810   8.697  0.5451 -0.6414 -0.6117
 2206SOL    HW118254   1.538   3.831   8.775 -0.1242  2.8979 -1.1191
 2206SOL    HW218255   1.414   3.872   8.708  0.5095 -1.0072  1.2985
 2207SOL     OW18256   3.262   0.087   7.601 -0.2146 -0.3505  0.1367
 2207SOL    HW118257   3.354   0.078   7.627  0.0340  1.2227 -0.2409
 2207SOL    HW218258   3.244   4.736   7.573  0.7849  0.0035 -1.6252
 2208SOL     OW18259   2.167   0.555   6.210 -0.0690  0.2453  0.3937
 2208SOL    HW118260   2.089   0.559   6.265  0.5448 -0.2447  1.3116
 2208SOL    HW218261   2.236   0.599   6.261  0.5880 -0.4304  0.0885
 2209SOL     OW18262   4.247   2.841  14.295 -0.1026 -0.3387  0.0460
 2209SOL    HW118263   4.329   2.843  14.246 -1.2559 -1.4391 -1.9287
 2209SOL    HW218264   4.211   2.753  14.283  0.0665 -0.6684  1.9715
 2210SOL     OW18265   0.914   2.420  13.230  0.2288 -0.6146 -0.7925
 2210SOL    HW118266   0.927   2.444  13.322  2.3262  1.6599 -1.6788
 2210SOL    HW218267   0.957   2.335  13.233  0.6525 -0.3615  0.2449
 2211SOL     OW18268   1.792   1.880  11.032 -0.0521 -0.4517 -0.4714
 2211SOL    HW118269   1.875   1.846  11.000 -0.3133 -0.6534 -0.9344
 2211SOL    HW218270   1.756   1.808  11.084  1.1222 -1.3641 -0.9184
 2212SOL     OW18271   3.808   1.653   9.156  0.6528  0.1653 -0.0615
 2212SOL    HW118272   3.811   1.747   9.175  0.5067  0.1193  0.1841
 2212SOL    HW218273   3.719   1.625   9.178 -0.0478  0.4151 -2.4578
 2213SOL     OW18274   3.354   0.003   8.648  0.1859  0.1000  0.3784
 2213SOL    HW118275   3.342   0.012   8.743 -1.1921 -1.0256  0.3041
 2213SOL    HW218276   3.329   4.651   8.633  0.8513  0.0642 -0.5342
 2214SOL     OW18277   0.588   1.016   4.596  0.3139  0.4144 -0.0237
 2214SOL    HW118278   0.562   1.108   4.599 -0.0348  0.2705  1.6192
 2214SOL    HW218279   0.673   1.024   4.638  0.1057  0.6824  0.3466
 2215SOL     OW18280   1.332   2.046   8.269  0.2930  0.4484 -0.1695
 2215SOL    HW118281   1.246   2.026   8.306  0.5741  0.3011  0.3946
 2215SOL    HW218282   1.313   2.031   8.176 -1.1576 -1.4657  0.4215
 2216SOL     OW18283   3.076   2.138  10.198 -0.7936  0.2976 -0.1272
 2216SOL    HW118284   3.082   2.056  10.148  2.7101 -0.3631  1.3452
 2216SOL    HW218285   3.132   2.196  10.146  0.4308  1.1118  2.1447
 2217SOL     OW18286   0.310   2.611  11.939 -0.6378 -0.4024  0.1959
 2217SOL    HW118287   0.216   2.597  11.924 -0.6475  2.1404 -2.0666
 2217SOL    HW218288   0.343   2.557  11.866 -0.4955 -0.2901  0.1781
 2218SOL     OW18289   3.021   2.284   8.258  0.0806 -0.0816 -0.0832
 2218SOL    HW118290   3.098   2.232   8.280  0.2809  0.3387  0.2073
 2218SOL    HW218291   2.958   2.257   8.325 -0.6555  1.7146 -0.0609
 2219SOL     OW18292   0.769   2.491   5.815  0.5710 -0.1830  0.0134
 2219SOL    HW118293   0.817   2.569   5.786  1.1048  0.0821  1.6324
 2219SOL    HW218294   0.711   2.536   5.877 -2.3051 -0.4451 -2.4845
 2220SOL     OW18295   2.458   0.311   4.650  0.4371  0.0346 -0.0448
 2220SOL    HW118296   2.510   0.234   4.630  0.0445 -0.1631 -0.2946
 2220SOL    HW218297   2.398   0.296   4.577  0.9735 -1.8290 -0.0840
 2221SOL     OW18298   2.292   0.706   1.411 -0.3926 -0.2653  0.0871
 2221SOL    HW118299   2.344   0.698   1.491 -0.6512  0.5255  0.3390
 2221SOL    HW218300   2.279   0.618   1.378  0.7673  0.0326 -1.1662
 2222SOL     OW18301   1.774   3.128   4.521  0.0867 -0.1267  0.2889
 2222SOL    HW118302   1.803   3.042   4.551  0.2220 -0.6119 -1.2319
 2222SOL    HW218303   1.724   3.153   4.598 -2.1586 -0.5499 -1.0508
 2223SOL     OW18304   0.142   2.120   3.054  0.3985 -0.0759  0.0680
 2223SOL    HW118305   0.065   2.092   3.005 -0.0183  2.4809 -0.7178
 2223SOL    HW218306   0.163   2.203   3.012  1.1041 -0.1522  0.2646
 2224SOL     OW18307   1.931   4.136   6.810 -0.3725 -0.0828 -0.3441
 2224SOL    HW118308   1.931   4.194   6.733 -1.1239 -0.7465 -0.8348
 2224SOL    HW218309   2.024   4.145   6.833 -0.9900  1.2542  1.5883
 2225SOL     OW18310   1.820   2.499   4.144 -0.3056 -0.4491  0.2589
 2225SOL    HW118311   1.882   2.544   4.201 -0.4832 -1.7296  1.4949
 2225SOL    HW218312   1.750   2.560   4.122 -1.0359 -0.9354  1.2170
 2226SOL     OW18313   0.247   0.802  13.191 -0.4296  0.6019  0.4090
 2226SOL    HW118314   0.164   0.846  13.211  0.9530  3.2124  0.4867
 2226SOL    HW218315   0.244   0.738  13.261 -0.8094 -1.9526 -1.9425
 2227SOL     OW18316   2.966   0.305   9.693 -0.3425 -0.2709  0.3155
 2227SOL    HW118317   3.022   0.335   9.622  2.0658 -1.2603  1.8161
 2227SOL    HW218318   2.923   0.383   9.730 -1.3610 -0.7157  0.0813
 2228SOL     OW18319   0.524   0.376   1.347  0.8733  0.2903  0.0071
 2228SOL    HW118320   0.536   0.369   1.441  1.1481 -0.3273 -0.0735
 2228SOL    HW218321   0.581   0.453   1.345  0.2240  0.7516 -0.9562
 2229SOL     OW18322   1.383   1.009  15.647  0.0620 -0.5676  0.3117
 2229SOL    HW118323   1.386   0.958  15.566  0.1971  1.9132 -1.2362
 2229SOL    HW218324   1.326   0.942  15.687  0.1722 -0.9920 -0.2433
 2230SOL     OW18325   0.802   4.584  16.059 -0.1939  0.0304 -0.0456
 2230SOL    HW118326   0.838   4.576  16.148  0.2369  0.9051 -0.1403
 2230SOL    HW218327   0.872   4.537  16.014 -0.1795 -1.4635  1.5045
 2231SOL     OW18328   2.627   0.106   4.593  0.0833  0.4268  0.3724
 2231SOL    HW118329   2.587   0.099   4.507  2.7029  1.5732 -0.9480
 2231SOL    HW218330   2.718   0.085   4.572 -0.0818 -1.0800  1.1551
 2232SOL     OW18331   0.539   1.197   8.585  0.0100 -0.7112  0.7879
 2232SOL    HW118332   0.601   1.131   8.616 -0.3283 -1.9879 -1.2955
 2232SOL    HW218333   0.468   1.134   8.578 -0.2669 -0.2925 -0.0472
 2233SOL     OW18334   3.408   1.974  17.169 -0.2689 -0.2830  0.7452
 2233SOL    HW118335   3.354   1.989  17.247 -0.1134  2.2334  0.3671
 2233SOL    HW218336   3.418   2.066  17.143 -0.2062 -0.6019 -0.3776
 2234SOL     OW18337   4.240   0.022  16.363 -0.2738  0.5701  0.1991
 2234SOL    HW118338   4.232   0.060  16.451 -0.1818 -1.3658  1.0485
 2234SOL    HW218339   4.249   4.666  16.379 -1.2146  0.6336  1.1247
 2235SOL     OW18340   3.680   2.184   4.001 -0.4216 -0.1535 -0.7960
 2235SOL    HW118341   3.665   2.129   4.078 -3.9516  1.5877 -0.2754
 2235SOL    HW218342   3.675   2.273   4.035 -0.1554 -1.0506  1.5434
 2236SOL     OW18343   0.032   3.199   3.100  0.4677  0.1673 -0.1202
 2236SOL    HW118344   4.724   3.144   3.037  1.1140  0.4801 -0.8775
 2236SOL    HW218345   4.698   3.253   3.130 -1.1100 -1.7635 -0.4933
 2237SOL     OW18346   4.419   1.537   5.797 -0.0525  0.0543 -0.1139
 2237SOL    HW118347   4.410   1.452   5.752  0.1571  1.5862 -3.0476
 2237SOL    HW218348   4.364   1.584   5.734 -0.6546  1.6276  1.5892
 2238SOL     OW18349   2.656   0.817   6.578 -0.6412 -0.6850 -0.4336
 2238SOL    HW118350   2.567   0.849   6.595 -0.7259 -1.6159  0.9143
 2238SOL    HW218351   2.671   0.871   6.501 -0.7988  0.7581  0.5467
 2239SOL     OW18352   1.258   4.626  13.832  0.0159  0.2279 -0.0028
 2239SOL    HW118353   1.172   4.636  13.871 -1.0010  0.6343 -2.3742
 2239SOL    HW218354   1.308   4.698  13.870  2.0863 -1.6503  0.8804
 2240SOL     OW18355   1.845   2.642  12.429  0.1212 -0.6759 -0.3261
 2240SOL    HW118356   1.834   2.603  12.342 -0.0941 -2.1281  0.3608
 2240SOL    HW218357   1.937   2.668  12.427 -0.0471  0.0900  2.4013
 2241SOL     OW18358   4.179   2.024   7.382  0.0342  0.1137 -0.0922
 2241SOL    HW118359   4.236   1.954   7.351 -1.7892 -1.4420  0.0486
 2241SOL    HW218360   4.100   1.983   7.348 -0.9496 -0.0770  2.4416
 2242SOL     OW18361   2.346   3.531   3.795  0.0459  0.4082  0.2703
 2242SOL    HW118362   2.287   3.455   3.799  1.4496 -0.6414  1.1937
 2242SOL    HW218363   2.290   3.606   3.773  0.7350  1.3985  1.8594
 2243SOL     OW18364   2.518   3.820   9.273  0.2253 -0.2897  0.0861
 2243SOL    HW118365   2.510   3.725   9.275  0.7244 -0.3658 -1.5412
 2243SOL    HW218366   2.425   3.845   9.275  0.6165  1.1367  0.7731
 2244SOL     OW18367   1.398   0.895   5.111 -0.6333  0.0735  0.7418
 2244SOL    HW118368   1.459   0.855   5.174 -0.1440  2.0519  1.5327
 2244SOL    HW218369   1.314   0.855   5.132 -0.1401 -1.0449  0.6175
 2245SOL     OW18370   3.174   4.036   8.374 -0.0699 -0.3639  0.3604
 2245SOL    HW118371   3.236   3.969   8.404  0.6414  0.2706  0.2921
 2245SOL    HW218372   3.107   4.025   8.441 -0.2043  0.9143  0.4337
 2246SOL     OW18373   0.463   3.618  11.096  0.1110 -0.4833 -0.4561
 2246SOL    HW118374   0.371   3.643  11.101  0.3411  0.2671  0.0621
 2246SOL    HW218375   0.486   3.641  11.006  0.8213 -2.6915 -0.8595
 2247SOL     OW18376   1.964   4.055   2.449  0.5397 -0.2933 -0.6356
 2247SOL    HW118377   2.028   4.119   2.417 -1.5146  0.4519 -3.3298
 2247SOL    HW218378   1.980   3.990   2.381  1.9174  2.4820 -2.9702
 2248SOL     OW18379   1.940   1.984  16.717 -0.3483  0.3368 -0.3587
 2248SOL    HW118380   1.914   1.895  16.695  1.6225 -0.2861 -0.1297
 2248SOL    HW218381   1.911   2.033  16.640 -0.9103  1.1815  0.3972
 2249SOL     OW18382   2.058   1.542   4.902  0.1487 -0.0246 -0.3238
 2249SOL    HW118383   1.964   1.557   4.906  0.4036  1.2310  1.1441
 2249SOL    HW218384   2.069   1.494   4.984 -3.0459 -0.9466 -0.4475
 2250SOL     OW18385   1.517   2.402  16.716 -0.5907 -0.0391 -0.5166
 2250SOL    HW118386   1.548   2.378  16.803 -2.3326 -0.6428 -0.0828
 2250SOL    HW218387   1.442   2.456  16.737  0.0877  0.3491  0.9128
 2251SOL     OW18388   0.336   3.843   2.139  0.8573 -0.5126 -0.6933
 2251SOL    HW118389   0.396   3.785   2.093  0.0577  1.1510 -3.8194
 2251SOL    HW218390   0.363   3.931   2.115  1.0626  0.5119  3.2903
 2252SOL     OW18391   3.472   3.521   8.052  0.8329 -0.3312 -0.1418
 2252SOL    HW118392   3.402   3.461   8.027 -0.4220  0.3912  1.6557
 2252SOL    HW218393   3.468   3.500   8.145 -1.8256  0.5964 -0.0488
 2253SOL     OW18394   0.822   1.695  10.010 -0.2801  0.2144  0.2848
 2253SOL    HW118395   0.742   1.748  10.007 -0.5159 -0.1692 -0.2600
 2253SOL    HW218396   0.802   1.642   9.933 -0.0032 -1.1163  1.1293
 2254SOL     OW18397   1.996   2.793   9.189 -0.0476  0.3261  0.3059
 2254SOL    HW118398   2.091   2.801   9.185 -0.1516  1.7557  0.7028
 2254SOL    HW218399   1.994   2.716   9.245  4.6312  1.2016  1.6669
 2255SOL     OW18400   0.922   3.537  16.025 -0.1006 -0.4183 -0.1672
 2255SOL    HW118401   0.896   3.469  16.087  1.3841 -1.0086 -0.1865
 2255SOL    HW218402   0.863   3.504  15.958 -1.8441 -1.1219  1.7197
 2256SOL     OW18403   3.080   0.495   6.613 -0.0451  0.4381  0.1867
 2256SOL    HW118404   3.083   0.553   6.689 -2.3713  0.3389  0.3456
 2256SOL    HW218405   3.059   0.555   6.542 -0.7076  0.9082  0.7843
 2257SOL     OW18406   3.813   4.000   0.560  0.1423  0.1367 -0.2179
 2257SOL    HW118407   3.862   4.013   0.642  0.7499 -0.2103 -0.5240
 2257SOL    HW218408   3.849   4.066   0.501 -0.1361  0.6285  0.1609
 2258SOL     OW18409   3.662   4.460  13.558  0.1356 -0.4336  0.0252
 2258SOL    HW118410   3.650   4.530  13.494  2.2341 -0.7241 -0.6657
 2258SOL    HW218411   3.644   4.512  13.636  2.0014 -0.6052  0.5706
 2259SOL     OW18412   1.307   2.300   4.918  0.2400  0.1896  0.7165
 2259SOL    HW118413   1.382   2.278   4.864  1.4081  1.4711  1.7788
 2259SOL    HW218414   1.337   2.368   4.979  0.2524 -0.4108  1.3768
 2260SOL     OW18415   3.049   0.700   2.262  0.1025  0.0355  0.3858
 2260SOL    HW118416   3.000   0.751   2.327 -0.4890  1.3550 -1.0690
 2260SOL    HW218417   3.024   0.610   2.283 -0.7252 -0.3870 -2.3364
 2261SOL     OW18418   2.279   3.247   1.116  0.8626  0.1139 -0.1581
 2261SOL    HW118419   2.287   3.340   1.137 -2.3891  0.7634 -1.7551
 2261SOL    HW218420   2.196   3.222   1.157  1.5872  2.9173  3.0002
 2262SOL     OW18421   4.312   4.620   5.129  0.3439 -0.4259 -0.0218
 2262SOL    HW118422   4.247   4.682   5.160  0.3313  0.8730 -2.6820
 2262SOL    HW218423   4.326   4.651   5.040  1.2674  1.4941  0.7966
 2263SOL     OW18424   3.525   0.564   6.142 -0.5581  0.1343 -0.0906
 2263SOL    HW118425   3.495   0.504   6.074 -2.3528  0.7827  0.1322
 2263SOL    HW218426   3.545   0.640   6.087  0.7075 -0.5960 -0.6411
 2264SOL     OW18427   4.574   0.401   5.900 -0.0921 -0.3024 -0.4375
 2264SOL    HW118428   4.639   0.457   5.857  1.1294 -1.1258  0.3420
 2264SOL    HW218429   4.624   0.388   5.981 -3.4111 -1.5134  1.4326
 2265SOL     OW18430   0.059   1.972   8.941 -0.8760 -0.1045  0.4004
 2265SOL    HW118431   0.115   1.910   8.893  0.5461  1.5304 -0.0755
 2265SOL    HW218432   0.016   2.005   8.862 -2.6627  0.4377  1.6058
 2266SOL     OW18433   2.297   4.572  10.725 -0.2955  0.2563 -0.0641
 2266SOL    HW118434   2.213   4.617  10.725 -0.1028  0.6080 -0.5304
 2266SOL    HW218435   2.326   4.583  10.816 -0.4353 -1.2840  0.1835
 2267SOL     OW18436   4.309   0.715   1.800 -0.1388  0.1525 -0.2412
 2267SOL    HW118437   4.359   0.765   1.864 -1.2660  1.3072 -0.2456
 2267SOL    HW218438   4.223   0.713   1.841  0.2813 -1.5104  0.5284
 2268SOL     OW18439   1.107   1.794  14.484 -0.7703 -0.3615 -0.1999
 2268SOL    HW118440   1.153   1.728  14.432  0.0683  0.4731 -0.5197
 2268SOL    HW218441   1.073   1.744  14.558  0.2875  0.7969  1.0738
 2269SOL     OW18442   3.079   1.288   6.182 -0.9225  0.0189  0.3528
 2269SOL    HW118443   3.122   1.340   6.251 -0.4551 -1.1608  0.9573
 2269SOL    HW218444   3.117   1.206   6.213 -0.6084 -0.2324 -0.7156
 2270SOL     OW18445   4.336   4.370   0.976  0.6498  0.0243  0.2569
 2270SOL    HW118446   4.379   4.455   0.968 -1.2629  1.0662  1.1740
 2270SOL    HW218447   4.404   4.316   1.017  0.2091 -1.5279 -1.0397
 2271SOL     OW18448   0.853   3.717   2.715  0.2466  0.3992 -0.0901
 2271SOL    HW118449   0.764   3.721   2.749 -0.0899 -2.3459 -0.7143
 2271SOL    HW218450   0.884   3.806   2.734  0.3581  0.2406  0.4750
 2272SOL     OW18451   3.389   2.369   3.404 -0.1254 -0.0496  0.1189
 2272SOL    HW118452   3.441   2.321   3.339 -0.5275  1.8992 -1.6247
 2272SOL    HW218453   3.302   2.368   3.365  0.7660  0.1373 -1.8725
 2273SOL     OW18454   3.218   1.308   3.451 -0.4181  0.3039 -0.3259
 2273SOL    HW118455   3.143   1.326   3.393 -0.8603  1.2301  0.5381
 2273SOL    HW218456   3.285   1.368   3.416 -1.8045  0.6257 -2.4547
 2274SOL     OW18457   1.005   2.553  13.507  0.0685  0.4424  0.2107
 2274SOL    HW118458   1.069   2.571  13.439 -0.0831 -1.5635 -0.4386
 2274SOL    HW218459   1.005   2.631  13.564 -0.8830  1.0975 -0.6924
 2275SOL     OW18460   3.521   3.975   0.694  0.0937 -0.3225  0.4363
 2275SOL    HW118461   3.587   4.017   0.640 -1.3264  1.2895 -0.0329
 2275SOL    HW218462   3.576   3.932   0.760  0.2545  0.8871  1.0950
 2276SOL     OW18463   4.698   3.503   9.638  0.5553  0.3710  0.6112
 2276SOL    HW118464   4.710   3.497   9.732  2.9756 -0.4620  0.2376
 2276SOL    HW218465   0.051   3.487   9.615  0.9980  0.8606  2.0656
 2277SOL     OW18466   0.563   1.074   4.291 -0.4127  0.4051  0.2552
 2277SOL    HW118467   0.577   1.155   4.341  1.7517  0.5166 -0.4986
 2277SOL    HW218468   0.653   1.071   4.258 -0.5021  0.7651 -0.0170
 2278SOL     OW18469   0.398   1.408  16.408 -0.5501  0.1542 -0.2307
 2278SOL    HW118470   0.482   1.411  16.453 -0.4327  1.3642 -0.5139
 2278SOL    HW218471   0.401   1.492  16.362 -0.9931  0.0940 -0.3639
 2279SOL     OW18472   3.780   4.216   5.651  0.6896  0.0203  0.5122
 2279SOL    HW118473   3.732   4.266   5.586  1.6197 -2.4492 -2.0590
 2279SOL    HW218474   3.713   4.151   5.673 -2.0539  2.6235 -0.2054
 2280SOL     OW18475   3.251   0.560   3.703  0.0970 -0.0106 -0.2062
 2280SOL    HW118476   3.239   0.636   3.647 -1.6087 -0.6406 -0.7226
 2280SOL    HW218477   3.307   0.589   3.775 -1.1849 -0.4081  0.9610
 2281SOL     OW18478   2.471   4.336   8.242 -0.2364 -0.3653 -0.0243
 2281SOL    HW118479   2.473   4.328   8.147 -1.8823 -2.2388  0.0870
 2281SOL    HW218480   2.385   4.300   8.262 -0.1432 -0.0141  1.0254
 2282SOL     OW18481   1.759   0.975   9.129 -0.1379 -0.2283 -0.1250
 2282SOL    HW118482   1.686   0.964   9.189  0.1480 -2.3381 -0.1829
 2282SOL    HW218483   1.721   1.004   9.046 -0.2192  1.7671  0.6130
 2283SOL     OW18484   0.134   1.324   3.207 -0.3877  0.1666 -0.2041
 2283SOL    HW118485   0.071   1.261   3.242  1.0158 -2.3034 -2.1545
 2283SOL    HW218486   0.084   1.351   3.131 -0.4522 -2.3265 -1.0219
 2284SOL     OW18487   3.883   1.813   3.914  0.8146 -0.3232 -0.1289
 2284SOL    HW118488   3.946   1.755   3.872 -1.6667 -3.1728  0.0353
 2284SOL    HW218489   3.808   1.756   3.896 -1.3425  2.6998 -0.7464
 2285SOL     OW18490   2.493   4.710   3.969 -0.5672  0.2091  0.0551
 2285SOL    HW118491   2.449   0.056   3.968 -1.6136 -0.3297  0.4333
 2285SOL    HW218492   2.416   4.655   3.979  0.0481 -0.2220  2.3299
 2286SOL     OW18493   3.033   0.884  16.584  0.0402  0.5559  0.1973
 2286SOL    HW118494   2.987   0.830  16.649  0.1585  0.2987  0.0644
 2286SOL    HW218495   2.964   0.897  16.519  0.5312  1.7728 -0.0810
 2287SOL     OW18496   3.137   3.596  17.521  0.0996  0.4607  0.1066
 2287SOL    HW118497   3.147   3.652  17.597 -0.5068  0.3191  0.2881
 2287SOL    HW218498   3.131   3.667  17.457  2.1854  0.4196 -0.1236
 2288SOL     OW18499   4.384   3.866   5.779  0.2026  0.2926 -0.3069
 2288SOL    HW118500   4.425   3.891   5.696 -1.6419  2.4041 -0.5757
 2288SOL    HW218501   4.403   3.947   5.826 -0.1737  0.9925 -1.3544
 2289SOL     OW18502   3.632   0.864   9.234  0.6469  0.1265  0.2707
 2289SOL    HW118503   3.632   0.784   9.181  0.8817 -1.7721  3.1362
 2289SOL    HW218504   3.564   0.927   9.210 -0.8202 -0.8562  1.9145
 2290SOL     OW18505   0.766   4.538   5.653  0.2631  0.0179 -0.1922
 2290SOL    HW118506   0.694   4.523   5.715  0.2620 -0.9581 -0.4361
 2290SOL    HW218507   0.834   4.527   5.719  0.3896 -0.0105 -0.3289
 2291SOL     OW18508   1.820   0.590  12.644 -0.8430 -1.0324 -0.3837
 2291SOL    HW118509   1.798   0.497  12.647  0.9111 -1.4599 -0.6880
 2291SOL    HW218510   1.905   0.590  12.601 -0.8987  0.8602 -0.5191
 2292SOL     OW18511   2.182   0.496   3.595  0.2998 -0.4478  0.2460
 2292SOL    HW118512   2.251   0.434   3.572 -0.5189 -2.0179  2.0439
 2292SOL    HW218513   2.133   0.492   3.513  0.4454 -0.9219  0.1839
 2293SOL     OW18514   4.220   0.248   6.754  0.3169  0.6716 -0.6087
 2293SOL    HW118515   4.139   0.213   6.790  0.6070  0.2184 -0.3991
 2293SOL    HW218516   4.242   0.314   6.821 -3.2254  1.5179 -0.2970
 2294SOL     OW18517   1.163   1.279   3.021  0.3010 -0.1025  0.0524
 2294SOL    HW118518   1.177   1.361   2.975  0.3490  0.2513  0.7010
 2294SOL    HW218519   1.135   1.318   3.104  0.4595  0.9756 -0.4089
 2295SOL     OW18520   0.134   4.284  16.428  0.6166  0.6123  0.3767
 2295SOL    HW118521   0.136   4.212  16.491  1.3285 -0.6140 -1.0540
 2295SOL    HW218522   0.150   4.364  16.477 -0.9166  1.1214  0.0445
 2296SOL     OW18523   0.787   2.247   6.414  0.0881 -0.6220  0.5741
 2296SOL    HW118524   0.798   2.152   6.425  0.4775 -0.7004 -0.5603
 2296SOL    HW218525   0.870   2.263   6.369  0.3344  0.9733  1.5968
 2297SOL     OW18526   3.913   2.981   5.422 -0.4098  0.0680  0.0855
 2297SOL    HW118527   3.976   2.912   5.402 -0.9022 -0.0232 -1.1102
 2297SOL    HW218528   3.951   3.028   5.497  1.2440 -1.6304  0.3106
 2298SOL     OW18529   2.147   2.302  13.905  0.1677 -0.0550  0.2970
 2298SOL    HW118530   2.239   2.290  13.880  0.2570 -0.3272  0.7554
 2298SOL    HW218531   2.145   2.240  13.977  1.1349 -2.8687 -2.0661
 2299SOL     OW18532   2.753   3.519   1.889  1.0268  0.0940  0.1093
 2299SOL    HW118533   2.673   3.487   1.930  0.5151 -0.6757 -1.4816
 2299SOL    HW218534   2.739   3.613   1.897  1.8664  0.2623 -0.3998
 2300SOL     OW18535   1.928   4.288  16.538 -0.2474 -1.3140  0.1640
 2300SOL    HW118536   1.869   4.257  16.470 -1.9953 -0.9049  1.4929
 2300SOL    HW218537   2.006   4.236  16.519 -0.8749 -1.8738 -0.8657
 2301SOL     OW18538   4.218   3.314   8.324  0.3588  0.2583  0.6113
 2301SOL    HW118539   4.301   3.285   8.362 -0.8379  0.0560  3.0628
 2301SOL    HW218540   4.245   3.374   8.254  2.1602 -1.2726  0.0052
 2302SOL     OW18541   1.191   1.220   1.302 -0.7362 -0.0272  0.4801
 2302SOL    HW118542   1.146   1.230   1.218  0.4988 -0.7878 -0.2796
 2302SOL    HW218543   1.147   1.141   1.332  3.1823 -2.2550  0.3539
 2303SOL     OW18544   1.869   0.419   5.478  0.0255 -0.6805 -0.2682
 2303SOL    HW118545   1.941   0.481   5.488  0.9331 -2.1175  1.9094
 2303SOL    HW218546   1.920   0.339   5.482  2.5895  0.9247 -1.2779
 2304SOL     OW18547   4.279   4.449   3.101 -0.0242 -0.4225  0.1499
 2304SOL    HW118548   4.281   4.519   3.167  0.1210  0.8718 -1.2400
 2304SOL    HW218549   4.220   4.492   3.039  1.5413  0.9589 -0.3682
 2305SOL     OW18550   2.415   2.756   4.499 -0.0011  0.4045  0.1632
 2305SOL    HW118551   2.437   2.847   4.479  0.0799  0.9403  2.6614
 2305SOL    HW218552   2.381   2.767   4.588  2.2307  0.0496  1.0572
 2306SOL     OW18553   3.317   4.473   8.104  0.7586 -0.3560  0.0590
 2306SOL    HW118554   3.396   4.422   8.082  0.1360 -1.3432  0.1061
 2306SOL    HW218555   3.256   4.410   8.142  0.0443 -0.0768 -0.6137
 2307SOL     OW18556   2.906   2.644   9.275 -0.0007 -0.7108 -0.3506
 2307SOL    HW118557   2.828   2.639   9.219 -0.4578  1.7271  0.0441
 2307SOL    HW218558   2.973   2.648   9.207  1.1015  1.6050  0.8557
 2308SOL     OW18559   1.537   2.395  12.895  0.4938 -0.2925 -0.0714
 2308SOL    HW118560   1.632   2.382  12.896  0.7641  1.5104 -1.2388
 2308SOL    HW218561   1.528   2.460  12.965 -0.5515 -0.5864  0.0548
 2309SOL     OW18562   4.255   1.055   7.695  0.2303 -0.5579  0.0446
 2309SOL    HW118563   4.223   1.020   7.778  1.2352  0.2288  0.7707
 2309SOL    HW218564   4.312   0.982   7.669 -1.8339 -1.8334 -0.8666
 2310SOL     OW18565   3.347   2.027   2.945  0.5717  0.6222  0.3350
 2310SOL    HW118566   3.274   2.006   3.002  0.8809  0.0706  0.5336
 2310SOL    HW218567   3.386   2.098   2.996  1.7325 -0.1479  0.5349
 2311SOL     OW18568   0.986   3.547   6.379  0.2464 -0.5968 -0.3929
 2311SOL    HW118569   0.920   3.606   6.341 -0.5673  0.4563  2.6168
 2311SOL    HW218570   1.059   3.561   6.319  0.7989 -1.7587  0.0116
 2312SOL     OW18571   1.195   2.100   7.737  0.4410  0.0452  0.3929
 2312SOL    HW118572   1.213   2.075   7.827 -1.9265  0.2794  0.9312
 2312SOL    HW218573   1.126   2.165   7.751  0.1930 -0.0397 -0.4041
 2313SOL     OW18574   4.562   3.986  10.116 -0.5826 -0.4829 -0.4562
 2313SOL    HW118575   4.639   3.964  10.168 -0.5886  1.8616  0.5552
 2313SOL    HW218576   4.501   4.045  10.159 -0.6942 -0.7525 -0.2473
 2314SOL     OW18577   2.242   0.274   5.797  0.0823  0.6676  0.5204
 2314SOL    HW118578   2.240   0.361   5.838  2.1979  1.1960 -0.4696
 2314SOL    HW218579   2.300   0.226   5.857  0.6061  0.7537  0.0788
 2315SOL     OW18580   0.730   3.171   7.447 -0.4176  0.4125  0.3008
 2315SOL    HW118581   0.698   3.254   7.411 -0.7604 -1.7974 -4.5365
 2315SOL    HW218582   0.742   3.118   7.368 -1.0222 -0.6876  0.9460
 2316SOL     OW18583   1.154   1.053   9.107  0.0804 -0.0033 -0.2961
 2316SOL    HW118584   1.166   1.104   9.186  0.8471  1.6928 -1.5088
 2316SOL    HW218585   1.106   0.975   9.135  1.1493 -0.4350  0.3402
 2317SOL     OW18586   3.270   3.456   2.565 -0.0650  0.4118  0.9742
 2317SOL    HW118587   3.229   3.503   2.638  0.9398  0.0157  1.7933
 2317SOL    HW218588   3.262   3.365   2.592  0.3646 -0.1472 -0.7679
 2318SOL     OW18589   1.006   3.392  10.136 -0.1384  0.3330  0.4378
 2318SOL    HW118590   0.985   3.302  10.112 -0.3460  0.6806 -0.6792
 2318SOL    HW218591   0.917   3.410  10.165 -1.0402 -1.1189 -1.4130
 2319SOL     OW18592   1.539   0.421   7.934  0.2885 -0.0869 -0.1256
 2319SOL    HW118593   1.523   0.326   7.931 -1.1886  0.1256  1.1728
 2319SOL    HW218594   1.453   0.459   7.917  1.1753  2.2913  0.8536
 2320SOL     OW18595   3.659   1.898  17.059 -0.6907  0.6643 -0.1075
 2320SOL    HW118596   3.570   1.930  17.066 -0.6733  0.6879  0.0127
 2320SOL    HW218597   3.707   1.963  17.111 -0.0670 -1.4352  1.9519
 2321SOL     OW18598   1.986   1.831   9.735 -0.2296  0.3089 -0.4405
 2321SOL    HW118599   1.935   1.819   9.656  1.4651 -0.6028 -1.4078
 2321SOL    HW218600   1.975   1.749   9.782  0.7048 -0.1998 -1.1066
 2322SOL     OW18601   0.799   2.535  11.279 -0.2230 -0.3931  0.1347
 2322SOL    HW118602   0.776   2.453  11.236 -0.3123  0.9826 -2.3913
 2322SOL    HW218603   0.723   2.583  11.247 -0.5346 -0.5162  0.6902
 2323SOL     OW18604   1.993   3.049  14.203  0.4331 -0.1805  0.8257
 2323SOL    HW118605   1.975   3.063  14.296 -1.8818  0.4841  0.2607
 2323SOL    HW218606   1.972   3.133  14.163 -0.1793 -1.3384 -1.2455
 2324SOL     OW18607   0.856   3.486  10.509  0.8154  0.2149 -0.1778
 2324SOL    HW118608   0.840   3.467  10.602  1.3073 -1.6800 -0.4820
 2324SOL    HW218609   0.934   3.437  10.483  1.8145  1.4645  0.4593
 2325SOL     OW18610   2.729   2.299   5.549 -0.1109 -0.0597 -0.0601
 2325SOL    HW118611   2.720   2.386   5.510 -5.3444  0.2849  2.0078
 2325SOL    HW218612   2.668   2.311   5.621  1.6784  0.5677  1.3347
 2326SOL     OW18613   2.788   2.573   3.038  0.3399 -0.1219  0.7529
 2326SOL    HW118614   2.802   2.488   3.080  0.8987 -0.8538 -0.9274
 2326SOL    HW218615   2.782   2.627   3.117  0.0594  1.3495 -0.2663
 2327SOL     OW18616   4.207   2.238   5.008  0.2300 -0.3500  0.3428
 2327SOL    HW118617   4.259   2.222   4.929 -0.2361  0.2160 -0.0768
 2327SOL    HW218618   4.239   2.161   5.055 -1.2169 -2.2821 -1.8667
 2328SOL     OW18619   3.786   2.725  14.875 -0.2347  0.6630 -0.2708
 2328SOL    HW118620   3.794   2.818  14.895 -0.4181  0.3458  1.2657
 2328SOL    HW218621   3.803   2.681  14.958 -0.4662  2.5198  0.7561
 2329SOL     OW18622   3.295   1.080   5.957 -0.0334  0.3402 -0.0115
 2329SOL    HW118623   3.386   1.081   5.985 -0.3355 -1.6401  1.0359
 2329SOL    HW218624   3.249   1.037   6.029 -2.1798 -0.1850 -1.6647
 2330SOL     OW18625   3.320   0.588   9.503 -0.2732  0.2947  0.1090
 2330SOL    HW118626   3.316   0.679   9.473 -0.6110  1.0496  2.4557
 2330SOL    HW218627   3.403   0.554   9.471 -0.0004  1.2530 -0.2124
 2331SOL     OW18628   3.700   1.404  13.848  0.5027  0.1794  0.3168
 2331SOL    HW118629   3.655   1.484  13.875 -0.6641 -0.4458  0.2149
 2331SOL    HW218630   3.637   1.342  13.884  0.7938 -1.2682 -1.6964
 2332SOL     OW18631   3.750   4.187   9.056  0.2065  0.1613  0.6626
 2332SOL    HW118632   3.673   4.223   9.100 -0.4065 -2.6758  1.8805
 2332SOL    HW218633   3.817   4.253   9.074  2.8673 -2.3541 -0.0051
 2333SOL     OW18634   1.651   2.080  10.139 -0.1143 -0.1551 -0.6800
 2333SOL    HW118635   1.706   2.151  10.171  1.2238 -1.1822 -0.7065
 2333SOL    HW218636   1.637   2.116  10.051 -3.2824 -1.3603 -0.6687
 2334SOL     OW18637   2.048   4.216   9.875  0.5411  0.9921  0.2200
 2334SOL    HW118638   2.108   4.157   9.922  0.0208  0.2756 -0.0258
 2334SOL    HW218639   1.968   4.212   9.927 -1.6701  1.0424 -3.2539
 2335SOL     OW18640   0.463   1.883   1.770  0.4373 -0.2549  0.5345
 2335SOL    HW118641   0.432   1.869   1.680  3.2095 -0.8133 -0.3455
 2335SOL    HW218642   0.543   1.931   1.747  1.1992 -2.2913 -1.0496
 2336SOL     OW18643   3.949   3.646   4.258  0.2201 -0.2578  0.4638
 2336SOL    HW118644   4.006   3.691   4.195 -2.1995  2.6693  0.3233
 2336SOL    HW218645   3.883   3.612   4.198 -0.2110  0.7146  0.3814
 2337SOL     OW18646   1.773   2.793  13.596 -0.0570 -0.2104 -0.2938
 2337SOL    HW118647   1.790   2.787  13.502  2.7405 -0.3806  0.2259
 2337SOL    HW218648   1.739   2.704  13.611  1.9603 -0.9154  0.0649
 2338SOL     OW18649   4.099   4.244   1.941 -0.6606  0.4361 -0.5589
 2338SOL    HW118650   4.016   4.264   1.985 -0.1304 -1.5181  1.2906
 2338SOL    HW218651   4.131   4.330   1.914 -0.5464  0.1858 -1.2260
 2339SOL     OW18652   4.208   1.562   9.012 -0.4161  0.1441 -0.1759
 2339SOL    HW118653   4.128   1.511   9.025 -0.8244  0.8772  0.1931
 2339SOL    HW218654   4.281   1.505   9.037  0.2354  2.3230  2.8895
 2340SOL     OW18655   1.562   2.252  15.708  0.1575 -0.2491 -0.0136
 2340SOL    HW118656   1.538   2.337  15.671  0.6852  0.5315  1.4284
 2340SOL    HW218657   1.547   2.206  15.626  1.0799  0.7407 -0.7393
 2341SOL     OW18658   3.111   2.383   9.514  0.1791  0.2586  0.0413
 2341SOL    HW118659   3.201   2.368   9.542 -0.3801 -0.4757  1.4630
 2341SOL    HW218660   3.087   2.291   9.503  0.8666 -0.2957  3.0956
 2342SOL     OW18661   3.396   2.122   2.486  0.0989  0.3702 -0.2972
 2342SOL    HW118662   3.340   2.101   2.411  1.3618 -0.9078 -0.8873
 2342SOL    HW218663   3.406   2.040   2.534 -0.4207  0.7925  0.5295
 2343SOL     OW18664   2.346   1.845   1.493 -0.4252 -0.1574  0.1705
 2343SOL    HW118665   2.356   1.753   1.471  0.3501  0.3961 -1.7626
 2343SOL    HW218666   2.262   1.862   1.452  0.2996  3.1310  0.0255
 2344SOL     OW18667   0.125   0.615  14.912  0.3886 -0.0058  0.1599
 2344SOL    HW118668   0.119   0.615  14.817 -2.1044  1.1083  0.2995
 2344SOL    HW218669   0.064   0.544  14.936 -2.0999  1.7573 -0.9487
 2345SOL     OW18670   2.677   4.543  14.927 -0.2240  0.4808  0.2566
 2345SOL    HW118671   2.596   4.568  14.971 -1.5883  0.8938 -2.4867
 2345SOL    HW218672   2.720   4.504  15.003  1.7080  0.5415 -0.8064
 2346SOL     OW18673   2.809   2.775   4.270 -0.0413  0.5446 -0.2426
 2346SOL    HW118674   2.854   2.835   4.211 -1.2289  2.1268  0.4841
 2346SOL    HW218675   2.728   2.764   4.219  0.1346 -2.3533  0.1131
 2347SOL     OW18676   1.142   2.114  11.893  0.2483  0.1023  0.2143
 2347SOL    HW118677   1.113   2.198  11.928 -0.2348  0.0740 -0.1243
 2347SOL    HW218678   1.199   2.146  11.823  0.2525 -0.2949  0.0308
 2348SOL     OW18679   2.268   4.468   8.661 -0.0256  0.0368 -0.2131
 2348SOL    HW118680   2.349   4.454   8.711 -0.7208 -1.2060  0.5675
 2348SOL    HW218681   2.246   4.556   8.691 -0.0360  0.0707 -0.3203
 2349SOL     OW18682   2.449   3.008  11.146 -0.1162 -0.3619 -0.5309
 2349SOL    HW118683   2.390   3.015  11.071  0.0816  1.1987 -0.5380
 2349SOL    HW218684   2.533   3.043  11.116 -1.4817  2.7167 -0.8075
 2350SOL     OW18685   3.085   2.573   4.626 -0.6921 -0.5552 -0.2683
 2350SOL    HW118686   3.059   2.485   4.600  0.2553 -0.9660  0.1647
 2350SOL    HW218687   3.156   2.589   4.564 -0.2443  0.1290  0.4159
 2351SOL     OW18688   2.223   0.790   9.146  0.6559  0.0584 -0.2237
 2351SOL    HW118689   2.243   0.725   9.079  1.7979  1.2597 -1.0246
 2351SOL    HW218690   2.298   0.781   9.205  0.6097  0.2006 -0.1446
 2352SOL     OW18691   3.114   1.515   7.540 -0.1913 -0.6433 -0.3176
 2352SOL    HW118692   3.026   1.509   7.502 -0.4038 -2.6479  0.4843
 2352SOL    HW218693   3.113   1.604   7.575  0.0481 -0.7567 -0.0217
 2353SOL     OW18694   4.300   2.200   5.527  0.0960  0.3386 -0.3134
 2353SOL    HW118695   4.369   2.203   5.461  1.0146  1.7997  0.7242
 2353SOL    HW218696   4.306   2.107   5.548  1.6778  0.5059 -0.0575
 2354SOL     OW18697   1.752   1.501  17.192 -0.5966 -0.0197 -0.0197
 2354SOL    HW118698   1.808   1.537  17.123  1.6181 -1.3562  1.0808
 2354SOL    HW218699   1.772   1.557  17.267  0.6532 -1.3494  0.6504
 2355SOL     OW18700   2.730   1.343   4.652 -0.3516  0.1790 -0.2754
 2355SOL    HW118701   2.806   1.401   4.656  0.8295 -1.2942 -0.9853
 2355SOL    HW218702   2.673   1.382   4.718  0.8439 -0.5994  1.2411
 2356SOL     OW18703   1.200   2.626  10.663  0.1949 -0.1059  0.2418
 2356SOL    HW118704   1.145   2.592  10.734 -2.6383  1.2750 -1.3043
 2356SOL    HW218705   1.286   2.598  10.695  0.2698  1.4452  1.3881
 2357SOL     OW18706   1.133   2.470   9.545  0.3102  0.0148 -0.2733
 2357SOL    HW118707   1.149   2.389   9.497  0.3671 -1.1579  1.7381
 2357SOL    HW218708   1.076   2.515   9.483  2.1475 -1.3144 -2.9467
 2358SOL     OW18709   4.520   0.485   0.736 -0.3606  0.1793 -0.1927
 2358SOL    HW118710   4.470   0.435   0.671  0.3964 -0.3515 -0.3667
 2358SOL    HW218711   4.449   0.521   0.790  1.9171 -0.0625  2.9435
 2359SOL     OW18712   3.979   4.040   7.744 -0.0439  0.1710  0.2524
 2359SOL    HW118713   3.973   4.055   7.839 -1.6536  2.6740 -0.2328
 2359SOL    HW218714   4.059   4.090   7.726 -0.9267  0.6707 -2.2942
 2360SOL     OW18715   3.578   2.937   4.694 -0.2666 -0.2822  0.6295
 2360SOL    HW118716   3.491   2.947   4.732 -0.5693  1.0749 -0.4415
 2360SOL    HW218717   3.564   2.869   4.627 -1.2647  0.0782  0.4771
 2361SOL     OW18718   2.202   0.504   5.918 -0.3895 -0.1276 -0.6966
 2361SOL    HW118719   2.177   0.500   6.010  0.5987 -1.6911 -0.4936
 2361SOL    HW218720   2.284   0.553   5.920 -0.2786 -0.2615 -2.0040
 2362SOL     OW18721   4.023   3.799   4.480 -0.2629  0.6124 -0.0139
 2362SOL    HW118722   4.018   3.725   4.420  0.5746  0.4787  0.0846
 2362SOL    HW218723   3.953   3.849   4.437 -0.6935 -0.6456 -0.7655
 2363SOL     OW18724   4.353   2.243  14.663 -0.4021 -0.4209 -0.1201
 2363SOL    HW118725   4.317   2.315  14.612 -1.4535 -0.6967  0.2390
 2363SOL    HW218726   4.446   2.259  14.647 -0.4843 -0.8989 -1.0325
 2364SOL     OW18727   0.489   3.296   5.816 -0.1313  0.4507 -0.2529
 2364SOL    HW118728   0.436   3.334   5.747 -1.1946  1.0031  0.8783
 2364SOL    HW218729   0.427   3.288   5.888  0.3483 -0.3378  0.0757
 2365SOL     OW18730   4.527   2.793  12.866 -0.5677 -0.3671 -0.0103
 2365SOL    HW118731   4.550   2.866  12.808  0.9267  1.0201  2.3506
 2365SOL    HW218732   4.516   2.832  12.952  2.8067  3.4940 -1.3324
 2366SOL     OW18733   0.064   4.515  12.574 -0.0794  0.4508  0.4541
 2366SOL    HW118734   0.070   4.476  12.662 -2.4915  2.3406  1.4601
 2366SOL    HW218735   0.124   4.590  12.571  0.0211  0.2842 -1.6639
 2367SOL     OW18736   4.464   1.869   7.910  0.3361  0.6078  1.1870
 2367SOL    HW118737   4.410   1.855   7.833  1.6342 -2.2262  0.7920
 2367SOL    HW218738   4.421   1.941   7.958 -0.8177  1.4648 -1.1514
 2368SOL     OW18739   3.808   1.284   9.481 -0.1372 -0.3406 -0.6279
 2368SOL    HW118740   3.854   1.293   9.564  0.1165 -0.1765 -0.7840
 2368SOL    HW218741   3.864   1.223   9.433 -0.0862  1.1045 -2.4385
 2369SOL     OW18742   4.680   0.736   5.769  0.5519  0.6504  0.2379
 2369SOL    HW118743   4.684   0.645   5.742  0.7658  0.7599 -0.0933
 2369SOL    HW218744   4.682   0.724   5.864 -0.1520 -0.0511  0.1586
 2370SOL     OW18745   0.102   0.146   0.787 -0.1961 -0.3036 -1.0993
 2370SOL    HW118746   0.174   0.156   0.848 -0.4835 -0.9731 -0.6530
 2370SOL    HW218747   0.026   0.172   0.840 -0.5659 -1.0153 -1.2708
 2371SOL     OW18748   2.444   4.313   7.970  0.2861 -0.1672  0.0839
 2371SOL    HW118749   2.412   4.224   7.959  1.8370 -0.5067 -1.7437
 2371SOL    HW218750   2.370   4.368   7.945  1.7383  1.7893  0.0559
 2372SOL     OW18751   1.931   1.855  10.073  0.7332 -0.0862  0.0165
 2372SOL    HW118752   1.932   1.759  10.069  0.2313 -0.0713 -0.3869
 2372SOL    HW218753   1.884   1.865  10.156  0.9618  0.1426  0.1193
 2373SOL     OW18754   3.257   3.451   0.576 -0.0098 -0.8061  0.5245
 2373SOL    HW118755   3.196   3.503   0.628  0.5680 -0.4194  0.8178
 2373SOL    HW218756   3.300   3.522   0.528 -2.1976 -0.3415 -0.7456
 2374SOL     OW18757   4.001   2.058   5.718 -0.2868  0.2849  0.4324
 2374SOL    HW118758   3.918   2.072   5.764  0.3267  1.7442  1.0731
 2374SOL    HW218759   4.031   1.982   5.767  0.5730  0.6001  0.3980
 2375SOL     OW18760   4.009   4.254   9.023  0.1946  0.5656  0.2122
 2375SOL    HW118761   4.051   4.169   9.034 -0.5712 -0.0030 -1.1746
 2375SOL    HW218762   4.027   4.269   8.930 -2.5367  2.4424 -0.0266
 2376SOL     OW18763   3.841   3.464  16.707 -0.2994  0.5072  0.3958
 2376SOL    HW118764   3.861   3.558  16.715 -0.3937  0.5326  0.3374
 2376SOL    HW218765   3.874   3.451  16.618  0.4669  0.3482  0.6972
 2377SOL     OW18766   1.948   3.768   0.122 -0.1073  0.9682 -0.3952
 2377SOL    HW118767   1.925   3.716   0.045 -1.9131 -2.6961  2.5928
 2377SOL    HW218768   2.028   3.720   0.146 -2.1509 -2.1956  0.1363
 2378SOL     OW18769   0.099   3.242   3.397 -0.2122 -0.1706 -0.0404
 2378SOL    HW118770   0.155   3.286   3.332 -1.9913  1.2895 -0.5881
 2378SOL    HW218771   0.025   3.303   3.405 -0.5564 -0.3340 -1.8748
 2379SOL     OW18772   4.515   3.371   7.961 -0.3395  0.1710  0.1140
 2379SOL    HW118773   4.461   3.292   7.964  0.7182 -0.5692 -0.2193
 2379SOL    HW218774   4.464   3.432   7.908  2.7079  2.3964 -0.2374
 2380SOL     OW18775   1.591   0.531   8.187  0.1832  0.2691  0.4016
 2380SOL    HW118776   1.578   0.490   8.101 -1.1210  1.3806  0.0702
 2380SOL    HW218777   1.657   0.473   8.225 -0.5649  0.0173  1.3312
 2381SOL     OW18778   1.610   0.768   4.663 -0.3795 -0.5343 -0.0260
 2381SOL    HW118779   1.649   0.839   4.612  1.4319  0.4763  2.7659
 2381SOL    HW218780   1.551   0.817   4.721  0.1297 -0.3492  0.3405
 2382SOL     OW18781   2.538   3.265   1.098 -0.1432  0.0138  0.2101
 2382SOL    HW118782   2.444   3.253   1.106 -0.1279  0.1517  0.6212
 2382SOL    HW218783   2.548   3.349   1.143  0.4659 -0.6439  1.3204
 2383SOL     OW18784   3.495   0.920   6.846  0.4046 -0.2748  0.6279
 2383SOL    HW118785   3.566   0.942   6.907  1.0477  1.0164 -0.5606
 2383SOL    HW218786   3.536   0.849   6.797  1.7594 -0.5542  2.1281
 2384SOL     OW18787   1.675   2.390   3.548  0.4981 -0.3947  0.1692
 2384SOL    HW118788   1.742   2.457   3.534  1.3890 -1.1329  0.9140
 2384SOL    HW218789   1.603   2.419   3.491  1.0845  1.3403  0.3081
 2385SOL     OW18790   3.494   0.558   0.977  0.3063  0.7022 -0.1615
 2385SOL    HW118791   3.560   0.502   1.017  0.8949  2.1219  0.8571
 2385SOL    HW218792   3.537   0.639   0.949  0.3823  1.5520  2.4170
 2386SOL     OW18793   1.281   2.317   8.068 -0.2259  0.7841  0.1428
 2386SOL    HW118794   1.253   2.408   8.074  0.1469  0.9095 -0.0416
 2386SOL    HW218795   1.317   2.303   8.155  0.5057 -1.0747 -0.4578
 2387SOL     OW18796   1.516   1.012   9.253 -0.2366  0.0255  0.1633
 2387SOL    HW118797   1.534   1.082   9.190  1.3072  0.7338  1.3893
 2387SOL    HW218798   1.462   1.068   9.310  0.0887 -0.5338  1.0221
 2388SOL     OW18799   3.127   2.129   9.784  0.6713  0.1733 -0.0454
 2388SOL    HW118800   3.210   2.097   9.821 -0.1497 -0.5540  1.1520
 2388SOL    HW218801   3.141   2.138   9.689 -1.5952  0.0011 -0.3977
 2389SOL     OW18802   1.154   3.215   6.913  0.3519  0.1169  0.3365
 2389SOL    HW118803   1.184   3.198   6.823 -3.5473 -1.6844 -0.6412
 2389SOL    HW218804   1.152   3.136   6.967  0.7101 -0.3295 -0.2947
 2390SOL     OW18805   4.074   2.092   2.618 -0.2155 -0.3302 -0.1058
 2390SOL    HW118806   4.059   2.187   2.616 -1.4329 -0.5162  0.0348
 2390SOL    HW218807   4.076   2.081   2.713  1.9212  2.8508  0.2327
 2391SOL     OW18808   0.312   0.008  10.818 -0.1012  0.2346  0.1321
 2391SOL    HW118809   0.257   4.723  10.743  0.2299  0.1668 -0.0896
 2391SOL    HW218810   0.259   0.085  10.840 -1.7827 -1.0290  0.5174
 2392SOL     OW18811   1.787   2.391  13.381 -0.4028 -0.0544 -0.3240
 2392SOL    HW118812   1.779   2.296  13.376  1.0290 -0.2340  0.7773
 2392SOL    HW218813   1.776   2.412  13.288  0.5667 -2.2617 -0.9410
 2393SOL     OW18814   0.069   1.600  17.066  0.0703  0.2204  0.4795
 2393SOL    HW118815   4.731   1.645  17.029 -0.4723 -0.7305  0.4611
 2393SOL    HW218816   0.026   1.539  17.126 -1.1163  1.2381  0.6919
 2394SOL     OW18817   2.588   2.696  15.176  0.1636 -0.2536 -0.6297
 2394SOL    HW118818   2.591   2.723  15.084  0.3427 -0.3806 -0.6609
 2394SOL    HW218819   2.507   2.647  15.189  0.1579 -0.2213 -0.5455
 2395SOL     OW18820   3.411   1.945   4.593  0.0755 -0.4514  0.3073
 2395SOL    HW118821   3.426   1.918   4.502  1.2306  0.0668  0.3344
 2395SOL    HW218822   3.460   2.027   4.586 -3.1382  1.6084  2.4267
 2396SOL     OW18823   1.752   3.576   2.787  0.8799  0.2826 -0.2489
 2396SOL    HW118824   1.751   3.630   2.708 -2.4173 -0.0568 -0.4499
 2396SOL    HW218825   1.662   3.568   2.817  0.6157 -0.0664 -1.1227
 2397SOL     OW18826   0.730   2.504   3.401  0.1432  0.2222 -0.8472
 2397SOL    HW118827   0.647   2.460   3.385 -0.7659  1.0338  1.6302
 2397SOL    HW218828   0.723   2.584   3.349 -0.5192  0.6602 -0.0916
 2398SOL     OW18829   1.658   0.609   2.246 -0.0038  0.3760  0.3442
 2398SOL    HW118830   1.750   0.603   2.274 -0.6233 -3.1349  1.6489
 2398SOL    HW218831   1.658   0.542   2.178 -1.1842  3.1264 -2.3276
 2399SOL     OW18832   1.335   1.330  14.462  0.5351 -0.6304 -0.1390
 2399SOL    HW118833   1.301   1.345  14.550  1.5916 -0.3433  0.2209
 2399SOL    HW218834   1.251   1.330  14.416  0.8001 -0.0470 -0.6209
 2400SOL     OW18835   3.196   0.668   0.802  0.4350  0.7414  0.2018
 2400SOL    HW118836   3.121   0.678   0.744 -1.2219  0.3771  2.2519
 2400SOL    HW218837   3.176   0.739   0.863  2.9170 -0.0128  1.9187
 2401SOL     OW18838   3.522   1.270   6.875 -0.2139  0.8034  0.7332
 2401SOL    HW118839   3.522   1.178   6.902 -0.3024 -0.7143 -4.3391
 2401SOL    HW218840   3.535   1.325   6.952  0.1014 -0.7092  1.7543
 2402SOL     OW18841   1.000   3.357  14.450  0.0687 -0.0637 -0.1363
 2402SOL    HW118842   0.931   3.302  14.415 -0.5143  0.3477  0.3651
 2402SOL    HW218843   1.070   3.292  14.445  1.3463  1.3245 -0.3319
 2403SOL     OW18844   1.570   2.018   2.313  0.1979 -0.0368 -0.1218
 2403SOL    HW118845   1.625   2.001   2.390 -0.9322 -1.7860  0.3013
 2403SOL    HW218846   1.608   2.100   2.281  1.1501  0.2586  1.7420
 2404SOL     OW18847   3.641   3.577   5.425 -0.2258  0.4614  0.1221
 2404SOL    HW118848   3.628   3.499   5.479  0.7659 -0.0583 -0.4072
 2404SOL    HW218849   3.555   3.621   5.421 -0.7396 -0.4568  0.9823
 2405SOL     OW18850   2.406   2.520  15.191 -0.0187 -0.0238 -0.0855
 2405SOL    HW118851   2.361   2.450  15.144 -0.0052 -0.0780 -0.0179
 2405SOL    HW218852   2.411   2.492  15.282  0.1436  0.5723  0.0910
 2406SOL     OW18853   1.961   2.376   5.442 -0.2730 -0.4089  0.3868
 2406SOL    HW118854   1.896   2.447   5.443 -0.0725 -0.2339  0.9311
 2406SOL    HW218855   1.963   2.344   5.352  1.8262  2.8606 -0.7370
 2407SOL     OW18856   2.424   2.656   8.820  0.3890 -0.3146 -0.0808
 2407SOL    HW118857   2.366   2.646   8.745  1.5406  1.0797 -1.1566
 2407SOL    HW218858   2.493   2.602   8.782  1.0116 -0.5188  1.3160
 2408SOL     OW18859   0.192   4.369   8.117 -0.3818 -0.0367 -0.5713
 2408SOL    HW118860   0.173   4.434   8.185 -0.5124 -2.3115  1.5679
 2408SOL    HW218861   0.287   4.370   8.115 -0.3480  0.7562  1.3359
 2409SOL     OW18862   4.681   1.376   6.854 -0.4793  0.3135 -0.1577
 2409SOL    HW118863   4.656   1.430   6.929 -0.9295  0.2431 -0.2524
 2409SOL    HW218864   4.619   1.305   6.873 -0.0375 -0.2100 -0.6856
 2410SOL     OW18865   4.367   1.092   4.070 -0.1985  0.6716 -0.6321
 2410SOL    HW118866   4.378   1.128   3.982  0.9945 -0.2040 -0.8491
 2410SOL    HW218867   4.418   1.011   4.071 -0.0329  0.8700  4.2193
 2411SOL     OW18868   3.413   0.926  12.578  0.2073 -0.3016 -0.1747
 2411SOL    HW118869   3.379   1.012  12.554 -0.7190 -0.0661  1.9725
 2411SOL    HW218870   3.331   0.884  12.604 -0.1091 -0.4448 -1.4031
 2412SOL     OW18871   0.791   0.798   4.402  0.0076 -0.1529  0.6832
 2412SOL    HW118872   0.828   0.716   4.436  2.9399  1.4180  1.3071
 2412SOL    HW218873   0.745   0.830   4.479 -0.1456  0.7800  0.2104
 2413SOL     OW18874   1.096   1.904  10.409 -0.0585 -0.1116 -0.0786
 2413SOL    HW118875   1.132   1.923  10.496 -0.1536 -0.8918  0.1302
 2413SOL    HW218876   1.052   1.988  10.397 -1.7916 -1.0358 -0.1996
 2414SOL     OW18877   2.987   1.574   3.685 -0.2319 -0.0140  0.0664
 2414SOL    HW118878   2.945   1.488   3.694 -1.4970  0.5754 -0.1233
 2414SOL    HW218879   2.953   1.622   3.760 -0.0359  0.4867 -0.1647
 2415SOL     OW18880   1.884   0.742   4.162 -0.1809 -0.8327 -0.1211
 2415SOL    HW118881   1.925   0.758   4.247 -1.7439  0.6835  0.3459
 2415SOL    HW218882   1.795   0.724   4.191 -0.0848 -1.0923  0.0141
 2416SOL     OW18883   4.596   4.277  10.596 -0.4632 -0.4939 -0.2746
 2416SOL    HW118884   4.649   4.305  10.522 -1.5276 -1.9732 -1.6018
 2416SOL    HW218885   4.577   4.194  10.553 -0.3986 -0.4338 -0.4194
 2417SOL     OW18886   2.241   1.570  14.673 -0.4574 -0.2219  0.0581
 2417SOL    HW118887   2.318   1.616  14.707  2.1674 -3.3157 -1.7012
 2417SOL    HW218888   2.201   1.560  14.760 -0.0155  3.6467  0.7305
 2418SOL     OW18889   2.292   1.477   0.480 -0.3698  0.4539  0.1816
 2418SOL    HW118890   2.269   1.392   0.442  1.0388 -1.8968  4.4379
 2418SOL    HW218891   2.202   1.499   0.503  0.1580  1.7130  1.0281
 2419SOL     OW18892   0.561   1.767  15.366  0.4603  0.0780 -0.3489
 2419SOL    HW118893   0.574   1.733  15.277 -0.1765 -1.7249  0.2305
 2419SOL    HW218894   0.643   1.740  15.407  2.6716  0.8901 -4.2614
 2420SOL     OW18895   4.002   3.090  16.570  0.4586  0.2325  0.7057
 2420SOL    HW118896   3.908   3.101  16.576  0.3741  1.2529 -2.2764
 2420SOL    HW218897   4.027   3.132  16.653  0.8744 -0.8696  1.1380
 2421SOL     OW18898   1.059   2.691   9.833  0.2139 -0.1351  0.1882
 2421SOL    HW118899   1.079   2.622   9.897  0.2798 -0.6344 -0.3649
 2421SOL    HW218900   1.032   2.630   9.764  5.0904 -1.0425 -0.9987
 2422SOL     OW18901   3.005   2.632   9.538  0.1690 -0.4598 -0.9445
 2422SOL    HW118902   2.970   2.623   9.449  0.3792  0.7873 -1.1451
 2422SOL    HW218903   3.046   2.546   9.543  0.9090  0.1653  3.6045
 2423SOL     OW18904   0.196   4.068   5.839 -0.3057  0.0357  0.0082
 2423SOL    HW118905   0.251   4.122   5.896  0.5445  0.5437 -1.2753
 2423SOL    HW218906   0.247   4.067   5.758  2.2256 -0.0908  1.6050
 2424SOL     OW18907   2.030   3.886   6.483  0.1561  0.0630 -0.3152
 2424SOL    HW118908   2.094   3.815   6.484 -0.3391 -0.3898 -0.5310
 2424SOL    HW218909   1.965   3.866   6.415 -0.9043 -2.0693  1.3297
 2425SOL     OW18910   2.490   2.361   1.797 -0.2543  0.5215 -0.0610
 2425SOL    HW118911   2.456   2.284   1.841 -0.4760  0.5336 -0.2069
 2425SOL    HW218912   2.540   2.324   1.724  0.1309  2.9630 -1.0503
 2426SOL     OW18913   0.451   1.973   2.073 -0.5048 -0.1377 -0.2677
 2426SOL    HW118914   0.446   2.062   2.038  0.5037 -0.5433 -1.4412
 2426SOL    HW218915   0.513   1.938   2.009  0.7653  1.1747  0.2318
 2427SOL     OW18916   1.655   2.831   2.009 -0.4709  0.0503  0.2424
 2427SOL    HW118917   1.687   2.849   1.921 -0.3358 -0.3198  0.2168
 2427SOL    HW218918   1.722   2.874   2.063 -0.1979 -0.4635  0.3099
 2428SOL     OW18919   0.196   0.995  10.998  0.0716  0.4885 -0.1060
 2428SOL    HW118920   0.223   1.002  11.089 -0.5180 -1.6873  0.2403
 2428SOL    HW218921   0.122   0.934  10.999  0.0949  0.4458 -0.7341
 2429SOL     OW18922   2.895   2.179  13.876 -0.0676 -0.7926  0.2447
 2429SOL    HW118923   2.981   2.139  13.879  0.2137 -0.3324 -1.5237
 2429SOL    HW218924   2.926   2.265  13.904  0.5074 -1.8014  2.6943
 2430SOL     OW18925   2.240   4.174   4.461  0.2229  0.7399 -0.8419
 2430SOL    HW118926   2.157   4.133   4.482 -0.3646  2.2751 -0.1329
 2430SOL    HW218927   2.278   4.147   4.545 -2.4593 -0.3922  0.0093
 2431SOL     OW18928   0.913   3.981  11.909 -0.2247  0.2894 -0.5175
 2431SOL    HW118929   0.900   3.956  11.817  2.0399 -0.8860 -0.5109
 2431SOL    HW218930   0.824   4.016  11.917  0.3525  1.7272 -0.3643
 2432SOL     OW18931   1.031   4.393   7.440 -0.4272 -0.3690 -0.2838
 2432SOL    HW118932   1.105   4.436   7.399  1.3161 -0.9458  2.2391
 2432SOL    HW218933   0.957   4.438   7.399 -0.8210  0.2914  1.1688
 2433SOL     OW18934   2.510   1.485   6.676  0.2492  0.0425 -0.7979
 2433SOL    HW118935   2.561   1.566   6.673 -2.2469  1.5696 -2.0920
 2433SOL    HW218936   2.428   1.526   6.704  0.5517 -1.0959  1.7236
 2434SOL     OW18937   1.744   2.971   3.741 -0.4659 -0.1885  0.0255
 2434SOL    HW118938   1.737   2.878   3.761  1.0519 -0.7040 -1.9009
 2434SOL    HW218939   1.802   2.970   3.665 -0.0505  1.4495  0.3196
 2435SOL     OW18940   2.772   3.553  10.445 -0.2376  0.2117  0.1027
 2435SOL    HW118941   2.850   3.519  10.402 -0.5521  1.8035 -1.7340
 2435SOL    HW218942   2.724   3.581  10.367 -0.3316  0.7804  0.3612
 2436SOL     OW18943   2.968   0.254  10.603  0.0941 -0.6132 -0.1223
 2436SOL    HW118944   2.892   0.201  10.628  0.3480 -0.6711  0.5199
 2436SOL    HW218945   3.032   0.183  10.589  1.4368  1.1029 -2.6676
 2437SOL     OW18946   1.133   0.712   1.621 -0.0810  0.2837 -0.3495
 2437SOL    HW118947   1.185   0.792   1.620  1.3820 -0.7314 -3.1768
 2437SOL    HW218948   1.048   0.738   1.657 -0.5812 -2.3080  0.3452
 2438SOL     OW18949   0.248   0.857   6.443  0.5153  0.2047  0.6652
 2438SOL    HW118950   0.302   0.778   6.450 -1.0072 -1.1763 -3.2355
 2438SOL    HW218951   0.225   0.851   6.350 -1.3295  0.4691  1.1055
 2439SOL     OW18952   3.191   2.303  10.032 -0.2210  0.4044  0.4348
 2439SOL    HW118953   3.215   2.240   9.965  1.0999 -0.5743  1.8291
 2439SOL    HW218954   3.280   2.335  10.046  0.2271 -0.8656  0.5158
 2440SOL     OW18955   3.072   2.465   1.786 -0.0042  0.3353  0.1362
 2440SOL    HW118956   3.121   2.384   1.770 -0.7281  0.0641 -0.7062
 2440SOL    HW218957   3.099   2.512   1.708  1.5704 -2.4600 -1.0117
 2441SOL     OW18958   3.037   2.844   2.867 -0.0141  0.1016 -0.1622
 2441SOL    HW118959   3.062   2.756   2.839 -1.1867 -0.0447 -0.7367
 2441SOL    HW218960   3.105   2.897   2.826 -2.0184  1.3294 -1.9006
 2442SOL     OW18961   1.517   4.663   5.152  0.1362 -0.1770  0.1702
 2442SOL    HW118962   1.521   4.630   5.242  3.0406  0.0489  0.1288
 2442SOL    HW218963   1.548   4.591   5.097  0.4040  0.4403 -0.4906
 2443SOL     OW18964   0.529   3.510  16.805 -0.9487  0.0244  0.0926
 2443SOL    HW118965   0.549   3.466  16.723 -0.9314 -2.1059  1.2375
 2443SOL    HW218966   0.602   3.476  16.858 -0.8138 -2.2040 -1.5251
 2444SOL     OW18967   0.874   4.039  17.322 -0.3259  0.2184  0.2731
 2444SOL    HW118968   0.946   4.037  17.385 -0.0778 -2.3061 -0.0783
 2444SOL    HW218969   0.918   4.031  17.237  1.7829  1.1166  1.2853
 2445SOL     OW18970   1.636   0.712   2.630 -0.7230 -0.2505  0.1142
 2445SOL    HW118971   1.686   0.772   2.576 -0.9346 -1.8947 -1.8887
 2445SOL    HW218972   1.699   0.639   2.635 -0.3421  0.1068  0.5817
 2446SOL     OW18973   0.776   2.859   2.971 -0.4122 -0.1922  0.3127
 2446SOL    HW118974   0.809   2.939   3.012 -0.3739  0.1324 -0.3591
 2446SOL    HW218975   0.788   2.806   3.050 -1.4453  0.1945  0.7249
 2447SOL     OW18976   0.745   1.176   5.153  0.0895 -0.0732  0.4201
 2447SOL    HW118977   0.671   1.121   5.130 -1.0055  1.4824  0.2138
 2447SOL    HW218978   0.703   1.248   5.200 -1.2534 -0.1383 -0.6993
 2448SOL     OW18979   4.545   1.138   6.631 -0.2877 -0.5136 -0.4705
 2448SOL    HW118980   4.615   1.127   6.695 -1.8558 -2.6091  0.8639
 2448SOL    HW218981   4.513   1.048   6.634 -0.4681 -0.5167 -2.1964
 2449SOL     OW18982   3.019   0.787   2.996 -0.3949 -0.3231  0.7622
 2449SOL    HW118983   3.102   0.790   3.042  0.0555  0.6251 -0.1124
 2449SOL    HW218984   2.965   0.737   3.057  0.0026 -0.7052  0.8016
 2450SOL     OW18985   4.713   4.145   0.751  0.4935 -0.2204  0.1695
 2450SOL    HW118986   4.659   4.072   0.722  0.4927  0.4771 -1.5674
 2450SOL    HW218987   4.669   4.228   0.730 -1.2001 -0.7921  1.4843
 2451SOL     OW18988   4.324   4.188   2.082 -0.2279 -0.5047 -0.1887
 2451SOL    HW118989   4.289   4.116   2.134  0.8125 -0.4893  0.5460
 2451SOL    HW218990   4.246   4.212   2.032 -0.9777 -0.6794  0.9021
 2452SOL     OW18991   1.676   3.519   4.158 -0.4103  0.3868  0.4775
 2452SOL    HW118992   1.698   3.573   4.082  1.0449  1.6019  1.7725
 2452SOL    HW218993   1.584   3.545   4.167 -0.1460  1.0628  1.2250
 2453SOL     OW18994   2.219   4.355   1.449  0.1335 -0.4522  0.2080
 2453SOL    HW118995   2.276   4.408   1.504 -2.4540  2.0169  0.4903
 2453SOL    HW218996   2.138   4.406   1.446 -0.9690 -2.0049  3.6225
 2454SOL     OW18997   1.918   0.515  10.189  0.0179 -0.6992 -0.3536
 2454SOL    HW118998   1.829   0.496  10.220  0.8297 -1.1960  1.6439
 2454SOL    HW218999   1.907   0.578  10.117 -1.5217 -1.7386 -1.0352
 2455SOL     OW19000   4.643   3.098   1.908 -0.1659  0.1896  0.5681
 2455SOL    HW119001   4.565   3.104   1.963 -0.5437 -2.1248  0.3109
 2455SOL    HW219002   4.694   3.037   1.962 -0.0525 -0.0479  0.1928
 2456SOL     OW19003   3.624   0.961   7.088 -0.3605 -0.2215  0.3476
 2456SOL    HW119004   3.702   1.016   7.076 -1.8402  2.0086  0.9141
 2456SOL    HW219005   3.588   1.004   7.166  1.2167 -0.1408  1.0412
 2457SOL     OW19006   3.743   3.122  16.579 -0.1272 -0.0576 -0.0625
 2457SOL    HW119007   3.666   3.176  16.598 -0.7751 -1.6764  1.9036
 2457SOL    HW219008   3.713   3.034  16.554  0.5101 -0.7448  1.6047
 2458SOL     OW19009   4.551   3.484   1.542 -0.8249 -0.0368 -0.3542
 2458SOL    HW119010   4.624   3.501   1.602  0.6512 -1.4203 -1.7553
 2458SOL    HW219011   4.495   3.440   1.606 -1.0068  0.6458 -0.0444
 2459SOL     OW19012   3.026   2.975  14.952  0.5826  0.2081 -0.0117
 2459SOL    HW119013   3.100   2.944  15.005  0.7417  1.4329  0.4836
 2459SOL    HW219014   2.994   3.060  14.982 -0.1619  1.0895 -3.3199
 2460SOL     OW19015   1.695   3.021   0.188 -0.3615 -0.2987  0.2446
 2460SOL    HW119016   1.666   2.971   0.264  0.4710  1.0975  1.4727
 2460SOL    HW219017   1.617   3.076   0.183  1.9516  3.0720  1.3630
 2461SOL     OW19018   3.947   4.234   3.392 -0.2679 -0.1899 -0.4556
 2461SOL    HW119019   4.036   4.250   3.421 -0.8194 -0.4221  1.3528
 2461SOL    HW219020   3.971   4.222   3.300 -0.3385 -0.3038 -0.4587
 2462SOL     OW19021   3.709   0.022   8.716  0.6450 -0.3014  0.0174
 2462SOL    HW119022   3.643   4.709   8.764  0.4146  0.5520  0.6201
 2462SOL    HW219023   3.685   0.011   8.624  0.3592  2.2253 -0.2047
 2463SOL     OW19024   4.346   2.063   9.277  0.2937 -0.0462 -0.6931
 2463SOL    HW119025   4.292   1.994   9.240 -2.5845  2.0863 -0.4652
 2463SOL    HW219026   4.419   2.077   9.217  0.7174 -0.7986 -0.3530
 2464SOL     OW19027   1.900   4.346   9.180 -0.1199 -0.5369  0.4759
 2464SOL    HW119028   1.873   4.254   9.180  0.6956 -0.7760  0.4672
 2464SOL    HW219029   1.890   4.364   9.274  2.6410 -1.2295  0.9073
 2465SOL     OW19030   2.624   1.789   4.714  0.0879  0.4839 -0.5165
 2465SOL    HW119031   2.691   1.727   4.744 -0.0277  0.5358 -0.1444
 2465SOL    HW219032   2.569   1.729   4.665  1.6359  0.4734 -2.2419
 2466SOL     OW19033   4.232   4.112   7.656  0.0330  0.1250 -0.1055
 2466SOL    HW119034   4.321   4.125   7.689  0.7125  0.4486 -2.1103
 2466SOL    HW219035   4.250   4.090   7.565 -1.6410 -0.3092 -0.3249
 2467SOL     OW19036   2.098   2.063   5.239 -0.3488  0.4370 -0.0782
 2467SOL    HW119037   2.046   2.140   5.216 -2.4379 -0.3422  2.1187
 2467SOL    HW219038   2.163   2.061   5.168 -0.9083  0.7476 -0.5997
 2468SOL     OW19039   4.120   2.913   3.196 -0.4564 -0.5794 -0.6497
 2468SOL    HW119040   4.061   2.986   3.175 -1.2276 -0.2343  2.7673
 2468SOL    HW219041   4.060   2.840   3.181 -1.5836  0.1535  0.3133
 2469SOL     OW19042   1.273   3.498   5.751  0.0543 -0.3510 -0.8108
 2469SOL    HW119043   1.276   3.513   5.657 -0.6053  1.6263 -0.5075
 2469SOL    HW219044   1.207   3.428   5.746 -0.5891  0.2123 -0.2296
 2470SOL     OW19045   2.527   0.716  13.163 -0.0181 -0.0492 -0.5173
 2470SOL    HW119046   2.593   0.764  13.112 -0.8303 -0.2107 -1.7360
 2470SOL    HW219047   2.569   0.630  13.172 -1.0688 -0.6172 -1.1200
 2471SOL     OW19048   0.284   2.106  14.515 -0.4493  0.4690 -0.2358
 2471SOL    HW119049   0.201   2.154  14.522  0.2604  1.5989  0.2409
 2471SOL    HW219050   0.258   2.020  14.548  1.0393  0.1442  0.0570
 2472SOL     OW19051   4.436   2.995   9.296 -0.1324  0.2798  0.0086
 2472SOL    HW119052   4.360   2.975   9.350  1.5825 -2.2828  1.4724
 2472SOL    HW219053   4.439   3.090   9.313  1.9109  0.0119  1.1954
 2473SOL     OW19054   3.521   4.361   1.594 -0.5492  0.2004 -0.4938
 2473SOL    HW119055   3.576   4.287   1.569  0.0818  0.2912  0.5979
 2473SOL    HW219056   3.446   4.324   1.640  1.0399  0.2765  2.1946
 2474SOL     OW19057   1.194   4.716  17.466  0.2179  0.0626  0.4536
 2474SOL    HW119058   1.135   4.713  17.542  0.0263  0.4462  0.3168
 2474SOL    HW219059   1.255   0.042  17.501 -0.5811  0.8178  0.4506
 2475SOL     OW19060   4.082   3.934  11.907 -0.9605  0.4624 -0.0226
 2475SOL    HW119061   4.056   3.887  11.827  1.1378  0.5916 -0.7797
 2475SOL    HW219062   4.069   4.023  11.873 -3.9447  0.5911  1.4757
 2476SOL     OW19063   3.856   0.201   9.306  0.2532  0.1779 -0.0972
 2476SOL    HW119064   3.876   0.112   9.275  1.9649 -0.4127  2.7218
 2476SOL    HW219065   3.860   0.253   9.225  0.2833  0.5519  0.1445
 2477SOL     OW19066   3.965   4.634   7.678 -0.2626 -0.3724 -0.2126
 2477SOL    HW119067   3.996   4.659   7.591 -1.8852 -1.4386 -1.0959
 2477SOL    HW219068   3.916   4.554   7.661 -0.3140 -0.9422  2.5116
 2478SOL     OW19069   3.018   3.058   5.153  0.2121 -0.1910 -0.3061
 2478SOL    HW119070   3.067   3.029   5.076  0.6001  0.8513 -0.4517
 2478SOL    HW219071   3.066   3.012   5.222 -0.2800 -0.8094 -0.3678
 2479SOL     OW19072   2.283   3.423   8.667 -0.4553 -0.4947 -0.3451
 2479SOL    HW119073   2.355   3.372   8.628 -0.5734 -2.0423  1.4430
 2479SOL    HW219074   2.345   3.488   8.700 -2.0856  0.7558  0.1856
 2480SOL     OW19075   1.961   2.458  14.944 -0.2226 -0.3762 -0.1868
 2480SOL    HW119076   1.919   2.513  15.010  1.2829 -1.9043  2.0497
 2480SOL    HW219077   1.886   2.401  14.924  0.8424 -1.8653  0.1048
 2481SOL     OW19078   1.914   0.947  16.186  0.0927 -0.2190 -0.1248
 2481SOL    HW119079   2.003   0.959  16.152  0.3655 -0.4823  0.4897
 2481SOL    HW219080   1.907   1.029  16.236 -0.6805 -0.8746  0.8393
 2482SOL     OW19081   3.824   3.363  16.964  0.3962 -0.1493 -0.3356
 2482SOL    HW119082   3.740   3.316  16.956 -0.8734  2.2170 -0.9084
 2482SOL    HW219083   3.840   3.392  16.875 -0.1256  0.1874 -0.3210
 2483SOL     OW19084   3.362   4.153   9.631  0.0675 -0.3636 -0.4831
 2483SOL    HW119085   3.418   4.224   9.600 -1.7372  1.1686 -0.2363
 2483SOL    HW219086   3.296   4.203   9.677  2.5168  0.1358  2.4412
 2484SOL     OW19087   0.272   3.310   6.870 -0.5905 -0.1673  0.1914
 2484SOL    HW119088   0.338   3.243   6.855 -0.1059  0.2350  0.5211
 2484SOL    HW219089   0.314   3.389   6.835 -0.2817 -0.0869  0.7375
 2485SOL     OW19090   0.930   1.542  16.418 -0.9729  0.5356 -0.6635
 2485SOL    HW119091   0.896   1.496  16.341 -2.1880 -0.4048  0.4191
 2485SOL    HW219092   0.855   1.598  16.437 -1.3752 -0.1772 -0.1409
 2486SOL     OW19093   4.054   3.170  16.830  0.2628  0.1157  0.4267
 2486SOL    HW119094   4.038   3.167  16.924 -1.2418 -0.0743  0.1580
 2486SOL    HW219095   4.108   3.248  16.818 -0.2241  0.4743  0.5596
 2487SOL     OW19096   3.165   2.896   8.795 -0.3160  0.4395 -0.4330
 2487SOL    HW119097   3.182   2.815   8.746 -0.7932  0.7632 -1.1213
 2487SOL    HW219098   3.252   2.912   8.832  0.5968 -2.1818 -1.4157
 2488SOL     OW19099   0.586   1.743   9.569  0.2001  0.3381  0.0436
 2488SOL    HW119100   0.606   1.652   9.549 -1.4647 -0.2035  0.8295
 2488SOL    HW219101   0.593   1.749   9.664  1.8093  1.0533 -0.1181
 2489SOL     OW19102   0.583   2.008   6.811 -0.0978  0.1376  0.1832
 2489SOL    HW119103   0.567   1.918   6.840 -2.2592 -0.4293 -2.7827
 2489SOL    HW219104   0.631   1.994   6.729  2.6082  3.6007  1.1397
 2490SOL     OW19105   2.534   1.523   6.227  0.4235 -0.0809 -0.4056
 2490SOL    HW119106   2.481   1.573   6.288  0.4746  1.3270 -1.4951
 2490SOL    HW219107   2.610   1.580   6.216 -0.6618  1.4110 -0.0667
 2491SOL     OW19108   1.388   0.476   8.430 -0.3435  0.4688  0.6920
 2491SOL    HW119109   1.458   0.427   8.475  0.1948  0.8391  0.2581
 2491SOL    HW219110   1.442   0.547   8.394  0.3793 -0.5479 -0.2620
 2492SOL     OW19111   2.391   3.906   9.547  0.2374 -0.3841 -0.6644
 2492SOL    HW119112   2.414   3.813   9.542  0.9057 -0.2393 -0.3614
 2492SOL    HW219113   2.303   3.910   9.511 -0.9567  1.3678  2.4585
 2493SOL     OW19114   2.713   2.769  14.470 -0.0316  0.9410  0.5534
 2493SOL    HW119115   2.804   2.741  14.468 -0.1981  0.3047  1.7201
 2493SOL    HW219116   2.700   2.807  14.383  0.9581 -0.4941 -0.2213
 2494SOL     OW19117   4.035   0.083   5.521  0.1001  0.0855  0.1125
 2494SOL    HW119118   4.050   0.013   5.585  1.1235  1.7323  1.6972
 2494SOL    HW219119   4.123   0.103   5.491 -0.2343 -1.6683 -2.0385
 2495SOL     OW19120   3.187   2.788   6.223 -0.5707 -0.4113  0.2861
 2495SOL    HW119121   3.253   2.821   6.285 -1.6926 -1.9050  2.2995
 2495SOL    HW219122   3.233   2.708   6.200 -1.6780 -0.6296 -1.1635
 2496SOL     OW19123   3.610   2.009   8.921 -0.1400  0.1479 -0.1014
 2496SOL    HW119124   3.542   1.969   8.976  0.4377  2.3964  2.2472
 2496SOL    HW219125   3.614   2.098   8.955  1.4372  0.0614 -0.0457
 2497SOL     OW19126   0.927   2.254   5.750  0.3585 -0.7132  0.0679
 2497SOL    HW119127   0.914   2.347   5.769  2.7401 -0.6052  1.1725
 2497SOL    HW219128   0.952   2.264   5.658  3.0378 -0.0045  0.8818
 2498SOL     OW19129   2.086   0.074   7.043  0.6788  0.3499  0.2982
 2498SOL    HW119130   2.083   0.169   7.038 -2.2551  0.1497 -1.7461
 2498SOL    HW219131   2.054   0.040   6.959 -1.0567  1.3494  0.5645
 2499SOL     OW19132   0.729   1.572   5.015 -0.9504 -0.1237 -1.0415
 2499SOL    HW119133   0.640   1.587   5.046 -1.6982  1.4788 -4.0091
 2499SOL    HW219134   0.767   1.626   5.084 -0.0043  1.6105 -2.9125
 2500SOL     OW19135   1.992   1.049   1.236  0.1964 -0.5383 -0.4326
 2500SOL    HW119136   2.046   1.127   1.237  0.8836 -1.0285  0.3310
 2500SOL    HW219137   2.018   0.998   1.313 -2.7229 -1.0364  0.2254
 2501SOL     OW19138   3.595   0.178   1.477 -0.5418 -0.2146 -0.0226
 2501SOL    HW119139   3.627   0.259   1.517 -0.4707 -0.7061  0.9142
 2501SOL    HW219140   3.676   0.142   1.441  0.3205  2.1346 -0.4798
 2502SOL     OW19141   0.572   4.258   7.388 -0.5983 -0.0312  0.1389
 2502SOL    HW119142   0.547   4.227   7.476 -0.6533 -1.5819 -0.4292
 2502SOL    HW219143   0.568   4.353   7.401 -1.0958 -0.5376  3.7084
 2503SOL     OW19144   2.665   0.455   4.196  0.6110  0.2281  0.0275
 2503SOL    HW119145   2.584   0.485   4.154 -0.1050  0.3357  1.4856
 2503SOL    HW219146   2.638   0.456   4.288  0.3469  1.5331 -0.0701
 2504SOL     OW19147   2.335   3.951  13.954 -0.1187  0.0318  0.2869
 2504SOL    HW119148   2.327   4.032  14.005  0.1167  1.6564 -2.2457
 2504SOL    HW219149   2.389   3.894  14.009 -0.7437 -0.4732  0.3785
 2505SOL     OW19150   1.840   4.263   4.223 -0.1687  0.1004 -0.1971
 2505SOL    HW119151   1.904   4.311   4.276 -1.7059 -0.9685  2.5916
 2505SOL    HW219152   1.763   4.319   4.220 -0.7726 -0.7218 -0.2383
 2506SOL     OW19153   1.906   3.941  17.443 -0.1874 -0.6543 -0.7396
 2506SOL    HW119154   1.862   3.859  17.463  1.1646 -1.4817 -1.1655
 2506SOL    HW219155   1.998   3.918  17.427 -0.0610  0.9858 -2.4100
 2507SOL     OW19156   4.246   4.487  11.449 -0.0858 -0.2782  0.3491
 2507SOL    HW119157   4.303   4.478  11.373  0.3689 -2.1384  0.9177
 2507SOL    HW219158   4.174   4.540  11.415  0.3437 -0.5682 -0.9723
 2508SOL     OW19159   4.012   3.700   7.651  0.0508  0.6971  0.0613
 2508SOL    HW119160   4.001   3.786   7.691  1.9156  1.3339 -0.8167
 2508SOL    HW219161   4.012   3.725   7.558  0.3222  1.0107  0.1492
 2509SOL     OW19162   3.870   0.351   6.773 -0.5406 -0.0606 -0.2029
 2509SOL    HW119163   3.941   0.391   6.724  0.6414  0.5230  1.9979
 2509SOL    HW219164   3.849   0.272   6.723 -0.5259 -0.1576 -0.0550
 2510SOL     OW19165   1.249   2.100  14.251 -0.4889 -0.7228  0.2020
 2510SOL    HW119166   1.306   2.159  14.202  0.3726 -2.5270 -0.9527
 2510SOL    HW219167   1.247   2.144  14.336 -0.2568  2.7777 -1.6076
 2511SOL     OW19168   4.161   0.978   6.670  0.5706 -0.7099  0.1127
 2511SOL    HW119169   4.141   0.885   6.679 -0.9890 -0.4879 -1.0913
 2511SOL    HW219170   4.073   1.014   6.669  0.3275 -1.3193 -0.8565
 2512SOL     OW19171   3.729   2.324   6.664  0.3296  0.5433 -0.0880
 2512SOL    HW119172   3.672   2.320   6.740  1.4630  3.9458  0.9481
 2512SOL    HW219173   3.760   2.234   6.664 -2.2512 -0.3273 -0.8760
 2513SOL     OW19174   1.877   1.721   7.780  0.6862  0.2223  0.6399
 2513SOL    HW119175   1.825   1.756   7.708  0.1863 -2.1071 -0.1435
 2513SOL    HW219176   1.862   1.792   7.842  0.3153 -0.5499  1.4280
 2514SOL     OW19177   1.510   0.013   5.977 -0.1376 -0.4653  0.7764
 2514SOL    HW119178   1.492   0.071   6.051 -1.7698 -1.6122  1.2680
 2514SOL    HW219179   1.578   4.694   6.012  1.7918  0.6251 -1.2381
 2515SOL     OW19180   0.603   1.603   8.238 -0.0117 -0.8079 -0.3776
 2515SOL    HW119181   0.553   1.666   8.186  1.6998  0.1510 -0.8317
 2515SOL    HW219182   0.597   1.525   8.182 -0.9897  1.0286 -2.8377
 2516SOL     OW19183   2.752   3.891   2.602 -0.2593 -0.3100 -0.6459
 2516SOL    HW119184   2.773   3.810   2.648 -1.0179  0.9067  1.8133
 2516SOL    HW219185   2.826   3.946   2.630  0.3079 -0.5575 -1.6449
 2517SOL     OW19186   3.637   2.549   5.643  0.0161  0.5117 -0.8135
 2517SOL    HW119187   3.633   2.589   5.729 -1.5993  0.7902 -1.0196
 2517SOL    HW219188   3.608   2.622   5.588  1.5924  0.8133 -1.2457
 2518SOL     OW19189   1.725   3.839   2.033 -0.0487 -0.0931 -1.1937
 2518SOL    HW119190   1.689   3.814   2.118 -1.7739  0.2276 -1.8213
 2518SOL    HW219191   1.751   3.930   2.044 -1.2506  0.1515 -0.4191
 2519SOL     OW19192   4.039   2.904   8.341  0.0599 -0.1919 -0.1797
 2519SOL    HW119193   4.000   2.938   8.421  0.0416 -2.6302  0.8457
 2519SOL    HW219194   4.058   2.978   8.283  2.7971 -0.7275  0.0320
 2520SOL     OW19195   4.132   2.648  10.282 -0.2725 -0.0047 -0.1441
 2520SOL    HW119196   4.195   2.605  10.223  1.0584  2.3424 -0.4541
 2520SOL    HW219197   4.190   2.685  10.349 -0.4358  1.2271 -0.6761
 2521SOL     OW19198   0.617   0.515   8.772 -0.4307 -0.4162  0.0439
 2521SOL    HW119199   0.642   0.497   8.862 -1.3938  1.3991  0.6690
 2521SOL    HW219200   0.676   0.452   8.730 -2.1351 -1.3399 -0.9760
 2522SOL     OW19201   2.455   2.502   0.509 -0.3570  0.1539 -0.5482
 2522SOL    HW119202   2.547   2.514   0.485 -0.6824  1.2697 -1.2506
 2522SOL    HW219203   2.418   2.579   0.466 -0.0872  0.4187 -0.3011
 2523SOL     OW19204   0.884   0.073   3.901 -0.5544  0.6214  0.2245
 2523SOL    HW119205   0.926   0.083   3.987 -0.8258  4.0003 -0.0427
 2523SOL    HW219206   0.960   0.038   3.854 -0.5436 -1.5432  1.8374
 2524SOL     OW19207   0.599   3.253   4.689  0.0413 -0.4927 -0.0541
 2524SOL    HW119208   0.625   3.162   4.671  0.2416 -0.2631 -0.9097
 2524SOL    HW219209   0.670   3.300   4.646  0.1496 -1.6826 -1.2172
 2525SOL     OW19210   3.411   1.219  10.517 -0.0200  0.2505 -0.3278
 2525SOL    HW119211   3.344   1.182  10.574 -0.7434  1.9442 -0.0823
 2525SOL    HW219212   3.492   1.187  10.557  0.3039 -1.0414 -2.0243
 2526SOL     OW19213   1.222   3.216   1.080 -0.0853  0.2429  0.0442
 2526SOL    HW119214   1.221   3.240   0.987  0.3671 -0.6784 -0.1983
 2526SOL    HW219215   1.300   3.263   1.108 -0.9442  2.0548 -0.5646
 2527SOL     OW19216   0.900   2.973  15.408  0.1708 -0.3215 -0.4400
 2527SOL    HW119217   0.906   2.963  15.313  0.5335  0.1209 -0.4667
 2527SOL    HW219218   0.973   3.034  15.423  0.2900 -0.7842  0.8592
 2528SOL     OW19219   4.474   1.001   6.329  0.0753  0.2020 -0.2400
 2528SOL    HW119220   4.493   0.920   6.375  3.5314  0.7278 -0.7549
 2528SOL    HW219221   4.389   1.023   6.367  0.2919 -0.0635  0.3779
 2529SOL     OW19222   1.299   3.539  12.172 -0.3507 -0.4155 -0.4713
 2529SOL    HW119223   1.302   3.571  12.262 -0.5435  0.4257 -0.7614
 2529SOL    HW219224   1.318   3.446  12.181  0.4818 -0.2754 -0.7459
 2530SOL     OW19225   3.834   0.166   3.200  0.0146  0.7023  0.1638
 2530SOL    HW119226   3.907   0.106   3.218  0.5340  0.8692 -1.4157
 2530SOL    HW219227   3.879   0.249   3.217 -1.9721  1.7391  0.3766
 2531SOL     OW19228   1.331   0.574   3.121  0.0738 -0.7243  0.1926
 2531SOL    HW119229   1.394   0.554   3.052 -0.6265  1.6751 -1.1329
 2531SOL    HW219230   1.281   0.640   3.074  0.7250 -0.6890 -0.4536
 2532SOL     OW19231   0.346   2.787   2.624  0.3229 -0.1405 -0.1994
 2532SOL    HW119232   0.300   2.870   2.617  0.9886  0.0779 -2.2115
 2532SOL    HW219233   0.396   2.806   2.703  0.6812 -3.1687  0.2840
 2533SOL     OW19234   1.867   1.442   3.681  0.2256 -0.2602 -0.0855
 2533SOL    HW119235   1.946   1.481   3.719 -0.5787 -1.2466  2.5578
 2533SOL    HW219236   1.893   1.360   3.639  2.3274  0.9804 -1.2265
 2534SOL     OW19237   4.733   1.092  17.251  0.1625 -0.3318  0.1559
 2534SOL    HW119238   0.043   1.115  17.330  0.2014 -1.7143  0.5368
 2534SOL    HW219239   4.664   1.157  17.243 -1.5678 -2.2419 -0.2865
 2535SOL     OW19240   1.069   2.139   5.530 -0.1842 -0.0275  0.0120
 2535SOL    HW119241   1.014   2.072   5.572 -1.2674  0.8759  0.0309
 2535SOL    HW219242   1.158   2.105   5.538  0.8264  2.9799  1.4144
 2536SOL     OW19243   4.687   2.710  17.619  0.6908 -0.0947  0.2237
 2536SOL    HW119244   0.030   2.718  17.570  0.6473  1.1795  0.3640
 2536SOL    HW219245   4.673   2.799  17.651  1.0634  0.7995 -2.1382
 2537SOL     OW19246   4.272   4.508   7.550 -0.7668 -0.2326 -0.1244
 2537SOL    HW119247   4.296   4.579   7.609  1.0163 -0.8680 -0.0955
 2537SOL    HW219248   4.189   4.481   7.591 -0.3684 -0.3448  0.6004
 2538SOL     OW19249   0.272   2.536  13.721  0.3319 -0.6577 -0.6454
 2538SOL    HW119250   0.195   2.570  13.767  0.1249  0.5015 -1.8363
 2538SOL    HW219251   0.237   2.451  13.695 -0.9605 -0.8447  1.7191
 2539SOL     OW19252   3.326   4.193   7.364 -0.1354 -0.6507 -0.7818
 2539SOL    HW119253   3.340   4.288   7.362  1.3877 -0.8614  0.1647
 2539SOL    HW219254   3.296   4.182   7.454  1.8740 -0.0646 -0.0424
 2540SOL     OW19255   3.901   4.205  14.895 -0.2101  0.2738  0.4202
 2540SOL    HW119256   3.910   4.283  14.949 -3.2798  0.1568  1.1158
 2540SOL    HW219257   3.926   4.253  14.816  0.1060 -0.6294 -0.0263
 2541SOL     OW19258   3.966   1.791  14.755  0.1590 -0.2380 -0.2464
 2541SOL    HW119259   3.881   1.751  14.736  0.0838  0.6792 -1.8873
 2541SOL    HW219260   3.983   1.831  14.670  0.8132  0.7084  0.3373
 2542SOL     OW19261   0.997   0.881  15.454  0.2133  0.4472 -0.2432
 2542SOL    HW119262   0.996   0.819  15.381 -1.1114  0.1281  0.0554
 2542SOL    HW219263   0.912   0.861  15.493  0.7070 -1.3896 -0.0961
 2543SOL     OW19264   0.308   3.299   2.292  0.0295 -0.0374 -0.1552
 2543SOL    HW119265   0.249   3.335   2.359 -0.9119 -2.0557  0.0876
 2543SOL    HW219266   0.384   3.357   2.292 -0.1251  0.1672 -0.4440
 2544SOL     OW19267   0.638   1.936   2.684 -0.2009  0.1335 -0.1849
 2544SOL    HW119268   0.709   1.876   2.710 -1.0000 -0.7071  0.0602
 2544SOL    HW219269   0.574   1.875   2.647  0.6469  0.0016 -1.4583
 2545SOL     OW19270   1.922   4.639   9.517 -0.1364  0.2550 -0.3483
 2545SOL    HW119271   1.953   4.606   9.601 -0.9246 -1.4797 -0.7396
 2545SOL    HW219272   1.995   4.692   9.484 -0.7823  1.4628  0.1426
 2546SOL     OW19273   1.771   0.926  11.775  0.5030 -0.0437 -0.1727
 2546SOL    HW119274   1.789   0.903  11.684  0.1297  3.1855 -1.0611
 2546SOL    HW219275   1.709   0.998  11.768 -0.1943 -0.8509 -2.2273
 2547SOL     OW19276   3.650   1.305  11.441 -0.7854  0.3077  0.0772
 2547SOL    HW119277   3.729   1.291  11.389 -2.4924 -1.1510 -2.0749
 2547SOL    HW219278   3.587   1.248  11.399  1.2288  0.3778 -3.0016
 2548SOL     OW19279   1.214   1.585  11.510  0.2555  0.4376  0.6974
 2548SOL    HW119280   1.244   1.498  11.539  2.5293  0.4529 -1.5480
 2548SOL    HW219281   1.141   1.595  11.571 -0.2933  0.1869  0.0876
 2549SOL     OW19282   2.691   2.618   0.992  0.0980 -0.1820  0.2834
 2549SOL    HW119283   2.628   2.566   1.041  0.1211  0.0099  0.5197
 2549SOL    HW219284   2.659   2.596   0.905 -1.9761 -1.1781  1.2922
 2550SOL     OW19285   2.826   1.812   2.169  0.2278  0.4240  0.3279
 2550SOL    HW119286   2.903   1.821   2.224  0.5310  1.6248 -0.2795
 2550SOL    HW219287   2.826   1.725   2.130 -0.8113  0.9661 -0.8906
 2551SOL     OW19288   4.300   2.032  13.950 -0.1453  0.2017 -0.2804
 2551SOL    HW119289   4.350   2.051  14.029  3.1093 -1.0567 -2.0289
 2551SOL    HW219290   4.340   1.953  13.914  0.1678  0.5217 -0.6338
 2552SOL     OW19291   1.618   0.553   5.476  0.1811  0.4132  0.1956
 2552SOL    HW119292   1.702   0.511   5.494  0.2640  0.2926 -0.4741
 2552SOL    HW219293   1.579   0.495   5.411 -0.7932  0.7191  0.5132
 2553SOL     OW19294   2.992   0.950   9.774  1.0116  0.3041 -0.3233
 2553SOL    HW119295   3.063   0.923   9.832 -0.1685  0.3660  1.1452
 2553SOL    HW219296   2.926   0.972   9.840  1.8928 -1.2491  1.0879
 2554SOL     OW19297   1.252   1.618   8.399 -0.6341 -0.0898 -0.1602
 2554SOL    HW119298   1.235   1.631   8.492  2.5681 -1.7885  0.6571
 2554SOL    HW219299   1.277   1.526   8.398  3.0904  0.9516 -0.2203
 2555SOL     OW19300   4.574   3.419   3.144 -0.8532  0.9785  0.0494
 2555SOL    HW119301   4.569   3.500   3.195 -1.4476  0.8631  0.1735
 2555SOL    HW219302   4.527   3.354   3.197  1.8900  1.1620  2.7207
 2556SOL     OW19303   2.518   1.930  16.968  0.1629 -0.2329  0.3760
 2556SOL    HW119304   2.468   1.868  16.914  0.3440  0.0250 -0.0841
 2556SOL    HW219305   2.459   1.939  17.043 -0.3686 -1.6086  0.1328
 2557SOL     OW19306   0.961   2.541   2.727  0.0419  0.6571  0.3319
 2557SOL    HW119307   0.964   2.617   2.668  1.2926 -0.2176 -0.7499
 2557SOL    HW219308   0.881   2.499   2.696  0.3727 -0.7571  1.3913
 2558SOL     OW19309   3.853   1.367   1.529  0.7673 -0.4047  0.0582
 2558SOL    HW119310   3.800   1.298   1.571 -0.7500 -0.1653 -1.4450
 2558SOL    HW219311   3.932   1.363   1.582  0.6110  4.1243  0.6339
 2559SOL     OW19312   3.734   3.142   6.557  0.4497  0.0151  0.4051
 2559SOL    HW119313   3.777   3.057   6.554  0.6988  0.2272 -1.8931
 2559SOL    HW219314   3.645   3.112   6.576  0.7425 -1.3243 -0.3344
 2560SOL     OW19315   1.282   3.527   5.465 -0.2573 -0.8800  0.4670
 2560SOL    HW119316   1.348   3.482   5.413  1.4756  0.1726  1.7499
 2560SOL    HW219317   1.322   3.612   5.482 -0.9800  0.1512 -2.9449
 2561SOL     OW19318   0.466   3.010   7.124  0.4258 -0.3054  0.2306
 2561SOL    HW119319   0.470   3.046   7.035 -0.2651  1.5986  0.9674
 2561SOL    HW219320   0.552   3.035   7.156  0.9698 -2.2793  0.2896
 2562SOL     OW19321   0.892   3.188   9.156 -0.4710 -0.4590 -0.1436
 2562SOL    HW119322   0.907   3.255   9.089  2.2672 -1.5054 -0.5878
 2562SOL    HW219323   0.971   3.135   9.164  0.5491  1.1662  0.6591
 2563SOL     OW19324   2.494   3.372   5.200 -0.3336  0.0190  0.3007
 2563SOL    HW119325   2.477   3.336   5.113 -0.5702 -2.3164  1.3211
 2563SOL    HW219326   2.462   3.462   5.193 -2.1140 -0.7155 -1.0807
 2564SOL     OW19327   2.463   2.667   4.236 -0.1177  0.1595  0.2647
 2564SOL    HW119328   2.445   2.576   4.259 -0.2013 -0.4908 -2.3173
 2564SOL    HW219329   2.482   2.703   4.322 -2.4416  0.7216  0.5229
 2565SOL     OW19330   1.335   0.598  17.122  0.0475  0.3920 -0.1535
 2565SOL    HW119331   1.265   0.582  17.186  1.2396 -1.2513  0.7324
 2565SOL    HW219332   1.415   0.569  17.166 -0.4334  1.1179  1.1924
 2566SOL     OW19333   4.219   4.545   6.089  0.4850  0.0430 -0.8962
 2566SOL    HW119334   4.273   4.547   6.010 -0.4387 -0.9325 -1.5387
 2566SOL    HW219335   4.265   4.488   6.151 -0.0310  0.9956  0.3843
 2567SOL     OW19336   4.287   3.965  10.321 -0.3303  0.2700 -0.0351
 2567SOL    HW119337   4.213   3.914  10.355  0.3316  0.0403  1.0453
 2567SOL    HW219338   4.248   4.051  10.340 -0.1284  0.1330  0.9714
 2568SOL     OW19339   3.960   3.761  14.732  0.4218  0.1816  0.1092
 2568SOL    HW119340   4.009   3.684  14.705 -0.7499 -1.5829  3.0425
 2568SOL    HW219341   4.022   3.834  14.725 -0.8330  1.2407 -0.0705
 2569SOL     OW19342   1.394   1.126  17.135 -0.5915 -0.0409 -0.5602
 2569SOL    HW119343   1.483   1.158  17.120 -0.3096 -1.0129 -0.9559
 2569SOL    HW219344   1.393   1.032  17.116 -0.2349  0.0614 -1.0853
 2570SOL     OW19345   4.400   4.157   6.090  0.2972  0.1489  0.5588
 2570SOL    HW119346   4.355   4.077   6.116 -2.3152  1.2544 -0.5640
 2570SOL    HW219347   4.488   4.119   6.083 -0.0276 -0.5663  0.3475
 2571SOL     OW19348   0.633   4.515   7.725 -0.1108 -0.1751 -0.2624
 2571SOL    HW119349   0.670   4.524   7.637  2.3339 -2.2289  0.5688
 2571SOL    HW219350   0.616   4.605   7.752  0.4035 -0.6926  1.7554
 2572SOL     OW19351   0.861   2.647   5.413 -0.1197 -0.3537  0.3307
 2572SOL    HW119352   0.888   2.579   5.474  0.2899  2.1005  2.8551
 2572SOL    HW219353   0.948   2.659   5.376 -0.0835  0.6085  0.7429
 2573SOL     OW19354   2.346   1.063   0.560  0.1560 -0.0378  0.3633
 2573SOL    HW119355   2.369   1.002   0.630  0.7965  1.3501  1.3618
 2573SOL    HW219356   2.263   1.103   0.588 -0.3543  0.0641 -1.3338
 2574SOL     OW19357   3.153   0.066  10.465 -0.0697 -0.5467  0.2444
 2574SOL    HW119358   3.247   0.064  10.450 -0.1974 -1.3043 -0.4957
 2574SOL    HW219359   3.132   0.142  10.410  0.0642  0.0373  1.0043
 2575SOL     OW19360   4.175   4.398   5.003 -0.1418  0.0090  0.5236
 2575SOL    HW119361   4.228   4.449   5.064  1.1023 -1.7863  0.9465
 2575SOL    HW219362   4.172   4.316   5.053  0.0650 -1.3962 -1.7966
 2576SOL     OW19363   3.240   1.261   9.233  0.3987 -0.0700  0.2486
 2576SOL    HW119364   3.243   1.307   9.316  1.8030  2.8445 -1.4062
 2576SOL    HW219365   3.165   1.301   9.189  0.1266  0.1468  0.9225
 2577SOL     OW19366   2.101   0.893   6.099 -0.8571 -0.5786 -0.0979
 2577SOL    HW119367   2.073   0.857   6.183  1.2751  1.1305  1.3487
 2577SOL    HW219368   2.194   0.903   6.121 -0.8960 -0.1398 -0.1394
 2578SOL     OW19369   0.826   2.096  13.679  0.4693  0.0981  0.1754
 2578SOL    HW119370   0.813   2.187  13.705 -0.9544 -1.1260  3.7568
 2578SOL    HW219371   0.921   2.088  13.683  0.5237  1.3004  1.1462
 2579SOL     OW19372   0.240   0.324   8.202  0.3082 -0.3496 -0.0092
 2579SOL    HW119373   0.212   0.351   8.114  0.6034  3.3317  1.0133
 2579SOL    HW219374   0.163   0.352   8.252 -0.7948  1.4908 -2.7454
 2580SOL     OW19375   1.352   1.804   7.930  0.1805 -0.2650 -0.4546
 2580SOL    HW119376   1.267   1.824   7.968  0.3987  1.0557 -0.6509
 2580SOL    HW219377   1.400   1.773   8.006 -1.2198 -0.3538  0.3888
 2581SOL     OW19378   3.751   4.358   8.767 -0.2001  0.8214  0.3233
 2581SOL    HW119379   3.743   4.263   8.757 -3.2997  1.0387  0.6352
 2581SOL    HW219380   3.661   4.378   8.792 -0.6276 -0.1471 -0.4003
 2582SOL     OW19381   2.842   1.143  12.378  0.3207  0.1894  0.0715
 2582SOL    HW119382   2.857   1.131  12.472 -2.1421  1.9282  0.6879
 2582SOL    HW219383   2.753   1.110  12.370  1.0356 -1.6809 -0.1977
 2583SOL     OW19384   0.637   0.182   2.519 -0.4343 -0.4787  0.0291
 2583SOL    HW119385   0.730   0.164   2.531 -0.6835 -1.4997  0.4859
 2583SOL    HW219386   0.623   0.111   2.582  1.0673 -1.2299 -0.4835
 2584SOL     OW19387   0.058   4.247   5.155 -0.3785  0.6515  0.1533
 2584SOL    HW119388   4.731   4.179   5.143  0.1889 -0.1915  1.7630
 2584SOL    HW219389   0.132   4.195   5.186 -0.2534  0.9694  0.3951
 2585SOL     OW19390   1.678   3.543   0.277  0.2344  0.1631 -0.8908
 2585SOL    HW119391   1.686   3.617   0.338  0.3232 -1.1480  0.7042
 2585SOL    HW219392   1.768   3.510   0.287 -0.0973 -0.2128  0.8611
 2586SOL     OW19393   1.719   4.620   2.695  0.2818  0.3927 -0.2931
 2586SOL    HW119394   1.689   4.658   2.778 -0.6981 -2.8940  0.8611
 2586SOL    HW219395   1.803   4.586   2.725  0.3724  0.3414 -0.6048
 2587SOL     OW19396   1.736   3.038  12.181 -0.1889  0.2357 -0.8157
 2587SOL    HW119397   1.671   3.063  12.247 -0.8540  1.8842 -2.0906
 2587SOL    HW219398   1.701   3.071  12.098 -2.0375  0.7189  0.1602
 2588SOL     OW19399   1.039   1.302   6.698  0.7120  0.1940 -0.1980
 2588SOL    HW119400   1.130   1.272   6.695  1.6026  2.7638  1.1019
 2588SOL    HW219401   1.059   1.396   6.695  2.5306 -0.1186  2.0340
 2589SOL     OW19402   4.725   1.628  13.021  0.0794  0.1345 -0.1914
 2589SOL    HW119403   0.057   1.633  13.086 -0.2818 -2.3814  0.4134
 2589SOL    HW219404   0.046   1.633  12.946  2.6290 -2.3690  1.6750
 2590SOL     OW19405   4.185   0.212   1.688  0.5113 -0.0240  0.3748
 2590SOL    HW119406   4.124   0.244   1.622  0.2658  1.4431  1.2957
 2590SOL    HW219407   4.244   0.288   1.691 -0.2872  0.6507 -1.1444
 2591SOL     OW19408   0.248   3.538   2.505 -0.4520  0.1141  0.0612
 2591SOL    HW119409   0.318   3.596   2.475 -1.8846  3.3575  2.9662
 2591SOL    HW219410   0.165   3.567   2.467  0.3490  0.4437 -1.4490
 2592SOL     OW19411   0.120   3.115   8.424 -0.0269 -0.4860 -0.3641
 2592SOL    HW119412   0.216   3.113   8.432 -0.2530 -3.2524  1.7379
 2592SOL    HW219413   0.118   3.129   8.329  1.1780  1.5618 -0.0871
 2593SOL     OW19414   0.675   2.762  10.947 -0.1558 -0.3354 -0.4445
 2593SOL    HW119415   0.693   2.796  11.034  0.9840 -0.9909 -0.4174
 2593SOL    HW219416   0.759   2.778  10.903 -0.1470  1.7233  0.3367
 2594SOL     OW19417   1.116   0.472   6.095  0.5188  0.3501 -0.1644
 2594SOL    HW119418   1.121   0.538   6.026  0.6848 -1.0458 -1.4961
 2594SOL    HW219419   1.159   0.521   6.165  0.3100 -0.7442  0.7426
 2595SOL     OW19420   0.754   4.360   8.107  0.5731  0.3865 -0.4407
 2595SOL    HW119421   0.829   4.316   8.146  1.8806  0.2217 -3.1445
 2595SOL    HW219422   0.762   4.335   8.015 -2.4903  1.3746 -0.9999
 2596SOL     OW19423   3.866   2.788   1.096 -0.3745  0.7221  0.8952
 2596SOL    HW119424   3.802   2.842   1.144  0.4715  1.2322  1.4684
 2596SOL    HW219425   3.945   2.841   1.083 -1.1388  1.4130 -0.8843
 2597SOL     OW19426   2.515   1.661   9.260 -0.0223  0.0003  0.3909
 2597SOL    HW119427   2.513   1.647   9.355  0.9257 -1.3450  0.2203
 2597SOL    HW219428   2.503   1.755   9.253 -0.3473  0.0293  1.3686
 2598SOL     OW19429   3.080   1.453   0.899 -0.0796 -0.4777 -0.0632
 2598SOL    HW119430   3.127   1.515   0.956 -0.8567  0.7415 -0.7550
 2598SOL    HW219431   3.046   1.506   0.827  1.0593 -1.1500 -1.0958
 2599SOL     OW19432   2.627   3.581  13.449  0.1543 -0.1795  0.1607
 2599SOL    HW119433   2.688   3.536  13.506  0.2822 -0.1107  0.0805
 2599SOL    HW219434   2.633   3.664  13.496 -0.2533  0.0704 -0.2228
 2600SOL     OW19435   3.474   2.933   4.951 -0.1570 -0.0831  0.0254
 2600SOL    HW119436   3.441   2.937   5.041  1.4108 -2.2502  0.7358
 2600SOL    HW219437   3.478   2.838   4.935  1.3430  0.3534 -2.0852
 2601SOL     OW19438   1.250   1.373   8.870 -0.0634 -0.2830 -0.3512
 2601SOL    HW119439   1.303   1.384   8.948 -0.3335 -0.1404 -0.1892
 2601SOL    HW219440   1.313   1.371   8.798  0.5412 -2.7364  0.2290
 2602SOL     OW19441   0.099   1.140   7.990  0.6311  0.2611 -0.0911
 2602SOL    HW119442   0.058   1.227   7.988 -0.0425 -0.0327  0.9115
 2602SOL    HW219443   0.187   1.163   8.019  1.2262 -1.1136 -0.8391
 2603SOL     OW19444   1.971   1.665  13.922  0.1554  0.1892 -0.3833
 2603SOL    HW119445   1.900   1.697  13.976  0.4809 -0.4241  0.4040
 2603SOL    HW219446   1.942   1.574  13.913  0.2850  0.1509 -0.4247
 2604SOL     OW19447   4.260   0.827   2.493 -0.3607  0.4025  0.0070
 2604SOL    HW119448   4.306   0.790   2.568 -2.8268 -1.5052  0.5846
 2604SOL    HW219449   4.292   0.762   2.431 -1.0792 -1.7642  1.9034
 2605SOL     OW19450   1.937   1.256   9.073 -0.3219  0.1492  0.3023
 2605SOL    HW119451   1.952   1.288   8.984 -0.0728 -1.9491 -0.4136
 2605SOL    HW219452   1.874   1.185   9.056 -1.4064  0.8165  1.4935
 2606SOL     OW19453   0.575   2.974   2.405  0.0526  0.0307  0.3406
 2606SOL    HW119454   0.585   3.006   2.495  0.6264  0.0307  0.2763
 2606SOL    HW219455   0.648   3.027   2.373 -2.7610  2.7389 -1.4627
 2607SOL     OW19456   0.654   2.031   1.670 -0.1560 -0.4236  0.1994
 2607SOL    HW119457   0.739   2.049   1.711 -0.8040  0.8534  1.0069
 2607SOL    HW219458   0.660   2.085   1.591 -1.0573 -0.2453  0.2584
 2608SOL     OW19459   1.652   2.704  12.624  0.5013  0.3347  0.0832
 2608SOL    HW119460   1.724   2.679  12.567  0.7797  2.1103 -0.3274
 2608SOL    HW219461   1.584   2.656  12.576 -0.1587  1.0880  0.2652
 2609SOL     OW19462   0.264   0.239   5.350 -0.3361  0.4274  0.6680
 2609SOL    HW119463   0.230   0.322   5.384 -1.3746 -1.3412  3.8764
 2609SOL    HW219464   0.317   0.211   5.424 -2.6735 -0.7462  1.8774
 2610SOL     OW19465   1.065   3.016  15.690 -0.6187  0.4481  0.1879
 2610SOL    HW119466   1.158   3.037  15.678 -0.5109  0.2647  0.7006
 2610SOL    HW219467   1.026   3.092  15.733  2.1462  2.8534 -1.5547
 2611SOL     OW19468   3.980   4.137   4.659 -0.8213  0.3249  0.1445
 2611SOL    HW119469   3.936   4.056   4.684 -0.7728  0.8716  2.0399
 2611SOL    HW219470   4.069   4.129   4.695 -0.7158  0.4187 -0.1007
 2612SOL     OW19471   4.420   3.953   0.932  0.0902 -0.4842 -0.2824
 2612SOL    HW119472   4.464   3.977   0.851  1.4450 -1.6200  0.1065
 2612SOL    HW219473   4.483   3.890   0.968  0.0779  0.8166  1.9951
 2613SOL     OW19474   0.539   0.428   3.063 -0.2086 -0.5700 -0.1479
 2613SOL    HW119475   0.491   0.496   3.111 -0.4636 -1.2054  0.4967
 2613SOL    HW219476   0.612   0.407   3.120 -0.8996 -1.3597  0.4496
 2614SOL     OW19477   3.699   2.587  15.177  0.1066  0.9295  0.3048
 2614SOL    HW119478   3.678   2.679  15.162  1.1300  1.3528  1.5078
 2614SOL    HW219479   3.643   2.541  15.114  1.0392  0.4609 -0.1922
 2615SOL     OW19480   4.736   4.511   3.568  0.3213  0.1024  0.0807
 2615SOL    HW119481   4.652   4.466   3.565  0.6670 -0.5455  0.1947
 2615SOL    HW219482   0.032   4.516   3.479  1.3605 -1.5109  0.3877
 2616SOL     OW19483   0.709   0.485   9.411  0.4978 -0.0989 -0.1782
 2616SOL    HW119484   0.633   0.540   9.390  0.4976  0.0425  0.1988
 2616SOL    HW219485   0.770   0.545   9.452 -1.2773  1.8841 -0.4281
 2617SOL     OW19486   1.709   3.309   1.195 -0.1415  0.1286 -0.4252
 2617SOL    HW119487   1.760   3.281   1.118  1.6322  2.0152  0.0733
 2617SOL    HW219488   1.618   3.304   1.165  0.8219  0.2991 -3.3866
 2618SOL     OW19489   4.507   0.533  14.607  0.0094  0.1150 -0.1324
 2618SOL    HW119490   4.450   0.520  14.683  0.3453  0.6501  0.2184
 2618SOL    HW219491   4.483   0.459  14.552 -2.1308  1.3489 -0.8340
 2619SOL     OW19492   2.304   2.135   5.395 -0.1095 -0.0796 -0.8756
 2619SOL    HW119493   2.222   2.118   5.349  0.0874 -0.8108 -0.9524
 2619SOL    HW219494   2.331   2.222   5.363  0.9554 -0.3997 -0.8487
 2620SOL     OW19495   3.633   1.342   6.103  0.9939  0.2984 -0.2686
 2620SOL    HW119496   3.689   1.314   6.031 -0.6469  0.3791 -1.5914
 2620SOL    HW219497   3.654   1.280   6.172 -2.7927 -0.2767  0.3940
 2621SOL     OW19498   4.150   1.019   9.914  0.0859  0.3140 -0.3295
 2621SOL    HW119499   4.090   0.968   9.968  0.5423 -2.2031 -2.2243
 2621SOL    HW219500   4.217   1.027   9.982  2.3165 -0.1058 -2.4924
 2622SOL     OW19501   0.538   3.077   3.045 -0.3524 -0.4211  0.2541
 2622SOL    HW119502   0.443   3.087   3.049 -0.0053  1.2940  4.3075
 2622SOL    HW219503   0.565   3.154   2.995 -1.1038  1.2835  2.4983
 2623SOL     OW19504   0.525   2.538   5.037  0.4277 -0.1028 -0.1545
 2623SOL    HW119505   0.598   2.589   5.002  0.1989 -2.2276 -3.7418
 2623SOL    HW219506   0.461   2.609   5.044  0.2644 -0.1087 -1.5819
 2624SOL     OW19507   0.870   0.953   0.431 -0.2597  0.2516 -0.8185
 2624SOL    HW119508   0.865   0.857   0.431  1.0379  0.1835  2.1936
 2624SOL    HW219509   0.846   0.980   0.342 -1.8215 -1.5512 -0.9629
 2625SOL     OW19510   0.232   2.362   2.909 -0.7679 -0.3581 -0.3034
 2625SOL    HW119511   0.265   2.428   2.849 -2.5460  0.0157 -0.8498
 2625SOL    HW219512   0.225   2.416   2.987 -2.2628 -2.2188  0.8616
 2626SOL     OW19513   3.992   4.442   5.692  0.5288 -0.1329  0.5509
 2626SOL    HW119514   3.921   4.384   5.665 -0.3177 -0.1383  2.8123
 2626SOL    HW219515   4.065   4.380   5.697  0.6702  0.0055  0.2137
 2627SOL     OW19516   3.483   1.104   9.169 -0.0975  0.7465 -0.1896
 2627SOL    HW119517   3.490   1.171   9.101 -1.7952 -0.5622 -1.6773
 2627SOL    HW219518   3.410   1.143   9.217 -2.0897  0.2487 -2.8017
 2628SOL     OW19519   0.502   3.692  15.585 -0.0636 -0.1435  0.2249
 2628SOL    HW119520   0.412   3.720  15.569  0.2001  2.4911  3.3375
 2628SOL    HW219521   0.503   3.688  15.680 -1.7067  0.2776  0.2610
 2629SOL     OW19522   2.280   1.632   6.735  0.8249  0.3647 -0.4406
 2629SOL    HW119523   2.262   1.725   6.746  3.2972  0.9182 -0.9032
 2629SOL    HW219524   2.284   1.610   6.828 -0.6260  0.2968 -0.4038
 2630SOL     OW19525   3.728   2.545  15.449 -0.0280 -0.1708  0.2012
 2630SOL    HW119526   3.727   2.548  15.353  0.1076  1.1138  0.2346
 2630SOL    HW219527   3.707   2.636  15.470  1.2747 -0.3567  2.3262
 2631SOL     OW19528   1.502   0.049   6.297  0.2181 -0.5252 -0.2169
 2631SOL    HW119529   1.481   4.695   6.312 -1.8672  0.0967  0.6472
 2631SOL    HW219530   1.598   0.048   6.299  0.2812  0.2129 -2.2811
 2632SOL     OW19531   1.955   3.549   7.981  0.1750  0.5920 -0.5421
 2632SOL    HW119532   2.041   3.525   7.946 -0.1209 -2.0445  0.5630
 2632SOL    HW219533   1.896   3.501   7.922  0.7300  0.6189 -1.1194
 2633SOL     OW19534   4.416   1.192   1.783  0.1211  0.2573  0.1242
 2633SOL    HW119535   4.402   1.114   1.729  2.0346  1.9492 -2.8399
 2633SOL    HW219536   4.493   1.228   1.738  0.1540 -1.6234 -1.3153
 2634SOL     OW19537   4.671   2.093  16.531  0.1047  0.1367  0.1180
 2634SOL    HW119538   4.594   2.146  16.548  1.0221  2.2186 -2.3274
 2634SOL    HW219539   4.649   2.068  16.441  2.6844 -2.8739  0.2877
 2635SOL     OW19540   0.108   1.206   5.032 -0.3580 -0.1898 -0.2247
 2635SOL    HW119541   0.104   1.145   5.105  0.5173 -1.4988 -1.2506
 2635SOL    HW219542   0.098   1.289   5.079 -2.0161 -0.0739 -0.7954
 2636SOL     OW19543   0.058   3.848   3.178 -0.7574  0.5828 -0.3399
 2636SOL    HW119544   0.036   3.772   3.231 -0.1379  1.2567  0.8999
 2636SOL    HW219545   0.025   3.827   3.091 -0.6278 -1.6163  0.1440
 2637SOL     OW19546   2.959   1.757   5.951  0.6245  0.2930  0.0038
 2637SOL    HW119547   2.877   1.707   5.962  0.6649  0.7704  2.5022
 2637SOL    HW219548   3.009   1.693   5.902 -0.3248 -1.5062  1.3655
 2638SOL     OW19549   2.468   0.407   3.737  0.4699  0.7120  0.5549
 2638SOL    HW119550   2.492   0.355   3.660 -1.3572  0.7940 -0.0547
 2638SOL    HW219551   2.452   0.488   3.689  0.3817  0.0436 -0.5515
 2639SOL     OW19552   2.028   3.360   8.727  0.2709  0.8613 -0.0049
 2639SOL    HW119553   2.122   3.373   8.714  0.8683 -1.8278  1.7358
 2639SOL    HW219554   2.016   3.370   8.821  0.2307 -1.4947  0.2443
 2640SOL     OW19555   2.976   0.957  16.253  0.6729  0.2186  0.2021
 2640SOL    HW119556   2.900   0.917  16.296 -0.6806  1.4270 -1.0517
 2640SOL    HW219557   2.927   1.031  16.216 -0.1157 -0.2228  0.3643
 2641SOL     OW19558   1.206   2.063   8.003  0.3290  0.4111  0.5058
 2641SOL    HW119559   1.233   2.152   8.027  0.8490  0.3965 -0.0135
 2641SOL    HW219560   1.133   2.039   8.060  1.6408 -1.1729  1.5196
 2642SOL     OW19561   0.454   3.452  15.435  0.3174  0.5237  0.2857
 2642SOL    HW119562   0.499   3.528  15.472  0.7242  0.5976 -0.3595
 2642SOL    HW219563   0.526   3.389  15.426 -0.8177 -0.5474 -1.4051
 2643SOL     OW19564   4.316   0.466   4.360  0.1529 -0.1117  0.2131
 2643SOL    HW119565   4.312   0.555   4.325 -1.1134 -0.6089 -0.9006
 2643SOL    HW219566   4.222   0.447   4.366  0.3990 -0.7768  2.0291
 2644SOL     OW19567   0.815   1.292   9.172  0.5909  0.5254  0.4656
 2644SOL    HW119568   0.781   1.256   9.254  1.5945 -0.4364  0.4464
 2644SOL    HW219569   0.899   1.332   9.195 -0.0574  0.3530  3.1785
 2645SOL     OW19570   0.382   4.263  17.128  0.2892 -0.2158 -0.6538
 2645SOL    HW119571   0.413   4.332  17.187 -1.7268 -0.1861  0.3456
 2645SOL    HW219572   0.467   4.219  17.120  1.0145  0.5862  2.5685
 2646SOL     OW19573   1.256   3.170   3.921  0.3021  0.6825  0.5254
 2646SOL    HW119574   1.316   3.127   3.860  0.7161 -0.2216  1.5782
 2646SOL    HW219575   1.322   3.200   3.982 -0.3616  1.9182  0.6265
 2647SOL     OW19576   2.402   1.220  10.829 -0.5597  0.0985 -0.0263
 2647SOL    HW119577   2.408   1.175  10.914  1.8944  2.0898  0.8655
 2647SOL    HW219578   2.317   1.264  10.836 -0.9116 -0.5383 -0.2340
 2648SOL     OW19579   0.767   1.112   7.583 -0.6839 -0.2791 -0.3457
 2648SOL    HW119580   0.704   1.182   7.595 -1.0789 -1.0170  1.8864
 2648SOL    HW219581   0.832   1.136   7.650 -1.2913 -2.9916  1.2308
 2649SOL     OW19582   1.842   4.711   4.540 -0.2976 -0.2247 -0.2334
 2649SOL    HW119583   1.765   0.017   4.575  0.1974  1.9458 -1.8821
 2649SOL    HW219584   1.816   4.619   4.552 -2.3282  0.4210  0.3386
 2650SOL     OW19585   2.667   1.332  16.618 -0.6580 -0.5098 -0.4665
 2650SOL    HW119586   2.655   1.409  16.673 -3.7893 -0.8469 -0.6472
 2650SOL    HW219587   2.659   1.363  16.528  0.6852 -0.9327 -0.7306
 2651SOL     OW19588   3.086   2.852   3.142 -0.6018 -0.0126 -0.2806
 2651SOL    HW119589   3.048   2.938   3.161 -1.1579 -0.3415  0.0703
 2651SOL    HW219590   3.067   2.852   3.048 -2.1496  3.0257  0.0057
 2652SOL     OW19591   4.324   1.099   2.873 -0.2612 -0.0359  0.2952
 2652SOL    HW119592   4.328   1.178   2.819 -0.2458 -1.9417 -2.4635
 2652SOL    HW219593   4.398   1.052   2.836 -0.2864 -0.3901  0.6869
 2653SOL     OW19594   2.961   3.596   2.119 -0.1416 -0.0947 -0.5932
 2653SOL    HW119595   3.026   3.661   2.147 -2.4980  2.3112 -0.7192
 2653SOL    HW219596   3.014   3.550   2.055  0.3939 -1.2500  0.6740
 2654SOL     OW19597   2.455   3.776   0.311 -0.7425  0.7147  0.3796
 2654SOL    HW119598   2.487   3.756   0.223  1.8046 -0.7783  1.6523
 2654SOL    HW219599   2.471   3.690   0.351 -1.5250  0.1552 -0.5099
 2655SOL     OW19600   3.058   4.255   3.554  0.0524 -0.3917  0.7589
 2655SOL    HW119601   3.044   4.190   3.623 -3.1302  0.3581  0.8086
 2655SOL    HW219602   2.981   4.255   3.498  1.3696 -0.3527 -1.0544
 2656SOL     OW19603   2.313   4.228   9.239  0.4857  0.3505 -0.0096
 2656SOL    HW119604   2.309   4.272   9.324 -1.7302 -0.4392  0.3136
 2656SOL    HW219605   2.403   4.196   9.237 -0.6615 -2.9968  2.3496
 2657SOL     OW19606   1.991   2.631   4.291 -0.3654  0.0745 -0.0197
 2657SOL    HW119607   2.081   2.619   4.318 -0.0058  0.0314 -1.2327
 2657SOL    HW219608   1.988   2.727   4.293 -1.4471  0.0691 -1.0949
 2658SOL     OW19609   0.044   0.856   6.685 -0.5588 -0.3155 -0.4722
 2658SOL    HW119610   0.104   0.791   6.720  0.9142  2.2381  1.7668
 2658SOL    HW219611   0.099   0.891   6.615  1.6114 -1.6821  0.5690
 2659SOL     OW19612   0.481   0.859   2.575 -0.0629  0.0474 -0.1403
 2659SOL    HW119613   0.521   0.918   2.640  1.8192 -0.0791 -1.1955
 2659SOL    HW219614   0.508   0.772   2.603 -2.6569 -0.3257  1.2061
 2660SOL     OW19615   4.563   2.841   2.280  0.3754 -0.1780  0.1557
 2660SOL    HW119616   4.552   2.770   2.343  2.3951 -0.3456  0.3113
 2660SOL    HW219617   4.658   2.844   2.274  0.1928  2.4455 -1.3504
 2661SOL     OW19618   1.061   3.578   9.939 -0.7672 -0.0992  0.3042
 2661SOL    HW119619   1.057   3.536  10.025  0.1889 -1.4819 -0.3274
 2661SOL    HW219620   0.973   3.611   9.920 -1.3569 -0.5988  2.1870
 2662SOL     OW19621   1.564   0.607  13.157  0.6903 -0.3102  0.4439
 2662SOL    HW119622   1.597   0.545  13.222 -1.2397 -0.8085  0.9475
 2662SOL    HW219623   1.552   0.550  13.082  2.5213  0.3107 -0.3099
 2663SOL     OW19624   3.538   0.462  12.657 -0.4371 -0.5239 -0.4691
 2663SOL    HW119625   3.557   0.539  12.604 -0.6584 -1.1575 -1.4628
 2663SOL    HW219626   3.600   0.482  12.728  0.8832  3.1042 -2.6482
 2664SOL     OW19627   1.340   1.069   7.251  0.3611  0.2281  0.1420
 2664SOL    HW119628   1.366   0.992   7.200 -1.7473 -0.8796  0.7343
 2664SOL    HW219629   1.295   1.037   7.329 -0.1427 -0.3625 -0.3880
 2665SOL     OW19630   0.324   2.115   3.249  0.0574  1.0485  0.9350
 2665SOL    HW119631   0.282   2.122   3.163 -0.3606 -3.9945  0.6952
 2665SOL    HW219632   0.329   2.019   3.245  0.2374  1.0652  0.7574
 2666SOL     OW19633   4.155   4.080  13.243 -0.7580  0.5147 -0.0951
 2666SOL    HW119634   4.144   4.010  13.178 -0.2609 -2.2054  2.7261
 2666SOL    HW219635   4.072   4.070  13.288 -0.8524 -0.5448 -0.4976
 2667SOL     OW19636   2.599   2.763   7.467  0.2840  0.4889 -0.2408
 2667SOL    HW119637   2.564   2.852   7.461 -0.8414  0.1195  0.8774
 2667SOL    HW219638   2.692   2.786   7.471 -0.0414  2.0074 -1.6845
 2668SOL     OW19639   2.348   0.233   7.706  0.1118 -0.5741 -0.1463
 2668SOL    HW119640   2.294   0.178   7.650 -0.1083 -1.5007  0.9883
 2668SOL    HW219641   2.331   0.196   7.793  0.6749 -3.5122 -1.3091
 2669SOL     OW19642   3.442   0.266   6.127 -0.3603  0.6169 -0.2081
 2669SOL    HW119643   3.353   0.300   6.114  0.0879  1.0813 -2.0500
 2669SOL    HW219644   3.478   0.294   6.043  1.0772  0.4632  0.3661
 2670SOL     OW19645   4.567   1.511   4.016 -0.3095  0.0031  0.5790
 2670SOL    HW119646   4.477   1.527   3.988 -0.8493 -1.1788  1.6633
 2670SOL    HW219647   4.612   1.557   3.945 -0.4440 -3.4533 -1.7671
 2671SOL     OW19648   0.202   1.910   1.995  0.0598  0.5430  0.3473
 2671SOL    HW119649   0.286   1.944   2.025  0.5649  0.2863 -0.7886
 2671SOL    HW219650   0.156   1.993   2.004 -2.4467 -0.6431 -1.4987
 2672SOL     OW19651   0.211   0.906   1.425  0.2264  0.9447 -0.1880
 2672SOL    HW119652   0.168   0.832   1.468 -0.2986  1.8875  0.9071
 2672SOL    HW219653   0.193   0.894   1.331 -0.7058 -1.1808  0.2652
 2673SOL     OW19654   4.280   1.979   5.195 -0.2164  0.6938 -0.7428
 2673SOL    HW119655   4.291   1.890   5.163  0.3655  0.1752  0.9180
 2673SOL    HW219656   4.369   2.003   5.218 -0.0959  1.4885 -2.0271
 2674SOL     OW19657   3.196   4.379   5.756  0.0848  0.2981  0.6971
 2674SOL    HW119658   3.239   4.415   5.834  0.2558  0.7154  0.4076
 2674SOL    HW219659   3.121   4.439   5.752 -0.2193 -0.0208  1.5911
 2675SOL     OW19660   0.413   4.140  14.315  0.4163 -0.2897  0.0668
 2675SOL    HW119661   0.380   4.110  14.230 -2.7623 -2.1927  1.9967
 2675SOL    HW219662   0.328   4.135  14.359 -0.4574  0.9147 -1.4940
 2676SOL     OW19663   4.042   3.235   4.314 -0.2724 -0.1895 -0.0489
 2676SOL    HW119664   4.048   3.295   4.389  0.1952  0.6658 -0.7638
 2676SOL    HW219665   4.053   3.151   4.358  2.2795 -0.4517 -1.1972
 2677SOL     OW19666   3.760   0.135  11.248  0.2154 -0.0141  0.2442
 2677SOL    HW119667   3.766   0.132  11.152  0.2759  0.5233  0.2334
 2677SOL    HW219668   3.854   0.144  11.265  0.3143 -0.3027 -0.1398
 2678SOL     OW19669   2.527   0.208   4.154 -0.2028  0.4227 -0.1733
 2678SOL    HW119670   2.487   0.221   4.067 -1.8023  0.8698  0.6228
 2678SOL    HW219671   2.591   0.279   4.165  1.2403 -0.8273 -0.5929
 2679SOL     OW19672   3.141   0.861   6.085 -0.2867 -0.6082  0.0926
 2679SOL    HW119673   3.107   0.785   6.132 -0.9264 -0.3716  0.0066
 2679SOL    HW219674   3.143   0.824   5.996 -0.9671 -2.8382  0.9925
 2680SOL     OW19675   1.077   4.070  10.976  0.0076  0.0331  0.3619
 2680SOL    HW119676   1.057   4.061  11.069 -2.8106  0.1342 -0.2298
 2680SOL    HW219677   1.079   4.164  10.960 -4.1241  0.1129  0.0517
 2681SOL     OW19678   2.128   2.280   7.433  0.1467  0.3191  0.1988
 2681SOL    HW119679   2.033   2.285   7.440 -0.0161 -0.9162 -1.1518
 2681SOL    HW219680   2.154   2.327   7.512 -1.6186  2.6117 -0.5699
 2682SOL     OW19681   4.716   0.255   4.304 -0.0005 -0.0343  0.4591
 2682SOL    HW119682   4.736   0.342   4.270 -0.1304  0.6097  2.0156
 2682SOL    HW219683   4.653   0.280   4.371  1.7435  1.5033  1.5440
 2683SOL     OW19684   1.147   3.137  15.338  1.0443 -0.1053  0.4075
 2683SOL    HW119685   1.140   3.223  15.378 -1.6916  0.2005 -0.6985
 2683SOL    HW219686   1.214   3.097  15.393 -0.6156 -1.8506  1.1737
 2684SOL     OW19687   4.325   2.459  14.493  0.0278 -0.0924  0.5224
 2684SOL    HW119688   4.389   2.530  14.486  2.2626 -1.9489  2.2877
 2684SOL    HW219689   4.244   2.505  14.472 -0.7528 -1.4731  0.5225
 2685SOL     OW19690   2.440   1.331  13.513 -0.7005  0.5078  0.3600
 2685SOL    HW119691   2.529   1.317  13.545 -0.5703  2.0970  0.7208
 2685SOL    HW219692   2.403   1.243  13.515 -2.2768  1.1595  0.6081
 2686SOL     OW19693   1.962   1.277   2.050 -0.5810  0.1030 -0.6340
 2686SOL    HW119694   2.039   1.334   2.052 -0.6040  0.1055 -0.0379
 2686SOL    HW219695   1.904   1.334   2.100  0.1235 -0.6921  1.0845
 2687SOL     OW19696   4.628   1.053   1.221 -0.5830 -0.1570  0.1169
 2687SOL    HW119697   4.650   1.021   1.308  0.5249  3.1627  1.0353
 2687SOL    HW219698   4.575   1.126   1.254 -0.8879 -0.2487 -0.1648
 2688SOL     OW19699   2.286   3.595   2.895 -0.1604  0.6567  0.3106
 2688SOL    HW119700   2.193   3.572   2.894 -0.0362  0.0466  3.1029
 2688SOL    HW219701   2.328   3.513   2.869  0.2156  0.8741  0.2428
 2689SOL     OW19702   3.752   4.107   1.827 -0.2739  0.1558 -0.3186
 2689SOL    HW119703   3.686   4.075   1.765  0.9773  1.9906 -2.5901
 2689SOL    HW219704   3.707   4.084   1.908 -0.7670  2.3550  0.0389
 2690SOL     OW19705   3.870   3.288   2.802  0.5926 -0.3367 -0.7015
 2690SOL    HW119706   3.822   3.209   2.779  1.8802 -1.6892  1.3446
 2690SOL    HW219707   3.928   3.292   2.726  0.2158 -3.1361 -1.0994
 2691SOL     OW19708   3.562   4.346   7.570 -0.1575 -0.1016  0.0642
 2691SOL    HW119709   3.512   4.409   7.519  0.2840 -0.2958 -0.6104
 2691SOL    HW219710   3.504   4.270   7.577  0.1391 -0.4972 -1.6827
 2692SOL     OW19711   0.286   3.852   3.653  0.5778  0.2433 -0.0567
 2692SOL    HW119712   0.247   3.772   3.688 -0.8121  0.7816 -0.3629
 2692SOL    HW219713   0.379   3.855   3.675  0.1877 -0.8142  1.6761
 2693SOL     OW19714   2.363   2.519  12.224 -0.5885 -0.2948 -0.1548
 2693SOL    HW119715   2.350   2.577  12.300  0.8112 -0.2854  0.0801
 2693SOL    HW219716   2.300   2.557  12.164  0.8311  1.5582 -0.4798
 2694SOL     OW19717   3.837   3.352  10.396 -0.9872 -0.1208  0.3655
 2694SOL    HW119718   3.760   3.343  10.451 -0.9815  0.7675  0.5205
 2694SOL    HW219719   3.899   3.286  10.429  0.3182  0.4383 -0.9273
 2695SOL     OW19720   3.888   2.450  15.732 -0.6500  0.7351 -0.1687
 2695SOL    HW119721   3.822   2.456  15.801 -1.4915 -0.0174 -0.9007
 2695SOL    HW219722   3.844   2.394  15.668  1.5160  0.0048 -1.0187
 2696SOL     OW19723   4.585   1.351   4.694 -0.5437 -0.1262 -0.4932
 2696SOL    HW119724   4.621   1.392   4.772 -2.7619  1.0111 -0.0972
 2696SOL    HW219725   4.597   1.257   4.711  0.0609 -0.0096 -0.2589
 2697SOL     OW19726   2.603   3.699   8.402 -0.2061 -0.2565  0.0118
 2697SOL    HW119727   2.561   3.613   8.401  1.2942 -0.9967  1.2854
 2697SOL    HW219728   2.536   3.743   8.348  2.3371  0.8312 -2.2743
 2698SOL     OW19729   1.797   3.374   8.307  0.0707  0.2537 -0.0012
 2698SOL    HW119730   1.836   3.305   8.361  1.0619  0.7238 -0.1223
 2698SOL    HW219731   1.868   3.437   8.298 -0.2174  0.5472 -0.1888
 2699SOL     OW19732   0.403   4.246  16.311  0.1764 -0.1524 -0.6354
 2699SOL    HW119733   0.458   4.249  16.390  0.2274  1.0636 -0.7026
 2699SOL    HW219734   0.311   4.255  16.337  0.1966 -2.4210  0.2022
 2700SOL     OW19735   0.960   3.565   5.229 -0.6896 -0.2062 -0.2479
 2700SOL    HW119736   1.022   3.526   5.168  1.8188  0.1146  2.1207
 2700SOL    HW219737   0.961   3.658   5.207 -0.9806 -0.7208 -2.4142
 2701SOL     OW19738   2.506   2.129   8.670  0.0885 -0.2392 -0.2403
 2701SOL    HW119739   2.494   2.086   8.755 -1.3793 -1.7592 -1.2222
 2701SOL    HW219740   2.435   2.087   8.621 -1.2537 -1.1496  2.5008
 2702SOL     OW19741   3.360   3.301   7.600 -0.1666  0.1578 -0.2977
 2702SOL    HW119742   3.365   3.365   7.671  0.2675 -0.7892  0.5186
 2702SOL    HW219743   3.265   3.303   7.586 -0.2364  0.2993  0.2031
 2703SOL     OW19744   2.870   0.346   6.779  0.6885 -0.7537  1.1164
 2703SOL    HW119745   2.949   0.396   6.760 -0.6823  0.7823 -0.5732
 2703SOL    HW219746   2.845   0.368   6.869  2.0784  2.7363  0.6655
 2704SOL     OW19747   0.673   1.791   2.021  0.2190  0.1130 -1.2428
 2704SOL    HW119748   0.735   1.751   1.960  1.7683 -0.3078  0.5880
 2704SOL    HW219749   0.721   1.872   2.040  0.9110 -0.3862 -0.8530
 2705SOL     OW19750   4.504   2.663  14.459  0.1120  0.1269 -0.1510
 2705SOL    HW119751   4.598   2.666  14.475  0.3162  2.6374 -1.9521
 2705SOL    HW219752   4.490   2.755  14.479 -1.3713 -0.5409  1.9119
 2706SOL     OW19753   0.069   4.336   7.498 -0.2065 -0.5716 -0.6042
 2706SOL    HW119754   0.036   4.305   7.413  0.5614  1.5044 -1.6487
 2706SOL    HW219755   0.066   4.259   7.556 -2.6325 -0.2931 -0.3394
 2707SOL     OW19756   2.245   0.806  16.409 -0.4843  0.4722  0.2787
 2707SOL    HW119757   2.238   0.829  16.502  1.9889  1.2514  0.2770
 2707SOL    HW219758   2.256   0.896  16.378 -1.4672  0.5765  0.2076
 2708SOL     OW19759   3.465   2.124   6.124 -0.3540  0.4308  0.0544
 2708SOL    HW119760   3.393   2.108   6.064 -1.1560  1.6928  0.6853
 2708SOL    HW219761   3.519   2.049   6.099 -0.9625  0.1111 -0.2938
 2709SOL     OW19762   4.008   4.215   0.127 -0.2118  0.0348 -0.3456
 2709SOL    HW119763   4.011   4.310   0.111 -1.7788 -0.0266 -1.1132
 2709SOL    HW219764   3.948   4.195   0.055  0.1983  1.1404 -1.0074
 2710SOL     OW19765   0.012   1.412   6.138  0.1970 -0.5051  0.4153
 2710SOL    HW119766   0.081   1.472   6.167 -0.8123  0.5672  0.5739
 2710SOL    HW219767   0.010   1.333   6.192  0.9273 -0.4416  0.5373
 2711SOL     OW19768   1.435   3.517   7.265  0.0187  0.3390 -0.2502
 2711SOL    HW119769   1.493   3.536   7.191  0.4178  0.0930 -0.0010
 2711SOL    HW219770   1.488   3.485   7.337 -1.1337  0.9726  0.8786
 2712SOL     OW19771   0.170   3.057   2.703 -0.4473  1.0435 -0.1105
 2712SOL    HW119772   0.133   3.120   2.764  0.6514  0.5126  1.1070
 2712SOL    HW219773   0.256   3.076   2.742  0.1833 -1.4676 -0.2763
 2713SOL     OW19774   3.019   1.052  16.906 -0.2261  0.0837  0.6072
 2713SOL    HW119775   2.961   1.106  16.852  1.0174 -0.4491 -1.2358
 2713SOL    HW219776   3.024   1.111  16.981 -1.2714  1.9158 -0.7705
 2714SOL     OW19777   0.942   0.425   4.798 -0.3330  0.0552 -0.2143
 2714SOL    HW119778   0.872   0.379   4.753 -0.0992  0.6055 -1.1319
 2714SOL    HW219779   0.885   0.462   4.866 -0.8948  2.0552 -1.7733
 2715SOL     OW19780   1.854   0.102   8.267 -0.0507  0.1004 -0.2891
 2715SOL    HW119781   1.817   0.046   8.336  2.2133 -3.1962 -1.7632
 2715SOL    HW219782   1.945   0.086   8.293  0.0449  0.1808 -0.5770
 2716SOL     OW19783   1.060   4.314   1.610 -0.4560 -0.1381 -0.0031
 2716SOL    HW119784   1.040   4.407   1.627  3.1612  0.5350  0.4956
 2716SOL    HW219785   1.068   4.283   1.700  0.4460 -0.6591 -0.2661
 2717SOL     OW19786   2.422   2.273   6.357 -0.3597  0.3753  0.0018
 2717SOL    HW119787   2.415   2.219   6.278 -0.4822  2.0104 -1.1279
 2717SOL    HW219788   2.386   2.219   6.427 -0.1563 -1.3687 -1.2505
 2718SOL     OW19789   0.893   3.110   7.776  0.0117 -0.3575 -0.0158
 2718SOL    HW119790   0.863   3.185   7.828  0.0022 -0.3319 -0.0582
 2718SOL    HW219791   0.809   3.088   7.736 -2.2789  4.3471  2.1644
 2719SOL     OW19792   4.528   4.246   5.471 -0.3781  0.0191 -0.0650
 2719SOL    HW119793   4.460   4.240   5.537  0.6504 -1.1639  0.8829
 2719SOL    HW219794   4.556   4.337   5.486 -1.4674  0.6102 -1.5276
 2720SOL     OW19795   3.908   1.829   6.517 -0.0113  0.4644  0.4380
 2720SOL    HW119796   3.957   1.856   6.439  0.5663 -0.0674  0.6177
 2720SOL    HW219797   3.818   1.830   6.485 -0.0039  0.6247  0.4218
 2721SOL     OW19798   1.417   1.493   3.344 -0.0818 -0.3518  0.1240
 2721SOL    HW119799   1.332   1.451   3.348 -0.5544  0.5678 -0.3371
 2721SOL    HW219800   1.410   1.564   3.407  2.0257  1.2259 -1.3997
 2722SOL     OW19801   3.521   2.506   1.889 -0.0395  0.5414  0.1788
 2722SOL    HW119802   3.445   2.545   1.932  1.5956  0.4509  3.1575
 2722SOL    HW219803   3.502   2.414   1.903  1.5732  0.2782  0.7033
 2723SOL     OW19804   3.645   2.005   4.216 -0.3140  0.1593  0.8885
 2723SOL    HW119805   3.571   1.983   4.272 -1.6359  0.5847 -0.6680
 2723SOL    HW219806   3.664   1.924   4.168 -0.1479  1.8815 -1.9891
 2724SOL     OW19807   2.458   2.431   6.016 -0.3976  0.3550  0.3885
 2724SOL    HW119808   2.392   2.497   6.038  0.5285  0.8762  1.5676
 2724SOL    HW219809   2.405   2.352   6.013  0.4944 -0.1803 -1.7502
 2725SOL     OW19810   3.865   2.001   1.461 -0.3042  0.3285 -0.1034
 2725SOL    HW119811   3.906   2.056   1.394  2.1460 -0.6261  0.6580
 2725SOL    HW219812   3.913   1.919   1.465  0.3825  0.7481  0.1658
 2726SOL     OW19813   1.823   2.207   2.745 -0.4410 -0.2736  0.0589
 2726SOL    HW119814   1.837   2.114   2.763  1.4244 -0.0863 -0.3588
 2726SOL    HW219815   1.796   2.231   2.834 -0.6658  1.6920 -0.5427
 2727SOL     OW19816   3.016   4.620   7.171  0.2490  0.0397  0.2244
 2727SOL    HW119817   2.940   4.616   7.229 -0.0758 -0.8108 -0.2629
 2727SOL    HW219818   3.023   4.527   7.149  0.8065  0.4223 -1.1785
 2728SOL     OW19819   2.931   2.194   3.013 -0.2489  0.4433 -0.6276
 2728SOL    HW119820   2.898   2.260   3.074  0.0972 -0.1006  0.1564
 2728SOL    HW219821   2.865   2.127   3.031  0.1348  0.1847 -0.1798
 2729SOL     OW19822   1.449   2.696   6.799 -0.2102  0.4964  1.0947
 2729SOL    HW119823   1.360   2.726   6.780  0.5082  1.3198 -0.9902
 2729SOL    HW219824   1.460   2.742   6.882 -1.0213  2.0643  0.3518
 2730SOL     OW19825   0.343   4.571   2.621  0.0350  0.0976 -0.3669
 2730SOL    HW119826   0.322   4.545   2.531  0.7289 -0.5918 -0.3323
 2730SOL    HW219827   0.300   4.656   2.626  1.6364  0.9020 -0.5888
 2731SOL     OW19828   3.819   4.074   8.020 -0.3464  0.9832 -0.2192
 2731SOL    HW119829   3.777   4.120   7.948 -1.6200 -0.8975 -0.6701
 2731SOL    HW219830   3.750   4.062   8.085 -0.0399  3.3122  0.5246
 2732SOL     OW19831   2.995   3.678   2.433  0.4095  0.1645  0.2550
 2732SOL    HW119832   3.004   3.765   2.472 -0.1237 -0.2396  1.2723
 2732SOL    HW219833   3.077   3.688   2.385  0.3393 -1.5340 -0.2164
 2733SOL     OW19834   1.921   1.796   3.779 -0.5773  0.0225  0.0363
 2733SOL    HW119835   1.881   1.880   3.801 -1.9620 -0.1260 -1.9245
 2733SOL    HW219836   1.840   1.746   3.780  0.2920 -1.3979 -1.7266
 2734SOL     OW19837   3.471   3.611   5.922 -0.1996 -0.1609  0.1149
 2734SOL    HW119838   3.475   3.675   5.851  1.0376 -1.7396 -1.2421
 2734SOL    HW219839   3.382   3.578   5.912 -0.2191 -0.2706  0.6614
 2735SOL     OW19840   3.885   1.396   6.732  0.3421 -0.4424 -0.5090
 2735SOL    HW119841   3.805   1.418   6.684  0.1843 -1.2086 -0.5972
 2735SOL    HW219842   3.954   1.456   6.701  0.6337 -0.7842 -0.5212
 2736SOL     OW19843   0.066   3.250  17.620 -0.2527 -0.0582 -0.0285
 2736SOL    HW119844   4.715   3.261  17.590 -0.1279 -0.5415 -0.5846
 2736SOL    HW219845   0.106   3.235  17.534 -0.0644  0.8517 -0.1028
 2737SOL     OW19846   0.185   2.185   5.062 -0.2498 -0.3847  0.1132
 2737SOL    HW119847   0.250   2.247   5.095  2.1401 -1.4800 -2.5521
 2737SOL    HW219848   0.112   2.246   5.076 -2.9764 -3.5923 -0.0767
 2738SOL     OW19849   3.400   0.563   0.661  0.6671  0.2883 -0.4836
 2738SOL    HW119850   3.477   0.601   0.703 -0.9423  2.5373  0.4290
 2738SOL    HW219851   3.338   0.621   0.704  0.5745  0.2426 -0.5551
 2739SOL     OW19852   1.683   0.167   0.921 -0.3354 -0.0289 -0.0325
 2739SOL    HW119853   1.686   0.112   0.843  1.2597  0.9294 -0.6655
 2739SOL    HW219854   1.736   0.114   0.981  0.5286  0.7150 -0.1304
 2740SOL     OW19855   3.249   0.087   5.605  1.1091 -0.1327 -0.1730
 2740SOL    HW119856   3.241   0.152   5.535 -0.0393 -1.1518 -0.9976
 2740SOL    HW219857   3.163   0.047   5.593 -0.2660  2.2153  1.7967
 2741SOL     OW19858   1.307   3.623   2.384 -0.5044 -0.5952  0.0547
 2741SOL    HW119859   1.272   3.623   2.295  0.4745  1.1324 -0.3384
 2741SOL    HW219860   1.241   3.571   2.430  0.7862 -1.1326  1.3196
 2742SOL     OW19861   2.676   1.713  13.898  1.0243  0.3070  0.4168
 2742SOL    HW119862   2.586   1.724  13.928  1.4555  2.3853  0.9582
 2742SOL    HW219863   2.677   1.623  13.865 -1.5620 -0.2072  1.7242
 2743SOL     OW19864   0.382   3.271   6.541 -0.1691 -0.1372 -0.9777
 2743SOL    HW119865   0.358   3.364   6.549 -2.0837 -0.6651 -0.7130
 2743SOL    HW219866   0.469   3.277   6.581 -0.1193  1.0908 -1.2505
 2744SOL     OW19867   3.284   2.187   6.662  0.0826 -0.3811 -0.3534
 2744SOL    HW119868   3.322   2.213   6.746  0.8286  0.2673 -0.8897
 2744SOL    HW219869   3.326   2.232   6.589  0.6637  0.0983  0.2779
 2745SOL     OW19870   1.785   0.151   1.721  0.0362  0.3753 -0.4181
 2745SOL    HW119871   1.710   0.123   1.773 -0.7685  0.7911 -1.3538
 2745SOL    HW219872   1.752   0.232   1.682  0.7852  0.9133  0.0678
 2746SOL     OW19873   4.303   2.896   4.519 -0.3998 -0.1189  0.3430
 2746SOL    HW119874   4.271   2.821   4.469 -1.2399  1.5265 -1.5963
 2746SOL    HW219875   4.335   2.849   4.595  1.5520 -0.5666 -0.7467
 2747SOL     OW19876   4.684   1.271   2.105  0.3283 -0.4879 -0.3334
 2747SOL    HW119877   0.012   1.222   2.056 -1.2916 -1.7177 -1.2884
 2747SOL    HW219878   4.698   1.238   2.194  3.6653  0.6775 -0.4333
 2748SOL     OW19879   1.171   0.236   7.859 -0.0161 -0.0628 -0.2451
 2748SOL    HW119880   1.257   0.203   7.884 -0.5456 -0.0618  1.5520
 2748SOL    HW219881   1.195   0.273   7.774 -1.1498  1.4590  0.0982
 2749SOL     OW19882   2.706   1.851   3.661  0.5607  0.3160 -0.4483
 2749SOL    HW119883   2.757   1.822   3.736  1.5132  0.3100 -1.0976
 2749SOL    HW219884   2.769   1.849   3.589 -0.4539 -1.6393 -1.2932
 2750SOL     OW19885   3.272   2.072   5.808  0.2205  0.2535  0.0907
 2750SOL    HW119886   3.277   1.979   5.828  1.0341  0.3769  0.4723
 2750SOL    HW219887   3.230   2.074   5.722 -0.2251  0.3809  0.3124
 2751SOL     OW19888   0.894   2.651   8.724 -0.1942 -0.0634  0.4265
 2751SOL    HW119889   0.822   2.713   8.710  0.6664  0.9092  0.2898
 2751SOL    HW219890   0.876   2.610   8.808  1.3291 -0.8495  0.3814
 2752SOL     OW19891   3.902   3.263  15.824 -0.1263  1.0098 -0.4364
 2752SOL    HW119892   3.922   3.354  15.848 -0.2339  0.3285  2.3016
 2752SOL    HW219893   3.964   3.207  15.871 -2.5274 -0.6852  0.7085
 2753SOL     OW19894   3.391   3.974   8.023  0.1486  0.0653 -0.2723
 2753SOL    HW119895   3.434   3.949   8.105  1.6294  0.3598 -0.9493
 2753SOL    HW219896   3.338   4.047   8.054  0.2295  0.5374 -1.2463
 2754SOL     OW19897   3.795   1.065  15.316  0.2389  0.2241  0.0507
 2754SOL    HW119898   3.804   1.075  15.411  0.3442 -1.4476  0.2188
 2754SOL    HW219899   3.875   1.014  15.302  0.8660  1.5539 -1.0972
 2755SOL     OW19900   2.573   1.982  10.290 -0.0990 -0.3291 -0.2246
 2755SOL    HW119901   2.484   1.976  10.254  0.7734  0.5431 -2.4966
 2755SOL    HW219902   2.567   2.054  10.353  0.7126 -1.8422  1.5848
 2756SOL     OW19903   3.745   0.391   4.570 -0.0238  0.2260 -0.6466
 2756SOL    HW119904   3.736   0.449   4.494 -0.8811  1.3129  0.3019
 2756SOL    HW219905   3.705   0.309   4.541 -0.5880  0.2522  0.0801
 2757SOL     OW19906   3.266   1.648   1.412  0.3829  0.0475  0.5171
 2757SOL    HW119907   3.206   1.636   1.486  0.3175  1.9942  0.7638
 2757SOL    HW219908   3.349   1.610   1.439 -0.1092 -0.1571  1.7551
 2758SOL     OW19909   0.181   4.052   1.179  0.1234  0.2434 -0.2084
 2758SOL    HW119910   0.146   3.963   1.169 -1.7999  1.1789 -1.7024
 2758SOL    HW219911   0.181   4.088   1.091  1.8061  0.4784 -0.1140
 2759SOL     OW19912   4.354   1.758  10.079 -0.5805 -0.6131  0.1697
 2759SOL    HW119913   4.319   1.708  10.005  0.2866  1.3538 -1.5600
 2759SOL    HW219914   4.334   1.845  10.045 -1.5021 -1.5092 -1.5872
 2760SOL     OW19915   4.596   0.387   1.181  0.8069  0.2074 -0.9014
 2760SOL    HW119916   4.589   0.476   1.146 -0.4899  0.1586 -0.7733
 2760SOL    HW219917   4.672   0.412   1.233  1.1448 -2.9268  0.0973
 2761SOL     OW19918   0.833   4.218   2.802  0.0723 -0.3074  0.6806
 2761SOL    HW119919   0.834   4.314   2.797 -1.2468 -0.2903  0.7611
 2761SOL    HW219920   0.741   4.190   2.806 -0.1090  0.3995  1.4387
 2762SOL     OW19921   3.882   4.382  14.656 -0.5342  0.2018 -0.1610
 2762SOL    HW119922   3.850   4.457  14.605  0.8188 -0.4600 -1.9897
 2762SOL    HW219923   3.925   4.426  14.729 -1.4587 -0.5005  0.7985
 2763SOL     OW19924   0.494   4.514   3.311  0.3893 -0.0946 -0.2372
 2763SOL    HW119925   0.444   4.592   3.287  1.0698  0.3876 -0.0779
 2763SOL    HW219926   0.450   4.482   3.390 -1.0136 -2.6270 -2.0376
 2764SOL     OW19927   1.406   0.143   2.787 -0.7239 -0.2477 -0.2691
 2764SOL    HW119928   1.417   0.049   2.775 -1.9179 -0.2937 -0.8972
 2764SOL    HW219929   1.419   0.131   2.882  1.4662  0.4323 -0.4780
 2765SOL     OW19930   2.925   3.402   0.903 -0.0678 -0.5359 -0.1302
 2765SOL    HW119931   2.964   3.385   0.989  0.2236 -1.2758 -0.4129
 2765SOL    HW219932   2.893   3.313   0.891  0.8513 -1.2630  2.7266
 2766SOL     OW19933   1.488   2.326   6.421 -0.3900  0.5776  0.6648
 2766SOL    HW119934   1.501   2.240   6.462  0.0839 -0.2849 -1.2571
 2766SOL    HW219935   1.491   2.381   6.499 -1.3669 -1.1201  1.9110
 2767SOL     OW19936   1.482   4.337   5.708  0.9326  0.1982 -0.1142
 2767SOL    HW119937   1.397   4.342   5.752  1.8586 -1.0669  1.8521
 2767SOL    HW219938   1.533   4.366   5.784 -1.7997 -0.6965  2.0614
 2768SOL     OW19939   2.486   3.686   3.614  0.1815 -0.0517 -0.1932
 2768SOL    HW119940   2.569   3.667   3.571  0.2275 -0.0258 -0.1157
 2768SOL    HW219941   2.478   3.605   3.664  1.7181 -0.2521 -0.2550
 2769SOL     OW19942   2.662   0.419   4.849  0.3666  0.0747  0.1955
 2769SOL    HW119943   2.568   0.426   4.829 -0.0303 -1.0664  1.6976
 2769SOL    HW219944   2.675   0.326   4.865 -0.0814 -0.3851 -2.0525
 2770SOL     OW19945   2.714   0.637   6.213  0.2316 -0.0531  0.2045
 2770SOL    HW119946   2.713   0.728   6.185 -0.7613 -0.5837 -1.4979
 2770SOL    HW219947   2.626   0.620   6.179  0.1258 -0.0208  0.4643
 2771SOL     OW19948   2.284   1.803   9.697  0.2578 -0.3037  0.1243
 2771SOL    HW119949   2.257   1.711   9.707 -1.0827  0.1474  0.6427
 2771SOL    HW219950   2.196   1.836   9.681  0.0597 -0.7349  0.3298
 2772SOL     OW19951   2.333   2.412   2.872 -0.4317 -0.3638 -0.0452
 2772SOL    HW119952   2.271   2.352   2.830 -0.1599 -0.4247 -0.3618
 2772SOL    HW219953   2.379   2.437   2.792  1.3891 -0.6023  0.9284
 2773SOL     OW19954   4.338   1.179  12.199 -0.3787 -0.1516  0.2702
 2773SOL    HW119955   4.404   1.208  12.136 -0.6281 -2.4879 -1.0661
 2773SOL    HW219956   4.380   1.212  12.279  0.7610 -1.2146  0.1043
 2774SOL     OW19957   3.488   4.175   9.949 -0.2278  0.3595 -0.0225
 2774SOL    HW119958   3.438   4.244   9.993  0.2396  1.8519 -1.8671
 2774SOL    HW219959   3.439   4.094   9.967 -0.2104  0.3724  0.0823
 2775SOL     OW19960   2.879   1.209  16.182 -0.1564 -0.2295  0.4095
 2775SOL    HW119961   2.923   1.277  16.233  1.3472  0.3710 -1.7157
 2775SOL    HW219962   2.848   1.258  16.106 -0.6542  0.5741  1.1309
 2776SOL     OW19963   4.698   4.594   7.927  0.1752  0.1599  0.0443
 2776SOL    HW119964   4.713   4.597   7.832 -2.5488  1.5449 -0.3327
 2776SOL    HW219965   4.678   4.687   7.932 -2.5348 -0.4863  1.0507
 2777SOL     OW19966   2.743   0.018   6.546 -0.2673 -0.1841  0.0681
 2777SOL    HW119967   2.702   0.065   6.474 -0.1397 -1.0674 -0.5912
 2777SOL    HW219968   2.820   0.074   6.560 -0.5334  0.8473 -2.6033
 2778SOL     OW19969   2.510   3.778   6.438 -0.1060  0.0711  0.1303
 2778SOL    HW119970   2.577   3.727   6.484 -0.3201  0.0465  0.4193
 2778SOL    HW219971   2.559   3.786   6.356 -0.5016 -1.1985 -0.2343
 2779SOL     OW19972   2.776   0.755   7.642  0.0031 -0.3720  0.3711
 2779SOL    HW119973   2.751   0.725   7.554  1.0629 -0.5309  0.1157
 2779SOL    HW219974   2.744   0.845   7.638 -2.8723 -1.4379 -0.2309
 2780SOL     OW19975   1.605   2.861  15.051 -0.2557 -0.0017 -0.7369
 2780SOL    HW119976   1.529   2.880  14.996  0.9934  3.3044 -1.3145
 2780SOL    HW219977   1.666   2.844  14.980  1.5158 -2.1900  1.2680
 2781SOL     OW19978   0.658   2.290   4.998 -0.8491  0.1878 -0.0483
 2781SOL    HW119979   0.607   2.356   5.045 -0.7489 -0.0140  0.3406
 2781SOL    HW219980   0.744   2.330   4.985 -0.3811 -0.6526  0.5208
 2782SOL     OW19981   0.856   3.550   8.063 -0.0902 -0.4486 -0.6914
 2782SOL    HW119982   0.844   3.517   7.974 -1.5740  0.1152 -0.7056
 2782SOL    HW219983   0.949   3.575   8.061 -0.9583  2.8129 -1.6296
 2783SOL     OW19984   4.060   1.796   2.750  0.5785  0.3231 -0.1831
 2783SOL    HW119985   4.066   1.888   2.777 -2.3441  0.7104 -0.8028
 2783SOL    HW219986   3.982   1.773   2.800  1.3199  1.1472  1.3641
 2784SOL     OW19987   3.284   3.338   6.410 -0.2368  0.1068  0.1558
 2784SOL    HW119988   3.290   3.312   6.501  2.7436 -0.4450 -0.2046
 2784SOL    HW219989   3.348   3.409   6.404 -0.8300  0.7424  1.4985
 2785SOL     OW19990   1.433   3.387   1.135  0.8003 -0.0962 -0.0099
 2785SOL    HW119991   1.456   3.440   1.211 -1.9159  0.4860  0.4173
 2785SOL    HW219992   1.470   3.443   1.068 -1.1688  0.0393 -0.9856
 2786SOL     OW19993   3.210   0.454   0.486 -0.0018 -0.3552 -0.0308
 2786SOL    HW119994   3.266   0.495   0.553 -0.0606 -0.3015 -0.0145
 2786SOL    HW219995   3.211   0.528   0.426  0.8515 -0.2000  0.1745
 2787SOL     OW19996   3.052   1.426   8.000 -0.2133 -0.1982  0.6246
 2787SOL    HW119997   3.085   1.514   7.981 -0.6578 -0.6859 -2.4824
 2787SOL    HW219998   3.074   1.382   7.918 -6.2776 -0.5601 -0.8560
 2788SOL     OW19999   0.415   2.220   6.597  0.5403 -0.6687 -0.0927
 2788SOL    HW120000   0.388   2.129   6.587  0.1973 -0.3979 -1.6866
 2788SOL    HW220001   0.348   2.271   6.641 -0.5547 -0.5563 -1.8895
 2789SOL     OW20002   2.920   1.301   3.686 -0.8043  0.0474  0.2576
 2789SOL    HW120003   2.883   1.213   3.694 -1.5583  0.3503  0.1737
 2789SOL    HW220004   2.909   1.312   3.591  1.1394 -1.0286 -0.0915
 2790SOL     OW20005   0.309   4.512   3.785 -0.2864  0.1603 -0.2280
 2790SOL    HW120006   0.280   4.421   3.782 -1.4075  0.5358 -0.6149
 2790SOL    HW220007   0.349   4.513   3.872 -1.7057  1.6082  0.4157
 2791SOL     OW20008   3.309   3.761   1.357  0.3936  0.5638  0.3245
 2791SOL    HW120009   3.313   3.806   1.442  2.4516 -0.2571  0.6792
 2791SOL    HW220010   3.230   3.709   1.368  1.9570 -1.5441  1.6376
 2792SOL     OW20011   1.357   2.889  14.929 -0.3823  0.1445 -0.2890
 2792SOL    HW120012   1.333   2.900  14.837  1.5979 -1.2259 -0.9903
 2792SOL    HW220013   1.280   2.920  14.976  0.4636 -2.4269  2.8067
 2793SOL     OW20014   0.547   0.782  12.785 -0.4077 -0.2994 -0.5482
 2793SOL    HW120015   0.476   0.809  12.726 -1.7903  0.0072  1.2404
 2793SOL    HW220016   0.491   0.737  12.849 -0.9545 -0.0840 -0.8675
 2794SOL     OW20017   2.754   1.109   2.194 -0.7490  0.6335  0.2747
 2794SOL    HW120018   2.776   1.089   2.103 -1.1997  0.6575  0.1585
 2794SOL    HW220019   2.678   1.051   2.199 -0.2744 -0.1169 -1.4470
 2795SOL     OW20020   0.892   3.081   3.137 -0.2342  0.4203  1.2036
 2795SOL    HW120021   0.962   3.145   3.122  0.9446 -0.8557  1.2309
 2795SOL    HW220022   0.830   3.117   3.201  0.3113  1.6681  1.0324
 2796SOL     OW20023   4.693   4.487   5.558 -0.1761  0.1796  0.0422
 2796SOL    HW120024   4.698   4.491   5.462  0.3978 -0.3375  0.0470
 2796SOL    HW220025   4.640   4.560   5.588 -0.9365 -1.2033  1.9828
 2797SOL     OW20026   3.521   1.056   8.686 -0.3450 -0.0544 -0.3254
 2797SOL    HW120027   3.461   1.127   8.663 -0.5949 -0.2786 -0.3740
 2797SOL    HW220028   3.458   0.987   8.706  1.8213 -1.3666  1.8903
 2798SOL     OW20029   4.422   2.183  10.902 -0.0747 -0.0814  0.2246
 2798SOL    HW120030   4.363   2.250  10.866 -1.3135 -1.2442  0.1133
 2798SOL    HW220031   4.476   2.244  10.952  0.0513  0.4436 -0.5438
 2799SOL     OW20032   0.522   1.725   3.985 -0.5719 -0.0586  0.8533
 2799SOL    HW120033   0.599   1.713   4.040  1.3916  0.6962 -1.7275
 2799SOL    HW220034   0.466   1.762   4.054 -0.7360  2.6902 -0.7693
 2800SOL     OW20035   2.087   0.284   8.158  0.2220 -0.6847 -0.3492
 2800SOL    HW120036   2.057   0.204   8.201 -0.2624  0.6057  1.7305
 2800SOL    HW220037   2.171   0.315   8.194  0.3708 -1.0304 -0.4043
 2801SOL     OW20038   4.070   1.345   8.420 -0.5985  0.2971 -0.3076
 2801SOL    HW120039   4.028   1.301   8.494  1.0351 -1.4084 -0.3889
 2801SOL    HW220040   4.153   1.296   8.422  1.1976  3.3831 -0.0997
 2802SOL     OW20041   2.139   4.517   1.172 -0.3609  0.1133  0.2743
 2802SOL    HW120042   2.211   4.454   1.173  1.8336  2.6367  2.9343
 2802SOL    HW220043   2.120   4.521   1.265 -0.5964  1.5221  0.1748
 2803SOL     OW20044   0.060   3.528   3.005  0.1565 -0.1051 -0.2047
 2803SOL    HW120045   4.705   3.523   3.026  0.4495 -1.5684  0.7344
 2803SOL    HW220046   0.072   3.622   2.994 -0.5301 -0.0977 -0.8773
 2804SOL     OW20047   1.180   3.927   9.302 -0.3287 -0.4996  0.0747
 2804SOL    HW120048   1.132   3.992   9.251 -0.0331  0.9156  1.6059
 2804SOL    HW220049   1.233   3.896   9.229 -1.0471  0.3500 -0.8127
 2805SOL     OW20050   3.165   2.023   4.192 -0.2103  0.3657 -0.1211
 2805SOL    HW120051   3.075   2.029   4.225  0.0385 -1.6285  0.8974
 2805SOL    HW220052   3.202   2.094   4.246  0.8854 -0.2726 -0.0192
 2806SOL     OW20053   3.811   0.846   5.806  0.3510 -0.4478  0.1885
 2806SOL    HW120054   3.804   0.850   5.710 -0.4217  0.9221  0.2899
 2806SOL    HW220055   3.905   0.838   5.821  0.6139  1.0913 -0.6115
 2807SOL     OW20056   2.050   4.213   5.762 -0.2446 -0.2709 -0.0838
 2807SOL    HW120057   2.124   4.271   5.776  0.3315 -0.8630 -0.7192
 2807SOL    HW220058   2.096   4.131   5.745 -3.3717 -1.5878 -2.1815
 2808SOL     OW20059   1.162   3.956   5.199 -0.5292  0.0567 -0.5513
 2808SOL    HW120060   1.146   3.995   5.114  0.7071 -0.7466 -1.1506
 2808SOL    HW220061   1.075   3.930   5.229  0.5380 -1.9179  0.8145
 2809SOL     OW20062   1.875   0.334   2.305  0.2268  0.3863  0.3011
 2809SOL    HW120063   1.860   0.427   2.318 -2.0259  0.1765 -0.7976
 2809SOL    HW220064   1.789   0.308   2.340  2.0959 -1.8700  3.1692
 2810SOL     OW20065   2.010   2.920   0.568 -0.4260 -0.0813 -0.5517
 2810SOL    HW120066   1.999   2.971   0.488  2.8737 -1.2051 -1.7198
 2810SOL    HW220067   1.919   2.910   0.596 -0.1960 -1.0523 -0.1583
 2811SOL     OW20068   1.785   4.660   5.672 -0.4820  0.1890  0.0817
 2811SOL    HW120069   1.838   4.681   5.595  2.3686  0.6994  2.1674
 2811SOL    HW220070   1.811   4.571   5.698 -0.3312  0.0573 -0.5215
 2812SOL     OW20071   0.822   3.612   9.834  0.1468 -0.0382  0.1916
 2812SOL    HW120072   0.736   3.653   9.834  0.8737  1.4795  1.2858
 2812SOL    HW220073   0.862   3.635   9.751  2.0412 -2.4161  0.4388
 2813SOL     OW20074   1.828   0.041   3.527  0.0808 -0.6065  0.3931
 2813SOL    HW120075   1.820   0.123   3.577  1.1010  0.1655 -0.7209
 2813SOL    HW220076   1.812   4.709   3.590  1.6593 -1.9208 -0.6965
 2814SOL     OW20077   1.006   1.163   7.075 -0.0485 -0.0651 -0.4431
 2814SOL    HW120078   0.991   1.169   7.169 -0.7233  1.5558 -0.6625
 2814SOL    HW220079   0.948   1.229   7.038 -0.6667 -0.7130 -0.6304
 2815SOL     OW20080   4.125   4.535  11.822  0.0043  0.3543  0.2259
 2815SOL    HW120081   4.108   4.452  11.779  0.7034  0.1004  0.4353
 2815SOL    HW220082   4.108   4.513  11.914 -1.3111 -0.5542 -0.2403
 2816SOL     OW20083   3.832   2.412   5.269 -0.0116  0.2442 -0.0209
 2816SOL    HW120084   3.919   2.395   5.233 -0.7594 -0.3590 -1.5254
 2816SOL    HW220085   3.849   2.439   5.359 -0.0429 -2.5688  0.8305
 2817SOL     OW20086   1.898   2.243  12.485  0.6688 -0.3144 -0.0240
 2817SOL    HW120087   1.839   2.215  12.414  1.6033 -1.1953 -0.4513
 2817SOL    HW220088   1.910   2.163  12.536  1.5505 -0.7752 -0.9597
 2818SOL     OW20089   0.291   1.538  11.593 -0.2440  0.0223 -0.7713
 2818SOL    HW120090   0.241   1.481  11.652 -1.2271  1.9007  0.2405
 2818SOL    HW220091   0.378   1.499  11.587 -0.3628 -0.3077 -0.3792
 2819SOL     OW20092   2.610   4.737   7.316 -0.0970  0.0368  0.1092
 2819SOL    HW120093   2.597   0.056   7.391  0.7193  1.6442 -0.9941
 2819SOL    HW220094   2.521   4.703   7.304  0.6736 -0.9592 -2.8275
 2820SOL     OW20095   1.581   3.623   7.767  0.5849 -0.2437 -0.4875
 2820SOL    HW120096   1.585   3.549   7.827 -3.6622  0.5415  0.7868
 2820SOL    HW220097   1.510   3.677   7.801 -0.9621 -2.8243  0.3706
 2821SOL     OW20098   2.127   2.244   3.351  0.0555  0.3697  0.7543
 2821SOL    HW120099   2.033   2.247   3.332  0.1552 -0.9459  0.0302
 2821SOL    HW220100   2.127   2.199   3.436  2.1662  0.0809  0.6171
 2822SOL     OW20101   3.354   2.676   5.659 -0.4783  1.0567 -1.1278
 2822SOL    HW120102   3.296   2.690   5.734  1.1858 -0.7936  0.4918
 2822SOL    HW220103   3.293   2.614   5.618  0.8447 -0.1474 -1.2558
 2823SOL     OW20104   1.596   3.455   7.986  0.0741  0.6612  0.0415
 2823SOL    HW120105   1.678   3.422   7.951 -0.7750  0.3473 -1.6433
 2823SOL    HW220106   1.568   3.383   8.042  1.2752 -0.2995 -0.6101
 2824SOL     OW20107   0.654   4.068  17.654  0.2474  0.0980  0.8493
 2824SOL    HW120108   0.609   4.141  17.611  1.9931  0.8949  0.3418
 2824SOL    HW220109   0.595   4.049  17.727  0.4759 -1.6661  0.5824
 2825SOL     OW20110   2.808   1.335  17.392 -1.0899 -0.2970 -0.1653
 2825SOL    HW120111   2.895   1.370  17.373 -0.8202  0.6413  2.7063
 2825SOL    HW220112   2.757   1.408  17.427  0.0074  1.6275 -2.5588
 2826SOL     OW20113   4.523   3.452   5.040 -0.1742  0.4240 -0.0131
 2826SOL    HW120114   4.547   3.543   5.059 -1.8899  0.6761  0.9960
 2826SOL    HW220115   4.427   3.451   5.040 -0.1849  1.2015  0.0451
 2827SOL     OW20116   3.090   2.282   9.114  0.0344 -0.9271  0.2899
 2827SOL    HW120117   3.118   2.193   9.131 -0.5682 -1.2487 -0.3813
 2827SOL    HW220118   3.124   2.286   9.024  0.3528  1.8624  0.5318
 2828SOL     OW20119   3.448   0.084   1.970  0.3769 -0.5977 -0.4915
 2828SOL    HW120120   3.535   0.123   1.977  0.1804  0.0777 -1.8736
 2828SOL    HW220121   3.430   0.116   1.882 -0.9500 -1.2290 -0.4423
 2829SOL     OW20122   2.980   1.045   8.266  0.0777 -0.4124  0.9540
 2829SOL    HW120123   3.000   1.136   8.283  0.4686 -0.5509  1.2148
 2829SOL    HW220124   3.064   1.008   8.291  1.0547 -0.3942 -2.2365
 2830SOL     OW20125   1.622   1.085  15.975  0.3030 -0.1341 -0.1958
 2830SOL    HW120126   1.562   1.056  16.043  3.6660  1.2909  3.4473
 2830SOL    HW220127   1.568   1.141  15.920 -0.9504 -0.0909  1.0903
 2831SOL     OW20128   4.400   0.815  11.182  0.3720 -0.1817 -0.1603
 2831SOL    HW120129   4.338   0.880  11.148  0.2071 -1.0165 -1.4830
 2831SOL    HW220130   4.352   0.788  11.260  1.3705  1.6451  1.0729
 2832SOL     OW20131   1.904   4.723   7.494 -0.5576 -0.2431  0.0932
 2832SOL    HW120132   1.895   4.699   7.402  1.6669 -0.8262  0.0284
 2832SOL    HW220133   1.814   4.709   7.525 -0.8309  1.1469 -0.0932
 2833SOL     OW20134   4.107   0.632   1.529  0.5262  0.0860 -0.5450
 2833SOL    HW120135   4.164   0.709   1.530 -0.5145  0.8691 -1.0674
 2833SOL    HW220136   4.085   0.638   1.436  0.3357 -1.1184 -0.5810
 2834SOL     OW20137   0.770   2.931   9.637 -0.2060 -0.2832 -0.2483
 2834SOL    HW120138   0.703   2.995   9.664  1.4505  0.9846  0.8180
 2834SOL    HW220139   0.771   2.883   9.719  0.6166  1.7911  0.9499
 2835SOL     OW20140   0.190   0.675   6.836  0.0642 -0.4285 -0.5590
 2835SOL    HW120141   0.152   0.652   6.922  0.6525 -0.4143 -0.2957
 2835SOL    HW220142   0.270   0.624   6.846 -0.0807 -0.3749  1.0356
 2836SOL     OW20143   2.938   1.044   9.394 -0.2967 -0.5908 -0.2293
 2836SOL    HW120144   2.954   1.130   9.354  0.0994 -0.0167  1.1403
 2836SOL    HW220145   3.019   1.029   9.443 -0.2376  0.8307  0.1100
 2837SOL     OW20146   0.388   1.911   9.389 -0.0409 -0.3636 -0.1408
 2837SOL    HW120147   0.457   1.855   9.423  2.3713  1.9289 -1.2596
 2837SOL    HW220148   0.368   1.956   9.472  2.3680 -1.6656  1.1240
 2838SOL     OW20149   2.075   0.874   1.793 -0.1797 -0.2200 -0.6124
 2838SOL    HW120150   2.034   0.844   1.712 -0.6681 -1.9141  0.2544
 2838SOL    HW220151   2.006   0.880   1.860  1.1550  1.0455  0.6333
 2839SOL     OW20152   2.127   0.683   7.104  0.5813 -0.3028 -0.1676
 2839SOL    HW120153   2.149   0.592   7.085 -1.9419 -0.5035 -2.1838
 2839SOL    HW220154   2.124   0.672   7.199 -0.7797  3.0406  0.1613
 2840SOL     OW20155   3.305   4.063   3.878 -0.1521  0.0403 -0.1685
 2840SOL    HW120156   3.396   4.084   3.899 -0.6618  2.0584 -0.0609
 2840SOL    HW220157   3.255   4.135   3.916  0.5420 -1.2404  3.2120
 2841SOL     OW20158   2.557   4.226   5.760 -0.5421 -0.0988  0.0075
 2841SOL    HW120159   2.471   4.255   5.790 -0.8170  0.1981 -1.0549
 2841SOL    HW220160   2.533   4.149   5.709  1.2778 -0.7073  0.0792
 2842SOL     OW20161   4.521   3.889   2.610  0.1934 -0.7181 -0.0627
 2842SOL    HW120162   4.525   3.953   2.681  1.1600  2.0501 -2.6637
 2842SOL    HW220163   4.525   3.945   2.533 -0.6509  1.2438  1.3167
 2843SOL     OW20164   2.416   0.924   7.289 -0.2468 -0.5225  0.1571
 2843SOL    HW120165   2.502   0.942   7.252 -0.5474 -0.7568 -0.6499
 2843SOL    HW220166   2.423   0.846   7.345 -2.3098 -0.7024  0.1493
 2844SOL     OW20167   4.347   3.677   2.552  0.0629  0.0069 -0.1326
 2844SOL    HW120168   4.269   3.727   2.574 -1.7676 -2.8224 -0.2333
 2844SOL    HW220169   4.411   3.741   2.585  1.0377 -0.1799 -1.6391
 2845SOL     OW20170   3.349   2.629  16.463  0.1553  0.3068 -0.2877
 2845SOL    HW120171   3.415   2.563  16.440  0.7987  1.4387 -1.6778
 2845SOL    HW220172   3.334   2.595  16.551  1.2920 -1.2034 -0.6823
 2846SOL     OW20173   0.662   0.832   6.204 -0.2579  1.5112  0.5728
 2846SOL    HW120174   0.608   0.809   6.279 -0.2583  2.2038  0.7901
 2846SOL    HW220175   0.612   0.909   6.178 -3.1068 -1.8480 -3.8814
 2847SOL     OW20176   0.831   0.098   5.242  0.2197  0.1069 -0.4774
 2847SOL    HW120177   0.766   0.141   5.298 -0.4854 -1.9683  0.2954
 2847SOL    HW220178   0.851   0.015   5.285  0.5439 -0.0726 -0.9714
 2848SOL     OW20179   4.515   0.310  11.165 -0.1264  0.6528 -0.0839
 2848SOL    HW120180   4.564   0.293  11.246  0.1994  2.3246  0.0765
 2848SOL    HW220181   4.578   0.373  11.128 -0.7648  0.7330 -1.0256
 2849SOL     OW20182   2.846   0.946   6.419 -0.5390 -0.0509  0.6273
 2849SOL    HW120183   2.842   0.950   6.324  4.1504 -1.1083  0.3718
 2849SOL    HW220184   2.865   1.037   6.439 -1.5391 -0.2570  2.5118
 2850SOL     OW20185   1.523   2.252   6.002 -0.1435 -0.0817 -0.2116
 2850SOL    HW120186   1.535   2.207   5.918  1.1754  0.8273 -0.5188
 2850SOL    HW220187   1.432   2.228   6.021 -0.3156 -1.0067 -2.1564
 2851SOL     OW20188   2.642   1.552  16.804 -0.4647  0.2172 -0.5243
 2851SOL    HW120189   2.572   1.618  16.810  2.5610  3.2325  2.0304
 2851SOL    HW220190   2.668   1.546  16.896 -1.2068 -1.7494 -0.4596
 2852SOL     OW20191   4.036   3.162   3.106  0.3887  0.1674 -0.2395
 2852SOL    HW120192   4.023   3.142   3.014 -2.4411 -1.8790  0.6162
 2852SOL    HW220193   3.952   3.205   3.121 -1.0849 -2.1997 -1.9722
 2853SOL     OW20194   3.781   2.049   3.480  0.0537 -0.0663  0.2680
 2853SOL    HW120195   3.788   1.960   3.515  3.5470 -0.6091 -1.8317
 2853SOL    HW220196   3.798   2.102   3.558  1.4762  1.1678 -0.9027
 2854SOL     OW20197   2.776   3.187   4.226 -0.0724  0.4282  0.6522
 2854SOL    HW120198   2.715   3.194   4.153 -2.0338  1.7750  2.3892
 2854SOL    HW220199   2.853   3.220   4.180  1.7499 -0.7607  2.8372
 2855SOL     OW20200   4.301   3.800   6.515  0.8484  0.3016 -0.3998
 2855SOL    HW120201   4.231   3.778   6.577  0.4502  2.9560  0.0882
 2855SOL    HW220202   4.248   3.849   6.453  0.9735 -0.3495 -1.0194
 2856SOL     OW20203   0.126   4.683   0.444 -0.0036  0.2088  0.7603
 2856SOL    HW120204   0.058   4.725   0.496 -2.6943 -1.2152 -1.5701
 2856SOL    HW220205   0.081   4.625   0.383 -0.8868 -0.5463  2.1341
 2857SOL     OW20206   4.515   2.164   0.681 -0.5428  0.2498  0.6821
 2857SOL    HW120207   4.490   2.185   0.591 -0.0298 -0.6921  0.3180
 2857SOL    HW220208   4.445   2.104   0.709 -0.4992 -0.3689 -0.5613
 2858SOL     OW20209   0.534   4.097   7.611  0.2473 -0.1635 -0.3181
 2858SOL    HW120210   0.538   4.006   7.581 -0.6343 -0.7296  1.3191
 2858SOL    HW220211   0.609   4.100   7.669 -0.7407  0.3262  0.9180
 2859SOL     OW20212   2.926   1.909  17.211  0.6274 -0.8993  0.6498
 2859SOL    HW120213   2.989   1.866  17.153  0.5344  1.1470 -0.9611
 2859SOL    HW220214   2.968   1.994  17.224 -2.0369  0.5817 -0.5343
 2860SOL     OW20215   0.261   2.360   9.774  0.0697 -0.5405 -0.2522
 2860SOL    HW120216   0.299   2.400   9.852  1.7473 -3.0968  0.2390
 2860SOL    HW220217   0.233   2.276   9.810 -2.9494  0.3706 -0.5147
 2861SOL     OW20218   2.904   3.628  12.429  0.3864 -0.0779  0.3637
 2861SOL    HW120219   2.998   3.639  12.443  0.5588 -0.5127 -0.4642
 2861SOL    HW220220   2.858   3.703  12.468  1.2046  1.3169 -1.3443
 2862SOL     OW20221   3.474   1.168   1.985 -0.5005 -0.0016 -0.0936
 2862SOL    HW120222   3.568   1.179   1.969 -0.6525 -0.5864 -1.3972
 2862SOL    HW220223   3.467   1.084   1.939  1.1391  0.7860 -1.7334
 2863SOL     OW20224   2.396   3.292   4.550  0.3466 -0.8205 -0.5131
 2863SOL    HW120225   2.435   3.372   4.514 -0.7704 -0.5799 -1.2006
 2863SOL    HW220226   2.471   3.246   4.586  1.4528  2.0777  0.8894
 2864SOL     OW20227   2.851   0.511  16.427  0.3970 -0.3726  0.3809
 2864SOL    HW120228   2.784   0.470  16.373  1.4067 -1.8515  0.2680
 2864SOL    HW220229   2.857   0.462  16.508  1.1743  0.5221  0.8617
 2865SOL     OW20230   3.496   3.834   5.101  0.6464  0.4110  0.0058
 2865SOL    HW120231   3.415   3.842   5.051  0.1703 -0.8276  0.5865
 2865SOL    HW220232   3.489   3.747   5.141  1.7391  1.1592  1.8420
 2866SOL     OW20233   0.445   2.575   3.338 -0.2065 -0.1694 -0.5099
 2866SOL    HW120234   0.370   2.516   3.353 -0.1676 -0.6542 -2.1908
 2866SOL    HW220235   0.404   2.648   3.291  0.5082  1.2330  1.0942
 2867SOL     OW20236   0.516   4.368   4.729  0.0560 -0.2924  0.3013
 2867SOL    HW120237   0.563   4.321   4.660 -1.2702 -0.1283 -0.7187
 2867SOL    HW220238   0.456   4.424   4.679  1.1733  1.9229  1.4500
 2868SOL     OW20239   4.278   3.180   1.774 -0.2852  0.6073  0.0109
 2868SOL    HW120240   4.198   3.215   1.812 -0.7909  0.1363 -0.6333
 2868SOL    HW220241   4.291   3.093   1.813  2.3057 -0.2968 -2.8004
 2869SOL     OW20242   4.266   1.312   3.558 -0.0027  0.7494 -0.3924
 2869SOL    HW120243   4.241   1.234   3.608  3.5577  0.8171  1.4739
 2869SOL    HW220244   4.259   1.276   3.470  1.2221  1.2183 -0.6855
 2870SOL     OW20245   2.605   1.211   6.257  0.2060  0.3061 -0.0946
 2870SOL    HW120246   2.530   1.268   6.274 -1.7792 -2.4063  0.3084
 2870SOL    HW220247   2.680   1.271   6.252  0.5882 -0.0707  0.9659
 2871SOL     OW20248   4.426   3.687  11.326 -1.0109 -0.3486 -0.2136
 2871SOL    HW120249   4.418   3.616  11.389  0.5616  0.7546  1.2287
 2871SOL    HW220250   4.339   3.690  11.286 -1.7523 -0.9052  1.4038
 2872SOL     OW20251   2.372   2.636   8.531  0.3688 -0.5034  0.3459
 2872SOL    HW120252   2.293   2.664   8.485  0.6684  0.8053  0.6240
 2872SOL    HW220253   2.383   2.557   8.477 -0.8612 -1.4682  1.5218
 2873SOL     OW20254   1.211   0.065  14.464 -0.7474  0.0983  0.1749
 2873SOL    HW120255   1.166   0.099  14.387 -0.4784  0.2859  0.1003
 2873SOL    HW220256   1.272   0.004  14.422  0.3943  2.5361 -1.7274
 2874SOL     OW20257   0.109   1.285   5.687 -0.1112 -0.2894 -0.4717
 2874SOL    HW120258   0.048   1.330   5.745 -1.2486 -0.4814 -1.5061
 2874SOL    HW220259   0.050   1.255   5.618 -0.5952 -1.1845  0.3342
 2875SOL     OW20260   4.278   2.388   6.198 -0.1747 -0.3264  0.5711
 2875SOL    HW120261   4.307   2.458   6.257  1.1846 -0.8285  0.5088
 2875SOL    HW220262   4.362   2.371   6.154 -0.8665  0.1980 -0.9641
 2876SOL     OW20263   0.177   3.851   7.632 -0.2169  0.1043  0.0595
 2876SOL    HW120264   0.135   3.913   7.691  1.3900  3.4683 -2.3396
 2876SOL    HW220265   0.106   3.850   7.568 -1.4260 -0.2946  1.4226
 2877SOL     OW20266   2.433   2.084   7.998  0.4453 -0.5628  0.0244
 2877SOL    HW120267   2.464   2.173   7.979  2.0534 -0.8843  1.2028
 2877SOL    HW220268   2.484   2.019   7.950  0.3399 -1.8567  1.6922
 2878SOL     OW20269   4.140   0.920   4.169 -0.2290  0.0454  0.1496
 2878SOL    HW120270   4.081   0.939   4.242 -0.1716  0.5243  0.0690
 2878SOL    HW220271   4.198   0.996   4.175 -1.3936  0.8808  0.8749
 2879SOL     OW20272   3.175   2.123   2.714  0.4306 -0.2431 -0.1793
 2879SOL    HW120273   3.171   2.054   2.648  0.5714 -1.1277  0.7482
 2879SOL    HW220274   3.231   2.088   2.783  0.5046  0.3968  0.0824
 2880SOL     OW20275   3.278   3.156   2.323 -0.1460  0.4508  0.6111
 2880SOL    HW120276   3.260   3.196   2.237 -0.0125  2.4928  1.5335
 2880SOL    HW220277   3.240   3.221   2.383 -1.6656 -2.7135  3.0553
 2881SOL     OW20278   0.607   2.931   5.878  0.0883 -0.3704 -0.1221
 2881SOL    HW120279   0.578   2.937   5.969  0.1394  2.1906 -0.2924
 2881SOL    HW220280   0.545   2.866   5.845 -2.7187  1.2573  1.9523
 2882SOL     OW20281   1.300   1.216   4.347 -0.1104 -0.5037  0.0042
 2882SOL    HW120282   1.273   1.124   4.345 -0.9759 -0.3193  2.8943
 2882SOL    HW220283   1.334   1.238   4.260  1.8647  0.4113  1.0174
 2883SOL     OW20284   0.429   3.351  12.556 -0.3766  0.6710  0.3872
 2883SOL    HW120285   0.500   3.394  12.508 -0.6266 -0.8448 -1.3273
 2883SOL    HW220286   0.356   3.390  12.506  0.9376 -0.4146 -2.3783
 2884SOL     OW20287   3.820   4.211  12.272 -0.0718 -0.2965  0.5517
 2884SOL    HW120288   3.890   4.149  12.253  0.4338 -0.2761  2.3213
 2884SOL    HW220289   3.864   4.294  12.252  0.5445 -1.2134 -1.8583
 2885SOL     OW20290   1.701   0.238   5.358 -0.5641  0.4403  0.0018
 2885SOL    HW120291   1.755   0.289   5.418 -0.1547 -0.2801  0.2382
 2885SOL    HW220292   1.656   0.309   5.311 -1.8960 -0.6645 -0.3547
 2886SOL     OW20293   2.274   2.356   2.230  0.0148  0.5283 -0.5822
 2886SOL    HW120294   2.326   2.397   2.162 -0.1926 -0.0213 -1.0763
 2886SOL    HW220295   2.301   2.403   2.309  0.6908  1.2933 -1.2740
 2887SOL     OW20296   3.213   1.076   6.259 -0.1213 -0.6577  0.3916
 2887SOL    HW120297   3.245   1.050   6.345 -0.9770  1.3162  1.3035
 2887SOL    HW220298   3.199   0.990   6.219  0.1144 -0.1501 -0.7986
 2888SOL     OW20299   3.032   3.972   2.502 -0.0945 -0.0879  0.0467
 2888SOL    HW120300   3.018   4.034   2.431  1.4586 -2.0382 -1.9928
 2888SOL    HW220301   2.978   4.021   2.563 -1.1986  0.5175 -1.4207
 2889SOL     OW20302   2.123   1.385  11.104  0.5388  0.1532 -0.1509
 2889SOL    HW120303   2.029   1.380  11.118  0.2855  0.9862 -1.4997
 2889SOL    HW220304   2.125   1.373  11.009  0.2460  2.0094 -0.3952
 2890SOL     OW20305   0.297   2.478   6.835 -0.3779 -0.4656  0.3206
 2890SOL    HW120306   0.230   2.454   6.771  0.6939 -1.9698 -0.2254
 2890SOL    HW220307   0.351   2.400   6.843  1.3810  0.4851 -2.2460
 2891SOL     OW20308   1.352   1.977   0.535  0.5126  0.4344  0.2088
 2891SOL    HW120309   1.386   2.065   0.552  0.5553  0.2805  0.9328
 2891SOL    HW220310   1.428   1.923   0.560 -0.4582 -1.1168 -0.2234
 2892SOL     OW20311   2.162   2.503   1.569  0.1959 -0.3554 -0.0454
 2892SOL    HW120312   2.142   2.588   1.609  0.7768 -0.3768  0.2870
 2892SOL    HW220313   2.106   2.454   1.629 -0.2859 -1.0340 -1.0566
 2893SOL     OW20314   2.989   2.166   6.573  0.7412 -0.0109  0.5581
 2893SOL    HW120315   3.073   2.191   6.611 -0.8115  1.5841  2.9185
 2893SOL    HW220316   2.941   2.248   6.576 -0.0092 -0.4152 -0.5324
 2894SOL     OW20317   1.044   1.886  14.206  0.0069 -0.1727 -0.3991
 2894SOL    HW120318   1.123   1.932  14.233 -0.9384  1.9506 -1.2847
 2894SOL    HW220319   0.981   1.955  14.186 -1.1738 -0.9553  0.5282
 2895SOL     OW20320   0.780   0.871   5.196 -0.7088  0.1693 -0.4042
 2895SOL    HW120321   0.692   0.900   5.174 -0.5318  1.3630  0.5174
 2895SOL    HW220322   0.817   0.840   5.113 -0.4788 -3.1750  0.9218
 2896SOL     OW20323   0.089   1.268   6.625 -0.1954  0.2887  0.1027
 2896SOL    HW120324   0.057   1.289   6.712 -0.2452 -0.3357  0.2404
 2896SOL    HW220325   0.177   1.303   6.636  0.3800 -0.0992 -3.0943
 2897SOL     OW20326   4.036   0.529   0.742  0.0360 -0.0837  0.2506
 2897SOL    HW120327   4.017   0.478   0.663 -0.5525  1.4263 -0.5889
 2897SOL    HW220328   4.025   0.615   0.703  0.2627  0.0957  0.5904
 2898SOL     OW20329   3.549   2.830   8.309  0.1730 -0.3744  0.1125
 2898SOL    HW120330   3.553   2.856   8.401  1.2338  2.1433 -0.6445
 2898SOL    HW220331   3.641   2.809   8.291  0.2863  0.8974 -0.7539
 2899SOL     OW20332   0.558   3.612   4.985 -0.0458  0.2109 -0.2032
 2899SOL    HW120333   0.531   3.527   5.019  0.2614 -0.0267 -0.5536
 2899SOL    HW220334   0.493   3.666   5.030 -0.5987 -0.6707  0.0457
 2900SOL     OW20335   4.479   0.525   9.255  0.1896 -0.5504  0.3569
 2900SOL    HW120336   4.513   0.456   9.199  2.2011 -0.0951  0.9867
 2900SOL    HW220337   4.475   0.600   9.196 -0.5115  0.2786  1.4451
 2901SOL     OW20338   1.697   3.136  11.908 -0.5573  0.4709 -0.2554
 2901SOL    HW120339   1.729   3.178  11.828  2.9268  0.2929  1.0896
 2901SOL    HW220340   1.664   3.215  11.952 -1.0360  0.0713  0.1014
 2902SOL     OW20341   3.174   1.516   1.163  0.0135  0.5481 -0.7445
 2902SOL    HW120342   3.083   1.541   1.180  0.0166  0.3257 -0.4007
 2902SOL    HW220343   3.223   1.561   1.232  0.0485  1.4047 -1.3295
 2903SOL     OW20344   3.940   3.924   5.643  0.0434  0.7445 -0.0557
 2903SOL    HW120345   3.856   3.877   5.644  0.9816 -0.9682 -1.5980
 2903SOL    HW220346   3.981   3.887   5.721 -1.5994 -1.3979 -0.1964
 2904SOL     OW20347   0.553   1.364   5.239  0.0468  0.5877  0.1178
 2904SOL    HW120348   0.534   1.374   5.145  1.8728 -1.7726 -0.4925
 2904SOL    HW220349   0.477   1.312   5.264 -1.6803  2.8513 -0.3922
 2905SOL     OW20350   1.677   2.174   4.598  0.5326  0.6107 -0.3521
 2905SOL    HW120351   1.654   2.197   4.508 -0.9297 -0.0503 -0.1438
 2905SOL    HW220352   1.690   2.079   4.590 -1.7296  0.3488 -0.8409
 2906SOL     OW20353   0.871   2.746   5.786  0.3693 -0.1100 -0.3160
 2906SOL    HW120354   0.822   2.822   5.757  1.0649  1.0355  1.5226
 2906SOL    HW220355   0.947   2.738   5.728  0.7419  3.4419 -0.3219
 2907SOL     OW20356   2.080   0.651   8.052 -0.8780  0.0976 -0.5231
 2907SOL    HW120357   2.033   0.617   8.129 -1.5805  0.9547 -0.5616
 2907SOL    HW220358   2.118   0.734   8.082  2.1754 -1.1629 -0.9226
 2908SOL     OW20359   0.367   4.555   4.556 -0.1514  0.9357  0.9786
 2908SOL    HW120360   0.322   4.606   4.488 -0.6280 -2.1883 -1.0456
 2908SOL    HW220361   0.295   4.501   4.588  0.0726 -1.2811 -2.2440
 2909SOL     OW20362   1.251   2.812   1.069 -0.3315  0.5694  0.0360
 2909SOL    HW120363   1.344   2.790   1.065 -0.4043  0.3741 -0.5790
 2909SOL    HW220364   1.224   2.752   0.999  0.3661  2.1256 -1.6025
 2910SOL     OW20365   0.014   0.551   3.768  0.0617 -0.3134  0.5405
 2910SOL    HW120366   0.034   0.483   3.704 -2.7994 -1.4680  0.8844
 2910SOL    HW220367   0.087   0.545   3.830  0.6209  0.1208 -0.0822
 2911SOL     OW20368   4.575   3.062   6.083  0.2689 -0.2394  0.5941
 2911SOL    HW120369   4.480   3.073   6.082  0.2349 -0.8035 -1.5112
 2911SOL    HW220370   4.588   3.006   6.006 -0.8574 -1.0759  1.0099
 2912SOL     OW20371   2.526   1.613   2.761  0.6958 -0.2607  0.0552
 2912SOL    HW120372   2.520   1.690   2.817 -0.1900  0.4786 -1.0497
 2912SOL    HW220373   2.573   1.553   2.819  1.3310 -0.7630 -0.9691
 2913SOL     OW20374   2.517   1.356   8.671  0.1151  0.9284  0.1957
 2913SOL    HW120375   2.491   1.434   8.720  1.2116  2.0761 -1.0340
 2913SOL    HW220376   2.441   1.343   8.614  0.0076 -0.4378  0.6446
 2914SOL     OW20377   3.752   1.338  13.165 -0.1636 -0.1995  0.0494
 2914SOL    HW120378   3.721   1.249  13.183 -2.7990  1.0045  1.5180
 2914SOL    HW220379   3.676   1.391  13.190 -0.3563 -0.4192 -0.0646
 2915SOL     OW20380   3.539   2.026   5.572 -0.4694  0.1232  0.2764
 2915SOL    HW120381   3.566   1.984   5.653  0.4417 -0.5038 -0.3464
 2915SOL    HW220382   3.552   2.116   5.601  1.5157  0.4703 -1.7146
 2916SOL     OW20383   4.327   1.927   4.131  0.4042  0.2081  0.7051
 2916SOL    HW120384   4.357   1.847   4.089 -0.9105  0.1288 -0.0697
 2916SOL    HW220385   4.349   1.912   4.223 -3.3251  3.2320  2.0998
 2917SOL     OW20386   3.644   4.507   3.724  0.3358 -0.3714  0.1271
 2917SOL    HW120387   3.587   4.526   3.798 -1.3707  1.3691 -1.6412
 2917SOL    HW220388   3.583   4.527   3.654  0.5421 -1.9894 -0.5034
 2918SOL     OW20389   0.422   2.601   6.459 -0.2107 -0.1440  0.3041
 2918SOL    HW120390   0.345   2.569   6.508 -0.9364  0.9935 -0.1040
 2918SOL    HW220391   0.449   2.512   6.439 -1.4408 -0.1331 -1.3650
 2919SOL     OW20392   0.869   1.051   4.302 -0.1336 -0.0323  0.2866
 2919SOL    HW120393   0.954   1.036   4.261 -2.6256 -1.8470 -4.3158
 2919SOL    HW220394   0.841   0.966   4.337  2.3516 -1.1467 -0.4419
 2920SOL     OW20395   3.972   2.448  16.623  0.0955  0.6583 -0.0757
 2920SOL    HW120396   4.013   2.533  16.607 -0.4318  0.7567 -0.9048
 2920SOL    HW220397   4.005   2.417  16.708 -0.3698 -2.3384 -0.9943
 2921SOL     OW20398   1.346   0.550  10.917 -0.8325  0.2278 -0.0071
 2921SOL    HW120399   1.413   0.557  10.985  0.2569 -0.8162 -0.9707
 2921SOL    HW220400   1.370   0.621  10.857 -0.5280 -1.1975 -1.5719
 2922SOL     OW20401   1.095   0.652  16.765  0.1667  0.1045 -0.2524
 2922SOL    HW120402   1.036   0.578  16.780 -0.8444  1.2246  1.3829
 2922SOL    HW220403   1.091   0.668  16.671 -0.3421 -0.5986 -0.3519
 2923SOL     OW20404   2.420   3.986   5.147 -0.3770  0.6609  0.0658
 2923SOL    HW120405   2.385   3.951   5.065 -1.3747  0.9009  0.3880
 2923SOL    HW220406   2.371   4.068   5.154  0.5559  1.1939  0.3892
 2924SOL     OW20407   4.014   1.669   6.232  0.1333  0.2946 -0.8195
 2924SOL    HW120408   4.071   1.727   6.181  0.0398 -0.9643 -2.3842
 2924SOL    HW220409   4.079   1.630   6.291  0.3993  0.0954 -1.2457
 2925SOL     OW20410   3.201   4.326   3.918  0.0268 -0.0797 -0.1735
 2925SOL    HW120411   3.255   4.386   3.867  1.9930 -0.8354  1.0252
 2925SOL    HW220412   3.145   4.388   3.966 -0.3597  0.3143 -1.1157
 2926SOL     OW20413   1.640   1.486   8.234 -0.3286  0.0035 -0.6843
 2926SOL    HW120414   1.627   1.459   8.324  1.8882  0.3253 -0.2702
 2926SOL    HW220415   1.729   1.520   8.247 -0.8861  1.5335 -0.8114
 2927SOL     OW20416   3.301   4.041   0.541  0.5477  0.1407 -0.1899
 2927SOL    HW120417   3.374   4.023   0.599  0.8579  0.2313 -0.5530
 2927SOL    HW220418   3.348   4.117   0.506 -0.2250  0.2880 -0.9302
 2928SOL     OW20419   3.059   0.081  11.327  0.5940  0.3047 -0.2973
 2928SOL    HW120420   3.012   0.021  11.386 -0.1852  0.3291 -0.8965
 2928SOL    HW220421   3.085   0.147  11.391 -2.2161 -0.0312  1.1993
 2929SOL     OW20422   0.962   4.424   7.705 -0.5355 -0.1436 -0.3138
 2929SOL    HW120423   1.003   4.506   7.733  1.4393 -0.4297 -2.3978
 2929SOL    HW220424   0.998   4.423   7.616 -2.6134  0.2200 -1.1722
 2930SOL     OW20425   2.323   0.843   6.999 -0.7546  0.0289  0.7680
 2930SOL    HW120426   2.237   0.802   7.009 -1.5271  1.5576  0.5392
 2930SOL    HW220427   2.352   0.812   7.085  0.5905  1.0826  0.7046
 2931SOL     OW20428   4.497   3.879   7.496  0.0670 -0.0445 -0.1438
 2931SOL    HW120429   4.492   3.809   7.562  2.2668  1.2182  1.3461
 2931SOL    HW220430   4.423   3.862   7.438 -0.1567 -0.6639  0.3177
 2932SOL     OW20431   4.337   2.378   3.870 -0.1071 -0.1494 -0.0169
 2932SOL    HW120432   4.249   2.349   3.846  0.2746 -1.4526  0.1587
 2932SOL    HW220433   4.378   2.301   3.909  1.9896  1.0479  0.1434
 2933SOL     OW20434   1.885   0.540   9.755 -0.3052  0.3875  0.1304
 2933SOL    HW120435   1.949   0.486   9.803 -0.5162 -0.7956 -0.9069
 2933SOL    HW220436   1.942   0.616   9.740 -1.4035  0.2908 -4.6421
 2934SOL     OW20437   3.857   4.524   5.428 -0.1098  0.5399 -0.1930
 2934SOL    HW120438   3.895   4.604   5.462 -0.1163  0.8000 -0.8028
 2934SOL    HW220439   3.763   4.541   5.426 -0.7281 -2.5558  2.8358
 2935SOL     OW20440   2.613   0.419   9.519  0.1298 -0.1964 -0.4733
 2935SOL    HW120441   2.683   0.480   9.496  0.6974 -0.4522  0.6039
 2935SOL    HW220442   2.641   0.384   9.603  0.8865 -0.0069 -0.6472
 2936SOL     OW20443   4.050   0.700   2.962  0.1852 -0.0312 -0.0726
 2936SOL    HW120444   4.042   0.661   2.875 -0.5086 -0.1275  0.0353
 2936SOL    HW220445   3.989   0.773   2.954  1.5173  1.0284 -0.4446
 2937SOL     OW20446   3.329   1.066   6.688  0.4580  0.3318 -0.0455
 2937SOL    HW120447   3.245   1.040   6.724  0.9789 -0.8471  0.3105
 2937SOL    HW220448   3.385   1.028   6.756 -0.7871  1.0043  1.3445
 2938SOL     OW20449   3.739   1.938   6.334  0.1005  0.1223  0.2368
 2938SOL    HW120450   3.782   2.016   6.297 -1.2841  0.4489 -0.6637
 2938SOL    HW220451   3.651   1.969   6.353 -0.6668 -2.3995  0.7575
 2939SOL     OW20452   0.149   4.479   2.045 -0.2273  0.4681 -0.0164
 2939SOL    HW120453   0.132   4.411   1.980 -0.9163  0.2667  0.3765
 2939SOL    HW220454   0.196   4.544   1.992 -0.6100  1.1331  0.4602
 2940SOL     OW20455   0.362   4.139   8.581 -0.5948 -0.2563  0.1360
 2940SOL    HW120456   0.325   4.155   8.667 -2.5436  2.8154 -1.2746
 2940SOL    HW220457   0.350   4.224   8.539 -0.0338 -0.2714 -0.0587
 2941SOL     OW20458   1.061   0.959   4.493  0.5561 -0.3023  0.5002
 2941SOL    HW120459   1.126   0.905   4.539  2.4010  0.9777 -0.5779
 2941SOL    HW220460   1.067   0.934   4.401 -2.1673 -0.3769  0.3419
 2942SOL     OW20461   2.743   2.396   7.493  0.2673 -0.5778  0.6258
 2942SOL    HW120462   2.755   2.303   7.514 -0.0770 -0.9948 -1.0841
 2942SOL    HW220463   2.831   2.426   7.469  0.1930 -0.0714  0.9789
 2943SOL     OW20464   4.391   4.481   2.331  0.2200 -0.2064 -0.1040
 2943SOL    HW120465   4.315   4.490   2.272  1.3532  0.3178 -1.4792
 2943SOL    HW220466   4.386   4.565   2.377 -1.9790 -0.1882 -0.3761
 2944SOL     OW20467   4.065   1.813   1.791 -0.4192  0.1978  0.7382
 2944SOL    HW120468   4.156   1.792   1.768 -0.5352 -0.1876  0.6176
 2944SOL    HW220469   4.054   1.892   1.738  1.0761  1.6456  2.5851
 2945SOL     OW20470   1.849   4.382   9.440  0.4403 -0.2339  0.2758
 2945SOL    HW120471   1.885   4.328   9.511 -0.0044 -2.7614 -1.4202
 2945SOL    HW220472   1.875   4.471   9.464 -1.7842 -0.2818  2.8603
 2946SOL     OW20473   2.141   1.149   3.199 -0.1767  0.1558  0.4911
 2946SOL    HW120474   2.125   1.068   3.248  0.2496 -0.2344 -0.0083
 2946SOL    HW220475   2.080   1.131   3.128  0.6575 -1.4476  0.1793
 2947SOL     OW20476   2.822   0.927  12.143  0.0626 -0.0980 -0.0381
 2947SOL    HW120477   2.845   0.991  12.210  2.0741  0.4950 -1.2969
 2947SOL    HW220478   2.730   0.928  12.167  0.3825  1.8816  1.1593
 2948SOL     OW20479   0.158   3.631  17.102 -0.1796  0.0073 -0.2783
 2948SOL    HW120480   0.253   3.643  17.106  0.0134 -1.0794 -1.4399
 2948SOL    HW220481   0.140   3.664  17.014 -1.6260  0.0046  0.0168
 2949SOL     OW20482   3.663   3.734   8.941  0.3462  0.3694  0.3549
 2949SOL    HW120483   3.723   3.722   8.867 -1.2154 -2.0553 -0.4948
 2949SOL    HW220484   3.702   3.801   8.998  0.2836  1.0122 -0.3677
 2950SOL     OW20485   4.059   1.449   4.023  0.4045 -0.0647 -0.4378
 2950SOL    HW120486   4.152   1.428   4.037  0.2035 -0.0440  0.9984
 2950SOL    HW220487   4.063   1.487   3.936 -1.2555  1.0482 -0.0140
 2951SOL     OW20488   4.056   1.748   3.312 -0.1158  0.0437 -0.2787
 2951SOL    HW120489   4.056   1.741   3.217 -0.0115  0.8783 -0.3422
 2951SOL    HW220490   4.111   1.826   3.317 -0.5692  0.4219 -1.1973
 2952SOL     OW20491   2.491   4.307   9.596  0.5300 -0.0800 -0.0408
 2952SOL    HW120492   2.584   4.286   9.608  0.6664 -0.1618 -1.2249
 2952SOL    HW220493   2.460   4.217   9.589  0.2340  0.2008 -2.3160
 2953SOL     OW20494   1.385   2.157  12.797  0.1605 -0.3066  0.4278
 2953SOL    HW120495   1.413   2.066  12.791 -1.5137 -0.9096  1.7001
 2953SOL    HW220496   1.471   2.190  12.822  0.1961 -0.2298  0.1963
 2954SOL     OW20497   3.623   3.779   8.254  0.4554  0.2129  0.3951
 2954SOL    HW120498   3.632   3.874   8.253  0.8436  0.1661 -1.2549
 2954SOL    HW220499   3.529   3.770   8.271  0.4548 -3.1268 -1.3468
 2955SOL     OW20500   1.746   0.414  17.571  0.3953  0.5397  0.2511
 2955SOL    HW120501   1.813   0.413  17.501  1.1366 -1.4969  0.9962
 2955SOL    HW220502   1.730   0.508  17.581 -3.7737 -0.1255 -0.2096
 2956SOL     OW20503   1.028   0.364   7.210  0.0527  0.4441 -0.2295
 2956SOL    HW120504   1.060   0.297   7.150 -0.5886 -0.0041 -0.0728
 2956SOL    HW220505   1.024   0.437   7.148  1.4224 -0.1566 -1.0029
 2957SOL     OW20506   4.006   3.228   5.932 -0.7096 -0.3090  0.7448
 2957SOL    HW120507   4.076   3.166   5.952 -0.2488  0.6909  2.2458
 2957SOL    HW220508   4.039   3.261   5.848 -1.5441  1.2101  1.0211
 2958SOL     OW20509   1.773   1.153  11.267  0.0603 -0.5252 -0.5158
 2958SOL    HW120510   1.819   1.223  11.220 -0.7704 -0.4979 -1.2864
 2958SOL    HW220511   1.705   1.150  11.200 -1.4163  2.1505  0.8942
 2959SOL     OW20512   3.270   4.409   3.496  0.0521  0.0389 -0.2066
 2959SOL    HW120513   3.195   4.362   3.530  0.8192 -0.9717  0.0836
 2959SOL    HW220514   3.289   4.340   3.432  0.9092  0.0709  0.0049
 2960SOL     OW20515   4.725   1.753   9.697 -0.1153 -0.6425 -0.3848
 2960SOL    HW120516   0.031   1.809   9.761  0.5907 -1.9002  0.2327
 2960SOL    HW220517   0.010   1.798   9.616  1.4221  2.6663  1.9269
 2961SOL     OW20518   3.545   0.432   3.938 -0.2440 -0.0619  0.2663
 2961SOL    HW120519   3.605   0.399   4.006 -0.2043  0.1130  0.3148
 2961SOL    HW220520   3.483   0.490   3.981  0.2854  1.4494 -1.0235
 2962SOL     OW20521   4.541   2.667   6.320 -0.2870  0.0011  0.5793
 2962SOL    HW120522   4.557   2.741   6.377 -2.7475 -0.0395  1.3031
 2962SOL    HW220523   4.546   2.593   6.380  1.6474 -0.3282  0.0129
 2963SOL     OW20524   3.310   3.825   0.275  0.0578 -0.3326  0.4705
 2963SOL    HW120525   3.318   3.906   0.326 -0.2175 -0.9284  1.4483
 2963SOL    HW220526   3.352   3.760   0.331  1.6122 -0.1494 -0.4949
 2964SOL     OW20527   1.415   4.185  15.432 -0.3125  0.4133 -0.2269
 2964SOL    HW120528   1.418   4.089  15.424  1.1621  0.6584 -2.6980
 2964SOL    HW220529   1.490   4.214  15.483 -0.1323 -1.9312  0.8634
 2965SOL     OW20530   2.975   4.094   3.736 -0.1039  1.0032  0.0839
 2965SOL    HW120531   2.898   4.060   3.782 -1.1343  0.1538 -2.2487
 2965SOL    HW220532   3.002   4.013   3.692 -0.0849  0.6821  0.6791
 2966SOL     OW20533   0.591   3.521  11.330  0.0448  0.1321 -0.6394
 2966SOL    HW120534   0.543   3.445  11.362 -1.1913  0.9853 -0.4209
 2966SOL    HW220535   0.543   3.538  11.248  1.1584  1.9455 -0.9229
 2967SOL     OW20536   0.477   0.661  12.434  0.5549  0.1073 -0.3188
 2967SOL    HW120537   0.448   0.603  12.504  0.9928  1.6497  1.1530
 2967SOL    HW220538   0.568   0.638  12.416 -0.5819 -2.4613 -2.7289
 2968SOL     OW20539   3.555   0.150   9.344 -0.2984 -0.1192  0.1188
 2968SOL    HW120540   3.643   0.184   9.326  0.2803 -0.3818  2.4417
 2968SOL    HW220541   3.564   0.134   9.438  1.7067  0.5430  0.0465
 2969SOL     OW20542   0.868   2.327   1.959 -0.4107  0.2392 -0.1357
 2969SOL    HW120543   0.874   2.341   2.054  0.4014 -0.9940 -0.0137
 2969SOL    HW220544   0.912   2.405   1.925  1.0942 -0.2828  0.6249
 2970SOL     OW20545   1.144   1.720  14.729  0.0104 -0.4341 -0.5497
 2970SOL    HW120546   1.074   1.782  14.751  1.0663  0.7428 -0.5153
 2970SOL    HW220547   1.227   1.767  14.731  1.0544 -2.3825  1.2523
 2971SOL     OW20548   0.210   1.163   1.462 -0.6007 -0.4241 -0.1706
 2971SOL    HW120549   0.259   1.081   1.469 -1.2743 -0.7545  0.6881
 2971SOL    HW220550   0.124   1.125   1.445 -0.1837 -1.1145 -0.7363
 2972SOL     OW20551   4.636   2.675   3.782 -0.3379  0.2454  0.8645
 2972SOL    HW120552   4.559   2.732   3.783 -0.3558  0.1959  1.8576
 2972SOL    HW220553   4.612   2.605   3.721 -0.8801  0.6851  0.5697
 2973SOL     OW20554   4.132   3.140   7.310 -0.6285 -0.0807 -0.4300
 2973SOL    HW120555   4.060   3.174   7.256  0.3758  3.4987  0.5292
 2973SOL    HW220556   4.208   3.139   7.252  1.1542  0.3242  1.9341
 2974SOL     OW20557   1.834   1.295  12.427 -0.9180  0.4123 -0.1793
 2974SOL    HW120558   1.867   1.206  12.436  0.0691  0.8065  0.1430
 2974SOL    HW220559   1.833   1.300  12.332 -0.1673  0.1705 -0.2023
 2975SOL     OW20560   0.193   2.941   0.031 -0.1717 -0.0030 -0.3756
 2975SOL    HW120561   0.276   2.956  17.738  0.1186 -0.3576  0.0493
 2975SOL    HW220562   0.166   2.866  17.730  0.9737 -1.0381  0.5376
 2976SOL     OW20563   1.712   4.463   2.466 -0.0152  0.0467  0.4588
 2976SOL    HW120564   1.698   4.498   2.553  0.8085  1.3845  0.0549
 2976SOL    HW220565   1.729   4.371   2.487 -1.0126  0.4787  3.0573
 2977SOL     OW20566   4.261   1.991  10.020  0.4148 -0.2717  0.5086
 2977SOL    HW120567   4.281   2.038   9.939 -0.0630 -1.5139 -0.3170
 2977SOL    HW220568   4.279   2.063  10.080 -1.2981  0.8165 -0.2776
 2978SOL     OW20569   3.722   4.015   7.669 -0.3608  0.5690  0.4029
 2978SOL    HW120570   3.717   4.089   7.729  1.6009  0.9078  0.1445
 2978SOL    HW220571   3.816   3.999   7.672 -0.1443  1.8553  0.3502
 2979SOL     OW20572   2.316   1.210  16.037  0.4398  0.0884 -0.2911
 2979SOL    HW120573   2.372   1.206  16.115 -2.0839  0.2968  1.5355
 2979SOL    HW220574   2.234   1.238  16.078  0.0854 -1.1053 -0.1867
 2980SOL     OW20575   4.437   1.712  10.798 -0.0754 -0.4359 -0.8218
 2980SOL    HW120576   4.462   1.799  10.831  2.4154 -1.5608  0.2658
 2980SOL    HW220577   4.510   1.691  10.740 -0.9563  0.5560 -2.2896
 2981SOL     OW20578   4.549   3.948   0.645 -0.0199  0.9787  0.1953
 2981SOL    HW120579   4.505   3.863   0.636  3.3170 -0.6231 -1.3773
 2981SOL    HW220580   4.505   3.998   0.577  0.2455 -0.8788 -1.3558
 2982SOL     OW20581   1.492   3.486  15.030  0.4856 -0.5507 -0.1930
 2982SOL    HW120582   1.403   3.521  15.020 -0.0773 -1.6973  0.8983
 2982SOL    HW220583   1.474   3.392  15.031  1.6492 -0.7243  2.2329
 2983SOL     OW20584   2.254   1.452   4.085  0.3005  0.0868  0.5355
 2983SOL    HW120585   2.202   1.527   4.114 -3.0023 -1.3615 -1.7017
 2983SOL    HW220586   2.288   1.487   4.003 -0.5734 -2.2845 -0.8494
 2984SOL     OW20587   4.480   3.173  11.612 -0.3049  0.4401 -0.1014
 2984SOL    HW120588   4.455   3.159  11.520  1.6645  1.2296 -0.7423
 2984SOL    HW220589   4.402   3.145  11.660 -0.6039 -0.3219 -1.0214
 2985SOL     OW20590   3.915   3.013   8.561  0.0736  0.0272  0.2294
 2985SOL    HW120591   3.931   3.107   8.565  1.1391 -0.1795  1.0080
 2985SOL    HW220592   3.881   2.999   8.649 -1.0275 -0.5311 -0.2864
 2986SOL     OW20593   0.638   3.372   7.284 -0.5384 -0.0478  0.1479
 2986SOL    HW120594   0.672   3.326   7.207 -0.3903 -1.6655  1.1837
 2986SOL    HW220595   0.566   3.419   7.241  1.5087  0.1084 -3.1575
 2987SOL     OW20596   1.954   0.896   7.020  0.4429  0.2084  0.1810
 2987SOL    HW120597   1.995   0.877   6.935 -1.9299 -0.9203 -0.7127
 2987SOL    HW220598   1.992   0.825   7.072  1.9650 -0.3348 -1.6457
 2988SOL     OW20599   2.824   1.623   4.769 -0.1781 -0.8057  0.2119
 2988SOL    HW120600   2.907   1.651   4.732 -1.0828 -0.3236 -1.4361
 2988SOL    HW220601   2.867   1.564   4.830 -0.3896 -1.6914 -0.5029
 2989SOL     OW20602   2.804   0.620  11.836 -0.5318 -0.4072 -0.2105
 2989SOL    HW120603   2.770   0.703  11.803  1.0383  0.0834 -0.5885
 2989SOL    HW220604   2.732   0.559  11.819 -1.2057  0.1330  0.7218
 2990SOL     OW20605   2.584   3.797  12.181  0.2432  0.2013  0.3231
 2990SOL    HW120606   2.615   3.708  12.199 -0.8284 -0.5739 -1.6871
 2990SOL    HW220607   2.519   3.797  12.252  0.0737 -0.1037  0.1695
 2991SOL     OW20608   3.976   0.767   3.781 -0.4202  0.0391  0.2030
 2991SOL    HW120609   4.021   0.691   3.744 -2.3823 -0.8684 -0.2822
 2991SOL    HW220610   4.045   0.796   3.842  0.0241 -1.4921  0.4216
 2992SOL     OW20611   0.745   0.808  15.510 -0.1032 -0.6265 -0.6203
 2992SOL    HW120612   0.722   0.727  15.556 -0.1436 -0.6272 -0.6415
 2992SOL    HW220613   0.659   0.842  15.485  0.0075  0.4734  0.4570
 2993SOL     OW20614   4.071   1.144  15.230 -0.0385  0.4289 -0.3900
 2993SOL    HW120615   4.063   1.065  15.284  0.6334  0.4580 -0.2528
 2993SOL    HW220616   4.164   1.143  15.209  0.5141 -0.0763  2.0500
 2994SOL     OW20617   3.801   2.309   1.803 -0.3412 -0.6830 -0.2031
 2994SOL    HW120618   3.787   2.327   1.896 -0.5006  0.6268 -0.4733
 2994SOL    HW220619   3.852   2.386   1.779  1.2876 -0.9998  2.2161
 2995SOL     OW20620   3.523   4.435  13.936 -0.5332  0.0118 -0.3028
 2995SOL    HW120621   3.467   4.373  13.890  1.8220 -1.9799 -0.4885
 2995SOL    HW220622   3.594   4.380  13.970 -1.0683 -0.7937 -0.4961
 2996SOL     OW20623   4.492   3.090   7.328  0.1903 -0.2667 -0.9508
 2996SOL    HW120624   4.556   3.053   7.267  1.0816 -0.5719  0.1552
 2996SOL    HW220625   4.494   3.183   7.306 -0.6095 -0.0808 -0.2454
 2997SOL     OW20626   2.690   0.447   2.397 -0.3598 -0.0878  0.0720
 2997SOL    HW120627   2.769   0.394   2.391  1.5096  2.8732 -1.2976
 2997SOL    HW220628   2.643   0.387   2.455  0.2773  1.0687  1.8003
 2998SOL     OW20629   1.733   3.926  17.104  0.4717  0.4589 -0.3036
 2998SOL    HW120630   1.769   3.985  17.038 -1.1220  2.7998  0.8636
 2998SOL    HW220631   1.742   3.981  17.183  1.5336 -1.3510  0.8339
 2999SOL     OW20632   3.828   1.483   0.694 -0.0042 -0.4573  0.3686
 2999SOL    HW120633   3.841   1.540   0.770  2.5539  0.7749 -0.9826
 2999SOL    HW220634   3.897   1.514   0.635  0.2589 -2.6208 -0.4453
 3000SOL     OW20635   4.568   0.501   7.635  0.4943 -0.0534  0.2809
 3000SOL    HW120636   4.601   0.584   7.602 -0.4015 -0.6174 -2.0771
 3000SOL    HW220637   4.648   0.450   7.648 -0.2266 -1.6348 -1.4336
 3001SOL     OW20638   3.434   1.109  10.278 -0.1950 -0.3762 -0.0454
 3001SOL    HW120639   3.390   1.028  10.305 -0.2728 -0.6283 -0.9065
 3001SOL    HW220640   3.425   1.162  10.357  3.4327  0.6856 -0.3365
 3002SOL     OW20641   1.370   0.046  14.054 -0.2061 -0.2191 -0.6843
 3002SOL    HW120642   1.406   0.123  14.011 -0.8563 -0.3729 -1.5191
 3002SOL    HW220643   1.309   0.090  14.114  0.2729 -0.9960  0.3754
 3003SOL     OW20644   4.380   3.599   6.873 -0.0761 -0.4508 -0.4269
 3003SOL    HW120645   4.437   3.676   6.875  0.4952 -0.8445 -1.3652
 3003SOL    HW220646   4.313   3.649   6.828  0.9968  1.0171 -0.4109
 3004SOL     OW20647   4.509   4.150   7.614  0.1587  0.6598  0.0962
 3004SOL    HW120648   4.558   4.185   7.688  1.8958  0.6987 -1.0746
 3004SOL    HW220649   4.571   4.082   7.587  0.4586  1.1293 -0.4029
 3005SOL     OW20650   1.510   2.808   0.705 -0.0438  0.2178 -0.0212
 3005SOL    HW120651   1.506   2.880   0.769  0.4328 -2.0628  2.5497
 3005SOL    HW220652   1.441   2.822   0.640 -0.9830  1.9668  1.3546
 3006SOL     OW20653   2.125   3.836   2.723 -0.6915  0.7804 -0.2629
 3006SOL    HW120654   2.119   3.860   2.815  0.7970 -0.5548  0.1780
 3006SOL    HW220655   2.142   3.923   2.688 -1.8743  2.3199  2.9817
 3007SOL     OW20656   1.787   3.153   1.681 -0.6913  0.2081 -0.5869
 3007SOL    HW120657   1.784   3.073   1.733  0.3086  1.1594  0.9497
 3007SOL    HW220658   1.755   3.214   1.748 -0.0147 -1.0719  0.9078
 3008SOL     OW20659   4.433   0.782   0.834  0.0330 -0.3334 -0.3081
 3008SOL    HW120660   4.475   0.801   0.751  0.2374  2.1796  0.3541
 3008SOL    HW220661   4.352   0.833   0.824 -0.1467 -0.5954 -0.1824
 3009SOL     OW20662   2.123   4.243   8.078  0.3243 -0.3736 -0.2574
 3009SOL    HW120663   2.175   4.187   8.135 -0.0004  0.2205  0.6258
 3009SOL    HW220664   2.111   4.189   7.999  0.5246  0.1763 -0.6636
 3010SOL     OW20665   1.188   3.766   6.279  0.1090  0.0323  0.0234
 3010SOL    HW120666   1.177   3.696   6.215  1.5907  1.0171 -1.3071
 3010SOL    HW220667   1.225   3.836   6.225 -0.2885  1.9525  2.2599
 3011SOL     OW20668   1.937   3.893   6.213  0.1044 -0.1618 -0.3402
 3011SOL    HW120669   1.952   3.963   6.150  1.1865  0.7959  0.9867
 3011SOL    HW220670   2.014   3.844   6.183 -0.8451 -2.3905  0.8024
 3012SOL     OW20671   3.212   4.287  11.185 -0.2484  0.2705  0.2539
 3012SOL    HW120672   3.187   4.206  11.140  0.9872  0.2772 -0.4618
 3012SOL    HW220673   3.153   4.353  11.147 -0.6996 -0.2953 -0.0221
 3013SOL     OW20674   2.817   0.863   0.568 -0.2362 -0.0945 -0.0743
 3013SOL    HW120675   2.801   0.945   0.521 -1.2209  1.3213  2.6922
 3013SOL    HW220676   2.733   0.818   0.562  0.7183 -1.3354 -3.8055
 3014SOL     OW20677   0.008   2.625   8.989 -0.0918  0.2776 -0.0379
 3014SOL    HW120678   4.694   2.688   8.940 -1.2444  0.3706  1.3197
 3014SOL    HW220679   0.027   2.676   9.068 -0.6334 -1.5234  1.2518
 3015SOL     OW20680   4.319   1.125  13.303 -0.0921  0.5435 -0.2214
 3015SOL    HW120681   4.381   1.103  13.234 -1.1640 -0.6317 -0.8101
 3015SOL    HW220682   4.338   1.211  13.341  0.8037 -2.3295  5.8703
 3016SOL     OW20683   4.167   0.805   3.399 -0.2823  0.6899 -0.1139
 3016SOL    HW120684   4.155   0.793   3.305 -0.8828  0.5087 -0.0128
 3016SOL    HW220685   4.253   0.846   3.399  0.9806 -2.0023 -1.4506
 3017SOL     OW20686   2.199   1.903  10.908 -0.1949 -0.1593 -0.1057
 3017SOL    HW120687   2.285   1.871  10.882 -0.4564 -2.1948  1.5214
 3017SOL    HW220688   2.217   1.996  10.896 -2.0553  0.0750 -0.9955
 3018SOL     OW20689   0.654   1.712  17.553 -0.0646 -0.3050  0.3616
 3018SOL    HW120690   0.716   1.785  17.559  1.7478 -1.7070 -1.2226
 3018SOL    HW220691   0.573   1.741  17.513  0.6506 -0.7048 -1.3950
 3019SOL     OW20692   2.166   0.843   8.392  0.4289 -0.2187 -0.0135
 3019SOL    HW120693   2.236   0.893   8.434  0.0369  0.8566 -0.6334
 3019SOL    HW220694   2.094   0.864   8.452  0.1948 -1.6070  0.1968
 3020SOL     OW20695   1.465   0.820   3.137 -0.0590  0.2385  0.0321
 3020SOL    HW120696   1.449   0.725   3.139  0.0205  0.2229 -0.0276
 3020SOL    HW220697   1.481   0.833   3.044  1.0502 -1.4794 -0.0341
 3021SOL     OW20698   4.448   0.676  16.004 -0.3926  0.0142  0.0381
 3021SOL    HW120699   4.382   0.729  15.960 -1.4738 -1.7256 -0.4778
 3021SOL    HW220700   4.510   0.671  15.932  0.1509 -2.5870  0.6637
 3022SOL     OW20701   0.107   2.858   5.290 -0.8684  0.2054  0.4032
 3022SOL    HW120702   0.190   2.811   5.300 -1.5635 -0.1814  4.5227
 3022SOL    HW220703   0.057   2.792   5.242 -1.3389  0.5518  0.4168
 3023SOL     OW20704   2.819   3.480   7.442  0.1682  0.0701  0.3586
 3023SOL    HW120705   2.838   3.564   7.400 -1.7712 -0.1615 -1.0026
 3023SOL    HW220706   2.883   3.470   7.512 -0.5396 -3.8208  0.4823
 3024SOL     OW20707   4.249   0.453   0.376  0.3910  0.0571  0.0148
 3024SOL    HW120708   4.172   0.410   0.338  1.3332 -0.3360 -1.4379
 3024SOL    HW220709   4.265   0.406   0.458  2.6449  0.3206 -0.2851
 3025SOL     OW20710   4.159   1.855   2.496 -0.0158 -0.1591 -0.3070
 3025SOL    HW120711   4.142   1.938   2.541 -0.1196  1.5055 -3.4215
 3025SOL    HW220712   4.105   1.799   2.552  0.5926  1.4572  1.8789
 3026SOL     OW20713   2.669   4.442   9.804 -0.5606 -0.3453  0.2299
 3026SOL    HW120714   2.696   4.506   9.871  0.3938  1.3590 -1.7828
 3026SOL    HW220715   2.743   4.448   9.744 -0.0116  0.1476  0.9517
 3027SOL     OW20716   3.701   0.986   1.174 -0.0400  1.0519  0.3697
 3027SOL    HW120717   3.677   0.970   1.265 -0.3842  0.4435  0.1770
 3027SOL    HW220718   3.612   1.000   1.141 -0.6079 -0.2180  1.3781
 3028SOL     OW20719   1.507   3.647  12.854 -0.5587  0.0578 -0.8459
 3028SOL    HW120720   1.587   3.691  12.825 -0.6411  0.7576  0.0036
 3028SOL    HW220721   1.486   3.711  12.922 -0.6083  0.8955 -1.6469
 3029SOL     OW20722   2.145   2.065  14.086  0.4668  0.2574  0.4435
 3029SOL    HW120723   2.189   2.032  14.165  1.1107 -1.3945 -0.6052
 3029SOL    HW220724   2.158   1.991  14.026 -2.1208  1.0283 -1.0589
 3030SOL     OW20725   4.103   2.225   8.433 -0.0750 -0.8581  0.3561
 3030SOL    HW120726   4.175   2.202   8.492 -0.9059 -0.3333  1.5565
 3030SOL    HW220727   4.094   2.145   8.381  0.2057  0.4876 -1.7966
 3031SOL     OW20728   3.208   0.391   1.528  0.1287 -0.3648 -0.1834
 3031SOL    HW120729   3.190   0.297   1.536  1.1450 -0.3499  2.3238
 3031SOL    HW220730   3.225   0.393   1.434  0.4599  2.4181 -0.0645
 3032SOL     OW20731   2.593   3.496   5.939 -0.1456 -0.1507  1.0871
 3032SOL    HW120732   2.514   3.526   5.895 -0.2214 -0.2933  1.1261
 3032SOL    HW220733   2.569   3.524   6.028  0.9150 -0.5640  1.5072
 3033SOL     OW20734   1.696   2.847   3.052 -0.4125 -0.1173  0.3947
 3033SOL    HW120735   1.607   2.839   3.018  0.3389  1.3498 -1.8988
 3033SOL    HW220736   1.745   2.801   2.985  1.0450  0.8408  0.7977
 3034SOL     OW20737   3.358   0.746   5.616  0.5993 -0.2523  0.1180
 3034SOL    HW120738   3.379   0.795   5.537 -2.1165 -1.8313 -1.5736
 3034SOL    HW220739   3.391   0.809   5.680  2.0633  0.3799 -1.2694
 3035SOL     OW20740   1.987   3.641  10.511  0.4450  0.3656 -0.3502
 3035SOL    HW120741   1.968   3.731  10.486 -2.4505  0.0375  0.5815
 3035SOL    HW220742   2.072   3.622  10.472  0.5139  0.8792 -0.4439
 3036SOL     OW20743   3.748   4.000   6.539  0.4146 -0.2200 -0.4446
 3036SOL    HW120744   3.752   4.014   6.445  3.3272 -1.5213 -0.5293
 3036SOL    HW220745   3.688   4.069   6.567  0.3158 -1.0675  1.4606
 3037SOL     OW20746   2.954   2.253  16.556  0.1713 -0.1464  0.0463
 3037SOL    HW120747   2.985   2.258  16.646  1.2355 -1.2189 -0.2386
 3037SOL    HW220748   2.950   2.159  16.535  1.2087 -0.4989  1.4377
 3038SOL     OW20749   1.502   4.190   9.953  0.0760  0.0776  0.2328
 3038SOL    HW120750   1.445   4.209  10.028 -0.0090  0.9644 -0.0638
 3038SOL    HW220751   1.452   4.220   9.877  0.9352  0.9855  0.0414
 3039SOL     OW20752   2.011   3.873   7.302  0.5622  0.5112 -0.3928
 3039SOL    HW120753   2.021   3.793   7.251  0.7871  0.7260 -0.6833
 3039SOL    HW220754   2.015   3.941   7.235 -2.6026  2.6034  1.5793
 3040SOL     OW20755   2.643   0.943   0.967 -0.4659 -0.6203  0.3499
 3040SOL    HW120756   2.702   1.001   0.919 -2.6764 -0.8702 -2.6792
 3040SOL    HW220757   2.583   0.916   0.897  0.4759 -0.9682 -0.3263
 3041SOL     OW20758   3.441   3.874   8.847 -0.2244  0.0400 -0.5558
 3041SOL    HW120759   3.406   3.787   8.827  0.1186 -0.4961  1.1594
 3041SOL    HW220760   3.514   3.843   8.900 -0.5009  1.7270  0.8015
 3042SOL     OW20761   2.421   1.070   3.118 -0.4405 -0.2482 -0.0952
 3042SOL    HW120762   2.443   1.100   3.030  0.4044 -1.3413 -0.2569
 3042SOL    HW220763   2.335   1.113   3.122 -0.0053  0.5368  0.8217
 3043SOL     OW20764   2.154   3.792   3.839 -0.5279  0.8258 -0.8078
 3043SOL    HW120765   2.207   3.850   3.784  2.0723 -1.3485 -0.5985
 3043SOL    HW220766   2.193   3.808   3.925  1.1921  0.9234 -1.5976
 3044SOL     OW20767   4.492   0.394  12.046  0.3185 -0.3449 -0.0621
 3044SOL    HW120768   4.583   0.385  12.073  0.0971 -1.6685  0.2202
 3044SOL    HW220769   4.494   0.334  11.972 -2.6060  0.2500 -0.6315
 3045SOL     OW20770   3.313   3.581  14.250  0.3541 -0.2762  0.1167
 3045SOL    HW120771   3.392   3.548  14.208  0.2507 -0.7624  0.3043
 3045SOL    HW220772   3.331   3.674  14.246 -1.9429  0.2137  0.7927
 3046SOL     OW20773   0.010   0.770   3.371  0.4236 -0.1546  0.8509
 3046SOL    HW120774   4.681   0.838   3.366 -0.1509 -0.7388  0.5642
 3046SOL    HW220775   0.047   0.785   3.457  1.6547  0.6432  0.1804
 3047SOL     OW20776   3.746   2.662   1.893 -0.4051  0.1647  0.2165
 3047SOL    HW120777   3.803   2.627   1.825  2.3814  2.5521  1.3059
 3047SOL    HW220778   3.679   2.594   1.901 -0.2327 -0.1231 -0.8147
 3048SOL     OW20779   4.590   0.654  15.729  0.3196  0.4184 -0.0637
 3048SOL    HW120780   4.591   0.599  15.650  1.8358 -2.6845  2.0823
 3048SOL    HW220781   4.683   0.668  15.749  0.8155  0.4973 -2.3735
 3049SOL     OW20782   0.984   3.386  16.315  0.3666 -0.7569 -0.1337
 3049SOL    HW120783   0.936   3.366  16.395  2.8941  1.9045  2.0211
 3049SOL    HW220784   0.934   3.327  16.258  0.4008  0.5826 -1.5642
 3050SOL     OW20785   1.102   1.213  11.253 -0.2744 -0.0267  0.4770
 3050SOL    HW120786   1.105   1.173  11.340 -0.9305  0.5778  0.7781
 3050SOL    HW220787   1.014   1.185  11.227  0.1889 -1.1811  0.1566
 3051SOL     OW20788   0.936   2.767  10.913 -0.0345  0.2457 -0.6971
 3051SOL    HW120789   0.980   2.786  10.996 -2.4674  1.1157  0.4027
 3051SOL    HW220790   0.949   2.677  10.884  0.3908  0.3269 -0.7559
 3052SOL     OW20791   0.839   2.010   3.178  0.3680  0.0919 -0.4143
 3052SOL    HW120792   0.872   1.985   3.264 -0.3993  0.2444 -0.0689
 3052SOL    HW220793   0.761   2.062   3.197  0.8646 -0.1003  2.0506
 3053SOL     OW20794   1.452   3.467  13.054  0.3599 -0.0090 -0.5570
 3053SOL    HW120795   1.464   3.524  12.978 -0.7342  0.2898 -0.5078
 3053SOL    HW220796   1.375   3.509  13.091  1.3253  0.2982  1.0932
 3054SOL     OW20797   2.581   3.833   8.067  0.1014  0.3027 -0.0879
 3054SOL    HW120798   2.489   3.810   8.069 -0.1550  1.1955 -1.8193
 3054SOL    HW220799   2.614   3.746   8.046 -0.7883  0.3197 -1.4804
 3055SOL     OW20800   4.249   2.528   5.489 -0.3533 -0.4474 -0.0407
 3055SOL    HW120801   4.332   2.548   5.444  0.4104 -1.2840  1.0185
 3055SOL    HW220802   4.223   2.442   5.457  0.7919 -0.8324  0.0648
 3056SOL     OW20803   3.780   2.551   2.998 -0.4049  0.3602 -0.2696
 3056SOL    HW120804   3.802   2.460   2.979 -1.6673  0.0105 -0.0632
 3056SOL    HW220805   3.713   2.569   2.932  2.4193  0.5016 -3.1220
 3057SOL     OW20806   1.951   2.536  12.196 -0.3208 -0.0594  0.0319
 3057SOL    HW120807   2.037   2.570  12.171 -0.7317  0.9664  0.0237
 3057SOL    HW220808   1.961   2.442  12.183  1.3219  0.1315 -0.1403
 3058SOL     OW20809   3.045   1.347   3.249 -0.5247  0.0204  0.3679
 3058SOL    HW120810   2.996   1.390   3.320 -2.5207  0.9955 -1.6238
 3058SOL    HW220811   3.072   1.426   3.202  0.5429 -0.7935 -0.4021
 3059SOL     OW20812   4.502   4.087   3.233 -0.2399  0.8058  0.1403
 3059SOL    HW120813   4.414   4.123   3.222 -0.1491  1.1196  0.4227
 3059SOL    HW220814   4.489   4.021   3.301  0.8223 -0.4632 -0.9076
 3060SOL     OW20815   1.434   2.663   3.133 -0.2082  0.3598  0.2766
 3060SOL    HW120816   1.351   2.712   3.133 -1.9439 -2.5880  1.9280
 3060SOL    HW220817   1.394   2.578   3.149  1.2858 -0.5976 -1.0992
 3061SOL     OW20818   0.210   0.410  11.178 -0.1739 -0.2658  0.3656
 3061SOL    HW120819   0.297   0.378  11.153 -0.3507 -0.5495  0.1159
 3061SOL    HW220820   0.245   0.493  11.211  0.4774 -0.2503 -0.3516
 3062SOL     OW20821   4.222   2.815   3.464  0.5424  0.1836 -0.1271
 3062SOL    HW120822   4.189   2.801   3.375  2.0378 -2.0909 -0.3291
 3062SOL    HW220823   4.219   2.725   3.495  1.4493 -0.4194 -1.7578
 3063SOL     OW20824   1.505   2.340  13.221  0.2761 -0.0869 -0.0738
 3063SOL    HW120825   1.572   2.392  13.176  2.0617 -1.6816  0.7763
 3063SOL    HW220826   1.563   2.265  13.231 -1.1359 -0.8441  2.2458
 3064SOL     OW20827   4.566   0.161   6.225 -0.1615 -0.0624  0.1801
 3064SOL    HW120828   4.489   0.125   6.269  1.5929 -2.0466  1.6927
 3064SOL    HW220829   4.630   0.110   6.274  0.7351 -1.4207 -2.3885
 3065SOL     OW20830   3.060   2.760  15.234 -0.0692  0.0051 -0.0474
 3065SOL    HW120831   3.022   2.824  15.294  1.5919 -0.1004  1.0959
 3065SOL    HW220832   3.122   2.820  15.191  1.1329 -1.4231 -0.2969
 3066SOL     OW20833   1.968   3.197   8.429  0.5586  0.5217  0.4210
 3066SOL    HW120834   2.034   3.194   8.360  0.0149  1.0153 -0.1252
 3066SOL    HW220835   2.025   3.207   8.506 -0.8280  0.5155  1.4646
 3067SOL     OW20836   4.108   3.706   6.688  0.3438 -0.7214  0.2545
 3067SOL    HW120837   4.111   3.627   6.633 -0.3385  0.2500 -1.1897
 3067SOL    HW220838   4.014   3.714   6.700  0.4965 -1.1317  1.6923
 3068SOL     OW20839   2.535   1.602  13.622 -0.5096  0.3351 -0.1837
 3068SOL    HW120840   2.624   1.574  13.599 -1.1874  1.3398 -3.9219
 3068SOL    HW220841   2.486   1.535  13.575  0.8835  0.6423 -2.0771
 3069SOL     OW20842   4.326   4.676   7.945  0.3792 -0.0918  0.5892
 3069SOL    HW120843   4.358   4.734   8.015  1.3486  1.5740 -1.2457
 3069SOL    HW220844   4.378   4.720   7.878  1.6677 -0.7162  1.1751
 3070SOL     OW20845   4.646   0.027   3.365  0.6802 -0.1463 -0.1703
 3070SOL    HW120846   4.607   0.065   3.444 -2.0953 -0.6887 -1.2967
 3070SOL    HW220847   4.641   4.673   3.387  1.4511 -0.2513 -0.4245
 3071SOL     OW20848   3.507   0.384  13.020 -0.8871  0.9755  0.0256
 3071SOL    HW120849   3.589   0.403  12.975  0.3930 -0.8054  1.6172
 3071SOL    HW220850   3.543   0.325  13.087  2.0199  0.5243 -1.9424
 3072SOL     OW20851   3.286   4.335   1.744  0.4296 -0.2043 -0.4199
 3072SOL    HW120852   3.270   4.303   1.833 -0.9034  0.1565 -0.5389
 3072SOL    HW220853   3.200   4.377   1.738  0.7065  0.5042  0.5570
 3073SOL     OW20854   1.242   2.948  16.938  0.3654  0.3407 -0.4677
 3073SOL    HW120855   1.208   2.882  16.998 -0.2557 -0.0454 -1.2463
 3073SOL    HW220856   1.268   2.879  16.877  0.1064 -0.7108  0.5967
 3074SOL     OW20857   2.520   1.830  12.877  0.0939 -0.0152  0.3506
 3074SOL    HW120858   2.606   1.809  12.913 -0.5036 -2.2193  0.4707
 3074SOL    HW220859   2.530   1.899  12.811  0.8559 -1.0652 -0.6477
 3075SOL     OW20860   3.191   4.272  11.607  0.2361  0.3827 -0.3050
 3075SOL    HW120861   3.215   4.323  11.685 -1.7458  3.3346 -1.6134
 3075SOL    HW220862   3.136   4.205  11.647 -0.9677  0.0274 -2.5802
 3076SOL     OW20863   2.988   1.290   5.364 -0.4608  0.4193 -0.2406
 3076SOL    HW120864   2.938   1.235   5.424 -0.5465 -0.3237 -0.9915
 3076SOL    HW220865   2.920   1.318   5.303 -0.2506 -0.3919 -0.8487
 3077SOL     OW20866   1.818   1.808   6.841  0.2342  0.0102  0.1617
 3077SOL    HW120867   1.826   1.721   6.881  1.1373 -0.3797 -0.8508
 3077SOL    HW220868   1.748   1.837   6.898  0.7996  1.0217  0.3347
 3078SOL     OW20869   3.679   0.391   7.365 -0.3937  0.1997 -0.1219
 3078SOL    HW120870   3.678   0.296   7.358 -1.5400 -0.0008  2.6943
 3078SOL    HW220871   3.764   0.408   7.405 -0.4351  0.1157  0.0009
 3079SOL     OW20872   3.458   1.972  11.624  0.4008  0.0051  0.2640
 3079SOL    HW120873   3.538   2.022  11.636  1.0743 -0.8041 -0.9472
 3079SOL    HW220874   3.468   1.957  11.530  1.5213  0.4916  0.3080
 3080SOL     OW20875   1.875   3.738   3.751  0.2969 -0.0090  0.2838
 3080SOL    HW120876   1.825   3.771   3.676  1.5222 -0.3394 -0.6718
 3080SOL    HW220877   1.962   3.773   3.731  0.1181 -0.9203 -2.0031
 3081SOL     OW20878   0.697   0.974   6.914  0.3813  0.5955  0.4691
 3081SOL    HW120879   0.679   1.030   6.989  0.1231 -0.8074  1.4412
 3081SOL    HW220880   0.625   1.001   6.857  1.0714  0.9816 -0.2337
 3082SOL     OW20881   1.625   1.277  11.954 -0.4458 -0.8477 -0.6160
 3082SOL    HW120882   1.611   1.363  11.914 -2.3418 -0.5205  0.7453
 3082SOL    HW220883   1.649   1.293  12.045 -2.7035  0.1051 -0.2115
 3083SOL     OW20884   3.562   4.388  15.317  0.0093  0.0917  0.2572
 3083SOL    HW120885   3.486   4.423  15.363 -0.5675 -0.4797 -0.2555
 3083SOL    HW220886   3.560   4.434  15.233 -1.3686  0.8633  0.7171
 3084SOL     OW20887   2.638   0.521  13.848 -0.0922 -0.2131  1.1208
 3084SOL    HW120888   2.605   0.584  13.912  2.3933 -0.5212  2.6968
 3084SOL    HW220889   2.577   0.451  13.870 -0.1671 -0.8060 -1.0359
 3085SOL     OW20890   3.356   4.506  14.315  0.0947 -0.3396  0.0789
 3085SOL    HW120891   3.283   4.568  14.310 -0.3590 -0.6223  3.2576
 3085SOL    HW220892   3.404   4.541  14.390  1.5738  0.6351 -1.3257
 3086SOL     OW20893   3.927   0.764   8.093 -0.0702 -0.5346  0.3227
 3086SOL    HW120894   3.876   0.697   8.139 -0.0142 -1.1296 -0.4647
 3086SOL    HW220895   3.909   0.844   8.142 -0.7628 -1.1027  0.9916
 3087SOL     OW20896   0.713   3.483   6.092 -0.0671 -0.2443 -0.2640
 3087SOL    HW120897   0.627   3.443   6.079 -0.1923  0.1487 -0.6760
 3087SOL    HW220898   0.698   3.562   6.145  1.0488 -1.4770  1.8651
 3088SOL     OW20899   0.634   0.834   5.702 -0.1396  0.5708  0.4843
 3088SOL    HW120900   0.587   0.759   5.737 -0.6399  0.5671 -0.1827
 3088SOL    HW220901   0.677   0.790   5.629 -1.9912 -1.5087  0.6503
 3089SOL     OW20902   1.278   3.141   3.565 -0.1845 -0.2104 -0.0008
 3089SOL    HW120903   1.312   3.152   3.476 -1.7201  0.8245 -0.4734
 3089SOL    HW220904   1.186   3.164   3.548 -0.0974  0.1965  0.0913
 3090SOL     OW20905   2.558   1.180   8.212 -0.0563  0.1841  0.0191
 3090SOL    HW120906   2.524   1.197   8.124 -0.3816 -0.2447  0.0594
 3090SOL    HW220907   2.602   1.262   8.235 -0.7001 -0.0670  2.1067
 3091SOL     OW20908   3.229   4.602   6.303  0.0146 -0.6118  0.2287
 3091SOL    HW120909   3.271   4.685   6.325 -0.9943  0.4884 -1.9872
 3091SOL    HW220910   3.256   4.542   6.373  1.5022 -0.3452 -0.1322
 3092SOL     OW20911   3.670   4.026   3.097  0.6026  0.1171 -0.3161
 3092SOL    HW120912   3.610   4.096   3.124 -0.2128 -0.4215 -0.7366
 3092SOL    HW220913   3.758   4.059   3.116  1.1543 -0.9227 -1.0550
 3093SOL     OW20914   1.053   2.500   4.053 -0.1914  0.3986  0.1076
 3093SOL    HW120915   1.078   2.588   4.026 -0.6526  0.0039 -1.6258
 3093SOL    HW220916   1.041   2.453   3.970  0.1554  2.1085 -0.9106
 3094SOL     OW20917   4.492   1.267   6.277  0.1406 -0.3968  0.3385
 3094SOL    HW120918   4.488   1.171   6.284 -2.0676 -0.3279 -0.2131
 3094SOL    HW220919   4.476   1.293   6.367 -0.1381 -0.7616  0.3932
 3095SOL     OW20920   3.767   1.424   4.911  0.4268  0.3753  0.1631
 3095SOL    HW120921   3.686   1.452   4.868  1.3189  2.2534 -0.2970
 3095SOL    HW220922   3.767   1.485   4.985 -1.7719  1.4430 -0.7258
 3096SOL     OW20923   4.139   2.737  11.830 -0.1712 -0.1816 -0.7109
 3096SOL    HW120924   4.211   2.675  11.827 -0.6743 -0.7826 -0.3041
 3096SOL    HW220925   4.132   2.749  11.735  0.6370 -0.5761 -0.8180
 3097SOL     OW20926   3.503   0.271  11.372 -0.5260 -0.1636  0.3059
 3097SOL    HW120927   3.482   0.186  11.411  0.3093 -0.7399 -0.5071
 3097SOL    HW220928   3.586   0.251  11.328 -1.5826 -1.2367 -1.2132
 3098SOL     OW20929   2.367   2.006   0.503  0.8222  0.3728  0.2607
 3098SOL    HW120930   2.350   2.100   0.492  1.9522  0.6669  1.0578
 3098SOL    HW220931   2.374   1.989   0.597 -1.0976  0.9043  0.5120
 3099SOL     OW20932   2.117   2.062  12.810  0.2569 -0.0483  0.8913
 3099SOL    HW120933   2.179   2.124  12.772  0.7578 -1.6029 -0.8467
 3099SOL    HW220934   2.166   2.005  12.869  0.2602 -0.9427  0.0213
 3100SOL     OW20935   4.191   3.189   5.216 -0.2127  0.2939  0.0061
 3100SOL    HW120936   4.104   3.220   5.244 -0.6898 -0.6084 -0.4696
 3100SOL    HW220937   4.191   3.093   5.218 -2.2330  0.2785 -0.2678
 3101SOL     OW20938   0.059   3.979  14.672 -0.7674 -0.3052 -0.5513
 3101SOL    HW120939   0.002   3.904  14.688  2.8672 -3.2277 -1.1408
 3101SOL    HW220940   0.012   4.046  14.721  2.4203  0.6842  1.1607
 3102SOL     OW20941   4.033   3.502   4.895  0.4128  0.7352 -0.6521
 3102SOL    HW120942   4.047   3.407   4.905 -1.1240  0.6268  0.5447
 3102SOL    HW220943   3.937   3.505   4.893  0.3295 -1.5120 -0.7102
 3103SOL     OW20944   0.494   2.273  17.545  0.1897  0.5751  0.6983
 3103SOL    HW120945   0.583   2.292  17.574  1.3630  1.3762 -3.3997
 3103SOL    HW220946   0.467   2.339  17.482  1.5212  1.7343  1.3501
 3104SOL     OW20947   0.528   3.492   3.124 -0.4039  0.1709 -0.6524
 3104SOL    HW120948   0.570   3.472   3.040  0.4848 -2.2595  0.3562
 3104SOL    HW220949   0.455   3.547   3.099 -0.1120  0.9604  0.2138
 3105SOL     OW20950   2.792   1.398   5.196  0.9251  0.1632 -0.3462
 3105SOL    HW120951   2.786   1.484   5.155 -1.1007  0.2306  0.0831
 3105SOL    HW220952   2.706   1.387   5.238  1.9882 -0.7411  1.5662
 3106SOL     OW20953   1.129   2.786   9.340 -0.4238  0.2092 -0.0180
 3106SOL    HW120954   1.180   2.725   9.286 -1.9521  0.0297 -1.2393
 3106SOL    HW220955   1.184   2.861   9.364  1.3194 -0.4604 -1.8098
 3107SOL     OW20956   0.772   2.064   5.626 -0.3978  0.1025 -0.0747
 3107SOL    HW120957   0.815   2.128   5.683 -1.4069  3.1370 -2.6980
 3107SOL    HW220958   0.838   1.997   5.607  2.4241  3.1457 -0.9195
 3108SOL     OW20959   4.264   2.591   7.623  0.1389  0.0934 -0.3580
 3108SOL    HW120960   4.334   2.549   7.672 -1.5381 -1.9820  0.2467
 3108SOL    HW220961   4.242   2.672   7.670 -0.1227 -1.3483  2.0124
 3109SOL     OW20962   2.907   0.635  14.753  0.0919  0.0413  0.2928
 3109SOL    HW120963   2.972   0.619  14.684 -1.4725 -0.2177 -1.1189
 3109SOL    HW220964   2.947   0.598  14.832 -0.8196  0.9571  1.1804
 3110SOL     OW20965   0.218   3.734  16.785 -0.3767 -0.1524 -0.3760
 3110SOL    HW120966   0.131   3.762  16.813  1.1461  3.2080  0.9633
 3110SOL    HW220967   0.274   3.793  16.836 -2.7532  2.5190 -0.8867
 3111SOL     OW20968   3.653   0.087   6.181 -0.0172 -0.1847 -0.6746
 3111SOL    HW120969   3.680   0.078   6.090  0.9014  0.6580 -0.4850
 3111SOL    HW220970   3.594   0.162   6.175  0.1462  0.0333  0.4239
 3112SOL     OW20971   4.031   2.474   6.405  0.4587 -0.3155  0.4078
 3112SOL    HW120972   4.017   2.468   6.311 -0.2047  0.7123  0.4403
 3112SOL    HW220973   4.027   2.567   6.425 -0.5303  0.1556 -2.0344
 3113SOL     OW20974   4.089   1.097   8.812  0.4240 -0.0835  0.0238
 3113SOL    HW120975   4.080   1.015   8.762 -0.2212  0.2801 -0.4578
 3113SOL    HW220976   4.018   1.151   8.776 -0.5996 -0.5129  1.3571
 3114SOL     OW20977   2.679   1.290  17.109  0.5505  0.0723  0.2022
 3114SOL    HW120978   2.741   1.226  17.143 -0.1286 -1.8162 -2.1583
 3114SOL    HW220979   2.737   1.361  17.082  2.1914 -0.9373  1.0952
 3115SOL     OW20980   3.102   1.219   0.730 -0.0892  0.0966  0.4987
 3115SOL    HW120981   3.014   1.239   0.698 -0.1810 -2.8745 -1.0730
 3115SOL    HW220982   3.135   1.296   0.775 -1.0208  1.3291 -0.9130
 3116SOL     OW20983   3.818   1.795   2.523 -0.0338  0.5116 -0.0372
 3116SOL    HW120984   3.730   1.818   2.494 -0.0042 -1.6747 -1.7998
 3116SOL    HW220985   3.865   1.870   2.485 -1.7951 -0.3316 -3.9068
 3117SOL     OW20986   3.290   1.895   8.362  0.5066 -0.1376  0.3103
 3117SOL    HW120987   3.312   1.943   8.282 -2.4214  2.0704  0.8346
 3117SOL    HW220988   3.223   1.954   8.397  0.8180  1.1669 -1.3214
 3118SOL     OW20989   0.293   1.631   6.117 -0.6975 -0.1933 -0.5417
 3118SOL    HW120990   0.327   1.546   6.145  0.2038  0.0798 -0.8256
 3118SOL    HW220991   0.226   1.652   6.182 -0.8802 -2.8449  0.1204
 3119SOL     OW20992   4.588   3.153   1.632 -0.0716 -0.0459 -0.3596
 3119SOL    HW120993   4.639   3.234   1.626  2.5679 -1.7810 -1.0739
 3119SOL    HW220994   4.600   3.144   1.727  1.8069 -2.3904 -0.8327
 3120SOL     OW20995   4.647   4.355   5.921  0.3085  0.4583  0.2972
 3120SOL    HW120996   4.568   4.391   5.960 -0.4953  1.4230 -2.1985
 3120SOL    HW220997   4.660   4.391   5.833 -2.5597 -0.5635 -0.5530
 3121SOL     OW20998   2.835   4.142   8.819  0.1153 -0.4937  0.0553
 3121SOL    HW120999   2.910   4.176   8.868 -0.8786  0.7137  0.7194
 3121SOL    HW221000   2.844   4.049   8.841  0.5992 -1.1708 -3.0335
 3122SOL     OW21001   4.283   0.381   1.399  0.5237 -0.0710  0.1702
 3122SOL    HW121002   4.356   0.429   1.360  0.6664  0.3494  0.9539
 3122SOL    HW221003   4.283   0.429   1.482  0.7622 -1.2262  0.8394
 3123SOL     OW21004   2.672   0.767   4.228 -0.3630  0.2177 -0.0110
 3123SOL    HW121005   2.705   0.805   4.309  1.0161 -0.1812 -0.3702
 3123SOL    HW221006   2.653   0.675   4.246  0.7893  0.0551  0.3611
 3124SOL     OW21007   0.497   4.727   6.799 -0.3196  0.0519 -0.0590
 3124SOL    HW121008   0.487   0.028   6.713 -0.6567 -0.3340 -0.2017
 3124SOL    HW221009   0.440   0.039   6.857 -0.9203  1.3697 -1.8426
 3125SOL     OW21010   1.760   4.191   7.618  0.2248 -0.4531 -0.2164
 3125SOL    HW121011   1.837   4.140   7.594  0.6510  0.9611 -1.8652
 3125SOL    HW221012   1.800   4.278   7.622  0.3087 -0.5785  1.7979
 3126SOL     OW21013   1.577   2.909   6.013  0.2380 -0.8823 -0.3577
 3126SOL    HW121014   1.657   2.885   5.966  0.8246  0.3061  0.0191
 3126SOL    HW221015   1.575   2.840   6.079 -0.5952 -0.5074  0.0158
 3127SOL     OW21016   3.679   3.378   5.887  0.0974  0.8167  0.1599
 3127SOL    HW121017   3.738   3.352   5.817  2.4700 -0.5326  2.6633
 3127SOL    HW221018   3.602   3.394   5.832 -0.4549 -1.0220  0.4011
 3128SOL     OW21019   0.637   3.955   4.633 -0.0744 -0.3694 -0.8625
 3128SOL    HW121020   0.662   3.881   4.579 -1.8448 -0.2400 -1.8562
 3128SOL    HW221021   0.699   4.023   4.606 -0.2097 -1.1121 -3.0287
 3129SOL     OW21022   0.201   0.810   5.789 -0.3098 -0.2403 -0.1969
 3129SOL    HW121023   0.189   0.900   5.822  0.0075 -0.4224  0.4268
 3129SOL    HW221024   0.114   0.772   5.787 -1.5455  2.4428  1.8329
 3130SOL     OW21025   0.814   2.497   7.401 -0.5112 -0.4077 -0.0316
 3130SOL    HW121026   0.762   2.575   7.384  1.6245  0.9174 -0.4710
 3130SOL    HW221027   0.890   2.519   7.455 -1.1392 -0.8271  1.0364
 3131SOL     OW21028   0.500   2.249   2.676  0.1802  0.1530 -0.1276
 3131SOL    HW121029   0.520   2.156   2.664 -1.0033  0.1616 -2.0674
 3131SOL    HW221030   0.491   2.251   2.771 -0.6334  0.2854 -0.2047
 3132SOL     OW21031   3.664   4.433   5.979  0.5879 -0.3514 -0.3089
 3132SOL    HW121032   3.718   4.400   6.051  1.4522  0.3190 -0.6501
 3132SOL    HW221033   3.577   4.397   5.995  0.2744  0.1743 -0.8176
 3133SOL     OW21034   4.484   0.081   2.059  0.6222 -0.4644  0.0228
 3133SOL    HW121035   4.392   0.091   2.037  0.6019 -1.9334 -0.5210
 3133SOL    HW221036   4.508   0.014   1.995 -1.0605 -0.0735 -1.0242
 3134SOL     OW21037   0.428   2.612  17.648 -0.3435  0.1075  0.0768
 3134SOL    HW121038   0.405   2.552  17.578 -1.4002  0.2452  0.3026
 3134SOL    HW221039   0.445   2.688  17.593  1.5676  0.8394  1.6716
 3135SOL     OW21040   3.752   3.224  10.151  0.0538 -0.4148  0.3932
 3135SOL    HW121041   3.701   3.272  10.085  2.9950  1.7435 -0.2897
 3135SOL    HW221042   3.760   3.290  10.220  0.5886  0.8160 -0.8473
 3136SOL     OW21043   3.657   1.795   7.782  0.1648 -0.1025 -0.2658
 3136SOL    HW121044   3.694   1.800   7.870 -1.6735 -0.4375  0.5277
 3136SOL    HW221045   3.698   1.868   7.737 -2.1092  0.6674 -1.1221
 3137SOL     OW21046   2.732   4.389   4.746  0.1304  0.3925 -0.4427
 3137SOL    HW121047   2.757   4.306   4.786 -0.7327  0.3054 -0.0680
 3137SOL    HW221048   2.808   4.405   4.690 -0.0514  1.0816 -0.4921
 3138SOL     OW21049   3.170   0.702   0.375  0.4210 -0.9209  0.0220
 3138SOL    HW121050   3.163   0.744   0.461 -2.7245  0.0206 -0.6673
 3138SOL    HW221051   3.107   0.760   0.332  1.2914 -0.3612 -0.5064
 3139SOL     OW21052   0.717   0.064  16.354 -0.5682  0.5396  0.2203
 3139SOL    HW121053   0.781   0.006  16.396  1.7486  2.2009 -1.0450
 3139SOL    HW221054   0.773   0.095  16.283  0.3398  2.1929  1.6502
 3140SOL     OW21055   2.932   0.767   5.880 -0.2670 -0.1597  0.0773
 3140SOL    HW121056   2.980   0.686   5.900  1.4866  1.2006  1.3531
 3140SOL    HW221057   2.841   0.736   5.874  0.2761 -1.5018 -1.2892
 3141SOL     OW21058   0.916   0.906   6.766 -0.8232  0.2553 -0.2468
 3141SOL    HW121059   0.834   0.943   6.799  0.5040  2.1618  0.9438
 3141SOL    HW221060   0.970   0.898   6.845  1.2436 -0.0594 -1.6837
 3142SOL     OW21061   1.567   4.009  10.179  0.0889  0.0151  0.0090
 3142SOL    HW121062   1.505   3.937  10.165  1.8211 -1.3987 -0.2673
 3142SOL    HW221063   1.580   4.051  10.095 -1.4164  0.7885  0.1594
 3143SOL     OW21064   3.738   3.192   7.853  0.2269 -0.1259 -0.0215
 3143SOL    HW121065   3.665   3.230   7.805  0.5668  0.1331 -0.3302
 3143SOL    HW221066   3.734   3.104   7.817 -3.4517 -0.3796  0.9548
 3144SOL     OW21067   0.353   1.531  10.920  0.5193  0.4249  0.2620
 3144SOL    HW121068   0.424   1.581  10.962  0.0932 -0.9841  2.6587
 3144SOL    HW221069   0.409   1.482  10.861 -1.5054 -0.5209 -0.8464
 3145SOL     OW21070   1.763   2.626   6.649 -0.0770  0.2614  0.3194
 3145SOL    HW121071   1.747   2.715   6.618 -0.9987  0.1027  0.3377
 3145SOL    HW221072   1.856   2.631   6.627  0.4629  0.5840  2.5837
 3146SOL     OW21073   1.790   0.459   4.147 -0.5657 -0.0021  0.1918
 3146SOL    HW121074   1.740   0.528   4.191  0.7759  1.1487 -0.1293
 3146SOL    HW221075   1.753   0.383   4.191  1.3216 -1.1170 -0.1451
 3147SOL     OW21076   0.478   0.572  13.920  0.0194 -0.5408 -0.1781
 3147SOL    HW121077   0.525   0.605  13.843 -2.7469 -2.6945 -2.8307
 3147SOL    HW221078   0.476   0.647  13.979  0.0242 -0.4560 -0.2848
 3148SOL     OW21079   0.369   3.770   2.398 -0.1784  0.1190  0.3367
 3148SOL    HW121080   0.285   3.806   2.425 -0.8440 -0.2205 -1.3007
 3148SOL    HW221081   0.373   3.791   2.304 -0.0540  1.5370  0.6597
 3149SOL     OW21082   0.501   4.053   0.412 -0.1482 -0.6160  0.2808
 3149SOL    HW121083   0.452   4.134   0.399 -0.5075 -0.5931  1.7189
 3149SOL    HW221084   0.567   4.060   0.343  1.8124 -0.1600  2.2166
 3150SOL     OW21085   2.203   0.344  16.757  0.3922  0.2102  1.0331
 3150SOL    HW121086   2.185   0.435  16.732  0.9187 -0.0281 -0.1982
 3150SOL    HW221087   2.117   0.304  16.768 -0.3057  1.0922 -1.1516
 3151SOL     OW21088   1.299   4.161   7.314  0.5240 -0.3937 -0.0482
 3151SOL    HW121089   1.383   4.201   7.292 -0.0758 -0.2681 -2.1253
 3151SOL    HW221090   1.323   4.070   7.292 -0.4524 -0.7272  0.2506
 3152SOL     OW21091   2.004   3.023   9.761 -0.6528  0.8839 -0.2458
 3152SOL    HW121092   2.038   2.971   9.689 -2.4250  0.8651 -1.0685
 3152SOL    HW221093   1.959   3.096   9.717  0.0661  0.8805 -0.9817
 3153SOL     OW21094   1.054   4.552   4.892  0.8543 -0.3964 -0.0732
 3153SOL    HW121095   1.056   4.493   4.817  0.8221 -1.6995  0.9417
 3153SOL    HW221096   0.983   4.605   4.856 -1.5214 -2.4465  1.5828
 3154SOL     OW21097   1.129   4.594   8.008  0.9325  0.2654  0.2817
 3154SOL    HW121098   1.134   4.661   8.076 -2.8301  0.9853 -0.1141
 3154SOL    HW221099   1.057   4.630   7.955  0.7176  1.1321  1.1693
 3155SOL     OW21100   0.913   2.780   8.385 -0.0103  0.3914 -0.5898
 3155SOL    HW121101   0.866   2.697   8.373 -0.5499  0.4780  1.0102
 3155SOL    HW221102   0.870   2.841   8.445 -0.1828  1.3865 -1.7258
 3156SOL     OW21103   2.711   2.504   2.387  0.3031 -0.4031 -0.6888
 3156SOL    HW121104   2.669   2.585   2.356 -0.6134 -0.8257 -0.5515
 3156SOL    HW221105   2.756   2.541   2.463 -1.6667 -1.6010  1.0373
 3157SOL     OW21106   3.220   0.103   4.692 -0.0305 -0.1603 -0.0258
 3157SOL    HW121107   3.241   0.014   4.721 -1.1021 -0.2866  0.3641
 3157SOL    HW221108   3.140   0.121   4.742  0.1029  1.8209 -0.5352
 3158SOL     OW21109   2.583   3.871  11.920  0.4722  0.3102  0.1053
 3158SOL    HW121110   2.590   3.855  12.014 -2.4649  1.6084  0.5518
 3158SOL    HW221111   2.491   3.896  11.918  0.1947 -0.6021  1.8283
 3159SOL     OW21112   0.029   1.076   2.522  0.4202 -0.1739 -0.4396
 3159SOL    HW121113   0.100   1.031   2.568  0.1063 -0.7855 -0.5489
 3159SOL    HW221114   0.084   1.144   2.484  2.5216 -2.2989 -1.1886
 3160SOL     OW21115   4.650   1.040   4.686  0.1071  0.4595  0.2524
 3160SOL    HW121116   4.694   0.997   4.760  0.3397 -0.0520 -0.1859
 3160SOL    HW221117   4.604   0.967   4.645 -0.3975  2.3963 -2.5725
 3161SOL     OW21118   3.017   3.802   8.630 -0.5586 -0.0230 -0.2692
 3161SOL    HW121119   2.952   3.740   8.597  0.2609 -0.1441 -1.6730
 3161SOL    HW221120   2.979   3.889   8.616  0.0882  0.5488  1.4715
 3162SOL     OW21121   2.546   1.256  16.185 -0.1532  0.9517 -0.0042
 3162SOL    HW121122   2.532   1.312  16.262 -1.6321 -1.7247  1.6654
 3162SOL    HW221123   2.641   1.250  16.185 -0.2296 -0.1796 -0.5748
 3163SOL     OW21124   0.157   0.090   2.697 -0.1021  0.2674  0.7192
 3163SOL    HW121125   0.109   0.140   2.763  1.6643  1.1699  1.3141
 3163SOL    HW221126   0.245   0.126   2.707  1.1383 -2.6263  0.2988
 3164SOL     OW21127   3.290   1.546   6.760  0.4214 -0.0369 -0.0462
 3164SOL    HW121128   3.202   1.570   6.791  0.4990  0.5223 -0.2632
 3164SOL    HW221129   3.269   1.476   6.698 -0.9575 -1.6434  2.2586
 3165SOL     OW21130   3.573   4.107   3.974  0.2137  0.0387 -0.2069
 3165SOL    HW121131   3.585   4.173   4.042  1.0454 -0.6175  0.2796
 3165SOL    HW221132   3.659   4.073   3.950  1.2522  1.4662  1.5452
 3166SOL     OW21133   1.218   0.337   8.853 -0.0024 -0.3666  0.6412
 3166SOL    HW121134   1.264   0.315   8.934 -1.2452  0.3440  1.5463
 3166SOL    HW221135   1.273   0.412   8.833 -1.7342  0.3662 -1.3729
 3167SOL     OW21136   0.712   1.518  17.734  0.0163 -0.0564  0.0662
 3167SOL    HW121137   0.804   1.540  17.726 -0.4709  1.6294 -0.9813
 3167SOL    HW221138   0.671   1.597  17.699  0.0232  0.8236  2.0861
 3168SOL     OW21139   4.293   0.475   5.887  0.3757 -0.0278  0.0900
 3168SOL    HW121140   4.386   0.454   5.881  0.6513  1.2044  0.0232
 3168SOL    HW221141   4.249   0.391   5.878  0.1739  0.4979 -3.9850
 3169SOL     OW21142   4.631   0.194  15.513  0.4139 -0.0614 -0.3789
 3169SOL    HW121143   4.710   0.202  15.459 -0.2740  0.3759 -1.3307
 3169SOL    HW221144   4.673   0.137  15.577  0.9429  0.5221 -0.2080
 3170SOL     OW21145   2.589   2.929   2.521  0.2803 -0.7504  0.2873
 3170SOL    HW121146   2.604   3.021   2.502  0.5312 -0.9261 -0.3303
 3170SOL    HW221147   2.595   2.912   2.615 -0.7099  1.7783  0.8222
 3171SOL     OW21148   3.446   0.506   4.331 -0.0879  0.3928 -0.4408
 3171SOL    HW121149   3.380   0.521   4.398  0.4485 -0.8752  0.3675
 3171SOL    HW221150   3.409   0.544   4.251 -1.2511 -3.2243 -1.6067
 3172SOL     OW21151   2.404   1.618   3.907 -0.1562  0.4014 -0.3292
 3172SOL    HW121152   2.325   1.670   3.922 -0.5661 -0.0175 -1.0728
 3172SOL    HW221153   2.437   1.660   3.827 -0.1107 -0.0054 -0.5212
 3173SOL     OW21154   2.364   2.099   5.721 -0.2313  0.1600  0.1427
 3173SOL    HW121155   2.379   2.024   5.663 -0.7587 -0.0054  0.2191
 3173SOL    HW221156   2.270   2.115   5.710  0.3412  3.9718  0.8406
 3174SOL     OW21157   0.210   3.323   1.326 -0.1851 -0.3306 -0.0804
 3174SOL    HW121158   0.226   3.246   1.273 -0.9827  1.0668 -2.3549
 3174SOL    HW221159   0.161   3.377   1.263 -0.7413 -0.4467  0.2509
 3175SOL     OW21160   1.191   1.377   6.003  0.3457 -0.3009 -0.1252
 3175SOL    HW121161   1.200   1.349   6.094 -0.9542 -0.5756 -0.0901
 3175SOL    HW221162   1.202   1.472   6.003 -0.3809 -0.2178 -3.8767
 3176SOL     OW21163   0.283   4.469   0.235  0.2444  0.3357 -0.5683
 3176SOL    HW121164   0.314   4.426   0.156 -0.4066  0.1083 -0.6926
 3176SOL    HW221165   0.236   4.539   0.190  1.0820  0.3179 -1.4659
 3177SOL     OW21166   2.175   0.121   1.878 -0.2062  0.4351  0.0031
 3177SOL    HW121167   2.153   0.214   1.883 -0.4625  0.4173 -0.7160
 3177SOL    HW221168   2.102   0.087   1.928  0.2055 -1.7096 -0.8345
 3178SOL     OW21169   3.810   3.999   3.620  0.1817 -0.3220  0.0115
 3178SOL    HW121170   3.821   4.004   3.715 -2.0164  2.9625  0.1001
 3178SOL    HW221171   3.893   3.958   3.598 -0.1924 -0.3701 -1.2884
 3179SOL     OW21172   2.367   1.216   5.573  0.0167 -0.0968 -0.0590
 3179SOL    HW121173   2.304   1.143   5.576  0.7730 -0.6723  1.9854
 3179SOL    HW221174   2.312   1.281   5.529 -0.4927 -1.9288 -2.1076
 3180SOL     OW21175   3.691   0.818   7.859  0.0023 -0.3055  0.8113
 3180SOL    HW121176   3.669   0.725   7.852  0.4526 -0.3827  0.4456
 3180SOL    HW221177   3.754   0.809   7.930  1.5310 -0.8590 -0.6138
 3181SOL     OW21178   0.026   0.071   6.373  0.0928 -0.0368  0.1764
 3181SOL    HW121179   0.017   4.737   6.434  2.2920 -1.4473 -1.1792
 3181SOL    HW221180   0.045   0.138   6.439 -1.1057 -0.2568  0.7476
 3182SOL     OW21181   1.912   3.912   7.872 -0.4306  0.4303 -0.3686
 3182SOL    HW121182   1.982   3.976   7.861  2.8322 -3.0037  0.6845
 3182SOL    HW221183   1.937   3.893   7.963  2.4258 -1.5898 -1.5946
 3183SOL     OW21184   1.880   2.251   9.464 -0.2283  0.1641 -0.3565
 3183SOL    HW121185   1.877   2.327   9.406  0.6454  2.1570  2.1905
 3183SOL    HW221186   1.911   2.178   9.411  0.4937 -0.8077  1.3847
 3184SOL     OW21187   4.431   1.795   7.645  0.2298  0.0611  0.1212
 3184SOL    HW121188   4.433   1.857   7.572  0.2644  0.3920  0.4054
 3184SOL    HW221189   4.355   1.739   7.629  1.6397 -1.1519 -2.4109
 3185SOL     OW21190   4.040   2.569   5.926 -0.1080 -0.1016 -0.6607
 3185SOL    HW121191   4.087   2.528   5.853 -3.1928 -0.8473 -2.2364
 3185SOL    HW221192   3.954   2.577   5.884 -0.4259  1.4689  0.3157
 3186SOL     OW21193   1.828   0.529  12.267  0.2975 -0.1581  0.5974
 3186SOL    HW121194   1.774   0.494  12.338  1.0118  0.2026  1.3230
 3186SOL    HW221195   1.859   0.609  12.309 -1.1418 -0.1789  1.7250
 3187SOL     OW21196   0.110   1.478   7.507  0.0250  0.1021  0.0429
 3187SOL    HW121197   0.150   1.558   7.541 -0.1502 -0.2529  1.1085
 3187SOL    HW221198   0.016   1.488   7.524 -0.3553  0.6491 -2.4277
 3188SOL     OW21199   2.722   2.820   9.402  0.1090  0.6170  0.2625
 3188SOL    HW121200   2.803   2.778   9.374 -0.7268 -2.0535  1.7329
 3188SOL    HW221201   2.667   2.753   9.444 -1.5144  1.7453 -0.0761
 3189SOL     OW21202   2.039   4.270   2.696  0.3588  0.5119  0.0935
 3189SOL    HW121203   2.023   4.180   2.666  1.8951  0.4217 -0.4385
 3189SOL    HW221204   2.128   4.275   2.661  0.2320 -1.1262 -0.4779
 3190SOL     OW21205   2.467   0.305   8.793  0.1542  0.0319 -0.7264
 3190SOL    HW121206   2.503   0.229   8.840 -0.3377 -0.0010 -0.4021
 3190SOL    HW221207   2.375   0.303   8.818  0.1820 -1.1291 -0.6840
 3191SOL     OW21208   0.303   4.078  10.076 -0.0133  0.4006  0.3497
 3191SOL    HW121209   0.272   3.996  10.038 -0.5599  2.0007 -2.7212
 3191SOL    HW221210   0.389   4.053  10.110  0.0146 -0.3330 -0.2703
 3192SOL     OW21211   1.307   3.955   6.131 -0.5360  0.3139 -0.1498
 3192SOL    HW121212   1.302   3.955   6.036 -4.2886 -1.8081  0.0525
 3192SOL    HW221213   1.283   4.044   6.156 -0.8989 -0.1369  1.1154
 3193SOL     OW21214   4.714   4.077   2.283 -0.6074  0.1712  0.6144
 3193SOL    HW121215   4.696   4.122   2.200  3.0941 -0.3983 -0.4798
 3193SOL    HW221216   4.628   4.090   2.324 -1.1664  0.2179 -0.5831
 3194SOL     OW21217   2.774   3.439   3.714 -0.2452  0.0825 -0.0544
 3194SOL    HW121218   2.689   3.398   3.732  0.4339 -1.0538  0.6070
 3194SOL    HW221219   2.832   3.372   3.750  0.0399 -1.1342 -2.8176
 3195SOL     OW21220   1.952   2.832   7.100  0.1129 -0.0881 -0.4023
 3195SOL    HW121221   2.035   2.785   7.094  1.4559  2.2348 -0.1094
 3195SOL    HW221222   1.987   2.921   7.106  0.0425 -0.0199 -0.9732
 3196SOL     OW21223   2.155   1.292   9.734 -0.7776 -0.2314  0.4139
 3196SOL    HW121224   2.144   1.231   9.661 -3.9484  1.6135 -0.6369
 3196SOL    HW221225   2.219   1.246   9.788  0.1044 -0.4576 -0.8068
 3197SOL     OW21226   3.389   4.370  12.086  0.1327  0.1564  0.1805
 3197SOL    HW121227   3.337   4.376  12.166 -1.1564 -1.0556 -0.5641
 3197SOL    HW221228   3.479   4.353  12.113 -0.8902 -1.0350  2.9270
 3198SOL     OW21229   3.906   2.591   4.155 -0.1020 -0.4409  0.1138
 3198SOL    HW121230   3.966   2.665   4.151 -1.2502  0.5220  0.7342
 3198SOL    HW221231   3.941   2.531   4.089 -2.5616 -0.5670 -1.0464
 3199SOL     OW21232   3.777   0.450  11.090 -0.1106  0.3319  0.0344
 3199SOL    HW121233   3.682   0.441  11.084 -0.0656 -1.0987  1.3698
 3199SOL    HW221234   3.788   0.501  11.171  0.1437  1.4237 -0.6947
 3200SOL     OW21235   4.375   2.623   4.086  0.4335 -0.5488 -0.4986
 3200SOL    HW121236   4.374   2.533   4.055 -1.0434 -0.5475 -0.4836
 3200SOL    HW221237   4.457   2.643   4.130 -0.1352  1.1116 -0.1515
 3201SOL     OW21238   2.814   3.527   2.579 -0.2262 -0.3841  0.0296
 3201SOL    HW121239   2.728   3.548   2.543 -0.5133 -1.5527  0.0315
 3201SOL    HW221240   2.880   3.576   2.530  0.8313  2.0370  3.8790
 3202SOL     OW21241   0.845   4.429  17.189 -0.8394  0.1919 -0.3260
 3202SOL    HW121242   0.935   4.407  17.166 -0.5207 -0.6806  1.7559
 3202SOL    HW221243   0.831   4.499  17.126  0.0273  1.4313  0.8731
 3203SOL     OW21244   4.195   4.244   6.420  0.2474  0.4083  0.6280
 3203SOL    HW121245   4.148   4.170   6.458  0.1710  0.1740  0.0777
 3203SOL    HW221246   4.280   4.226   6.460  0.6510 -0.2508 -0.5466
 3204SOL     OW21247   0.071   0.733   4.070  0.6282 -0.0586 -0.3321
 3204SOL    HW121248   0.117   0.705   3.990  1.0626 -0.8377  0.1905
 3204SOL    HW221249   0.133   0.800   4.099  2.9760 -3.2115  1.9981
 3205SOL     OW21250   3.049   3.341  14.080  0.3824  0.1789 -0.8816
 3205SOL    HW121251   3.016   3.253  14.063 -2.5932  1.0980  0.0623
 3205SOL    HW221252   3.139   3.349  14.048  0.9422 -2.0783  0.1093
 3206SOL     OW21253   2.359   0.104   8.508  0.4486 -0.0912 -0.2113
 3206SOL    HW121254   2.343   0.074   8.598 -0.1681  3.6687  0.9175
 3206SOL    HW221255   2.381   0.197   8.518  1.9608 -0.5913  1.1236
 3207SOL     OW21256   2.751   2.399  16.468 -0.2800  0.9158  0.1350
 3207SOL    HW121257   2.826   2.343  16.488 -0.9205  0.2884  0.7986
 3207SOL    HW221258   2.688   2.347  16.517  0.0991  1.4557  1.2078
 3208SOL     OW21259   2.364   0.311   8.272  0.1290  0.6103  0.4810
 3208SOL    HW121260   2.455   0.333   8.251  0.0876  0.4691  0.1522
 3208SOL    HW221261   2.362   0.319   8.367 -1.3995 -1.0175  0.5993
 3209SOL     OW21262   4.513   3.194   2.562 -0.5936 -0.0494 -0.4108
 3209SOL    HW121263   4.432   3.225   2.603  0.4203  2.0913 -0.0120
 3209SOL    HW221264   4.476   3.136   2.496  4.1059 -2.1110 -1.2170
 3210SOL     OW21265   0.067   4.503   6.539 -0.4662  0.1418  0.4540
 3210SOL    HW121266   0.034   4.578   6.588  1.9362  0.9121  0.9110
 3210SOL    HW221267   4.726   4.476   6.493  0.4354  0.2966 -1.2100
 3211SOL     OW21268   3.995   3.378   6.163 -1.0123 -0.1193 -0.7343
 3211SOL    HW121269   4.007   3.322   6.086 -2.6568  0.2819 -1.3028
 3211SOL    HW221270   4.086   3.405   6.174 -1.1594  0.4188 -0.8534
 3212SOL     OW21271   0.324   2.375  10.051 -0.1297  0.4268  0.0249
 3212SOL    HW121272   0.299   2.324  10.128  3.5584  0.8891  1.5317
 3212SOL    HW221273   0.412   2.338  10.048  0.5719  1.9215  1.7474
 3213SOL     OW21274   3.756   4.166   4.858 -0.1675  0.2766 -0.5689
 3213SOL    HW121275   3.804   4.155   4.940  1.5147  1.6848 -1.3566
 3213SOL    HW221276   3.768   4.079   4.822  0.6308  0.9552 -1.9399
 3214SOL     OW21277   0.885   2.347   2.231  0.9285 -0.2245  0.0180
 3214SOL    HW121278   0.848   2.297   2.304 -0.1406 -2.7714 -2.2616
 3214SOL    HW221279   0.961   2.381   2.276  0.8234 -2.1619  1.6586
 3215SOL     OW21280   3.744   4.626   5.804 -0.5531 -0.1692 -0.1937
 3215SOL    HW121281   3.821   4.580   5.770 -0.1778  0.1138  0.2657
 3215SOL    HW221282   3.712   4.562   5.868 -0.4480  0.1188  0.1443
 3216SOL     OW21283   2.295   2.126  13.643  0.3128 -0.2869  0.3663
 3216SOL    HW121284   2.342   2.164  13.718 -1.0199  2.9280 -0.4083
 3216SOL    HW221285   2.360   2.061  13.617  0.9718  0.6475 -0.3608
 3217SOL     OW21286   1.752   0.151   4.246 -0.0377  0.3184  0.4727
 3217SOL    HW121287   1.759   0.200   4.328 -0.6442  0.1359  0.6404
 3217SOL    HW221288   1.819   0.087   4.268  1.4840  2.1796  1.1900
 3218SOL     OW21289   3.345   0.262   3.418  0.2268  0.0184 -0.2499
 3218SOL    HW121290   3.357   0.244   3.511  2.2636  0.1674 -0.4913
 3218SOL    HW221291   3.434   0.231   3.402 -0.1507  0.2480 -2.8640
 3219SOL     OW21292   0.895   2.784   4.281 -0.1542  0.3365 -0.0893
 3219SOL    HW121293   0.988   2.772   4.263  0.4649  2.7050  1.4977
 3219SOL    HW221294   0.864   2.707   4.329  1.5452 -0.4859 -0.3136
 3220SOL     OW21295   0.762   4.317   7.833 -0.2427 -0.2569  0.0530
 3220SOL    HW121296   0.829   4.347   7.771  0.0141  2.3657  1.5789
 3220SOL    HW221297   0.699   4.388   7.820  1.9791  1.6279 -0.4304
 3221SOL     OW21298   4.625   1.963  16.306  0.3181 -0.1271 -0.2529
 3221SOL    HW121299   4.661   1.935  16.222 -0.5644 -0.9375 -0.3624
 3221SOL    HW221300   4.533   1.958  16.278  0.0689  2.1624  0.1499
 3222SOL     OW21301   0.818   3.559   7.186 -0.1129 -0.1889  0.2535
 3222SOL    HW121302   0.744   3.514   7.227  0.1680 -0.5299  0.3815
 3222SOL    HW221303   0.813   3.532   7.094 -0.9387  1.4498 -0.1751
 3223SOL     OW21304   2.509   4.112  13.056 -0.1071 -0.0257 -0.3306
 3223SOL    HW121305   2.591   4.135  13.100 -1.7357 -3.7307  4.5288
 3223SOL    HW221306   2.506   4.017  13.067  0.8732  0.2052  1.8426
 3224SOL     OW21307   3.799   4.688  17.619 -0.0381 -0.5601 -0.0136
 3224SOL    HW121308   3.895   4.689  17.625  0.0409 -2.9733 -0.8868
 3224SOL    HW221309   3.779   0.004  17.543 -0.3404 -1.7821 -0.8156
 3225SOL     OW21310   4.249   3.815   8.845  0.0970 -0.0910  0.1799
 3225SOL    HW121311   4.333   3.810   8.890  0.6926  1.2935 -0.7548
 3225SOL    HW221312   4.273   3.864   8.766 -1.7026 -0.7305 -0.7462
 3226SOL     OW21313   1.817   3.435   4.727  0.1406  0.1510 -0.1654
 3226SOL    HW121314   1.865   3.392   4.657 -0.2898 -2.0763  0.9225
 3226SOL    HW221315   1.756   3.482   4.670 -1.6892 -0.4870  1.2384
 3227SOL     OW21316   1.591   1.725   1.646 -0.4321  0.4829  0.7674
 3227SOL    HW121317   1.553   1.638   1.638  3.3406 -1.2751  1.8068
 3227SOL    HW221318   1.563   1.771   1.725 -2.8563 -1.4301  1.0020
 3228SOL     OW21319   0.748   2.636   4.903 -0.3243  0.0407  0.3083
 3228SOL    HW121320   0.742   2.619   4.809 -2.3443 -0.0536  0.4370
 3228SOL    HW221321   0.818   2.573   4.917  0.2509  0.2068 -1.9407
 3229SOL     OW21322   2.819   1.961   6.639  0.2075  0.5337  0.3121
 3229SOL    HW121323   2.896   2.015   6.618 -0.2160  2.4769  3.6921
 3229SOL    HW221324   2.745   2.021   6.631  0.0469  0.4491  1.1279
 3230SOL     OW21325   3.080   0.018   8.128 -0.4832 -0.2682 -0.1464
 3230SOL    HW121326   3.056   4.667   8.152 -1.7328  0.1112  0.0387
 3230SOL    HW221327   3.014   0.032   8.060 -1.2903  0.5107  0.7932
 3231SOL     OW21328   2.450   0.511   4.062  0.5306 -0.3402 -0.0857
 3231SOL    HW121329   2.457   0.546   3.973 -2.4814  0.3400 -0.0524
 3231SOL    HW221330   2.361   0.476   4.059  0.2238  0.3025  1.2230
 3232SOL     OW21331   3.894   2.329   2.832 -0.0783 -0.0702 -0.7943
 3232SOL    HW121332   3.856   2.242   2.848 -2.3289  1.0661  0.0302
 3232SOL    HW221333   3.859   2.342   2.743  1.3651 -1.0762 -1.5212
 3233SOL     OW21334   0.382   2.790   3.185  0.5416  0.0096  0.1364
 3233SOL    HW121335   0.423   2.851   3.124 -0.3414 -0.4615 -0.9320
 3233SOL    HW221336   0.305   2.842   3.208  1.4708  1.4032  0.1303
 3234SOL     OW21337   2.283   3.277   3.063  0.4729  0.0701  0.1688
 3234SOL    HW121338   2.255   3.189   3.040 -1.3635  0.6790  0.0657
 3234SOL    HW221339   2.287   3.313   2.974 -3.3895 -0.8366 -0.3873
 3235SOL     OW21340   4.471   0.606   6.579 -0.2041 -0.2304 -0.5095
 3235SOL    HW121341   4.465   0.511   6.568  2.1252 -0.8526  3.4469
 3235SOL    HW221342   4.398   0.633   6.524 -0.8176  2.5106  1.6414
 3236SOL     OW21343   1.195   3.252   2.656 -0.3743  0.0667 -0.3246
 3236SOL    HW121344   1.217   3.207   2.737  1.1863  2.2460  0.4767
 3236SOL    HW221345   1.270   3.232   2.601  0.0727  0.4304  0.1471
 3237SOL     OW21346   4.598   0.451   6.241  0.1568  0.2576  0.4711
 3237SOL    HW121347   4.505   0.472   6.242  0.3024  0.9080 -0.0829
 3237SOL    HW221348   4.586   0.374   6.297 -1.1302  1.1951  1.4908
 3238SOL     OW21349   2.436   2.980  11.409  0.2238  0.1835  0.2283
 3238SOL    HW121350   2.439   2.987  11.313  1.6454  1.8259  0.3836
 3238SOL    HW221351   2.508   3.042  11.420 -1.0681  1.7220 -0.1216
 3239SOL     OW21352   1.505   4.427   8.056 -0.5346 -0.3767 -0.0827
 3239SOL    HW121353   1.565   4.478   8.110 -0.2134 -0.8504  0.0100
 3239SOL    HW221354   1.559   4.365   8.005 -0.6994 -0.5631 -0.0279
 3240SOL     OW21355   4.420   4.015   2.392  0.1131  0.6162 -0.3945
 3240SOL    HW121356   4.443   4.105   2.417  3.6342 -0.9191  1.8047
 3240SOL    HW221357   4.326   4.018   2.411  0.0282  0.4297 -0.7811
 3241SOL     OW21358   4.674   3.175   7.811 -0.0180  0.3239  0.6512
 3241SOL    HW121359   4.629   3.242   7.863 -0.1279  0.7104  0.0508
 3241SOL    HW221360   4.658   3.207   7.722  0.5891  1.4336  0.9437
 3242SOL     OW21361   3.249   4.632   1.981 -0.0436  0.2963  0.0030
 3242SOL    HW121362   3.324   4.584   1.945 -0.5486 -1.4500  1.2761
 3242SOL    HW221363   3.295   4.705   2.022  0.8442 -0.7099  0.7911
 3243SOL     OW21364   3.905   1.633  12.570  0.1317  0.0130 -0.3667
 3243SOL    HW121365   3.959   1.599  12.498 -0.6142  1.9069 -1.8427
 3243SOL    HW221366   3.862   1.550  12.589  0.1011 -0.0256 -0.6016
 3244SOL     OW21367   3.717   1.233   0.753  0.1088  0.0992  0.2325
 3244SOL    HW121368   3.755   1.208   0.837  0.2641  1.3827  0.5410
 3244SOL    HW221369   3.769   1.310   0.728 -0.9965  0.8755  0.2793
 3245SOL     OW21370   3.234   0.603   6.291 -0.0621 -0.0468  0.4874
 3245SOL    HW121371   3.317   0.650   6.288 -0.0166 -0.3397 -2.2076
 3245SOL    HW221372   3.204   0.652   6.368 -0.5823 -0.6311  0.6577
 3246SOL     OW21373   1.039   2.541   4.597  0.4364  0.3469  0.3012
 3246SOL    HW121374   1.069   2.544   4.506 -0.6473  2.1390  0.0046
 3246SOL    HW221375   1.084   2.460   4.620 -2.6139 -1.4321 -0.0888
 3247SOL     OW21376   2.987   4.150   1.697 -0.2285 -0.1953  0.3412
 3247SOL    HW121377   2.924   4.121   1.762 -1.3880  0.1775 -0.6112
 3247SOL    HW221378   2.980   4.243   1.720  1.8127  0.4958 -1.8753
 3248SOL     OW21379   3.623   2.463   5.101  0.4025  0.5495  0.1615
 3248SOL    HW121380   3.689   2.442   5.166  0.4321 -2.2194 -0.7777
 3248SOL    HW221381   3.544   2.464   5.154 -0.7124 -1.5899 -1.4428
 3249SOL     OW21382   2.104   3.650   6.891 -0.2824 -0.5453 -0.0637
 3249SOL    HW121383   2.020   3.694   6.879  0.8576  1.2513 -1.4714
 3249SOL    HW221384   2.075   3.559   6.881 -0.6720 -0.1854 -2.0356
 3250SOL     OW21385   1.166   3.200  10.324  0.2170  0.2934  0.4507
 3250SOL    HW121386   1.128   3.120  10.287 -1.8433  1.7135 -0.5036
 3250SOL    HW221387   1.216   3.234  10.250  1.7219  0.8361  1.7203
 3251SOL     OW21388   1.263   0.064   8.237  0.0822 -0.0270 -0.1693
 3251SOL    HW121389   1.326   0.014   8.288  0.1379 -0.9812 -1.1481
 3251SOL    HW221390   1.229   0.117   8.308 -0.5694 -1.3447  0.5127
 3252SOL     OW21391   2.083   2.481  15.256 -0.2118 -0.3962  0.4675
 3252SOL    HW121392   2.175   2.485  15.233 -0.1536 -2.5887  0.3047
 3252SOL    HW221393   2.046   2.525  15.180 -1.2782 -3.5541 -0.8584
 3253SOL     OW21394   1.818   1.894   7.958 -0.3441 -0.2730  0.6484
 3253SOL    HW121395   1.813   1.917   8.051  2.0643  0.2330  0.6511
 3253SOL    HW221396   1.866   1.969   7.923  0.5406 -0.8804  0.5724
 3254SOL     OW21397   0.892   3.866   5.366 -0.0175  0.1328 -0.1816
 3254SOL    HW121398   0.931   3.846   5.451 -0.9804  0.6770  0.3967
 3254SOL    HW221399   0.823   3.801   5.350 -0.6382  1.1353 -1.5365
 3255SOL     OW21400   3.395   4.447   7.389  0.0579 -0.0522  0.0672
 3255SOL    HW121401   3.410   4.514   7.323  1.0481 -1.4577 -1.1318
 3255SOL    HW221402   3.339   4.489   7.455 -0.2103  2.2204 -1.6240
 3256SOL     OW21403   2.935   4.401  12.528  0.3252 -0.0795  0.0523
 3256SOL    HW121404   2.930   4.449  12.611 -1.5828 -0.4613  0.1506
 3256SOL    HW221405   2.899   4.465  12.467  0.7771  1.9478  1.9139
 3257SOL     OW21406   1.854   1.468   7.375  0.2654 -0.2949  0.3705
 3257SOL    HW121407   1.823   1.378   7.384 -0.3031 -0.2338 -1.0623
 3257SOL    HW221408   1.792   1.517   7.430  0.1517 -2.4732  2.1631
 3258SOL     OW21409   3.540   3.209   4.921  0.3186 -0.0491  0.1687
 3258SOL    HW121410   3.635   3.213   4.931  0.0054 -0.1620  3.0780
 3258SOL    HW221411   3.533   3.115   4.938  0.0518  0.0342  0.5117
 3259SOL     OW21412   4.026   1.310   7.029  0.2857 -0.4838 -0.0651
 3259SOL    HW121413   4.029   1.328   7.123  1.0993 -0.0948 -0.1636
 3259SOL    HW221414   4.034   1.398   6.992  1.1974 -0.4872  0.1027
 3260SOL     OW21415   0.984   1.286   3.535  0.3032 -0.0166  0.3157
 3260SOL    HW121416   0.950   1.249   3.616  1.7169 -1.4757  0.2488
 3260SOL    HW221417   1.078   1.283   3.548  0.3284 -2.6441 -0.4075
 3261SOL     OW21418   3.718   0.516   2.140 -0.1402 -0.4505 -0.0137
 3261SOL    HW121419   3.784   0.451   2.112  0.7008  1.7265 -3.0593
 3261SOL    HW221420   3.720   0.569   2.060  1.2942 -1.9513 -0.9828
 3262SOL     OW21421   1.773   3.861  15.915  0.2679 -0.4469  0.1491
 3262SOL    HW121422   1.741   3.951  15.911  1.7606  0.0843  0.2630
 3262SOL    HW221423   1.854   3.863  15.966  0.4783 -1.3538 -0.1439
 3263SOL     OW21424   0.914   3.996   6.628 -0.1796 -0.4526  0.1143
 3263SOL    HW121425   0.947   4.085   6.638  0.0442 -0.5638  0.3762
 3263SOL    HW221426   0.995   3.955   6.598 -0.3958 -0.4138 -0.5220
 3264SOL     OW21427   2.810   4.413   5.776  0.3790 -0.1565  0.0301
 3264SOL    HW121428   2.741   4.388   5.836 -1.2491  2.4431 -0.7524
 3264SOL    HW221429   2.836   4.499   5.810  1.8982 -0.4163 -0.4317
 3265SOL     OW21430   2.722   1.372   3.474 -0.2267 -0.9956  0.6157
 3265SOL    HW121431   2.657   1.423   3.523 -1.1052 -1.2949 -0.2236
 3265SOL    HW221432   2.668   1.313   3.421 -0.1437 -1.2987  0.8731
 3266SOL     OW21433   1.309   1.940   8.606  0.6638 -0.0721  0.2436
 3266SOL    HW121434   1.365   2.011   8.574 -0.6335  1.6585  1.8067
 3266SOL    HW221435   1.244   2.007   8.623  1.4172  0.7076  0.0636
 3267SOL     OW21436   1.458   4.205   4.736 -0.1862  0.0997  0.3055
 3267SOL    HW121437   1.394   4.155   4.684  0.5457 -1.1756  0.6248
 3267SOL    HW221438   1.533   4.147   4.727  0.4533  1.0690 -0.5371
 3268SOL     OW21439   2.279   0.312  12.087 -0.4397  0.1605  0.5277
 3268SOL    HW121440   2.189   0.293  12.059 -0.1973 -0.6259  0.2750
 3268SOL    HW221441   2.276   0.407  12.073 -0.4179  0.0991  0.1067
 3269SOL     OW21442   0.649   1.431  15.597 -0.0663 -0.1118  0.1093
 3269SOL    HW121443   0.683   1.367  15.534 -1.5826  0.0019 -0.8208
 3269SOL    HW221444   0.707   1.503  15.570 -0.7879  0.7831  0.9477
 3270SOL     OW21445   4.541   2.196   3.512 -0.5400 -0.2793 -0.1086
 3270SOL    HW121446   4.447   2.191   3.497 -0.5920 -0.9909  0.4712
 3270SOL    HW221447   4.568   2.126   3.451  0.6085  1.0582 -1.1320
 3271SOL     OW21448   0.608   1.341   4.880 -0.4834 -0.2989 -0.6131
 3271SOL    HW121449   0.534   1.387   4.920 -1.5374 -1.7012 -0.9544
 3271SOL    HW221450   0.672   1.407   4.909  0.4178 -1.4160 -0.0308
 3272SOL     OW21451   2.702   3.675   6.868  0.6714  0.7339 -0.2803
 3272SOL    HW121452   2.656   3.630   6.797 -0.1630  1.9348 -0.5012
 3272SOL    HW221453   2.767   3.614   6.902  0.9610  1.8682  1.2072
 3273SOL     OW21454   0.488   1.755   2.542 -0.2732 -0.2855  0.4180
 3273SOL    HW121455   0.533   1.748   2.458  1.5846  1.7431  1.2501
 3273SOL    HW221456   0.494   1.665   2.575 -1.5943  0.0685  1.5947
 3274SOL     OW21457   1.503   3.587   1.763 -0.3491  0.1198 -0.1158
 3274SOL    HW121458   1.590   3.582   1.724  0.3016 -3.3364  1.7529
 3274SOL    HW221459   1.497   3.681   1.781  0.3004  0.0208  0.5833
 3275SOL     OW21460   1.120   2.092   7.165 -0.1234  0.4500 -0.2799
 3275SOL    HW121461   1.119   2.069   7.072  1.7838  3.3798 -1.0234
 3275SOL    HW221462   1.029   2.099   7.195  0.2043  0.1629  0.7733
 3276SOL     OW21463   3.026   4.640  17.496 -0.0927 -0.0470  0.5038
 3276SOL    HW121464   2.996   4.595  17.417 -0.8919 -1.8357  1.8512
 3276SOL    HW221465   3.104   4.586  17.507 -0.7231 -0.9610  0.4214
 3277SOL     OW21466   0.612   2.128   3.219 -0.0290 -0.3061 -0.0124
 3277SOL    HW121467   0.517   2.126   3.227 -0.0784 -1.1532 -0.8924
 3277SOL    HW221468   0.630   2.181   3.297 -0.1724  0.4300 -0.4863
 3278SOL     OW21469   0.733   2.459   2.637  0.4503 -0.4791 -1.0099
 3278SOL    HW121470   0.712   2.369   2.613 -0.4430 -0.0109 -1.9766
 3278SOL    HW221471   0.657   2.508   2.605  0.0043  0.2809  1.1741
 3279SOL     OW21472   3.541   2.725  13.407  0.5130  0.2660 -0.6451
 3279SOL    HW121473   3.609   2.767  13.355  1.0475  0.3866  0.1490
 3279SOL    HW221474   3.543   2.635  13.374  2.7518 -0.1457  0.6106
 3280SOL     OW21475   2.338   0.852   5.884 -0.3566  0.3426  0.1005
 3280SOL    HW121476   2.369   0.791   5.816 -2.8980  1.0596 -1.6801
 3280SOL    HW221477   2.308   0.926   5.831  0.6230  0.5848 -0.1173
 3281SOL     OW21478   1.911   0.704  15.194  0.6523 -0.0068  0.3090
 3281SOL    HW121479   1.911   0.774  15.260  0.1228  0.7062 -0.4418
 3281SOL    HW221480   1.963   0.634  15.234  0.0355  0.4252  1.8775
 3282SOL     OW21481   3.607   4.489   8.003 -0.3629 -0.1835  0.1824
 3282SOL    HW121482   3.660   4.542   8.062 -0.9256  0.1693  0.3776
 3282SOL    HW221483   3.541   4.552   7.974  0.5106 -0.6555 -2.7378
 3283SOL     OW21484   2.348   1.146   2.182  0.2861  0.9168 -0.8843
 3283SOL    HW121485   2.374   1.127   2.092 -0.7066 -2.0440 -0.5561
 3283SOL    HW221486   2.411   1.089   2.226  0.3140  0.9343 -0.9019
 3284SOL     OW21487   1.871   3.669   9.523  0.5273  0.7234  0.9866
 3284SOL    HW121488   1.832   3.714   9.448  0.3763 -1.7902 -0.4447
 3284SOL    HW221489   1.917   3.743   9.561  0.9995  1.6316 -1.3429
 3285SOL     OW21490   0.090   2.142   8.224  0.8905  0.2405  0.0152
 3285SOL    HW121491   0.102   2.210   8.290  0.3059  0.8753 -0.5361
 3285SOL    HW221492   0.044   2.074   8.273 -0.6579  1.4202  0.1787
 3286SOL     OW21493   3.482   2.815  17.572 -0.3656 -0.3868 -0.4384
 3286SOL    HW121494   3.386   2.816  17.579 -0.1459  4.0113  2.0349
 3286SOL    HW221495   3.513   2.867  17.646 -2.5520  0.9050 -0.4267
 3287SOL     OW21496   2.032   0.852   4.499 -0.0380  0.2497 -0.0698
 3287SOL    HW121497   2.098   0.921   4.504 -0.8221  1.0431 -0.7277
 3287SOL    HW221498   1.976   0.875   4.572  0.8621  0.2654  0.6197
 3288SOL     OW21499   3.558   2.016   1.413 -0.2430  0.8934 -0.9968
 3288SOL    HW121500   3.650   2.014   1.439 -0.1947  1.0724 -1.1521
 3288SOL    HW221501   3.567   2.076   1.339 -2.0960  1.1402 -1.0148
 3289SOL     OW21502   2.338   1.754   8.478 -0.1996  0.4866  0.2429
 3289SOL    HW121503   2.251   1.720   8.497 -0.1129  0.9591  1.4805
 3289SOL    HW221504   2.322   1.847   8.465  1.6468  0.6006 -1.2358
 3290SOL     OW21505   1.277   1.929  15.749  0.7496  0.0268 -0.6783
 3290SOL    HW121506   1.251   1.945  15.658  0.1647 -0.6636 -0.6335
 3290SOL    HW221507   1.312   2.013  15.778 -1.9370  1.1220 -0.6065
 3291SOL     OW21508   2.802   1.324   5.798  0.2497 -0.4866  0.3675
 3291SOL    HW121509   2.843   1.283   5.874 -2.0494  1.6526  2.7272
 3291SOL    HW221510   2.725   1.268   5.784 -0.2699  0.6091 -1.0762
 3292SOL     OW21511   0.673   2.640  14.900  0.3926 -0.2379  0.1661
 3292SOL    HW121512   0.612   2.681  14.961 -0.2683  0.2684 -0.8404
 3292SOL    HW221513   0.625   2.630  14.818  2.0559  1.5083 -1.0141
 3293SOL     OW21514   0.584   4.429   6.227  0.0594 -0.2008 -0.6976
 3293SOL    HW121515   0.602   4.343   6.189 -1.6749 -0.3656 -1.1662
 3293SOL    HW221516   0.494   4.416   6.257 -0.2600  0.3091 -1.4190
 3294SOL     OW21517   1.523   0.516   3.961 -0.1874 -0.0709  1.0398
 3294SOL    HW121518   1.480   0.589   3.917  2.6071  1.7798  1.4107
 3294SOL    HW221519   1.611   0.553   3.964  0.2684 -0.9293 -2.5407
 3295SOL     OW21520   3.766   0.690  10.121 -0.1247 -0.3653 -0.2868
 3295SOL    HW121521   3.677   0.694  10.084 -1.2388  1.5427  2.6403
 3295SOL    HW221522   3.760   0.655  10.210  1.2761  2.1868  0.7942
 3296SOL     OW21523   1.508   3.282   0.272  1.0095  0.5169 -0.2743
 3296SOL    HW121524   1.538   3.372   0.286  0.4716  0.3590  1.8186
 3296SOL    HW221525   1.468   3.273   0.358  0.5429 -2.3248 -0.7856
 3297SOL     OW21526   1.655   1.861   8.264  0.0498 -0.0170  0.2837
 3297SOL    HW121527   1.591   1.815   8.210  0.4485 -2.2829  1.7187
 3297SOL    HW221528   1.623   1.833   8.350 -1.9342 -0.8764 -0.7286
 3298SOL     OW21529   3.644   1.801   8.548 -0.2629  0.2762  0.6565
 3298SOL    HW121530   3.629   1.715   8.509  0.4120  0.7819 -0.7299
 3298SOL    HW221531   3.557   1.811   8.585  0.2194  2.2959  1.2705
 3299SOL     OW21532   2.101   3.870   1.314  0.0848  0.0126 -0.4138
 3299SOL    HW121533   2.113   3.839   1.224 -1.3449 -1.2743 -0.1731
 3299SOL    HW221534   2.114   3.961   1.289  1.8029 -0.2761 -0.5590
 3300SOL     OW21535   4.156   3.149   6.588  0.3191  0.0622 -0.3453
 3300SOL    HW121536   4.090   3.183   6.649 -1.2271 -2.7951 -0.4117
 3300SOL    HW221537   4.127   3.212   6.523  2.2404  2.3111  1.0007
 3301SOL     OW21538   2.483   2.999   2.778  0.2389 -0.4314 -0.0438
 3301SOL    HW121539   2.502   3.063   2.846  1.8566  0.0276 -0.9213
 3301SOL    HW221540   2.479   2.920   2.832  2.9260  0.2368  1.1433
 3302SOL     OW21541   2.087   3.901   8.724 -0.0045  0.1745 -0.2628
 3302SOL    HW121542   2.040   3.818   8.720  0.9329 -0.3994  0.8708
 3302SOL    HW221543   2.096   3.924   8.816 -2.8711 -0.2647  0.1129
 3303SOL     OW21544   4.120   0.197   1.279  0.9857 -0.4151 -0.3094
 3303SOL    HW121545   4.154   0.208   1.190  1.8316 -0.5166  0.0087
 3303SOL    HW221546   4.177   0.254   1.329 -0.9265 -0.1343  1.5614
 3304SOL     OW21547   1.763   4.371  13.665  0.4336 -0.3187 -0.2392
 3304SOL    HW121548   1.701   4.436  13.698 -1.3073 -1.5354 -1.1411
 3304SOL    HW221549   1.846   4.407  13.698  1.0340 -1.4630 -0.5069
 3305SOL     OW21550   1.468   2.107  15.204 -0.1355  0.3147  0.4259
 3305SOL    HW121551   1.417   2.130  15.126  1.8713  1.6848 -0.4883
 3305SOL    HW221552   1.466   2.012  15.190  1.0484  0.5455 -1.3102
 3306SOL     OW21553   2.046   3.492   4.374 -0.0763  0.5982 -0.1404
 3306SOL    HW121554   2.053   3.445   4.291  0.8132  2.4516 -1.1150
 3306SOL    HW221555   2.104   3.445   4.433 -1.2216  0.9306  1.2479
 3307SOL     OW21556   4.151   0.243   5.834  0.3790  0.3099 -0.1043
 3307SOL    HW121557   4.079   0.199   5.790  1.1845 -0.9471 -0.1751
 3307SOL    HW221558   4.223   0.181   5.821  0.4404  0.6053 -1.1605
 3308SOL     OW21559   3.547   1.033   6.055  0.5561 -0.1908  0.1064
 3308SOL    HW121560   3.549   1.047   6.150  1.8914  1.5739 -0.1833
 3308SOL    HW221561   3.638   1.060   6.040  0.0770  0.4722 -1.5815
 3309SOL     OW21562   1.005   1.665  15.147  0.1882  0.2309 -0.3228
 3309SOL    HW121563   1.093   1.690  15.175  0.0052  1.5862 -0.9561
 3309SOL    HW221564   1.011   1.621  15.063 -0.0903  0.9792 -0.7380
 3310SOL     OW21565   1.802   2.503  15.162 -0.2096  0.2621  0.8943
 3310SOL    HW121566   1.713   2.527  15.139  0.0553 -0.0766 -0.4816
 3310SOL    HW221567   1.802   2.407  15.169 -1.5489  0.1240 -1.2008
 3311SOL     OW21568   0.019   1.616  14.336 -0.4678 -0.0744  0.1659
 3311SOL    HW121569   4.679   1.652  14.376 -0.8867 -1.3777  0.4954
 3311SOL    HW221570   0.071   1.572  14.403 -0.3665 -0.1819  0.0180
 3312SOL     OW21571   3.668   1.693  10.415 -0.5867 -0.3542  0.3174
 3312SOL    HW121572   3.694   1.675  10.325 -0.3752  0.6648  0.1735
 3312SOL    HW221573   3.729   1.641  10.467 -0.3584  0.8856  1.2966
 3313SOL     OW21574   1.066   0.656  15.310  0.5663  0.0653 -0.9469
 3313SOL    HW121575   1.155   0.663  15.274  0.7488 -2.2260 -0.9247
 3313SOL    HW221576   1.068   0.573  15.357  0.0014  0.3402 -0.4411
 3314SOL     OW21577   2.902   1.593   1.429  0.0519 -0.0501 -0.1082
 3314SOL    HW121578   2.863   1.605   1.343 -0.7977  0.1338  0.2993
 3314SOL    HW221579   2.938   1.505   1.416  0.6404  0.1362  0.2419
 3315SOL     OW21580   2.907   3.615   9.791  0.3643 -0.2416  0.2981
 3315SOL    HW121581   2.899   3.708   9.813 -0.1980 -0.6932  1.9844
 3315SOL    HW221582   2.973   3.626   9.722  0.3839  2.4108  0.7384
 3316SOL     OW21583   0.496   0.443   8.236 -0.0496 -0.6500  0.0070
 3316SOL    HW121584   0.545   0.396   8.303  4.4435  0.1815 -2.7371
 3316SOL    HW221585   0.416   0.392   8.224 -0.3187  0.0388 -1.1823
 3317SOL     OW21586   0.467   0.716   4.497 -0.0205 -0.0456  0.2135
 3317SOL    HW121587   0.433   0.669   4.574  0.2646  0.5892  0.7226
 3317SOL    HW221588   0.512   0.788   4.541  1.7930 -0.8837 -0.2544
 3318SOL     OW21589   2.516   0.900   8.895 -0.2098 -0.0726  0.2311
 3318SOL    HW121590   2.602   0.920   8.934 -0.5184  1.0977  0.3261
 3318SOL    HW221591   2.509   0.809   8.922 -0.1394 -0.0522  0.3206
 3319SOL     OW21592   3.935   4.323   2.892 -0.2612  0.2656 -0.4110
 3319SOL    HW121593   3.978   4.315   2.807  2.8456  3.1552  0.8495
 3319SOL    HW221594   3.873   4.391   2.866 -0.3995  0.1910 -0.2758
 3320SOL     OW21595   0.822   3.517   4.491  0.1222  0.2812  0.1422
 3320SOL    HW121596   0.810   3.447   4.554 -0.6468  0.1067 -0.1958
 3320SOL    HW221597   0.909   3.498   4.457  0.3087 -0.4266  1.0410
 3321SOL     OW21598   2.429   4.219  13.683 -0.2231  0.2550 -0.0541
 3321SOL    HW121599   2.519   4.250  13.682  0.1611 -0.7842  1.7615
 3321SOL    HW221600   2.433   4.124  13.672  2.4931  0.2759  0.8530
 3322SOL     OW21601   0.953   3.851  17.609 -1.0188  0.7558  0.7603
 3322SOL    HW121602   1.033   3.809  17.576 -0.3418  0.2123  3.0653
 3322SOL    HW221603   0.888   3.794  17.568 -2.2272  1.1934  2.0468
 3323SOL     OW21604   2.065   1.573   6.558  0.1272 -0.1469 -0.3429
 3323SOL    HW121605   2.036   1.665   6.560  2.2172  0.4947 -0.3500
 3323SOL    HW221606   2.145   1.578   6.610 -0.9431 -0.8705  1.3805
 3324SOL     OW21607   1.991   2.685   4.697 -0.0516 -0.1909  0.2261
 3324SOL    HW121608   1.998   2.678   4.793 -2.7799  0.7594  0.4894
 3324SOL    HW221609   1.984   2.595   4.664 -1.9385 -0.1388  0.4820
 3325SOL     OW21610   3.936   3.758   2.376  0.0792  0.1289  0.4493
 3325SOL    HW121611   3.942   3.735   2.469  1.5522 -0.0495  0.3159
 3325SOL    HW221612   3.922   3.852   2.373 -1.2252 -0.0986 -0.3097
 3326SOL     OW21613   1.319   1.940   3.044  0.2525 -0.0846  0.2993
 3326SOL    HW121614   1.329   1.998   2.969 -0.3118 -0.3024  0.0628
 3326SOL    HW221615   1.228   1.912   3.042 -0.3708  2.2210 -2.9953
 3327SOL     OW21616   2.084   1.427   5.145  0.2831  0.4388  0.1546
 3327SOL    HW121617   2.021   1.494   5.169  0.8819  1.2667 -0.5671
 3327SOL    HW221618   2.097   1.379   5.227  0.9726 -0.0215 -0.2226
 3328SOL     OW21619   0.581   4.475   5.301 -0.4533  0.3021 -0.0388
 3328SOL    HW121620   0.636   4.501   5.227  0.5317 -4.2961 -0.9025
 3328SOL    HW221621   0.634   4.413   5.351  1.9787  2.0349 -0.4946
 3329SOL     OW21622   1.378   2.393  10.798 -0.4027  0.5262 -0.3135
 3329SOL    HW121623   1.377   2.473  10.851  3.6711  0.2660  0.1590
 3329SOL    HW221624   1.471   2.373  10.804 -0.8929 -1.0701  2.4621
 3330SOL     OW21625   1.120   2.337   3.842 -0.1000 -0.2331 -0.7824
 3330SOL    HW121626   1.095   2.282   3.768  0.2735 -2.3109  0.6157
 3330SOL    HW221627   1.184   2.400   3.811 -0.9523  1.0324  0.0506
 3331SOL     OW21628   3.126   1.826   9.303 -0.3054 -0.7901  0.0947
 3331SOL    HW121629   3.088   1.761   9.363 -4.1545  0.0660 -1.4225
 3331SOL    HW221630   3.204   1.776   9.280  1.1091  0.6956  1.6602
 3332SOL     OW21631   0.603   1.776   8.525 -0.1313 -0.3871 -0.7857
 3332SOL    HW121632   0.565   1.791   8.611  0.1024 -0.5315 -0.6583
 3332SOL    HW221633   0.627   1.684   8.533 -0.1272 -0.3083  0.0623
 3333SOL     OW21634   2.228   1.620   2.735 -0.2527 -0.0123  0.1958
 3333SOL    HW121635   2.165   1.556   2.702  1.9528 -2.1920  0.1970
 3333SOL    HW221636   2.304   1.563   2.738  1.4734  2.3232  1.1547
 3334SOL     OW21637   1.038   2.845   4.835  0.2331  0.2838 -0.1548
 3334SOL    HW121638   1.083   2.841   4.919 -0.7617  3.7298  0.5318
 3334SOL    HW221639   1.012   2.753   4.824  0.5293 -0.1257  2.5163
 3335SOL     OW21640   4.416   0.368  10.480  0.5008 -0.0909  0.1978
 3335SOL    HW121641   4.396   0.309  10.408 -0.8251 -1.5614  1.7862
 3335SOL    HW221642   4.325   0.396  10.490  1.5568  3.0570  1.1047
 3336SOL     OW21643   3.133   0.956   0.489  0.1425 -0.2217 -0.7767
 3336SOL    HW121644   3.074   0.984   0.559 -1.1172 -2.5670 -0.9309
 3336SOL    HW221645   3.157   1.037   0.444 -0.0833 -0.0974 -0.6731
 3337SOL     OW21646   3.427   0.133  14.638  0.2109  0.1187 -0.9103
 3337SOL    HW121647   3.462   0.208  14.588  1.4493 -1.6934 -2.7435
 3337SOL    HW221648   3.367   0.181  14.696  2.0626 -1.0329  1.9901
 3338SOL     OW21649   2.682   3.821  13.540  0.3289  0.0866 -0.2006
 3338SOL    HW121650   2.685   3.864  13.625  0.4237 -0.7890  0.2319
 3338SOL    HW221651   2.757   3.864  13.499  0.4354 -1.2364 -1.4204
 3339SOL     OW21652   3.421   3.939   7.222  0.9427  0.1251 -0.1770
 3339SOL    HW121653   3.351   4.005   7.230  0.4334 -0.0133 -3.5837
 3339SOL    HW221654   3.418   3.911   7.314  1.1756 -1.0514 -0.5295
 3340SOL     OW21655   2.983   4.591   4.708  0.1028  0.3113  0.1485
 3340SOL    HW121656   3.002   4.573   4.800  0.8588 -0.0372 -0.0700
 3340SOL    HW221657   3.062   4.555   4.666 -0.4325 -0.9485  0.2298
 3341SOL     OW21658   1.166   3.313  17.363  0.7705 -0.4205  0.0351
 3341SOL    HW121659   1.152   3.264  17.443  1.0120  1.8387  1.4569
 3341SOL    HW221660   1.229   3.259  17.315 -0.5597  1.0167 -3.3702
 3342SOL     OW21661   1.392   1.372  16.635  0.0241  0.0550  0.5466
 3342SOL    HW121662   1.348   1.441  16.686  0.4548  0.3786  0.4734
 3342SOL    HW221663   1.478   1.408  16.616  0.2661 -0.1247  1.2911
 3343SOL     OW21664   3.993   1.484   4.595 -0.3151 -0.1748 -0.0946
 3343SOL    HW121665   4.082   1.477   4.628  0.0525  0.6885 -0.9043
 3343SOL    HW221666   3.988   1.542   4.519 -1.3271 -2.7468 -1.9962
 3344SOL     OW21667   3.719   2.480   3.350  0.1580  0.3114 -0.5512
 3344SOL    HW121668   3.652   2.545   3.370  1.7123  1.9672 -0.7428
 3344SOL    HW221669   3.759   2.515   3.270 -2.3833  1.4590 -1.3290
 3345SOL     OW21670   0.627   0.779  15.785 -0.4322  0.5367  0.1815
 3345SOL    HW121671   0.595   0.696  15.820 -3.0448  0.4859 -2.4276
 3345SOL    HW221672   0.543   0.825  15.788 -1.2185 -0.9520  1.1997
 3346SOL     OW21673   2.997   3.247   4.535  0.5565 -0.3168  0.3267
 3346SOL    HW121674   3.002   3.168   4.482  0.5794  0.7147 -1.1988
 3346SOL    HW221675   3.075   3.296   4.507  0.8355 -1.1187 -0.2793
 3347SOL     OW21676   2.858   4.234   1.940 -0.2168  0.5306  0.4507
 3347SOL    HW121677   2.866   4.153   1.991 -0.9289  0.4878  0.4891
 3347SOL    HW221678   2.930   4.288   1.973 -1.6012  2.6089  0.0659
 3348SOL     OW21679   0.037   0.150   2.948 -0.1723  0.4401  0.2749
 3348SOL    HW121680   0.060   0.241   2.966  1.8051 -0.3819  1.8371
 3348SOL    HW221681   4.699   0.144   3.006  0.5889  0.2736  1.2620
 3349SOL     OW21682   4.671   0.135   8.421  0.0931 -0.2644  0.0307
 3349SOL    HW121683   4.685   0.157   8.329 -1.2158  2.7111  0.5315
 3349SOL    HW221684   4.637   0.219   8.453  2.9530  1.2947 -1.0959
 3350SOL     OW21685   4.000   3.606  15.197  0.3889 -0.0414  0.2909
 3350SOL    HW121686   4.034   3.649  15.275  0.5783  3.6273 -1.7820
 3350SOL    HW221687   3.906   3.601  15.212  0.7056 -2.6578  1.3880
 3351SOL     OW21688   0.656   4.094  11.844  0.3736 -0.3701  0.6746
 3351SOL    HW121689   0.684   4.123  11.757 -0.8290 -1.4071 -0.0502
 3351SOL    HW221690   0.645   4.186  11.870 -0.1998  0.1778 -1.5485
 3352SOL     OW21691   4.388   0.955   3.459 -0.4739 -0.2285 -0.4017
 3352SOL    HW121692   4.417   0.947   3.550 -1.3716 -0.0109 -0.0938
 3352SOL    HW221693   4.475   0.981   3.429  0.4728  0.9388  3.3778
 3353SOL     OW21694   2.642   1.496   2.966  0.3765  0.5276 -0.2368
 3353SOL    HW121695   2.729   1.458   2.952 -0.5382 -1.5546 -0.1168
 3353SOL    HW221696   2.665   1.589   2.972 -0.7735  0.8144 -0.3608
 3354SOL     OW21697   0.341   3.744   4.581 -0.6029  0.5310  0.0872
 3354SOL    HW121698   0.311   3.694   4.657 -0.9816  1.7675  0.7536
 3354SOL    HW221699   0.420   3.696   4.555 -0.0561  0.4135  1.9463
 3355SOL     OW21700   1.892   4.396   1.943 -0.4507  0.1885 -0.2603
 3355SOL    HW121701   1.916   4.488   1.949 -1.1812  0.1665  3.5184
 3355SOL    HW221702   1.969   4.358   1.986  0.6422  0.7217 -1.7608
 3356SOL     OW21703   3.586   0.787   2.709  0.6097  0.1175 -0.1778
 3356SOL    HW121704   3.502   0.755   2.741  0.1299  1.3801 -0.1700
 3356SOL    HW221705   3.600   0.867   2.760  1.1010 -0.2185  0.2082
 3357SOL     OW21706   2.574   0.704   2.741 -0.5590 -0.0297 -0.0369
 3357SOL    HW121707   2.580   0.800   2.740 -0.6928 -0.0149  1.0633
 3357SOL    HW221708   2.510   0.703   2.812  0.4831  0.1812  0.9208
 3358SOL     OW21709   0.176   1.931   9.772 -0.1179  0.6317 -0.1021
 3358SOL    HW121710   0.265   1.965   9.758  0.2533  0.8026  2.5613
 3358SOL    HW221711   0.145   2.005   9.824  1.3000  1.6878 -0.7569
 3359SOL     OW21712   1.986   0.018  16.169 -0.0937 -0.1582 -0.3436
 3359SOL    HW121713   2.075   4.726  16.153 -0.0389  0.9954 -2.1970
 3359SOL    HW221714   1.964   4.702  16.245  0.2011  1.3416  0.8223
 3360SOL     OW21715   1.493   4.081   5.850  0.1014  0.3562 -0.4134
 3360SOL    HW121716   1.556   4.029   5.902  1.4130 -0.7751 -3.1340
 3360SOL    HW221717   1.536   4.166   5.847  0.7091  0.0947  0.5063
 3361SOL     OW21718   2.558   0.806   5.179  0.4603  0.1796 -0.0536
 3361SOL    HW121719   2.575   0.755   5.100 -1.0991  0.7814 -0.7871
 3361SOL    HW221720   2.629   0.869   5.190  0.5865  0.3587 -2.0564
 3362SOL     OW21721   1.722   2.216   6.224 -0.3510 -0.3813 -1.0357
 3362SOL    HW121722   1.636   2.243   6.193 -0.0600  2.4043  0.6058
 3362SOL    HW221723   1.764   2.300   6.243  1.5957 -1.7276  0.5858
 3363SOL     OW21724   1.904   1.590  10.027  0.1083  0.2674  0.0652
 3363SOL    HW121725   1.874   1.583   9.937 -2.3769  1.0411  0.8514
 3363SOL    HW221726   1.818   1.591  10.069 -0.5761  0.7890 -1.3891
 3364SOL     OW21727   3.046   3.120   3.545  0.2701 -0.0746 -0.2132
 3364SOL    HW121728   3.038   3.199   3.492  2.8458  1.1777  1.2627
 3364SOL    HW221729   3.139   3.097   3.549 -0.0287 -1.3037 -0.1443
 3365SOL     OW21730   4.065   2.137   5.308  0.5354  0.0489 -0.3853
 3365SOL    HW121731   4.141   2.089   5.275  0.9881  0.7197 -0.3159
 3365SOL    HW221732   4.102   2.225   5.308  0.7382 -0.0342  0.4743
 3366SOL     OW21733   2.340   0.778   6.747 -0.5170 -0.0524  0.3377
 3366SOL    HW121734   2.332   0.785   6.842  2.5165 -0.8443  0.6706
 3366SOL    HW221735   2.389   0.696   6.737 -0.5794  0.1474 -1.5672
 3367SOL     OW21736   3.025   2.375   4.450  0.3661 -0.9089  0.0628
 3367SOL    HW121737   2.966   2.309   4.485 -0.5480  0.5935  1.3599
 3367SOL    HW221738   2.979   2.408   4.372 -0.8691 -3.3600 -0.2680
 3368SOL     OW21739   1.445   3.611   8.903 -0.4179 -0.5567  0.0557
 3368SOL    HW121740   1.448   3.528   8.857  0.4645  0.4613 -1.7398
 3368SOL    HW221741   1.365   3.652   8.870 -0.0599  1.5570  1.7604
 3369SOL     OW21742   3.332   2.555   9.002  0.4179  0.0247  0.2834
 3369SOL    HW121743   3.338   2.491   9.073 -1.1022 -1.1635 -0.6466
 3369SOL    HW221744   3.273   2.622   9.034  1.5035  2.4960 -2.8931
 3370SOL     OW21745   4.154   2.340   4.712 -0.6160 -0.1537 -0.1865
 3370SOL    HW121746   4.184   2.391   4.786  0.1726 -0.7107 -0.1307
 3370SOL    HW221747   4.196   2.257   4.733 -2.7288 -1.3442 -0.6564
 3371SOL     OW21748   0.696   0.301   4.752 -0.6476 -0.9153 -0.7558
 3371SOL    HW121749   0.735   0.263   4.831  0.5443 -1.9506 -1.8494
 3371SOL    HW221750   0.618   0.331   4.799 -1.3852 -1.0797 -1.8828
 3372SOL     OW21751   4.482   3.337  11.242 -0.1891 -0.3436  0.9210
 3372SOL    HW121752   4.442   3.391  11.310 -1.0235  1.2839 -0.8910
 3372SOL    HW221753   4.402   3.308  11.198 -0.1246 -0.2666  0.7540
 3373SOL     OW21754   2.430   3.129   5.287  0.3593  0.5640  0.1190
 3373SOL    HW121755   2.343   3.131   5.327  0.5839  2.6179  0.5293
 3373SOL    HW221756   2.449   3.223   5.294 -1.1006  0.8440  0.3291
 3374SOL     OW21757   0.233   1.415   2.199  0.1510  0.2492 -0.3163
 3374SOL    HW121758   0.303   1.405   2.134 -3.4172  0.8030 -4.2275
 3374SOL    HW221759   0.196   1.502   2.188 -1.7407 -0.2900  1.7704
 3375SOL     OW21760   2.579   3.250   9.107 -0.4226 -0.3401  0.6233
 3375SOL    HW121761   2.582   3.273   9.014 -0.5833  1.4865  1.0765
 3375SOL    HW221762   2.667   3.277   9.135 -0.4180 -1.6353  1.8687
 3376SOL     OW21763   0.499   3.551  16.464 -0.0908 -0.8631 -0.5007
 3376SOL    HW121764   0.413   3.574  16.429 -0.3835  1.9735  2.1349
 3376SOL    HW221765   0.515   3.610  16.537 -0.2133 -1.1635 -0.2313
 3377SOL     OW21766   3.639   1.140   6.297  0.0875  0.2831  0.0167
 3377SOL    HW121767   3.726   1.100   6.301  0.3333  0.9482  1.3124
 3377SOL    HW221768   3.631   1.164   6.390  0.5269 -0.8031  0.3391
 3378SOL     OW21769   4.129   2.182  15.866 -0.6199  0.0592  0.0845
 3378SOL    HW121770   4.090   2.173  15.779  1.5986  1.2245 -1.0095
 3378SOL    HW221771   4.053   2.182  15.925 -0.0523  0.7428  0.8083
 3379SOL     OW21772   2.635   2.714  14.917 -0.2388 -0.5329  0.1242
 3379SOL    HW121773   2.680   2.780  14.864  0.0120 -0.9346 -0.1667
 3379SOL    HW221774   2.567   2.689  14.855  1.3673 -0.1900 -1.7985
 3380SOL     OW21775   3.833   2.074  17.190  0.0872 -0.3737  0.1486
 3380SOL    HW121776   3.870   2.107  17.272 -1.0778  0.7733  0.2060
 3380SOL    HW221777   3.855   2.144  17.129  1.3680 -1.4702 -0.6587
 3381SOL     OW21778   4.071   2.330   3.095 -0.0352  0.0380 -0.1778
 3381SOL    HW121779   3.998   2.308   3.036  0.2570  1.3707 -1.0293
 3381SOL    HW221780   4.102   2.417   3.072  1.1729 -0.5370 -0.6804
 3382SOL     OW21781   0.918   3.870   6.070 -0.2529  0.2852  0.3896
 3382SOL    HW121782   0.998   3.849   6.118  0.0695 -1.2182 -0.8002
 3382SOL    HW221783   0.925   3.965   6.080 -1.5886  0.5418 -1.1823
 3383SOL     OW21784   4.420   4.494   6.728  0.6830 -0.0604  0.4384
 3383SOL    HW121785   4.407   4.588   6.723 -0.3978 -0.1656  1.1088
 3383SOL    HW221786   4.463   4.474   6.645  0.3332 -0.9866  0.4730
 3384SOL     OW21787   4.724   2.666   8.554 -0.7051 -0.5338 -0.2284
 3384SOL    HW121788   0.028   2.743   8.591 -1.1477 -0.7523  0.7327
 3384SOL    HW221789   4.661   2.717   8.504  0.8537 -0.0484 -1.7088
 3385SOL     OW21790   3.999   3.225  12.278  0.1401  0.1627 -0.8215
 3385SOL    HW121791   4.045   3.146  12.305 -0.5428 -0.0155 -0.1824
 3385SOL    HW221792   3.918   3.196  12.319  0.1188  0.4253 -0.6755
 3386SOL     OW21793   2.360   3.912   8.681 -0.2919  0.0720 -0.3584
 3386SOL    HW121794   2.379   3.818   8.678 -0.5735 -0.0183  0.9864
 3386SOL    HW221795   2.265   3.917   8.695 -0.0207  1.8416  0.7786
 3387SOL     OW21796   2.785   3.141   2.576  0.2376  0.2150  0.0658
 3387SOL    HW121797   2.880   3.137   2.570  0.2830 -1.0064  1.6956
 3387SOL    HW221798   2.772   3.234   2.559  1.6026 -0.2228 -3.4563
 3388SOL     OW21799   4.003   3.272  13.497 -0.0327  0.3172  0.0786
 3388SOL    HW121800   4.091   3.240  13.477 -0.0336  0.2874  0.1215
 3388SOL    HW221801   4.027   3.356  13.538  0.9602  0.1016 -0.0463
 3389SOL     OW21802   0.593   0.638   0.240 -0.0789 -0.0806 -0.2693
 3389SOL    HW121803   0.561   0.599   0.322  0.4451 -1.1306 -0.5621
 3389SOL    HW221804   0.614   0.724   0.275 -1.2986 -0.3612  1.1692
 3390SOL     OW21805   0.321   2.790   7.096  0.3283 -0.3243 -0.0897
 3390SOL    HW121806   0.374   2.868   7.115  1.9461 -1.0693 -1.5156
 3390SOL    HW221807   0.346   2.725   7.162  3.0147  0.0939 -0.6738
 3391SOL     OW21808   3.291   4.690   1.537 -0.2323 -0.2206  0.0456
 3391SOL    HW121809   3.361   4.662   1.478 -0.3413 -0.1633 -0.1141
 3391SOL    HW221810   3.221   4.628   1.519 -0.1956 -0.1712 -0.2755
 3392SOL     OW21811   4.644   0.763   7.565  0.5388 -0.4200  0.3129
 3392SOL    HW121812   4.565   0.760   7.618  1.2300  1.3203  1.4300
 3392SOL    HW221813   4.627   0.842   7.515  0.8384 -1.5993 -1.6788
 3393SOL     OW21814   1.805   2.401   8.792 -0.0228  0.3669  1.0699
 3393SOL    HW121815   1.814   2.322   8.740 -1.8524 -0.4459  2.0071
 3393SOL    HW221816   1.714   2.423   8.771 -0.4934 -2.1813  0.4894
 3394SOL     OW21817   2.378   1.224  11.515  0.1212  0.3454 -0.4638
 3394SOL    HW121818   2.414   1.286  11.451 -2.2680  1.1790 -1.0098
 3394SOL    HW221819   2.334   1.286  11.573 -0.3588  0.1171 -0.5825
 3395SOL     OW21820   2.250   1.693   3.349 -0.0238  0.0707  0.4967
 3395SOL    HW121821   2.239   1.774   3.397 -0.4368  0.3853 -0.1147
 3395SOL    HW221822   2.338   1.696   3.311 -0.2213 -1.4173 -0.1111
 3396SOL     OW21823   3.846   4.068   6.277 -0.0005  0.3506  0.2546
 3396SOL    HW121824   3.902   4.144   6.287  1.1285 -0.3757 -0.5231
 3396SOL    HW221825   3.853   4.038   6.186  1.2272 -1.1301  0.8320
 3397SOL     OW21826   3.881   1.008   4.434  0.7074  0.3808 -0.0846
 3397SOL    HW121827   3.791   1.032   4.457  0.3496  0.8170 -1.9325
 3397SOL    HW221828   3.878   0.912   4.429  0.1625  0.4858 -1.9232
 3398SOL     OW21829   0.535   2.796  15.122  0.1648  0.2225 -0.2090
 3398SOL    HW121830   0.497   2.764  15.204 -0.5076 -1.9093 -1.3602
 3398SOL    HW221831   0.456   2.836  15.086  0.7800  0.9907 -0.7137
 3399SOL     OW21832   0.641   1.358   8.091  0.9138 -0.3820  0.7198
 3399SOL    HW121833   0.676   1.269   8.093 -1.7504 -1.4703 -0.0144
 3399SOL    HW221834   0.600   1.352   8.004 -1.2585  0.8561  1.6511
 3400SOL     OW21835   3.619   0.528   0.080  0.6696 -0.1153  0.2509
 3400SOL    HW121836   3.597   0.608   0.033  0.1169 -0.5198 -0.1739
 3400SOL    HW221837   3.559   0.467   0.038  1.5818  0.2341 -1.5431
 3401SOL     OW21838   3.717   4.144  11.659  0.1775  0.0907  0.7599
 3401SOL    HW121839   3.812   4.147  11.655  0.1644 -1.3966 -0.6593
 3401SOL    HW221840   3.694   4.131  11.751  2.9736 -1.2888  1.2659
 3402SOL     OW21841   1.086   1.541   3.794  0.5019 -0.3691 -0.0699
 3402SOL    HW121842   1.006   1.545   3.742 -0.2186  1.3321  1.1407
 3402SOL    HW221843   1.147   1.504   3.731  1.0879  0.6224 -0.0902
 3403SOL     OW21844   0.434   3.589  17.037 -0.2397 -0.5458  0.1777
 3403SOL    HW121845   0.477   3.566  16.954 -0.8747 -1.4173  0.1015
 3403SOL    HW221846   0.477   3.671  17.062 -1.1377  0.9749 -3.2072
 3404SOL     OW21847   1.525   1.070  11.773  0.0393  0.3193 -0.3717
 3404SOL    HW121848   1.545   1.116  11.691  1.6992 -2.5460 -1.5494
 3404SOL    HW221849   1.561   1.128  11.840  2.9645 -1.3114 -0.5655
 3405SOL     OW21850   3.094   3.739   6.269 -0.1699 -0.1216 -0.5549
 3405SOL    HW121851   3.104   3.723   6.175 -0.7152  0.3928 -0.7047
 3405SOL    HW221852   3.155   3.811   6.283 -2.5271  1.6075  0.8797
 3406SOL     OW21853   3.982   2.151  16.886  0.0971  0.5949 -0.4438
 3406SOL    HW121854   3.936   2.096  16.822 -1.0764 -0.0614  0.9654
 3406SOL    HW221855   4.070   2.115  16.876 -0.5556 -1.3400  0.7554
 3407SOL     OW21856   0.823   2.387   9.875  0.4071 -0.5137  0.1791
 3407SOL    HW121857   0.895   2.431   9.921  0.3510 -0.4000  0.1568
 3407SOL    HW221858   0.865   2.325   9.815  0.2709 -0.9602  0.5473
 3408SOL     OW21859   1.874   1.225   8.453  0.4853 -0.3650  0.4383
 3408SOL    HW121860   1.946   1.163   8.441  0.0797 -0.7839  0.1645
 3408SOL    HW221861   1.820   1.204   8.376  0.9788 -2.1554  0.5599
 3409SOL     OW21862   2.088   0.332   7.130 -0.5037  0.2090  0.2703
 3409SOL    HW121863   2.145   0.356   7.057 -0.0319  0.5361  0.7399
 3409SOL    HW221864   2.146   0.286   7.191  0.4203  2.1752  0.8706
 3410SOL     OW21865   3.600   3.524   4.993 -0.3415 -0.2201 -0.1740
 3410SOL    HW121866   3.646   3.440   4.987  0.4965  0.2322 -0.0698
 3410SOL    HW221867   3.518   3.497   5.034 -0.3302  2.1860  1.3839
 3411SOL     OW21868   4.320   2.067   8.071 -0.3093 -0.0357 -0.3370
 3411SOL    HW121869   4.306   2.160   8.092 -1.5198 -0.5028  0.9247
 3411SOL    HW221870   4.390   2.047   8.133  0.0554 -0.3871 -0.8607
 3412SOL     OW21871   3.493   4.372   8.861  0.2454  0.5514  0.2544
 3412SOL    HW121872   3.400   4.363   8.881  0.3205  2.2727  1.3446
 3412SOL    HW221873   3.506   4.278   8.844 -3.7245 -0.5755  3.4845
 3413SOL     OW21874   4.157   0.376   9.682  0.4483 -0.0632 -0.0382
 3413SOL    HW121875   4.171   0.434   9.607 -0.0554  1.9305  1.4131
 3413SOL    HW221876   4.229   0.312   9.679 -1.3895 -2.1547  0.6117
 3414SOL     OW21877   4.425   3.155   2.068 -0.2850  0.0527  0.0252
 3414SOL    HW121878   4.335   3.121   2.069 -0.5119  0.6267 -1.0981
 3414SOL    HW221879   4.411   3.249   2.063 -1.3643 -0.1217 -0.2610
 3415SOL     OW21880   3.783   3.079   1.835  0.0127  0.2475  0.4961
 3415SOL    HW121881   3.867   3.116   1.863  0.1774  0.5809 -0.4224
 3415SOL    HW221882   3.808   2.986   1.841 -1.2176 -0.0284  1.2397
 3416SOL     OW21883   0.961   2.422   9.286 -0.0433  0.0724  0.4257
 3416SOL    HW121884   0.876   2.464   9.293  0.3126  1.2153 -1.8792
 3416SOL    HW221885   1.012   2.472   9.221  0.4464  2.4134  2.6130
 3417SOL     OW21886   2.991   1.498   4.933 -0.8950  0.3603 -0.0166
 3417SOL    HW121887   3.073   1.493   4.883 -0.5252  3.4374  0.3241
 3417SOL    HW221888   3.029   1.516   5.019  2.4046 -0.5503 -1.2837
 3418SOL     OW21889   1.126   1.246   4.570 -0.1641  0.1120 -0.3730
 3418SOL    HW121890   1.116   1.154   4.545  0.6171  0.0885 -0.6013
 3418SOL    HW221891   1.189   1.279   4.506  0.0489 -0.8432 -0.6529
 3419SOL     OW21892   2.004   3.175   8.994  0.4142  0.5348 -0.4141
 3419SOL    HW121893   2.072   3.157   8.929 -0.2577 -2.2398 -0.3221
 3419SOL    HW221894   2.043   3.151   9.078 -1.1133 -0.8297 -0.1003
 3420SOL     OW21895   0.719   2.226   5.983  0.1932 -0.2787  0.1205
 3420SOL    HW121896   0.692   2.302   6.035  1.4539  0.0037  0.3721
 3420SOL    HW221897   0.766   2.262   5.908 -2.4333 -1.7587 -2.2107
 3421SOL     OW21898   2.434   4.033   0.010  0.2900 -0.5446  0.2367
 3421SOL    HW121899   2.398   3.951  17.728  0.1025 -1.0299  1.6143
 3421SOL    HW221900   2.361   4.094   0.000  1.5656  1.0101  0.4190
 3422SOL     OW21901   2.902   1.777   9.676  0.0075 -0.0993  0.7000
 3422SOL    HW121902   2.821   1.730   9.699 -0.2181 -0.2866 -0.4857
 3422SOL    HW221903   2.917   1.812   9.763  0.0127 -0.4632  0.8483
 3423SOL     OW21904   3.931   0.645   8.460 -0.2254 -0.1701  0.2400
 3423SOL    HW121905   3.868   0.619   8.393 -0.0715  2.2731 -0.8588
 3423SOL    HW221906   3.915   0.584   8.531  2.9414 -1.4653 -0.1225
 3424SOL     OW21907   4.402   0.114   0.988  0.6433  0.0577  0.0088
 3424SOL    HW121908   4.450   0.187   0.950  1.7969 -0.1457  1.0644
 3424SOL    HW221909   4.314   0.147   0.972  0.4026 -0.1245  0.9097
 3425SOL     OW21910   2.011   0.672  12.125 -0.4320 -0.1460 -0.6681
 3425SOL    HW121911   2.025   0.746  12.184  1.6225 -0.2724 -1.0117
 3425SOL    HW221912   1.954   0.612  12.173 -1.9871  0.2412 -2.0155
 3426SOL     OW21913   0.669   3.212   3.592  0.0655 -0.1396  0.0370
 3426SOL    HW121914   0.621   3.288   3.623 -1.6697 -0.7360 -1.2168
 3426SOL    HW221915   0.649   3.153   3.665  0.3384 -1.5808 -1.0644
 3427SOL     OW21916   3.973   4.356   2.319  0.5932  0.4607  0.2925
 3427SOL    HW121917   3.976   4.283   2.258 -4.0565  0.5812 -0.0736
 3427SOL    HW221918   4.011   4.429   2.270  1.4669  0.1719  0.5384
 3428SOL     OW21919   1.087   4.253  12.112  0.2669 -0.3751 -0.0350
 3428SOL    HW121920   1.109   4.214  12.196 -2.0733 -3.3297 -0.7945
 3428SOL    HW221921   1.068   4.176  12.058  1.0633 -2.0406  2.0797
 3429SOL     OW21922   1.329   2.370  15.323  0.2697  0.3366  0.3292
 3429SOL    HW121923   1.391   2.323  15.267  2.3268  2.6253  0.7132
 3429SOL    HW221924   1.264   2.300  15.334 -0.8258  1.1461 -1.1072
 3430SOL     OW21925   0.065   3.043   0.240 -0.0612  0.4729 -0.2407
 3430SOL    HW121926   4.730   3.074   0.188  0.2371  0.8913 -0.4179
 3430SOL    HW221927   0.121   3.012   0.169 -0.9805  0.0031 -0.7488
 3431SOL     OW21928   2.701   1.408   8.246  0.3553 -0.5735 -0.9291
 3431SOL    HW121929   2.723   1.378   8.334  0.3841 -0.2213 -0.8162
 3431SOL    HW221930   2.668   1.495   8.269 -0.9116 -1.2589 -0.1307
 3432SOL     OW21931   0.553   3.344   1.662  0.7096  0.1390  0.0065
 3432SOL    HW121932   0.575   3.423   1.614  1.8812 -0.3562 -0.2615
 3432SOL    HW221933   0.581   3.278   1.599  0.6791 -0.9358  1.1067
 3433SOL     OW21934   0.980   2.709  13.869  0.6457 -0.7774  0.2405
 3433SOL    HW121935   0.966   2.700  13.963  2.4062 -0.3535  0.5516
 3433SOL    HW221936   1.059   2.656  13.857  0.4082 -1.3586  1.2561
 3434SOL     OW21937   4.420   1.430   7.307  0.3010 -0.6143  0.3009
 3434SOL    HW121938   4.489   1.466   7.363  0.1765 -1.0904  0.7605
 3434SOL    HW221939   4.382   1.362   7.363 -0.6236 -0.9300 -0.7199
 3435SOL     OW21940   0.989   1.312   5.215 -0.3044 -0.5975  0.0277
 3435SOL    HW121941   0.912   1.283   5.167  0.3818 -0.0430 -1.3871
 3435SOL    HW221942   0.978   1.284   5.306  0.1647  1.8082  0.8210
 3436SOL     OW21943   4.447   3.640   2.304  0.1077  0.4647 -0.6287
 3436SOL    HW121944   4.379   3.636   2.236 -1.9623 -0.0925  1.4868
 3436SOL    HW221945   4.396   3.664   2.381 -1.4435  1.0808 -1.8394
 3437SOL     OW21946   2.632   1.825   8.730  0.1416 -0.0425 -0.6242
 3437SOL    HW121947   2.710   1.773   8.711 -0.0114 -0.0715 -1.1653
 3437SOL    HW221948   2.638   1.885   8.657 -0.3978  3.1978  1.9847
 3438SOL     OW21949   3.914   3.855  11.416  0.0741 -0.2232  0.5728
 3438SOL    HW121950   3.849   3.922  11.395  1.3545  0.0164 -2.7996
 3438SOL    HW221951   3.884   3.777  11.369 -0.0332  0.8981 -1.2495
 3439SOL     OW21952   1.761   3.008   8.190  0.0820  0.4261  0.2511
 3439SOL    HW121953   1.724   3.078   8.243 -0.2198  2.2924 -2.3887
 3439SOL    HW221954   1.812   3.057   8.125  0.5541 -1.0230 -0.4597
 3440SOL     OW21955   2.047   1.640   4.143  0.5088 -0.0170 -0.2170
 3440SOL    HW121956   2.070   1.627   4.235  1.2220  2.0721 -0.0980
 3440SOL    HW221957   1.956   1.610   4.141  0.3957  0.3116  0.0042
 3441SOL     OW21958   2.545   0.230   3.530 -0.3810  0.6138  0.2619
 3441SOL    HW121959   2.610   0.173   3.572 -0.6388 -0.7377 -1.1838
 3441SOL    HW221960   2.598   0.281   3.469 -2.2017  2.1122 -0.0330
 3442SOL     OW21961   0.384   3.636   9.230 -0.2496 -0.1816  0.0801
 3442SOL    HW121962   0.408   3.671   9.316  1.0987  1.9009 -1.1584
 3442SOL    HW221963   0.398   3.541   9.238  2.3048 -0.0773 -3.1713
 3443SOL     OW21964   3.462   1.686   4.185 -0.0809  0.2185  0.0968
 3443SOL    HW121965   3.538   1.648   4.228  1.8761 -0.4636 -3.9691
 3443SOL    HW221966   3.498   1.703   4.097  1.5748  0.4497  0.8182
 3444SOL     OW21967   3.167   4.323   5.299 -0.0266  0.3759 -0.5645
 3444SOL    HW121968   3.179   4.293   5.209 -0.5775 -0.8240 -0.2394
 3444SOL    HW221969   3.179   4.418   5.298  0.8228  0.2700  0.0040
 3445SOL     OW21970   3.747   3.672  14.493 -0.0024 -0.2338 -0.6100
 3445SOL    HW121971   3.689   3.619  14.547  0.1288  1.8797  1.5919
 3445SOL    HW221972   3.803   3.710  14.560 -0.8772 -0.6648  0.3750
 3446SOL     OW21973   4.143   0.420   2.484 -0.1131 -0.1115 -0.7155
 3446SOL    HW121974   4.119   0.487   2.547 -0.2772 -1.1204  0.2801
 3446SOL    HW221975   4.057   0.379   2.476 -0.1425 -0.2251  0.1851
 3447SOL     OW21976   1.354   3.000  12.076 -0.1925  0.6066 -0.3105
 3447SOL    HW121977   1.370   2.976  11.985 -0.6505 -1.3774  0.1116
 3447SOL    HW221978   1.347   2.917  12.123 -2.4440  1.8805  1.6292
 3448SOL     OW21979   0.542   1.861   9.166  0.4181  0.5030  0.0157
 3448SOL    HW121980   0.529   1.949   9.132  0.0985  0.9525  1.2776
 3448SOL    HW221981   0.469   1.874   9.227  0.7042  3.2124 -0.2119
 3449SOL     OW21982   1.995   0.563  14.068  0.6421 -0.2047  0.6423
 3449SOL    HW121983   2.074   0.527  14.029  1.1173 -1.0728  2.4007
 3449SOL    HW221984   2.023   0.587  14.156  0.5369  3.0162 -0.1827
 3450SOL     OW21985   2.415   3.880   0.889  0.6091 -0.2060 -0.4184
 3450SOL    HW121986   2.448   3.969   0.897  0.6515 -0.2317 -0.3043
 3450SOL    HW221987   2.468   3.853   0.814 -1.2084 -2.3906 -0.9230
 3451SOL     OW21988   4.650   0.153   4.638 -0.2024 -0.2960 -0.0367
 3451SOL    HW121989   4.561   0.185   4.624  0.2192  1.3596  1.0953
 3451SOL    HW221990   4.645   0.058   4.651  0.2684 -0.2082  0.7993
 3452SOL     OW21991   3.763   1.432   2.161  0.4909 -0.2315  0.1058
 3452SOL    HW121992   3.765   1.357   2.102  0.5372 -0.5153  0.4661
 3452SOL    HW221993   3.858   1.445   2.160  0.6434 -1.2596  0.9915
 3453SOL     OW21994   0.609   2.607   6.688  0.3028 -0.6487  0.2004
 3453SOL    HW121995   0.588   2.543   6.756 -2.5841 -0.0587 -0.1606
 3453SOL    HW221996   0.676   2.561   6.637  3.6151  1.3485  2.7437
 3454SOL     OW21997   1.520   2.659   8.271  0.1870  0.1647  0.0756
 3454SOL    HW121998   1.561   2.632   8.189 -0.8313  0.4961 -0.5402
 3454SOL    HW221999   1.536   2.753   8.264  0.9052 -0.0902 -1.7262
 3455SOL     OW22000   0.351   2.334   5.834 -0.3834  0.0169 -0.1067
 3455SOL    HW122001   0.428   2.319   5.779 -0.8879  2.2584 -1.4067
 3455SOL    HW222002   0.388   2.399   5.893  2.1762 -0.8131 -0.8135
 3456SOL     OW22003   1.198   0.202   3.581  0.1652  0.3005  0.1276
 3456SOL    HW122004   1.239   0.288   3.595 -2.4815  1.2118  2.1928
 3456SOL    HW222005   1.125   0.221   3.522  0.2144 -0.8460 -0.3075
 3457SOL     OW22006   3.732   4.503   6.708 -0.7467  0.1670 -0.2690
 3457SOL    HW122007   3.661   4.452   6.669 -0.5541 -1.1552  1.1299
 3457SOL    HW222008   3.805   4.478   6.651  0.2687 -2.1705  2.0366
 3458SOL     OW22009   1.357   0.936  15.201  0.3420 -0.1515 -0.6630
 3458SOL    HW122010   1.314   0.858  15.165 -0.4725 -0.7800  1.6891
 3458SOL    HW222011   1.406   0.898  15.274  1.2200 -1.5332 -1.9584
 3459SOL     OW22012   4.399   4.207  13.284 -0.1323 -0.5342  0.1230
 3459SOL    HW122013   4.305   4.191  13.295 -0.4363  0.3356 -1.2430
 3459SOL    HW222014   4.429   4.125  13.324  3.4944  1.0610  0.6080
 3460SOL     OW22015   0.983   2.142  16.500 -0.1467  0.0142 -0.0191
 3460SOL    HW122016   0.955   2.050  16.494 -0.3019  0.0291  0.4882
 3460SOL    HW222017   1.074   2.118  16.518 -0.2479  0.6498  1.2926
 3461SOL     OW22018   4.342   0.243   8.802 -0.7030  0.1389  0.0754
 3461SOL    HW122019   4.434   0.239   8.777 -0.0587 -1.1219  2.6249
 3461SOL    HW222020   4.351   0.209   8.891 -0.6288  0.4623  0.1916
 3462SOL     OW22021   0.528   4.138   5.542  0.3152  0.2165 -0.1297
 3462SOL    HW122022   0.571   4.054   5.527 -0.4852 -0.5589  1.8874
 3462SOL    HW222023   0.593   4.198   5.508 -1.6377  1.2254 -2.0825
 3463SOL     OW22024   4.576   2.355   6.398  0.0591 -0.1081 -0.6410
 3463SOL    HW122025   4.600   2.263   6.398  1.2788  0.2190  3.4114
 3463SOL    HW222026   4.492   2.371   6.441  0.7260  1.5322  0.0716
 3464SOL     OW22027   3.519   3.505  16.694  0.3254  0.9648 -0.1852
 3464SOL    HW122028   3.493   3.510  16.602 -0.2702 -2.3112 -0.1891
 3464SOL    HW222029   3.613   3.484  16.689  0.2411  0.4598  0.3096
 3465SOL     OW22030   3.390   4.660   8.326  0.7566  0.0786 -0.0858
 3465SOL    HW122031   3.361   4.735   8.273 -1.3538 -1.2660 -0.8460
 3465SOL    HW222032   3.341   4.584   8.294 -0.7282  1.2249 -0.5533
 3466SOL     OW22033   1.577   2.140   5.142 -0.1355 -0.1172 -0.1245
 3466SOL    HW122034   1.495   2.101   5.174  0.5948  1.2033  3.3284
 3466SOL    HW222035   1.621   2.072   5.091 -1.4019  1.2561 -3.0766
 3467SOL     OW22036   3.079   4.111  12.782 -0.4614 -0.4446  0.6281
 3467SOL    HW122037   3.061   4.033  12.728 -0.1298 -1.5434  2.0913
 3467SOL    HW222038   3.143   4.073  12.843 -0.6635 -2.7776 -0.5741
 3468SOL     OW22039   4.319   0.110   6.340 -0.2916  0.3214  0.5086
 3468SOL    HW122040   4.272   0.027   6.346  4.3704 -2.4243 -0.2151
 3468SOL    HW222041   4.267   0.145   6.269  2.5376  1.9858 -0.7577
 3469SOL     OW22042   1.940   1.649   5.169 -0.5208  0.3140  0.0718
 3469SOL    HW122043   1.949   1.713   5.239 -0.7240  1.8526 -1.3266
 3469SOL    HW222044   1.848   1.623   5.173 -0.2650 -0.4472  1.0808
 3470SOL     OW22045   0.787   2.502   6.532 -0.0947 -0.1494  0.2310
 3470SOL    HW122046   0.799   2.541   6.446  3.1954 -2.1376 -0.2120
 3470SOL    HW222047   0.826   2.415   6.523  0.0050 -0.1429  0.6092
 3471SOL     OW22048   3.507   4.253  14.615 -0.0624  0.9703 -0.2782
 3471SOL    HW122049   3.594   4.290  14.632  0.9600 -0.7218 -1.7582
 3471SOL    HW222050   3.491   4.287  14.527  2.2098 -0.1987 -1.1586
 3472SOL     OW22051   3.051   2.633   4.989  0.3925  0.5818  0.4456
 3472SOL    HW122052   3.006   2.575   5.050 -0.8292  0.6269 -0.4169
 3472SOL    HW222053   3.133   2.591   4.963  0.6813  0.1128  2.1073
 3473SOL     OW22054   4.033   2.789   3.853 -0.4980 -0.1501  0.2938
 3473SOL    HW122055   4.080   2.739   3.919  0.2685 -2.2736 -1.8974
 3473SOL    HW222056   3.971   2.833   3.911  1.7998  2.0421  1.0920
 3474SOL     OW22057   4.055   2.649   0.070  0.2623 -0.1419  0.3584
 3474SOL    HW122058   4.014   2.734   0.089 -0.8728 -0.8976  1.2961
 3474SOL    HW222059   3.981   2.588   0.063  0.8468 -1.2120  3.7142
 3475SOL     OW22060   4.490   0.853   6.673  0.0196 -0.1541 -0.3718
 3475SOL    HW122061   4.527   0.814   6.593 -0.2171 -0.1692 -0.4748
 3475SOL    HW222062   4.578   0.846   6.710  0.0400  1.2121 -0.1675
 3476SOL     OW22063   1.559   2.103  15.466  0.0411  0.3555 -0.2601
 3476SOL    HW122064   1.532   2.122  15.376  2.0976  0.3458 -0.8868
 3476SOL    HW222065   1.485   2.047  15.490 -0.2852  0.5982 -0.6984
 3477SOL     OW22066   3.027   2.992  16.481  0.2250 -0.6431  0.2158
 3477SOL    HW122067   3.121   2.983  16.462  0.6621  1.3443  1.4968
 3477SOL    HW222068   3.010   3.084  16.462 -0.1642 -1.0818 -1.6003
 3478SOL     OW22069   1.469   4.729  15.791  0.1112  0.5853  0.3606
 3478SOL    HW122070   1.467   0.061  15.727 -0.6867  1.4751  1.3589
 3478SOL    HW222071   1.383   4.690  15.774  1.1233 -1.8727  0.8046
 3479SOL     OW22072   1.019   4.484   9.099 -0.3079 -0.0400  0.1027
 3479SOL    HW122073   1.112   4.506   9.089 -0.5315  0.8595 -0.0090
 3479SOL    HW222074   1.020   4.400   9.145 -2.1212  0.4089  0.9601
 3480SOL     OW22075   0.298   0.342  13.560  0.7203 -0.5072  0.3893
 3480SOL    HW122076   0.237   0.338  13.635 -1.0636 -0.6931 -1.0605
 3480SOL    HW222077   0.371   0.386  13.603 -0.0034  0.2343  0.8529
 3481SOL     OW22078   1.424   3.658   3.773 -0.3443  0.1099  0.1621
 3481SOL    HW122079   1.483   3.728   3.802 -1.0072  0.5660  0.4038
 3481SOL    HW222080   1.490   3.589   3.761  3.2454  3.4434  0.4526
 3482SOL     OW22081   1.223   4.597  15.699  0.1373 -0.1740  0.2146
 3482SOL    HW122082   1.215   4.512  15.656  3.0413 -0.1972 -0.3212
 3482SOL    HW222083   1.181   4.650  15.632 -0.4816 -0.7131  0.1830
 3483SOL     OW22084   0.393   0.032   3.040  0.2458 -0.1247 -0.4426
 3483SOL    HW122085   0.323   4.707   3.041 -0.9068  1.1512  0.9251
 3483SOL    HW222086   0.374   0.078   3.122 -0.0015 -0.6697 -0.1971
 3484SOL     OW22087   2.002   0.526  14.348 -0.1660  0.6794 -0.1908
 3484SOL    HW122088   2.036   0.437  14.352  0.1188  0.8951  2.4045
 3484SOL    HW222089   2.047   0.574  14.418 -0.3343 -0.4437  0.6855
 3485SOL     OW22090   2.248   0.300  15.687 -0.9514 -0.3595  0.2520
 3485SOL    HW122091   2.240   0.213  15.649 -1.5183  0.4874 -1.5764
 3485SOL    HW222092   2.235   0.354  15.609 -2.5245  1.6032  1.8596
 3486SOL     OW22093   3.966   2.198  12.990 -0.3091 -0.3630 -0.4268
 3486SOL    HW122094   3.892   2.215  12.932  0.0247  2.8837  0.0870
 3486SOL    HW222095   3.980   2.107  12.965  2.4749 -0.6414  2.1502
 3487SOL     OW22096   0.225   0.383   6.742 -0.0895  0.0708  0.2089
 3487SOL    HW122097   0.159   0.437   6.786 -0.5346  0.2287 -0.6425
 3487SOL    HW222098   0.289   0.382   6.812  0.6272 -2.6055 -0.4981
 3488SOL     OW22099   3.121   3.422   8.872  0.5747 -0.4945 -0.2271
 3488SOL    HW122100   3.175   3.483   8.821 -0.9373  1.8502  0.9529
 3488SOL    HW222101   3.141   3.438   8.964 -0.9378  2.1410 -0.3264
 3489SOL     OW22102   0.334   0.858   5.523  0.5081 -0.1146  0.8020
 3489SOL    HW122103   0.251   0.866   5.477  1.3510  1.2361 -0.4766
 3489SOL    HW222104   0.306   0.847   5.614 -1.0936  0.0695  0.3200
 3490SOL     OW22105   1.647   0.863   2.902  0.6143 -0.1022  0.4945
 3490SOL    HW122106   1.672   0.916   2.826 -0.5683 -2.4382 -1.5703
 3490SOL    HW222107   1.596   0.793   2.861  0.4271 -0.7200  1.8110
 3491SOL     OW22108   0.583   0.307   6.854  0.4738 -0.3440  0.2703
 3491SOL    HW122109   0.677   0.297   6.839  0.6077  1.2014  0.0340
 3491SOL    HW222110   0.559   0.295   6.762  2.3217  0.9448 -0.3676
 3492SOL     OW22111   0.562   4.278  17.533  0.2714 -0.5105  0.3567
 3492SOL    HW122112   0.527   4.251  17.449  2.5544  1.4893 -1.2298
 3492SOL    HW222113   0.617   4.345  17.492 -0.1369 -1.7966 -2.2325
 3493SOL     OW22114   3.747   1.529   7.706  0.4176 -0.2197  0.3768
 3493SOL    HW122115   3.725   1.612   7.747  0.6796  0.7141 -1.3764
 3493SOL    HW222116   3.658   1.496   7.691  0.3618  0.2876 -0.3825
 3494SOL     OW22117   0.336   1.947   6.610 -0.4878 -0.6861  1.0638
 3494SOL    HW122118   0.411   1.897   6.642  1.8926  2.4586  0.3143
 3494SOL    HW222119   0.270   1.928   6.677 -0.4779 -1.2590  0.9155
 3495SOL     OW22120   3.746   3.729   2.154 -0.4511  0.4753 -0.0373
 3495SOL    HW122121   3.727   3.636   2.160 -2.9059  0.9098 -1.4332
 3495SOL    HW222122   3.809   3.734   2.227  0.6570  2.5033 -1.1299
 3496SOL     OW22123   1.071   0.446  15.466  0.1356 -0.5550 -0.4562
 3496SOL    HW122124   1.044   0.356  15.447  1.1283 -1.7012  3.6180
 3496SOL    HW222125   1.024   0.464  15.547  0.7544 -1.6501  0.1520
 3497SOL     OW22126   1.258   2.942   8.581  0.1533  0.4784  0.0851
 3497SOL    HW122127   1.189   2.915   8.641  0.9727 -1.3158  0.2402
 3497SOL    HW222128   1.325   2.967   8.644  0.3682  0.9968 -0.3455
 3498SOL     OW22129   2.835   3.920  14.495 -0.0189  0.0560  0.1394
 3498SOL    HW122130   2.769   3.854  14.472 -1.7374  2.1669 -0.9251
 3498SOL    HW222131   2.910   3.897  14.439  0.3272  0.3121  0.4985
 3499SOL     OW22132   3.491   3.500   6.348 -0.2736  0.0612 -0.2427
 3499SOL    HW122133   3.499   3.593   6.329 -0.6029  0.5700  2.1340
 3499SOL    HW222134   3.557   3.467   6.287 -0.5307  1.2486 -1.1457
 3500SOL     OW22135   4.072   1.524   5.867 -0.4293 -0.0354  0.6097
 3500SOL    HW122136   4.090   1.503   5.776 -0.4520  0.9681  0.3711
 3500SOL    HW222137   4.127   1.602   5.876 -1.3455  0.7041 -0.1908
 3501SOL     OW22138   4.470   3.136   5.338 -0.4344 -0.3739  0.9232
 3501SOL    HW122139   4.437   3.068   5.396 -0.5186 -0.1516  1.1346
 3501SOL    HW222140   4.462   3.097   5.250 -0.2937 -0.3210  0.8868
 3502SOL     OW22141   3.633   4.649  10.295 -0.2450 -0.4306  0.0823
 3502SOL    HW122142   3.639   4.675  10.203 -2.7442  2.4619  0.7557
 3502SOL    HW222143   3.687   4.718  10.334 -0.1517 -0.9467  0.8651
 3503SOL     OW22144   0.053   4.018  16.816 -0.0906  0.3254  0.6458
 3503SOL    HW122145   0.085   3.971  16.739 -0.2295  0.8871  0.2393
 3503SOL    HW222146   0.109   4.096  16.808 -0.4122  0.3598 -1.1931
 3504SOL     OW22147   3.286   4.279   5.039  0.1902  0.0810  0.1289
 3504SOL    HW122148   3.374   4.288   5.003  0.4398 -0.0587  0.7144
 3504SOL    HW222149   3.231   4.243   4.969  0.9550 -0.0672 -0.3910
 3505SOL     OW22150   2.537   2.322   5.741 -0.2506  0.2402 -0.0973
 3505SOL    HW122151   2.554   2.312   5.834 -0.9998 -0.8076 -0.0730
 3505SOL    HW222152   2.459   2.270   5.723  0.5202 -1.0794  0.4103
 3506SOL     OW22153   3.241   4.283  16.148 -0.7649 -0.3837  0.2392
 3506SOL    HW122154   3.151   4.285  16.116 -0.6224 -2.6582 -0.3125
 3506SOL    HW222155   3.258   4.189  16.153  0.5873 -0.1372  0.1561
 3507SOL     OW22156   3.463   1.263   2.310 -0.2855 -1.0328  0.2958
 3507SOL    HW122157   3.483   1.194   2.247 -0.9140  0.0220 -1.0614
 3507SOL    HW222158   3.368   1.251   2.316 -0.3935  1.1205  2.6679
 3508SOL     OW22159   0.148   1.790   6.828  0.1448  0.3912  0.5758
 3508SOL    HW122160   0.154   1.715   6.887  0.6461  0.0231  0.0592
 3508SOL    HW222161   0.088   1.757   6.761  0.1526  1.4900  0.0307
 3509SOL     OW22162   3.884   0.787   2.161  0.0016  0.1416  0.0583
 3509SOL    HW122163   3.791   0.802   2.177 -0.2485  2.9183 -3.9227
 3509SOL    HW222164   3.922   0.859   2.213  0.3122  1.0869 -1.4796
 3510SOL     OW22165   2.942   4.587   7.932 -0.0978 -0.4142  0.1749
 3510SOL    HW122166   2.874   4.528   7.899  0.5330 -0.2857 -1.3291
 3510SOL    HW222167   2.980   4.624   7.853  0.5467 -1.2571  0.0960
 3511SOL     OW22168   4.348   0.282   5.003 -0.1347 -0.3038  0.5285
 3511SOL    HW122169   4.307   0.303   4.919  0.0727 -0.3667  0.4117
 3511SOL    HW222170   4.289   0.316   5.071 -1.4471 -2.4728  0.4728
 3512SOL     OW22171   3.732   0.886   3.844 -0.5905  0.1625  0.0548
 3512SOL    HW122172   3.742   0.963   3.899 -0.7873  1.2457 -1.4205
 3512SOL    HW222173   3.822   0.860   3.824 -0.1071  0.9672  1.1943
 3513SOL     OW22174   2.611   2.584   9.560 -0.4574  0.4997 -0.4152
 3513SOL    HW122175   2.648   2.504   9.522  0.5737  1.5918 -1.6952
 3513SOL    HW222176   2.677   2.601   9.628  0.2166  1.8179 -1.4088
 3514SOL     OW22177   4.173   3.607   3.269 -0.0990  0.5913 -0.8744
 3514SOL    HW122178   4.258   3.626   3.229  0.8639  0.0784  0.9700
 3514SOL    HW222179   4.200   3.542   3.333 -1.6382  0.3454 -0.4855
 3515SOL     OW22180   3.542   0.010   7.307 -0.2291  0.1436 -0.3771
 3515SOL    HW122181   3.456   4.722   7.276 -0.6320 -0.8164  1.5897
 3515SOL    HW222182   3.560   0.083   7.247  1.2221 -0.9678 -1.2866
 3516SOL     OW22183   4.001   3.436   7.569  0.0500 -0.3401  0.0264
 3516SOL    HW122184   3.922   3.452   7.519  0.6940  3.5547  0.2841
 3516SOL    HW222185   4.006   3.508   7.632 -0.4975 -1.3871  1.2745
 3517SOL     OW22186   2.136   1.730   3.926 -0.4413  0.4441  0.3761
 3517SOL    HW122187   2.064   1.774   3.881 -0.0292 -0.0447 -0.7738
 3517SOL    HW222188   2.087   1.680   3.991 -0.4933  0.0113 -0.0026
 3518SOL     OW22189   1.794   0.643   0.352 -0.3938  0.4289  0.2870
 3518SOL    HW122190   1.771   0.627   0.444 -1.8936  0.9600  0.0075
 3518SOL    HW222191   1.712   0.677   0.315  1.0368  0.6490 -2.6800
 3519SOL     OW22192   2.950   1.525   2.426 -0.6256 -0.2320  0.1866
 3519SOL    HW122193   2.866   1.539   2.469 -1.8619 -1.4715 -1.8801
 3519SOL    HW222194   2.934   1.450   2.370  2.2537 -1.7480  1.4061
 3520SOL     OW22195   0.183   3.601   3.699 -0.3953  0.3210  0.6335
 3520SOL    HW122196   0.092   3.579   3.721  0.4043 -2.1908  1.3701
 3520SOL    HW222197   0.237   3.524   3.715 -0.7303 -0.0894 -0.1816
 3521SOL     OW22198   1.642   4.056   8.509  0.3323 -0.2176 -0.2558
 3521SOL    HW122199   1.627   4.073   8.602 -0.3248  0.4008 -0.4744
 3521SOL    HW222200   1.617   4.140   8.471  1.5082  0.2370 -0.0322
 3522SOL     OW22201   3.043   0.017   0.679 -0.0496  0.7174  0.1512
 3522SOL    HW122202   3.123   0.004   0.730  0.1565 -1.5843 -0.7219
 3522SOL    HW222203   3.066   0.079   0.610 -1.4878  0.4264 -0.5850
 3523SOL     OW22204   2.851   2.992  17.075  0.1325 -0.4239  0.1293
 3523SOL    HW122205   2.831   2.994  17.169  0.3285 -1.7279  0.1978
 3523SOL    HW222206   2.934   2.944  17.072  1.0025  1.1791 -1.4895
 3524SOL     OW22207   3.927   3.109  14.644  0.2806  0.1251  0.1885
 3524SOL    HW122208   3.963   3.171  14.708  2.0013 -0.8510  0.1678
 3524SOL    HW222209   3.887   3.036  14.690  1.5207 -1.7108 -1.6727
 3525SOL     OW22210   0.255   1.159   6.166  0.0421  0.1840  0.1469
 3525SOL    HW122211   0.237   1.095   6.097 -1.2388 -2.3453  2.7985
 3525SOL    HW222212   0.173   1.179   6.210  0.3033 -0.1783  0.8103
 3526SOL     OW22213   1.457   3.694   8.132 -0.2790  0.6161 -0.2952
 3526SOL    HW122214   1.491   3.608   8.111 -2.7207 -0.5868  0.6584
 3526SOL    HW222215   1.516   3.711   8.205 -1.0410 -1.1907  0.7302
 3527SOL     OW22216   4.241   2.106   5.916  0.8106  0.2866  0.4368
 3527SOL    HW122217   4.322   2.127   5.870  0.9921 -1.3026  0.0515
 3527SOL    HW222218   4.182   2.165   5.869  1.0290 -0.2158 -0.4598
 3528SOL     OW22219   2.899   1.876   6.370 -0.0863  0.3903 -0.8036
 3528SOL    HW122220   2.863   1.924   6.445  1.6819 -1.9154  1.5411
 3528SOL    HW222221   2.930   1.949   6.316 -0.2472  1.1938  0.1911
 3529SOL     OW22222   0.781   1.754   4.045  0.0797  0.1087  0.3626
 3529SOL    HW122223   0.858   1.714   4.086  0.4981  0.2952 -0.2534
 3529SOL    HW222224   0.762   1.696   3.972 -0.8151  1.4484 -0.4643
 3530SOL     OW22225   1.383   3.747   7.508  0.2215 -0.1147 -0.2445
 3530SOL    HW122226   1.362   3.653   7.512  2.1705 -0.4615  1.8490
 3530SOL    HW222227   1.476   3.745   7.528  0.0998 -0.8907  0.2624
 3531SOL     OW22228   4.092   2.786   4.180  0.4558  0.3086 -0.3068
 3531SOL    HW122229   4.119   2.864   4.229 -0.4352  1.0488 -0.9962
 3531SOL    HW222230   4.177   2.763   4.141  1.1815 -3.0004  3.1524
 3532SOL     OW22231   2.513   1.721   0.578 -0.0108  0.0715  0.5423
 3532SOL    HW122232   2.570   1.797   0.587 -1.2642  1.0250  0.4873
 3532SOL    HW222233   2.433   1.773   0.593  0.6936  1.0677  0.8470
 3533SOL     OW22234   2.309   3.402   5.527 -0.1203 -0.0631 -0.6919
 3533SOL    HW122235   2.369   3.467   5.493 -0.7021  0.7304 -0.2138
 3533SOL    HW222236   2.250   3.396   5.452 -0.6378  1.4265 -0.3928
 3534SOL     OW22237   2.478   1.429  11.363 -0.1488 -0.1004 -0.0404
 3534SOL    HW122238   2.421   1.501  11.392 -0.4579 -0.8312  1.1674
 3534SOL    HW222239   2.555   1.485  11.372 -0.9055  0.4737  2.9471
 3535SOL     OW22240   4.620   3.334  16.398 -0.2329 -0.4699  0.9670
 3535SOL    HW122241   4.685   3.264  16.388  0.7811  0.8096 -1.4191
 3535SOL    HW222242   4.537   3.287  16.392 -0.4561 -0.1687  1.7962
 3536SOL     OW22243   4.590   0.492   1.893 -0.0811 -0.4576  0.6218
 3536SOL    HW122244   4.510   0.482   1.842  0.3194 -1.5766  0.2030
 3536SOL    HW222245   4.655   0.516   1.827 -0.3451  1.0759  0.9179
 3537SOL     OW22246   4.577   3.516   8.418  0.3212 -0.3516 -0.2371
 3537SOL    HW122247   4.644   3.548   8.359  0.1896 -2.4115 -1.4882
 3537SOL    HW222248   4.617   3.437   8.455  0.2212  0.2383  1.1524
 3538SOL     OW22249   3.973   1.081  11.275 -0.0505 -0.4361  0.4943
 3538SOL    HW122250   3.992   1.120  11.361  0.9831 -2.3628  1.1428
 3538SOL    HW222251   3.913   1.144  11.234  1.0727 -0.5523 -1.3044
 3539SOL     OW22252   2.833   4.675   5.875  0.0279  0.1815 -0.5658
 3539SOL    HW122253   2.772   0.009   5.883 -1.5653 -0.9686 -2.1937
 3539SOL    HW222254   2.868   4.683   5.963 -1.4246  0.3214 -0.0087
 3540SOL     OW22255   4.134   3.897   5.442 -0.4092 -0.4430 -0.4708
 3540SOL    HW122256   4.176   3.811   5.450 -0.9182 -0.3138  3.4873
 3540SOL    HW222257   4.064   3.895   5.506  0.9937 -0.4691  1.0629
 3541SOL     OW22258   3.394   4.064  14.895  0.5519  0.0344  0.4329
 3541SOL    HW122259   3.443   4.019  14.826 -0.5993 -1.0461  0.3336
 3541SOL    HW222260   3.309   4.020  14.903  0.2980  0.5377  0.4838
 3542SOL     OW22261   1.167   4.199   8.586 -0.1269 -0.3412 -0.6017
 3542SOL    HW122262   1.082   4.238   8.605  0.6141  1.6780 -1.4586
 3542SOL    HW222263   1.133   4.148   8.513  1.1666  0.1908 -1.5728
 3543SOL     OW22264   2.339   1.028  13.878  0.7966 -0.3794 -0.4619
 3543SOL    HW122265   2.294   1.112  13.893 -1.8719 -1.8901 -0.0560
 3543SOL    HW222266   2.291   0.959  13.922  0.0308  0.7512  0.4710
 3544SOL     OW22267   0.588   1.146   2.303 -0.0104 -0.1867  0.6501
 3544SOL    HW122268   0.496   1.142   2.278 -0.0885 -0.4637  0.9705
 3544SOL    HW222269   0.606   1.058   2.269 -1.6768  0.4795 -1.9199
 3545SOL     OW22270   1.264   4.290  13.887 -0.2312 -0.2555 -0.3838
 3545SOL    HW122271   1.262   4.263  13.795  1.0386 -1.3159 -0.1187
 3545SOL    HW222272   1.175   4.323  13.894 -0.0661  0.5534 -2.2479
 3546SOL     OW22273   3.545   2.513  13.602  0.3065  0.5491  0.1364
 3546SOL    HW122274   3.537   2.593  13.549  0.0457  1.5509  1.6819
 3546SOL    HW222275   3.622   2.523  13.657 -0.6852 -0.2184  1.6835
 3547SOL     OW22276   2.316   4.714   6.945  0.0598  0.6894  0.2668
 3547SOL    HW122277   2.248   0.026   6.990 -1.0985 -0.7208  0.0909
 3547SOL    HW222278   2.350   0.046   6.890 -0.4500  1.9539  1.5676
 3548SOL     OW22279   1.152   0.774  10.203  0.0587  0.0349 -0.4582
 3548SOL    HW122280   1.075   0.827  10.187 -0.5664 -1.1205 -1.2523
 3548SOL    HW222281   1.130   0.707  10.139  1.0369 -1.0561  0.3445
 3549SOL     OW22282   3.221   3.339   4.462 -0.6744  0.5061 -0.2533
 3549SOL    HW122283   3.243   3.324   4.370 -2.5048  1.6437 -0.8644
 3549SOL    HW222284   3.297   3.392   4.484 -0.8867  0.6224  0.1949
 3550SOL     OW22285   1.367   3.189   1.878 -0.6069  0.5134  0.1347
 3550SOL    HW122286   1.373   3.229   1.791 -0.8901  0.5261  0.1183
 3550SOL    HW222287   1.345   3.097   1.862 -0.3640  0.3242  0.8779
 3551SOL     OW22288   2.946   3.603  13.006  0.0616 -0.3852 -0.5216
 3551SOL    HW122289   2.962   3.615  13.099  0.4471  0.4162 -0.6947
 3551SOL    HW222290   2.912   3.514  12.999 -1.0469  0.0624 -0.8895
 3552SOL     OW22291   4.105   3.163  16.016  0.1942 -0.0496  0.0196
 3552SOL    HW122292   4.118   3.105  15.941  1.7306  1.1212 -0.6219
 3552SOL    HW222293   4.184   3.140  16.065 -0.4787 -0.1676  1.0563
 3553SOL     OW22294   1.534   2.385   5.252 -0.1606 -0.3185  0.6280
 3553SOL    HW122295   1.559   2.295   5.272  1.8830 -0.2324 -1.5934
 3553SOL    HW222296   1.614   2.430   5.280  0.5189 -0.9917 -0.2570
 3554SOL     OW22297   3.688   3.853  11.105 -0.7286 -0.2761  0.1489
 3554SOL    HW122298   3.777   3.864  11.071 -0.9841 -1.4760 -0.9041
 3554SOL    HW222299   3.696   3.931  11.160 -0.1107  0.5037 -1.0473
 3555SOL     OW22300   4.675   2.583   2.094  0.3407 -0.7466 -0.0180
 3555SOL    HW122301   4.638   2.495   2.104  1.3078 -1.2803 -1.2099
 3555SOL    HW222302   0.025   2.557   2.120  0.2577  0.0063  1.0132
 3556SOL     OW22303   0.485   4.117  15.547  0.5932 -0.2632 -0.2861
 3556SOL    HW122304   0.469   4.190  15.487 -0.2128 -0.9135 -0.8632
 3556SOL    HW222305   0.483   4.162  15.631 -0.5443 -0.0824 -0.4083
 3557SOL     OW22306   4.036   0.874  11.535  0.1334 -0.0191 -0.2987
 3557SOL    HW122307   4.019   0.963  11.564 -0.6612 -0.9447  2.0788
 3557SOL    HW222308   4.130   0.875  11.515  0.4674  0.2418  1.2851
 3558SOL     OW22309   4.221   4.648   4.616 -0.0148  0.2879  0.3549
 3558SOL    HW122310   4.212   4.555   4.638  1.3263  0.2387  0.7048
 3558SOL    HW222311   4.288   4.674   4.679 -1.1967  0.4046  1.5646
 3559SOL     OW22312   0.729   1.738  12.863  0.9031  0.7126  0.1700
 3559SOL    HW122313   0.747   1.831  12.846 -0.1472  0.9876  0.5652
 3559SOL    HW222314   0.647   1.730  12.813 -0.2855 -0.0648  2.2512
 3560SOL     OW22315   1.826   4.239   8.089  0.1350 -0.4759 -0.1498
 3560SOL    HW122316   1.799   4.279   8.007 -1.1003  1.6957  1.3142
 3560SOL    HW222317   1.922   4.240   8.082  0.0929  2.9764 -0.2659
 3561SOL     OW22318   0.228   2.500   2.100 -0.6630  0.0504 -0.3697
 3561SOL    HW122319   0.225   2.554   2.179 -1.7403  0.8216 -0.9331
 3561SOL    HW222320   0.300   2.531   2.046  0.9608 -2.5986  0.2945
 3562SOL     OW22321   3.967   3.993  15.746 -0.1798  0.8565 -0.1809
 3562SOL    HW122322   3.968   4.086  15.723 -0.4411  0.7944 -0.4467
 3562SOL    HW222323   3.935   3.952  15.666  1.7598  2.3345 -1.7062
 3563SOL     OW22324   1.486   0.532  15.676 -0.1976  0.4029 -0.3514
 3563SOL    HW122325   1.452   0.558  15.762 -1.6232 -1.4804 -0.3505
 3563SOL    HW222326   1.425   0.589  15.628  2.4918  2.0510 -1.8178
 3564SOL     OW22327   2.148   4.290   5.040  0.3038 -0.2380  0.8129
 3564SOL    HW122328   2.232   4.294   5.085  0.1530 -1.1149  1.1645
 3564SOL    HW222329   2.152   4.196   5.020 -1.5974  0.1349 -1.3032
 3565SOL     OW22330   0.034   3.076   5.614  0.6451  0.1387 -0.4835
 3565SOL    HW122331   0.074   3.112   5.536 -1.2704 -0.5693 -1.7942
 3565SOL    HW222332   0.010   3.155   5.662  1.1433 -0.7247  1.2013
 3566SOL     OW22333   4.498   2.043   7.458 -0.3102  0.7572 -0.3809
 3566SOL    HW122334   4.531   2.130   7.434 -2.5490  1.1513 -1.9937
 3566SOL    HW222335   4.485   2.014   7.367 -1.5013  0.4463 -0.1006
 3567SOL     OW22336   2.686   2.465   6.237  0.2659  0.2255  0.4973
 3567SOL    HW122337   2.645   2.551   6.223  3.0865  1.1796 -1.9120
 3567SOL    HW222338   2.629   2.412   6.182 -2.2168 -1.5637  4.8104
 3568SOL     OW22339   1.343   3.927   9.076 -0.0633 -0.1412 -0.6281
 3568SOL    HW122340   1.318   3.928   8.983  2.0244  0.6111 -1.1673
 3568SOL    HW222341   1.341   4.020   9.096  1.5665 -0.6350  1.7727
 3569SOL     OW22342   1.047   1.509  13.189 -0.5296  0.1557 -0.3317
 3569SOL    HW122343   0.977   1.536  13.130  1.5037 -1.5781 -3.5366
 3569SOL    HW222344   1.082   1.432  13.144  2.4414  2.0145 -1.2082
 3570SOL     OW22345   2.266   0.597  12.063 -0.0439  0.1061  0.3815
 3570SOL    HW122346   2.186   0.634  12.102 -0.7558 -2.4132  1.3245
 3570SOL    HW222347   2.256   0.614  11.969 -2.4827  0.6104  0.7256
 3571SOL     OW22348   4.247   3.485   6.215 -0.5873 -0.0691 -0.3390
 3571SOL    HW122349   4.305   3.559   6.199  0.0282 -0.5401 -0.3207
 3571SOL    HW222350   4.288   3.429   6.149 -0.3888  0.9381 -1.0707
 3572SOL     OW22351   3.080   0.378   7.509 -0.3972  0.2378  0.8872
 3572SOL    HW122352   3.103   0.455   7.561 -0.8890 -0.1801  1.7163
 3572SOL    HW222353   3.064   0.312   7.576 -1.0919 -0.0389  0.4536
 3573SOL     OW22354   1.223   4.179   7.616 -0.2920  0.4505  0.4832
 3573SOL    HW122355   1.240   4.232   7.538 -1.3840 -0.0882 -0.1253
 3573SOL    HW222356   1.305   4.179   7.664 -0.8969  2.1084  1.5213
 3574SOL     OW22357   2.880   4.019  17.683 -0.2880 -0.2277  1.2035
 3574SOL    HW122358   2.797   4.000  17.726  0.1341 -0.4708  1.9271
 3574SOL    HW222359   2.934   3.996   0.007  0.6175 -0.4506  0.5026
 3575SOL     OW22360   3.856   1.822   4.181 -0.1577  0.8224 -0.2498
 3575SOL    HW122361   3.893   1.910   4.177 -2.3474  1.7377 -0.5265
 3575SOL    HW222362   3.887   1.801   4.093 -1.2908  1.1822 -0.7440
 3576SOL     OW22363   0.723   3.791   6.545  0.1198 -0.3230 -0.1027
 3576SOL    HW122364   0.757   3.755   6.627 -0.5420 -0.3468  0.1574
 3576SOL    HW222365   0.783   3.865   6.531  0.5867 -0.6567  0.1447
 3577SOL     OW22366   4.591   4.128  14.454  0.2564 -0.1704  0.0186
 3577SOL    HW122367   4.604   4.216  14.419 -4.3282  0.8217  0.7564
 3577SOL    HW222368   4.641   4.140  14.535 -0.3902 -1.8675  0.6743
 3578SOL     OW22369   2.191   1.237   4.223 -0.3594 -0.7681  0.6933
 3578SOL    HW122370   2.197   1.320   4.175 -0.8291 -0.5614  0.9930
 3578SOL    HW222371   2.270   1.198   4.185 -0.6260 -0.8696  0.2323
 3579SOL     OW22372   0.678   4.291   8.391 -0.3307 -0.3434 -0.3599
 3579SOL    HW122373   0.700   4.298   8.298 -0.9220  0.5742 -0.4350
 3579SOL    HW222374   0.697   4.380   8.418  2.0077 -1.1128  0.4762
 3580SOL     OW22375   2.357   3.601   5.819 -0.0390 -0.3332 -0.0786
 3580SOL    HW122376   2.276   3.614   5.868  0.2425  2.3408 -0.3246
 3580SOL    HW222377   2.321   3.565   5.738  1.7518  0.2901 -1.1216
 3581SOL     OW22378   2.179   1.109   4.527 -0.1399 -0.0486  0.5411
 3581SOL    HW122379   2.223   1.055   4.460 -3.2077 -0.5296 -1.0673
 3581SOL    HW222380   2.159   1.190   4.479  0.0957 -0.4040 -0.1696
 3582SOL     OW22381   3.390   1.021   0.519  0.2304 -0.2028  0.1014
 3582SOL    HW122382   3.370   1.052   0.431 -1.5699  1.6964  1.1756
 3582SOL    HW222383   3.313   0.966   0.540 -1.4929  2.3840  0.5814
 3583SOL     OW22384   4.109   2.089   4.481  0.8651 -0.3114 -0.4765
 3583SOL    HW122385   4.182   2.029   4.492  1.0652 -0.1327 -0.8373
 3583SOL    HW222386   4.033   2.035   4.504 -0.5146  0.9947 -1.9859
 3584SOL     OW22387   3.185   1.105   0.970  0.3453 -0.2721 -0.5461
 3584SOL    HW122388   3.253   1.167   0.997  0.7321 -1.0047  0.1602
 3584SOL    HW222389   3.159   1.145   0.887 -0.5366 -0.3165 -0.2984
 3585SOL     OW22390   3.568   1.520   6.265  0.3979 -0.5652  0.2225
 3585SOL    HW122391   3.606   1.457   6.205  0.6703 -1.0319  0.8830
 3585SOL    HW222392   3.635   1.588   6.254  0.0348 -0.1071  0.8093
 3586SOL     OW22393   1.562   1.781  15.361 -0.2485 -0.1718 -0.3978
 3586SOL    HW122394   1.626   1.711  15.370  0.3773  0.6246  1.3099
 3586SOL    HW222395   1.554   1.809  15.452  1.7205  1.1241 -0.6283
 3587SOL     OW22396   3.955   3.436  16.469 -0.1907 -0.9064  0.1403
 3587SOL    HW122397   3.976   3.363  16.411  1.1018 -0.2553 -0.2268
 3587SOL    HW222398   4.026   3.494  16.440 -0.8888 -0.6875 -1.1093
 3588SOL     OW22399   4.551   1.481  14.190 -0.1286  0.4675  0.1007
 3588SOL    HW122400   4.625   1.492  14.130 -1.6238  0.6548 -1.7052
 3588SOL    HW222401   4.515   1.569  14.197 -1.7235 -0.4130  3.0012
 3589SOL     OW22402   1.715   4.543  14.823 -0.6434 -0.1412 -0.2582
 3589SOL    HW122403   1.663   4.489  14.882  0.6498  0.3772  1.3642
 3589SOL    HW222404   1.667   4.624  14.842 -0.1290 -0.2375  1.4307
 3590SOL     OW22405   1.545   2.310   4.800  0.0655  0.1699  0.4733
 3590SOL    HW122406   1.556   2.404   4.785 -0.4008  0.2168  0.4429
 3590SOL    HW222407   1.589   2.269   4.726 -0.1304  3.0006 -1.2182
 3591SOL     OW22408   4.236   3.556   9.026  0.1238 -0.1426  0.1883
 3591SOL    HW122409   4.154   3.599   9.050 -0.0139  0.2720 -1.0106
 3591SOL    HW222410   4.299   3.628   9.025 -0.0002 -0.0504 -0.8675
 3592SOL     OW22411   0.880   2.422  12.285  0.3561  0.9142  0.1934
 3592SOL    HW122412   0.831   2.421  12.367  0.2924  0.7042  0.1526
 3592SOL    HW222413   0.912   2.511  12.274 -1.2188  1.2289 -2.0123
 3593SOL     OW22414   1.239   3.571  17.332  0.6113  0.2730  0.1119
 3593SOL    HW122415   1.283   3.576  17.247 -1.0315  1.0009 -0.6864
 3593SOL    HW222416   1.197   3.486  17.323  1.0902  0.2755 -2.0301
 3594SOL     OW22417   1.777   3.359   2.940 -0.2277  0.1303 -0.5230
 3594SOL    HW122418   1.846   3.304   2.904 -1.4244 -0.8554 -1.3265
 3594SOL    HW222419   1.759   3.433   2.882  0.1331  1.1086  0.6114
 3595SOL     OW22420   2.669   4.414  14.671  0.5846 -0.2291 -0.0313
 3595SOL    HW122421   2.745   4.360  14.649  0.0569 -0.6843 -0.7137
 3595SOL    HW222422   2.695   4.465  14.748 -0.1553  1.0670 -0.6309
 3596SOL     OW22423   4.720   3.449  11.131 -0.3530  0.0405  0.4555
 3596SOL    HW122424   4.706   3.544  11.126 -0.8055  0.0142  1.2219
 3596SOL    HW222425   4.656   3.422  11.196 -0.4631  1.1985  0.8199
 3597SOL     OW22426   4.307   0.402   7.001 -0.1396  0.1660 -0.0777
 3597SOL    HW122427   4.306   0.487   7.044 -0.4596  1.2227 -2.2035
 3597SOL    HW222428   4.396   0.368   7.014  0.9362  2.9396 -0.1355
 3598SOL     OW22429   0.042   1.722   2.405 -0.5716 -0.2130  0.0515
 3598SOL    HW122430   0.115   1.746   2.347 -0.2435  0.0432  0.5715
 3598SOL    HW222431   4.720   1.681   2.344  0.6503  0.6846 -1.8075
 3599SOL     OW22432   2.034   2.356   9.712 -0.3004 -0.4161 -0.0542
 3599SOL    HW122433   2.122   2.368   9.677 -0.2726  2.0029  0.8309
 3599SOL    HW222434   1.986   2.307   9.645  0.1434 -0.8044 -0.0830
 3600SOL     OW22435   2.793   0.967  13.066  0.1575  0.0267 -0.5164
 3600SOL    HW122436   2.745   0.988  13.146 -0.1684  0.8445 -0.9326
 3600SOL    HW222437   2.831   0.882  13.092  0.6467  0.8743  1.5517
 3601SOL     OW22438   2.392   3.870   1.347  0.3360 -0.0317 -0.4400
 3601SOL    HW122439   2.329   3.840   1.413 -0.8036  2.4376 -0.4024
 3601SOL    HW222440   2.382   3.807   1.276 -1.0631 -2.6446  2.0625
 3602SOL     OW22441   3.431   2.407   5.550 -0.4045  0.6219 -0.4833
 3602SOL    HW122442   3.499   2.459   5.593 -2.2351  1.0044  1.9158
 3602SOL    HW222443   3.450   2.331   5.605 -0.5078  0.5196 -0.5884
 3603SOL     OW22444   0.343   1.069   2.193  0.0775  0.1628 -0.0947
 3603SOL    HW122445   0.261   1.020   2.183 -1.1669  1.4046  3.7979
 3603SOL    HW222446   0.398   1.006   2.147  0.8621 -0.0090  1.0708
 3604SOL     OW22447   4.089   0.778   0.599  0.4901  0.7845 -0.6243
 3604SOL    HW122448   4.031   0.771   0.524  0.0999 -0.8965 -0.1670
 3604SOL    HW222449   4.163   0.720   0.581 -0.2874 -0.3599 -0.1145
 3605SOL     OW22450   0.422   4.341   6.687 -0.2955 -0.4267  0.1078
 3605SOL    HW122451   0.427   4.274   6.754  0.0559 -1.2105 -0.6969
 3605SOL    HW222452   0.426   4.425   6.732 -0.5527  0.4082 -1.3952
 3606SOL     OW22453   2.816   2.128   5.364 -0.1416 -0.0205 -0.3127
 3606SOL    HW122454   2.775   2.187   5.428 -0.4561  0.0251 -0.5536
 3606SOL    HW222455   2.809   2.184   5.287 -1.8661 -0.2414 -0.3218
 3607SOL     OW22456   3.028   1.266  17.087 -0.6114 -0.2556 -0.0838
 3607SOL    HW122457   3.026   1.354  17.051  2.4876 -0.6741 -1.3625
 3607SOL    HW222458   3.101   1.284  17.146 -0.3264  1.0151 -0.8279
 3608SOL     OW22459   0.674   3.114   2.624  1.0646  0.6029 -0.1752
 3608SOL    HW122460   0.767   3.134   2.632  0.9024  1.4888 -0.4273
 3608SOL    HW222461   0.655   3.174   2.552 -2.4803 -2.0954 -1.4714
 3609SOL     OW22462   2.314   3.742   2.532 -1.0199  0.0610  0.2039
 3609SOL    HW122463   2.241   3.750   2.594 -0.6168 -2.1231  0.9780
 3609SOL    HW222464   2.334   3.649   2.535 -2.0471 -0.1513  0.6572
 3610SOL     OW22465   3.644   3.473   8.286  0.0673  0.3322 -0.1244
 3610SOL    HW122466   3.613   3.491   8.375  1.9157 -0.9339  0.7633
 3610SOL    HW222467   3.655   3.559   8.245 -0.3311  0.2986 -0.2975
 3611SOL     OW22468   2.505   2.399   4.829 -0.0823 -0.6112 -0.2293
 3611SOL    HW122469   2.573   2.459   4.799  0.7372 -2.1102 -1.3988
 3611SOL    HW222470   2.458   2.462   4.883  1.8854 -0.7779  1.6967
 3612SOL     OW22471   2.044   1.964  14.971  0.2414 -0.0808  0.1819
 3612SOL    HW122472   2.128   2.007  14.989 -1.4659  2.5313  1.8389
 3612SOL    HW222473   2.040   1.919  15.056  0.0438 -1.0124 -0.3137
 3613SOL     OW22474   2.253   3.090   6.067 -0.1986 -0.7348  0.4732
 3613SOL    HW122475   2.213   3.177   6.074  1.1046 -0.0978 -0.0231
 3613SOL    HW222476   2.332   3.108   6.016 -0.7766 -0.6297 -0.3811
 3614SOL     OW22477   4.287   2.119   3.467  0.4652  0.0644  0.0222
 3614SOL    HW122478   4.213   2.089   3.519  0.8012  1.2036  1.1703
 3614SOL    HW222479   4.302   2.043   3.411  2.0818  2.1179 -2.3427
 3615SOL     OW22480   2.143   0.724   3.890  0.3973  0.0220  0.7200
 3615SOL    HW122481   2.111   0.804   3.932 -0.7803  0.7734 -1.6187
 3615SOL    HW222482   2.205   0.756   3.825 -2.3835  3.1277 -0.4120
 3616SOL     OW22483   3.989   2.986   2.530  0.3444 -0.0350 -0.3965
 3616SOL    HW122484   4.015   2.896   2.551 -0.3009  0.6651  3.3591
 3616SOL    HW222485   4.074   3.028   2.519  0.5098 -0.1237  0.4794
 3617SOL     OW22486   0.852   4.564   6.203  0.0232  0.4693  0.4390
 3617SOL    HW122487   0.863   4.594   6.293  0.9679 -0.6487  0.6884
 3617SOL    HW222488   0.767   4.520   6.216 -0.9057  2.5168  1.3814
 3618SOL     OW22489   2.609   4.406   2.126 -0.1104  0.5098  0.2561
 3618SOL    HW122490   2.627   4.328   2.179  0.3189 -1.1182 -2.2762
 3618SOL    HW222491   2.629   4.379   2.036 -2.7956 -0.9269  0.0726
 3619SOL     OW22492   0.810   1.759   3.092 -0.6632 -0.4051 -0.3390
 3619SOL    HW122493   0.835   1.850   3.074 -0.8582  0.1345  2.2285
 3619SOL    HW222494   0.739   1.774   3.154 -0.5679 -1.1604 -0.0530
 3620SOL     OW22495   3.549   1.814   6.729 -0.1965  0.3482 -0.4351
 3620SOL    HW122496   3.620   1.871   6.697 -0.8554  0.8803 -0.9446
 3620SOL    HW222497   3.583   1.730   6.696  1.4469  0.6589  0.4608
 3621SOL     OW22498   3.691   0.249  13.171  0.4247 -0.0164 -0.0576
 3621SOL    HW122499   3.727   0.199  13.243  3.1565  0.8596 -0.8207
 3621SOL    HW222500   3.773   0.290  13.145  1.7051 -3.8497 -2.0112
 3622SOL     OW22501   3.931   4.173   9.852 -0.3325  0.3192  0.4572
 3622SOL    HW122502   3.849   4.129   9.830 -0.1557  0.2663 -0.0981
 3622SOL    HW222503   3.937   4.247   9.792  0.7337  0.2382  0.4578
 3623SOL     OW22504   4.025   0.560   4.682  0.4003  0.1385  0.3113
 3623SOL    HW122505   4.049   0.648   4.710 -1.4212  0.5853  0.4690
 3623SOL    HW222506   4.029   0.570   4.587 -0.8298 -0.1421  0.2285
 3624SOL     OW22507   3.772   1.607   1.415 -0.2081 -0.2696 -0.2416
 3624SOL    HW122508   3.818   1.527   1.442 -0.5847 -0.3622  0.1261
 3624SOL    HW222509   3.834   1.675   1.442 -0.1127 -0.8197  0.9044
 3625SOL     OW22510   4.327   3.984  14.067  0.0056  0.3816  0.0046
 3625SOL    HW122511   4.379   3.930  14.126  0.6971 -0.0893 -1.0411
 3625SOL    HW222512   4.385   3.968  13.992  1.6599  1.9711  0.9176
 3626SOL     OW22513   2.393   3.918   7.398 -0.0587 -0.5251  0.5528
 3626SOL    HW122514   2.376   3.876   7.314  1.8955 -2.1881  0.9800
 3626SOL    HW222515   2.487   3.898   7.403 -0.3165 -1.8256  0.0971
 3627SOL     OW22516   2.720   4.632   4.084 -0.6969 -0.4242  0.8275
 3627SOL    HW122517   2.808   4.648   4.050 -0.5176  2.0222  2.5099
 3627SOL    HW222518   2.661   4.700   4.055  1.7694  1.0237 -0.8185
 3628SOL     OW22519   4.177   1.102   5.498 -0.2276 -0.1779  0.2488
 3628SOL    HW122520   4.083   1.088   5.509 -0.0019 -1.8690  0.0679
 3628SOL    HW222521   4.193   1.065   5.412  0.6751  0.0078  0.3345
 3629SOL     OW22522   4.203   2.569   2.372  0.0360 -0.2797  0.3080
 3629SOL    HW122523   4.299   2.571   2.367  0.0403  0.1696  0.5746
 3629SOL    HW222524   4.174   2.543   2.285  0.7117 -0.0501  0.0170
 3630SOL     OW22525   1.355   2.792  13.453 -0.0202  0.2197  0.0198
 3630SOL    HW122526   1.385   2.876  13.417  2.4870 -0.7850 -0.2271
 3630SOL    HW222527   1.395   2.797  13.540  0.5606 -1.4452 -0.1418
 3631SOL     OW22528   0.486   2.136  14.289 -0.2774 -0.3752  0.0860
 3631SOL    HW122529   0.436   2.205  14.332 -0.8579 -1.1684  0.6841
 3631SOL    HW222530   0.552   2.190  14.245 -0.7549  0.5247  0.5012
 3632SOL     OW22531   1.853   2.918   4.088 -0.2962  0.0377 -0.2484
 3632SOL    HW122532   1.786   2.875   4.035 -1.7765 -0.8884  2.3528
 3632SOL    HW222533   1.849   3.010   4.062 -0.8071  0.1464  0.1992
 3633SOL     OW22534   1.964   4.584  16.433  0.0606 -1.0045  0.3536
 3633SOL    HW122535   1.908   4.622  16.500 -0.7428 -0.9956 -0.3248
 3633SOL    HW222536   1.975   4.499  16.477  0.7821 -1.6812 -1.1123
 3634SOL     OW22537   1.859   4.311  14.775 -0.2417 -0.3195  0.2711
 3634SOL    HW122538   1.894   4.389  14.819  1.6318 -1.6932  1.2040
 3634SOL    HW222539   1.780   4.354  14.744 -0.6814  0.2397  2.2070
 3635SOL     OW22540   2.907   2.148   8.830 -0.3568 -0.0719 -0.4538
 3635SOL    HW122541   2.976   2.140   8.764 -0.1710 -2.3019  0.0383
 3635SOL    HW222542   2.930   2.078   8.890 -1.0939  0.6493  0.6671
 3636SOL     OW22543   0.766   0.536  17.589 -0.0459 -0.1125  0.2126
 3636SOL    HW122544   0.769   0.523  17.684 -2.6591  2.4039  0.6287
 3636SOL    HW222545   0.753   0.630  17.580 -1.3206 -0.2198  1.0245
 3637SOL     OW22546   0.459   1.761   6.875 -0.4953  0.2276  0.3746
 3637SOL    HW122547   0.385   1.703   6.893  0.5914 -0.3844  2.9703
 3637SOL    HW222548   0.526   1.694   6.885  1.2042  2.3106  3.0668
 3638SOL     OW22549   2.188   3.978   6.691  0.1281  0.1645 -0.2878
 3638SOL    HW122550   2.266   3.953   6.641  0.3463  3.3057 -1.5158
 3638SOL    HW222551   2.124   3.965   6.621 -1.8807  2.1429  1.1964
 3639SOL     OW22552   2.412   1.708  13.932  0.3917  0.1893  0.7134
 3639SOL    HW122553   2.381   1.620  13.910 -1.4172  0.1249  3.4972
 3639SOL    HW222554   2.389   1.717  14.024  1.8534 -0.3043  1.1222
 3640SOL     OW22555   1.172   2.849   7.403  0.4307 -0.1099  0.3284
 3640SOL    HW122556   1.101   2.858   7.466  0.5817 -2.4639  0.8408
 3640SOL    HW222557   1.144   2.921   7.347  1.1950 -0.0547  0.0184
 3641SOL     OW22558   1.106   1.745   3.486 -0.2998  0.2063  0.3268
 3641SOL    HW122559   1.026   1.698   3.507 -1.0258  2.0079  1.5937
 3641SOL    HW222560   1.094   1.763   3.392  1.2248  1.7476  0.4272
 3642SOL     OW22561   3.460   1.048   1.080 -0.2707  0.2161  0.4264
 3642SOL    HW122562   3.420   1.131   1.106 -0.7407 -0.5210  2.0470
 3642SOL    HW222563   3.464   1.065   0.986  1.8080 -0.6880  0.3516
 3643SOL     OW22564   0.838   1.484   9.623 -0.2900  0.0857 -0.4368
 3643SOL    HW122565   0.920   1.456   9.662  0.5074 -0.2994 -2.4033
 3643SOL    HW222566   0.856   1.529   9.540  0.6538 -0.9849 -0.8070
 3644SOL     OW22567   1.703   3.887  12.793 -0.4659 -0.4384 -0.0793
 3644SOL    HW122568   1.660   3.840  12.722 -1.8407  1.0663 -0.2341
 3644SOL    HW222569   1.638   3.894  12.863  0.7746  3.6557  0.6927
 3645SOL     OW22570   3.435   2.377  10.103  0.4786  0.1823 -0.0468
 3645SOL    HW122571   3.427   2.362  10.197  0.8791  1.8636  0.2515
 3645SOL    HW222572   3.503   2.444  10.097  0.5149  0.2918  1.7167
 3646SOL     OW22573   2.390   3.106   6.301 -0.5001  0.2960 -0.1575
 3646SOL    HW122574   2.338   3.080   6.225  0.5269  1.1304 -1.1405
 3646SOL    HW222575   2.460   3.162   6.266  0.1446 -0.3514  0.1080
 3647SOL     OW22576   0.902   4.252  14.201  0.0286 -0.0002 -0.7206
 3647SOL    HW122577   0.898   4.232  14.294  0.3295  1.3972 -0.4100
 3647SOL    HW222578   0.837   4.322  14.202  0.8463  0.7419  0.2984
 3648SOL     OW22579   1.583   2.383   2.052 -0.0036  0.8667 -0.1806
 3648SOL    HW122580   1.578   2.405   2.145 -0.7355  1.0551 -0.2634
 3648SOL    HW222581   1.544   2.296   2.061  1.3405  0.3315  0.3957
 3649SOL     OW22582   2.526   3.106  14.503  0.1476 -0.7081  0.1699
 3649SOL    HW122583   2.456   3.042  14.493  0.0521 -0.6265  0.3233
 3649SOL    HW222584   2.485   3.187  14.473  0.8159  0.1111  1.4361
 3650SOL     OW22585   3.264   3.956   3.642 -0.4849 -0.2027 -0.5077
 3650SOL    HW122586   3.352   3.928   3.618 -0.0591  0.6788  0.0286
 3650SOL    HW222587   3.283   4.011   3.719 -0.1493  0.4680 -1.0663
 3651SOL     OW22588   3.919   2.319   5.014 -0.1855  0.4839 -0.4641
 3651SOL    HW122589   4.003   2.285   4.983  0.0265  0.9657 -0.4224
 3651SOL    HW222590   3.876   2.257   5.072  0.1221  1.3988  0.7478
 3652SOL     OW22591   2.870   3.560  16.205 -0.4253  0.6655 -0.1263
 3652SOL    HW122592   2.786   3.520  16.227  1.7380 -4.0370 -0.3241
 3652SOL    HW222593   2.887   3.510  16.125 -0.8114  1.2206 -0.5592
 3653SOL     OW22594   3.854   3.312   9.108 -0.8791  0.3856  0.0982
 3653SOL    HW122595   3.803   3.251   9.161  1.9859 -2.6849 -0.7172
 3653SOL    HW222596   3.795   3.385   9.127  0.1764  1.5994 -1.3252
 3654SOL     OW22597   4.103   3.994  14.697 -0.3877  0.1570 -0.0231
 3654SOL    HW122598   4.143   4.009  14.612 -2.5135 -1.9849 -1.4008
 3654SOL    HW222599   4.169   4.036  14.752  0.2643 -1.3105  0.3063
 3655SOL     OW22600   1.731   0.941   7.475  0.5048 -0.5178 -0.2931
 3655SOL    HW122601   1.779   0.875   7.524  0.6849  0.1887  0.4845
 3655SOL    HW222602   1.738   0.897   7.390 -1.5421  0.5189 -1.0070
 3656SOL     OW22603   4.187   3.634   5.342  0.3151 -0.3543  0.1212
 3656SOL    HW122604   4.194   3.654   5.248  1.3299  2.1677  0.7396
 3656SOL    HW222605   4.237   3.553   5.352  0.6622  0.2568  3.1120
 3657SOL     OW22606   3.463   1.961   3.528  0.0310 -0.4799  0.6688
 3657SOL    HW122607   3.436   2.022   3.597  0.5329 -0.7404  1.1006
 3657SOL    HW222608   3.541   2.001   3.490 -0.0624  1.8403  2.8360
 3658SOL     OW22609   3.693   4.545  11.630 -1.1327  0.2669 -1.0367
 3658SOL    HW122610   3.604   4.516  11.648 -1.2673  1.7705  0.7676
 3658SOL    HW222611   3.675   4.607  11.560 -1.5165  0.3165 -0.8932
 3659SOL     OW22612   4.251   0.883   1.453 -0.0463 -0.5091  0.3805
 3659SOL    HW122613   4.197   0.952   1.415 -0.6012  0.1574  2.3604
 3659SOL    HW222614   4.292   0.848   1.374 -1.9595  0.1195 -0.8758
 3660SOL     OW22615   1.033   4.141   7.289  0.1896  0.3231 -0.1680
 3660SOL    HW122616   0.989   4.198   7.352 -2.8504 -0.6600 -1.3889
 3660SOL    HW222617   1.120   4.162   7.322  0.0120  0.2744  0.3339
 3661SOL     OW22618   0.291   1.813   8.354 -0.3662 -0.2236  0.8163
 3661SOL    HW122619   0.195   1.816   8.353 -0.4047 -1.2698  0.7263
 3661SOL    HW222620   0.314   1.800   8.263  0.2309 -0.8952  1.0646
 3662SOL     OW22621   0.385   2.756   4.747 -0.2335 -0.3118 -0.1718
 3662SOL    HW122622   0.355   2.705   4.672  0.1123 -0.7995  0.0177
 3662SOL    HW222623   0.454   2.813   4.713 -1.2899  0.3865 -1.1152
 3663SOL     OW22624   1.473   1.022   7.959  0.0752  0.1454 -0.0748
 3663SOL    HW122625   1.472   0.942   7.907 -0.4764 -0.9879  1.6763
 3663SOL    HW222626   1.555   1.015   8.008 -0.6540  0.5470  1.2016
 3664SOL     OW22627   1.607   0.879   0.720 -0.0691 -0.1221  0.2540
 3664SOL    HW122628   1.635   0.798   0.676  0.9572  0.9215 -1.0104
 3664SOL    HW222629   1.690   0.908   0.757 -0.2631  2.0484 -1.0692
 3665SOL     OW22630   1.539   0.832   6.629 -0.7586 -0.2469 -0.1752
 3665SOL    HW122631   1.614   0.808   6.683 -0.1154  1.0532 -0.4964
 3665SOL    HW222632   1.517   0.748   6.588 -0.9055 -0.3865  0.1927
 3666SOL     OW22633   1.488   3.580   3.252 -0.7033  0.3278 -0.2650
 3666SOL    HW122634   1.489   3.627   3.335 -2.5436  0.5843 -0.3816
 3666SOL    HW222635   1.569   3.531   3.259 -1.4202 -0.9142 -0.6640
 3667SOL     OW22636   1.629   1.570   2.671 -0.1848  0.3455 -0.7388
 3667SOL    HW122637   1.539   1.547   2.694 -0.0455  0.3674 -0.1653
 3667SOL    HW222638   1.663   1.605   2.753  1.2832  1.8457 -1.9670
 3668SOL     OW22639   1.747   1.611   4.129 -0.0868 -0.3831 -0.0123
 3668SOL    HW122640   1.727   1.589   4.038  1.4383 -1.6768 -0.0398
 3668SOL    HW222641   1.692   1.549   4.177 -0.1289 -0.3319  0.0052
 3669SOL     OW22642   2.007   3.949   5.796 -0.4391 -0.7204 -0.2105
 3669SOL    HW122643   1.997   3.984   5.885  0.2172 -1.3417  0.1144
 3669SOL    HW222644   1.949   3.999   5.740 -2.7226 -0.3166  2.5009
 3670SOL     OW22645   1.865   2.720   8.810  0.4290 -0.1131 -0.7844
 3670SOL    HW122646   1.770   2.709   8.811  0.4946 -0.6640 -0.9339
 3670SOL    HW222647   1.880   2.792   8.872 -1.9510 -0.9128  0.7108
 3671SOL     OW22648   3.181   1.747   6.121 -0.5663 -0.3333  0.1468
 3671SOL    HW122649   3.095   1.785   6.105  0.5793  1.2930 -2.2438
 3671SOL    HW222650   3.197   1.723   6.029  1.7966  0.5153  0.3362
 3672SOL     OW22651   4.375   3.111   2.922 -0.6656 -0.1992 -0.3256
 3672SOL    HW122652   4.364   3.083   3.012 -0.7821  0.9530  0.0115
 3672SOL    HW222653   4.455   3.065   2.896  0.4837  0.5161  1.9412
 3673SOL     OW22654   2.418   1.925   7.135 -0.0433  0.7266 -0.6136
 3673SOL    HW122655   2.354   1.979   7.182  1.2819  0.2187  1.7961
 3673SOL    HW222656   2.358   1.852   7.121  1.3368 -0.4685 -0.2323
 3674SOL     OW22657   3.521   1.884   6.085  0.3582 -0.0066 -0.1791
 3674SOL    HW122658   3.588   1.835   6.132 -0.0457  0.7356  1.1952
 3674SOL    HW222659   3.442   1.841   6.119 -0.2250  0.7492 -0.5700
 3675SOL     OW22660   4.078   2.293   3.785 -0.1006 -0.1016  0.1444
 3675SOL    HW122661   4.027   2.276   3.706 -2.2937  0.7699  1.3646
 3675SOL    HW222662   4.063   2.211   3.832 -1.6445 -0.1424 -0.4184
 3676SOL     OW22663   4.459   3.747  10.248 -0.0842  0.1007 -0.6316
 3676SOL    HW122664   4.520   3.758  10.175 -1.2192 -0.5828 -1.6857
 3676SOL    HW222665   4.419   3.833  10.251  2.1633  1.0902  0.7056
 3677SOL     OW22666   2.082   0.911   7.710  0.0962  0.0159  0.4351
 3677SOL    HW122667   2.133   0.950   7.640 -0.3210  0.1673  0.2190
 3677SOL    HW222668   2.140   0.926   7.785  1.4960 -1.0529 -0.4289
 3678SOL     OW22669   0.940   1.041   2.197  0.3175 -0.3579  0.0473
 3678SOL    HW122670   0.857   0.994   2.191 -0.1299  0.5866 -1.0976
 3678SOL    HW222671   1.000   0.987   2.146  0.1137  0.3847 -0.9903
 3679SOL     OW22672   4.383   2.421   9.275 -0.6689  0.4342 -0.4558
 3679SOL    HW122673   4.288   2.415   9.279 -0.5170  0.6882  3.2573
 3679SOL    HW222674   4.393   2.412   9.180  1.0727 -0.3848 -0.1881
 3680SOL     OW22675   4.080   2.407   9.238  0.0184  0.4236  0.4868
 3680SOL    HW122676   4.007   2.400   9.177  0.4307 -0.6496  0.1203
 3680SOL    HW222677   4.088   2.501   9.257  1.3237  0.4666 -0.2797
 3681SOL     OW22678   3.814   3.067   3.481 -0.1073 -0.2719  0.0790
 3681SOL    HW122679   3.889   3.050   3.538  0.7912 -0.8133 -1.2718
 3681SOL    HW222680   3.769   3.132   3.535 -1.0280 -0.4689 -0.4452
 3682SOL     OW22681   1.678   2.157   9.880  0.1282 -0.5204 -0.3776
 3682SOL    HW122682   1.676   2.195   9.792 -0.0896  0.5516  0.0847
 3682SOL    HW222683   1.768   2.131   9.902  0.5010  1.0167 -0.0356
 3683SOL     OW22684   4.259   2.569  11.445 -0.1053 -0.3150 -0.4740
 3683SOL    HW122685   4.322   2.587  11.376  1.3340  0.8195  1.1214
 3683SOL    HW222686   4.236   2.658  11.470 -0.2782 -0.5761  0.3048
 3684SOL     OW22687   3.957   0.568   1.292  0.0668  0.0903  0.3408
 3684SOL    HW122688   3.991   0.532   1.210 -2.0115  1.6550 -1.2192
 3684SOL    HW222689   3.905   0.641   1.259  0.7523  1.0830  1.4219
 3685SOL     OW22690   3.594   2.724   4.494  0.0013 -0.0423 -0.2043
 3685SOL    HW122691   3.632   2.667   4.561  0.4585 -0.4940 -0.8513
 3685SOL    HW222692   3.616   2.683   4.410 -0.0134 -0.8318  0.1807
 3686SOL     OW22693   2.129   0.510   2.634 -0.0161 -0.5854  0.4999
 3686SOL    HW122694   2.207   0.531   2.584 -1.4993  1.5411 -0.9345
 3686SOL    HW222695   2.089   0.595   2.654  2.4374  0.3573  1.3747
 3687SOL     OW22696   4.633   2.618  11.437  0.2711  0.3794 -0.8889
 3687SOL    HW122697   4.604   2.661  11.357 -1.4427  1.0239  0.0653
 3687SOL    HW222698   4.669   2.697  11.477 -0.1520  0.6013 -0.9390
 3688SOL     OW22699   4.423   0.467   3.758 -0.5092 -0.2711  0.2885
 3688SOL    HW122700   4.424   0.404   3.829 -0.9013 -1.5341 -0.8390
 3688SOL    HW222701   4.362   0.425   3.697  2.7022 -1.9794 -1.7729
 3689SOL     OW22702   2.089   1.896  13.306 -0.5936  0.1310  0.0440
 3689SOL    HW122703   2.146   1.866  13.376 -0.9520  0.9005  0.6596
 3689SOL    HW222704   2.018   1.833  13.320 -0.0951 -0.5655 -0.5362
 3690SOL     OW22705   1.662   3.776   7.424  0.5690 -0.7663  0.0272
 3690SOL    HW122706   1.707   3.719   7.362 -3.4178  0.0286 -3.6628
 3690SOL    HW222707   1.719   3.770   7.500  0.3835 -2.4305  0.0258
 3691SOL     OW22708   1.292   0.755   3.918  0.3666  0.6501 -0.2938
 3691SOL    HW122709   1.252   0.808   3.849  0.8600 -1.4390 -2.1401
 3691SOL    HW222710   1.372   0.800   3.944  1.4136 -0.8854 -0.8912
 3692SOL     OW22711   0.379   0.616   3.484  0.0326 -0.9407 -0.3765
 3692SOL    HW122712   0.435   0.578   3.551 -1.5706 -1.4163  0.6858
 3692SOL    HW222713   0.381   0.547   3.418 -0.2356 -1.1046 -0.2150
 3693SOL     OW22714   0.827   4.143   6.983 -0.0156 -0.4178 -0.1264
 3693SOL    HW122715   0.806   4.053   6.956  0.6707 -0.5396 -0.2592
 3693SOL    HW222716   0.742   4.183   6.967 -1.0309 -2.4367  0.1176
 3694SOL     OW22717   1.840   4.272   4.820 -0.9627  0.0516  0.1799
 3694SOL    HW122718   1.901   4.231   4.882 -2.5053  1.5322  2.6895
 3694SOL    HW222719   1.778   4.200   4.810  0.2440 -0.6525 -2.3864
 3695SOL     OW22720   3.170   1.484   8.758 -0.2749 -0.2004  0.1665
 3695SOL    HW122721   3.221   1.404   8.768  1.3173  0.8474  0.3236
 3695SOL    HW222722   3.108   1.455   8.691 -1.4911  1.3206  0.6387
 3696SOL     OW22723   2.854   4.341  12.821  0.2209  0.5082  0.8404
 3696SOL    HW122724   2.891   4.322  12.907  2.2181 -0.0817 -0.1404
 3696SOL    HW222725   2.908   4.285  12.767  0.3890  1.3784  0.1085
 3697SOL     OW22726   1.150   2.094  14.896 -0.3461 -0.1247  0.3750
 3697SOL    HW122727   1.116   2.181  14.875  0.1154  0.0232  0.2472
 3697SOL    HW222728   1.079   2.033  14.875  0.0260 -0.0423 -1.1396
 3698SOL     OW22729   1.786   4.440   9.772  0.4186 -0.2043  0.5847
 3698SOL    HW122730   1.758   4.522   9.815  1.8546 -0.0440  1.2398
 3698SOL    HW222731   1.877   4.467   9.757  0.6404 -1.9353 -1.1338
 3699SOL     OW22732   2.065   4.528   9.755  0.1633 -0.5223 -0.6670
 3699SOL    HW122733   2.122   4.528   9.831 -1.6883 -2.2896  0.7136
 3699SOL    HW222734   2.127   4.491   9.692  0.3747  0.7846 -1.2440
 3700SOL     OW22735   3.251   2.800   9.171 -0.4397  0.1401 -0.1887
 3700SOL    HW122736   3.344   2.807   9.193 -1.0893  1.3197  2.1591
 3700SOL    HW222737   3.204   2.859   9.230  0.2216  1.6119 -1.1529
 3701SOL     OW22738   2.803   0.476  16.735  0.3354 -0.7687 -0.5989
 3701SOL    HW122739   2.858   0.400  16.755  1.5056  0.0962 -0.5010
 3701SOL    HW222740   2.724   0.447  16.690  0.5637 -0.5291 -1.1587
 3702SOL     OW22741   3.518   3.130  14.261  0.0558  0.4411  0.3040
 3702SOL    HW122742   3.574   3.129  14.183  0.4793  0.4567  0.6076
 3702SOL    HW222743   3.431   3.123  14.222 -0.8913 -1.0877  2.6871
 3703SOL     OW22744   3.299   2.024   1.490  0.5970 -0.4765  0.0234
 3703SOL    HW122745   3.267   2.109   1.460 -0.6955 -1.7509 -2.2240
 3703SOL    HW222746   3.392   2.020   1.468  0.2072  0.5342 -1.7558
 3704SOL     OW22747   2.892   0.641   7.859  0.1274  1.0528 -0.2545
 3704SOL    HW122748   2.858   0.669   7.774  2.1524  1.6660 -0.8531
 3704SOL    HW222749   2.813   0.655   7.911 -0.2718  0.1159 -0.6130
 3705SOL     OW22750   3.003   1.752  12.066 -0.0820  0.3522  0.4951
 3705SOL    HW122751   2.928   1.756  12.007  1.2618  0.6125 -1.2055
 3705SOL    HW222752   3.051   1.822  12.020 -1.1911  0.0096 -1.1606
 3706SOL     OW22753   2.696   4.267   3.643 -0.6056  0.2811  0.2629
 3706SOL    HW122754   2.734   4.321   3.713 -0.3526 -0.9497  1.0651
 3706SOL    HW222755   2.605   4.284   3.667 -0.8063 -1.4591  0.6881
 3707SOL     OW22756   4.301   3.160   6.873 -0.4405  0.3644  0.0394
 3707SOL    HW122757   4.389   3.130   6.852 -0.2636  0.6548  0.3672
 3707SOL    HW222758   4.268   3.170   6.784  1.0178  0.3779 -0.4995
 3708SOL     OW22759   3.669   3.193   3.968  0.4131  0.1054 -0.3907
 3708SOL    HW122760   3.650   3.283   3.994  2.5780  0.8395 -1.3818
 3708SOL    HW222761   3.745   3.178   4.023  1.1116  0.1770 -1.3352
 3709SOL     OW22762   2.204   1.837   6.236  0.2333  0.4740 -0.1988
 3709SOL    HW122763   2.243   1.813   6.152  2.7652  2.8233  0.3178
 3709SOL    HW222764   2.112   1.814   6.219  0.3246 -0.0781  0.0619
 3710SOL     OW22765   4.638   0.396  17.214 -0.3254  0.6454  0.0587
 3710SOL    HW122766   4.561   0.388  17.157  0.3630  1.8068 -1.0240
 3710SOL    HW222767   4.680   0.474  17.178 -0.1406  0.7750  0.5550
 3711SOL     OW22768   2.779   0.099   7.093  0.6490 -0.4009  0.3903
 3711SOL    HW122769   2.728   0.061   7.164 -0.3742  1.1264  0.4776
 3711SOL    HW222770   2.720   0.165   7.058 -1.0198 -1.5706  1.0140
 3712SOL     OW22771   3.310   0.146   8.161 -0.0657 -0.2847 -0.0151
 3712SOL    HW122772   3.310   0.241   8.173  3.3395 -0.2949  0.1047
 3712SOL    HW222773   3.221   0.114   8.151  0.0815 -0.5701 -0.4195
 3713SOL     OW22774   0.180   0.149   4.890 -0.5685  0.2007 -0.6189
 3713SOL    HW122775   0.088   0.154   4.862 -0.4608 -0.2480 -1.0555
 3713SOL    HW222776   0.232   0.159   4.810  1.4187 -1.6271  0.4675
 3714SOL     OW22777   1.763   1.228   5.590  0.0828 -0.5505  0.3317
 3714SOL    HW122778   1.768   1.160   5.523  1.9943 -1.1060  1.0517
 3714SOL    HW222779   1.719   1.173   5.656 -2.4390 -0.9133 -1.6385
 3715SOL     OW22780   2.509   3.206   8.635  0.3409  0.0764 -0.2038
 3715SOL    HW122781   2.492   3.118   8.668  3.3740 -1.1026 -1.8605
 3715SOL    HW222782   2.557   3.239   8.710  0.7898 -1.8215  0.3461
 3716SOL     OW22783   3.458   4.601   6.660 -0.5566  0.2659 -0.3676
 3716SOL    HW122784   3.384   4.661   6.652  0.4054  1.7079  1.5285
 3716SOL    HW222785   3.475   4.594   6.754  2.2628 -5.4711 -1.3099
 3717SOL     OW22786   4.496   4.346   8.699  0.4746  0.2636 -0.3978
 3717SOL    HW122787   4.568   4.367   8.639 -0.5489 -0.2864 -1.7929
 3717SOL    HW222788   4.540   4.366   8.782 -0.2418 -0.6489  0.1933
 3718SOL     OW22789   4.568   4.661   1.486 -0.3530  0.5332  0.1920
 3718SOL    HW122790   4.610   4.687   1.568 -0.8560  0.6062  0.4292
 3718SOL    HW222791   4.555   0.006   1.442  1.3732 -0.9037 -3.0468
 3719SOL     OW22792   1.074   3.923   1.632 -0.0025  0.2389  0.2743
 3719SOL    HW122793   1.064   3.976   1.711  0.4256 -1.5478  1.5009
 3719SOL    HW222794   1.016   3.974   1.575  1.4244  0.8620 -0.6154
 3720SOL     OW22795   2.393   0.807   3.774 -0.4703 -0.4927  0.1228
 3720SOL    HW122796   2.470   0.773   3.821  0.5550  2.0597  0.2997
 3720SOL    HW222797   2.415   0.899   3.762  0.4114 -0.5302  1.3746
 3721SOL     OW22798   4.376   0.121   9.027  0.3219 -0.1899 -0.4283
 3721SOL    HW122799   4.407   0.043   9.074  0.4888 -0.4035 -0.8953
 3721SOL    HW222800   4.314   0.160   9.089  0.5568 -0.9331  0.2804
 3722SOL     OW22801   2.795   0.631   9.502 -0.1593  0.1505 -0.0548
 3722SOL    HW122802   2.803   0.725   9.520  0.6106  0.5805 -2.7338
 3722SOL    HW222803   2.814   0.599   9.590 -1.0201  0.4472  0.2414
 3723SOL     OW22804   0.571   0.260  10.004  0.0544  0.6018 -0.5844
 3723SOL    HW122805   0.532   0.179   9.970 -1.0902  0.3158  1.4094
 3723SOL    HW222806   0.531   0.321   9.940 -2.3519 -0.5852 -0.2238
 3724SOL     OW22807   1.677   3.516   3.730  0.1192  0.4696 -0.4052
 3724SOL    HW122808   1.759   3.566   3.736  0.6764 -0.2623 -1.8216
 3724SOL    HW222809   1.693   3.469   3.648 -0.0394 -0.4376  0.0837
 3725SOL     OW22810   3.077   0.367   7.987  0.1477 -0.5310  0.1650
 3725SOL    HW122811   3.058   0.382   8.080  3.0655  2.9176  0.2249
 3725SOL    HW222812   3.004   0.407   7.940  0.9561 -0.1871 -0.7843
 3726SOL     OW22813   0.356   3.219  10.861  0.2226 -0.6226  0.3147
 3726SOL    HW122814   0.328   3.248  10.948 -1.1471  2.1067 -1.0361
 3726SOL    HW222815   0.274   3.223  10.811  1.5305 -1.0535 -1.8945
 3727SOL     OW22816   0.759   4.171   5.158  0.3817 -0.5151  0.5040
 3727SOL    HW122817   0.758   4.265   5.141 -0.0937 -0.8255 -1.1585
 3727SOL    HW222818   0.814   4.173   5.236 -2.1001  0.6914  2.2003
 3728SOL     OW22819   4.262   3.578   7.854  0.0174 -0.0433 -0.4208
 3728SOL    HW122820   4.299   3.664   7.874  0.1323 -0.1654 -0.1056
 3728SOL    HW222821   4.199   3.607   7.787  0.5594  1.8632 -0.0931
 3729SOL     OW22822   3.422   1.912   4.330 -0.3697 -0.3770 -0.3482
 3729SOL    HW122823   3.333   1.946   4.321 -0.9843 -2.2004 -1.3176
 3729SOL    HW222824   3.409   1.825   4.291 -0.6715 -0.0402 -0.9883
 3730SOL     OW22825   4.094   2.003   7.915  0.4618  0.1782  0.0591
 3730SOL    HW122826   4.104   1.909   7.901  0.8515  0.2462 -0.1350
 3730SOL    HW222827   4.183   2.033   7.933 -0.8027  3.2118  1.2729
 3731SOL     OW22828   0.414   1.379   3.776 -0.4310  0.4369 -0.4384
 3731SOL    HW122829   0.424   1.362   3.870 -0.5926 -0.0084 -0.5025
 3731SOL    HW222830   0.506   1.388   3.752  0.5623 -2.5700  2.1077
 3732SOL     OW22831   0.468   0.652   5.423 -0.2147  0.4165 -0.0323
 3732SOL    HW122832   0.430   0.734   5.453 -0.6182  0.5379 -0.8714
 3732SOL    HW222833   0.543   0.644   5.482 -1.2182 -1.0775  1.0347
 3733SOL     OW22834   3.931   3.290   4.004  0.1515 -0.0959  0.6092
 3733SOL    HW122835   3.951   3.304   4.097  0.1310 -1.1407  0.7718
 3733SOL    HW222836   3.919   3.377   3.964 -0.8121 -0.6587 -0.3153
 3734SOL     OW22837   4.542   0.376   4.482 -0.2999 -0.4999 -0.4182
 3734SOL    HW122838   4.548   0.426   4.563  0.3416 -1.7953  0.3344
 3734SOL    HW222839   4.465   0.405   4.432 -0.4751 -1.6752 -0.8283
 3735SOL     OW22840   3.361   0.461   7.198  0.2952 -0.4285 -0.2785
 3735SOL    HW122841   3.320   0.390   7.247 -0.0728 -0.4018 -0.5481
 3735SOL    HW222842   3.424   0.494   7.262 -0.7712 -1.0203  1.0663
 3736SOL     OW22843   1.484   4.271   1.405  0.4296 -0.5907 -0.0738
 3736SOL    HW122844   1.547   4.216   1.452  2.3102  0.4128 -1.4213
 3736SOL    HW222845   1.409   4.212   1.402 -1.9331  2.4312  0.2809
 3737SOL     OW22846   2.593   3.194   4.035  0.3450  0.4435  0.1386
 3737SOL    HW122847   2.591   3.248   3.956  0.2493 -1.3850 -1.1042
 3737SOL    HW222848   2.499   3.176   4.042  0.8763 -1.7513  1.6705
 3738SOL     OW22849   3.558   2.616   1.655 -0.1176  0.1243  0.0360
 3738SOL    HW122850   3.532   2.554   1.723  0.3221 -0.7123 -0.5675
 3738SOL    HW222851   3.529   2.694   1.703  1.7568  0.7347  0.1933
 3739SOL     OW22852   2.915   4.128   5.747  0.2087  0.7106  1.1012
 3739SOL    HW122853   2.877   4.212   5.773  1.9710  1.7264  0.3653
 3739SOL    HW222854   2.961   4.153   5.667 -0.3725  0.4935  0.7006
 3740SOL     OW22855   3.765   1.948   9.196  0.3363  0.0293  0.0501
 3740SOL    HW122856   3.783   2.000   9.117  2.9832  0.5584  0.9862
 3740SOL    HW222857   3.804   1.998   9.268 -0.8834  0.1918  0.5836
 3741SOL     OW22858   1.238   4.222   3.788 -0.2546 -0.1288 -0.3124
 3741SOL    HW122859   1.186   4.302   3.774  1.0294  0.6713 -0.5139
 3741SOL    HW222860   1.168   4.157   3.779 -0.2340 -0.1571 -0.2685
 3742SOL     OW22861   3.544   2.343   7.121  0.0443  0.0770  0.7032
 3742SOL    HW122862   3.620   2.322   7.175 -1.3929 -1.5743  2.0617
 3742SOL    HW222863   3.569   2.430   7.089  1.6585 -1.2047 -1.4905
 3743SOL     OW22864   2.778   1.658   6.221 -0.5633  0.2203 -0.2361
 3743SOL    HW122865   2.798   1.640   6.129  0.0537 -2.4303  0.4181
 3743SOL    HW222866   2.826   1.736   6.248  0.0969 -0.3549  0.2615
 3744SOL     OW22867   2.260   3.107   9.797  0.6569  0.7798 -0.2304
 3744SOL    HW122868   2.274   3.075   9.708  2.5315  0.9488  0.0001
 3744SOL    HW222869   2.170   3.078   9.811  0.8064  0.3955 -0.0463
 3745SOL     OW22870   1.894   3.721   1.848  0.1188 -0.2913  0.0648
 3745SOL    HW122871   1.958   3.702   1.917 -0.1196 -0.6337  0.1910
 3745SOL    HW222872   1.823   3.749   1.906  1.0309 -0.5802  1.3321
 3746SOL     OW22873   0.978   2.841  13.637  0.0427 -0.4342  0.2019
 3746SOL    HW122874   0.933   2.919  13.669 -1.7079 -1.8324  1.1701
 3746SOL    HW222875   0.979   2.789  13.718 -0.9289 -1.3630 -0.3803
 3747SOL     OW22876   4.006   0.175   8.757 -0.0391  0.1550  0.3134
 3747SOL    HW122877   4.026   0.085   8.781  1.2120  0.0839 -1.0547
 3747SOL    HW222878   3.914   0.182   8.786  0.1301  1.2251  0.6071
 3748SOL     OW22879   3.955   4.644   4.512  0.1016  0.0579  0.0144
 3748SOL    HW122880   4.040   4.680   4.537 -0.1144 -0.9194  2.2452
 3748SOL    HW222881   3.943   4.595   4.594  1.1493  1.3150  0.9350
 3749SOL     OW22882   3.352   4.104   3.105  0.2209 -0.0319 -0.1042
 3749SOL    HW122883   3.390   4.064   3.183  0.3905 -0.1234 -0.2338
 3749SOL    HW222884   3.266   4.117   3.146  0.8752 -0.2711  1.3401
 3750SOL     OW22885   0.834   3.771  10.788  0.4486  0.3971  0.4783
 3750SOL    HW122886   0.807   3.687  10.826  0.4296  2.2348  4.5828
 3750SOL    HW222887   0.927   3.753  10.777  0.8263  1.0710  2.5430
 3751SOL     OW22888   3.838   3.909   4.705  0.0849 -0.1013 -0.3191
 3751SOL    HW122889   3.880   3.840   4.652 -0.4623 -1.8492  1.5537
 3751SOL    HW222890   3.777   3.863   4.762 -2.0562  2.9656 -0.1552
 3752SOL     OW22891   2.932   3.667   9.039  0.3575 -0.0979  0.1120
 3752SOL    HW122892   2.931   3.663   9.135  1.2135 -1.0180  0.0723
 3752SOL    HW222893   3.002   3.731   9.026 -1.0219  0.4943 -4.3307
 3753SOL     OW22894   2.442   2.776   3.628  0.3743 -0.7566 -0.2094
 3753SOL    HW122895   2.416   2.710   3.563 -0.9386 -2.7377  2.3363
 3753SOL    HW222896   2.533   2.791   3.605  0.3670  0.7624  0.7223
 3754SOL     OW22897   0.390   2.853   1.851  0.0023 -0.4834 -0.0242
 3754SOL    HW122898   0.437   2.789   1.905  0.0200 -1.5569 -1.3111
 3754SOL    HW222899   0.392   2.815   1.763 -2.0530  0.7920 -0.6036
 3755SOL     OW22900   1.310   2.993   9.710 -0.0922  0.2885 -0.0685
 3755SOL    HW122901   1.371   2.918   9.711 -0.2520  0.1414 -1.0041
 3755SOL    HW222902   1.367   3.047   9.765  0.4514  0.3616 -0.7028
 3756SOL     OW22903   2.056   2.220   6.702 -0.6647 -0.0365  0.8667
 3756SOL    HW122904   2.149   2.233   6.687 -0.2101 -2.1994  1.7631
 3756SOL    HW222905   2.068   2.158   6.774 -0.6724  0.6880  1.4889
 3757SOL     OW22906   4.611   0.897   4.056 -0.2746  0.7174  0.4286
 3757SOL    HW122907   4.569   0.856   3.981  0.5136 -0.3160  0.5576
 3757SOL    HW222908   4.673   0.828   4.077 -0.8473  0.3979  1.0757
 3758SOL     OW22909   2.068   0.948   5.319  0.2096  0.4558  0.3922
 3758SOL    HW122910   2.134   0.909   5.262  0.2216  0.6804  0.2538
 3758SOL    HW222911   2.059   1.022   5.260 -0.6366  1.0051  1.2292
 3759SOL     OW22912   4.550   3.571  14.162 -0.1672 -0.1132 -0.5844
 3759SOL    HW122913   4.548   3.491  14.111 -0.5750  0.0115 -0.7589
 3759SOL    HW222914   4.517   3.541  14.247  1.0717  1.9716  0.6481
 3760SOL     OW22915   3.581   4.298   8.266 -0.0579  0.8960  0.7038
 3760SOL    HW122916   3.626   4.335   8.342  1.3336 -0.2893  0.4428
 3760SOL    HW222917   3.531   4.376   8.239 -1.2650  0.3554  1.3492
 3761SOL     OW22918   2.509   0.853  15.484 -0.1401  0.5927  0.3667
 3761SOL    HW122919   2.563   0.931  15.470 -0.0755  0.7709  1.6242
 3761SOL    HW222920   2.496   0.855  15.579 -0.6610  0.9281  0.2867
 3762SOL     OW22921   3.186   3.764  16.931  0.4924 -0.5699 -0.6797
 3762SOL    HW122922   3.119   3.708  16.970 -0.4008  2.3072  1.9255
 3762SOL    HW222923   3.261   3.740  16.985  0.9206 -0.2638 -1.1351
 3763SOL     OW22924   0.254   2.541  13.277 -0.2519 -0.2410  0.3868
 3763SOL    HW122925   0.310   2.505  13.345 -0.3989 -1.2535 -0.0367
 3763SOL    HW222926   0.185   2.475  13.267 -0.2466  0.0456 -1.5032
 3764SOL     OW22927   3.462   0.957   9.787  0.3613 -0.2207  0.0571
 3764SOL    HW122928   3.375   0.926   9.812  2.0929 -2.3427  3.4746
 3764SOL    HW222929   3.431   1.027   9.730  1.9077 -2.2463 -3.2382
 3765SOL     OW22930   1.345   1.268  11.960 -0.3727  0.1107 -0.3408
 3765SOL    HW122931   1.427   1.275  12.009 -0.4018  0.5819 -0.3568
 3765SOL    HW222932   1.371   1.209  11.889 -3.2441 -0.8861 -0.5590
 3766SOL     OW22933   1.367   0.468   2.111 -0.1662 -0.4971  0.4742
 3766SOL    HW122934   1.295   0.432   2.059 -1.4589  0.0758  1.8843
 3766SOL    HW222935   1.444   0.432   2.066 -0.3626 -0.6415  0.2524
 3767SOL     OW22936   3.892   1.413   7.511  0.2271  0.3601  0.1503
 3767SOL    HW122937   3.823   1.450   7.566 -0.7567 -1.7949  0.3401
 3767SOL    HW222938   3.948   1.362   7.570  0.0979 -1.0872 -1.0063
 3768SOL     OW22939   0.102   0.171  16.910 -0.2773  0.1682  0.0506
 3768SOL    HW122940   0.121   0.190  16.818 -1.4078 -1.0353 -0.4344
 3768SOL    HW222941   0.120   0.078  16.901 -2.5297 -0.1889 -0.8258
 3769SOL     OW22942   3.566   3.088   0.301  0.2830  0.3257  0.1306
 3769SOL    HW122943   3.640   3.030   0.320 -0.0198  0.1882  0.9117
 3769SOL    HW222944   3.572   3.160   0.364 -0.8210  1.3736 -0.9768
 3770SOL     OW22945   4.058   0.994   1.918  0.0354  0.4888  0.1777
 3770SOL    HW122946   4.085   0.989   2.010  0.8712  1.4146 -0.0214
 3770SOL    HW222947   4.051   0.900   1.905  0.2170  0.1072  2.7172
 3771SOL     OW22948   3.672   0.416   1.604 -0.4488 -0.0895 -0.0489
 3771SOL    HW122949   3.749   0.473   1.602 -0.9646  0.6994  2.3522
 3771SOL    HW222950   3.607   0.484   1.586 -0.7858 -0.7783 -1.4451
 3772SOL     OW22951   3.555   3.725  14.719 -0.4962 -0.5125 -0.7504
 3772SOL    HW122952   3.578   3.698  14.808 -1.7756 -2.9664 -1.1661
 3772SOL    HW222953   3.586   3.815  14.730  1.4022 -1.1350 -1.0198
 3773SOL     OW22954   0.327   2.333   8.402 -0.3220  0.0906  0.1796
 3773SOL    HW122955   0.253   2.369   8.450 -1.3675 -0.1833 -1.2137
 3773SOL    HW222956   0.334   2.250   8.448 -1.8977 -1.0121 -1.5659
 3774SOL     OW22957   3.373   3.313   8.318  0.2440  0.2812  0.0512
 3774SOL    HW122958   3.454   3.270   8.345 -0.5900 -1.0802  0.3630
 3774SOL    HW222959   3.311   3.240   8.310  0.0405  0.3938  0.6608
 3775SOL     OW22960   3.595   1.380   3.239  0.0546  0.6414 -0.6655
 3775SOL    HW122961   3.541   1.430   3.179  1.5764  1.1061 -1.6511
 3775SOL    HW222962   3.673   1.365   3.186  0.1130 -0.0277 -0.4021
 3776SOL     OW22963   0.181   4.317   5.596  0.3851  0.1194  0.0871
 3776SOL    HW122964   0.203   4.366   5.517  0.7086  0.6817  0.5310
 3776SOL    HW222965   0.087   4.335   5.598  0.2427 -0.2217 -3.6147
 3777SOL     OW22966   3.426   0.833   4.748  0.2881  0.0291  0.2708
 3777SOL    HW122967   3.451   0.918   4.784 -0.4077 -0.1190  1.0936
 3777SOL    HW222968   3.349   0.815   4.802 -0.5360  0.2173 -0.8368
 3778SOL     OW22969   2.124   1.365   7.118 -0.2707 -0.1907  0.5125
 3778SOL    HW122970   2.055   1.301   7.102  0.0326 -0.4055  0.0643
 3778SOL    HW222971   2.170   1.316   7.186  2.4150  1.1281 -0.3453
 3779SOL     OW22972   2.660   0.121   8.874  0.9253 -0.3342  0.0021
 3779SOL    HW122973   2.707   0.170   8.941 -0.2514 -2.9193  2.7220
 3779SOL    HW222974   2.705   0.141   8.792 -1.7361 -1.1028 -1.6547
 3780SOL     OW22975   1.271   2.842   5.871  0.5608  0.0498  0.3477
 3780SOL    HW122976   1.224   2.910   5.824  1.1859 -0.7163 -1.4002
 3780SOL    HW222977   1.261   2.856   5.965  1.4186  1.5002  0.2191
 3781SOL     OW22978   1.647   4.708  17.230 -0.1862 -0.3520  0.8405
 3781SOL    HW122979   1.663   4.615  17.247  1.6574 -0.3547 -0.8760
 3781SOL    HW222980   1.631   0.008  17.316  2.1297 -0.3862  1.2813
 3782SOL     OW22981   3.072   2.967   6.855  0.5945 -0.0245  0.0629
 3782SOL    HW122982   2.991   2.922   6.830 -1.0815  1.1528  3.3341
 3782SOL    HW222983   3.137   2.909   6.815 -0.2644  0.2121 -1.6822
 3783SOL     OW22984   2.130   2.676   5.240 -0.7327  0.1089  0.5572
 3783SOL    HW122985   2.225   2.668   5.252 -0.6816  0.3239  0.2903
 3783SOL    HW222986   2.107   2.657   5.331  0.4627  1.1925  1.0866
 3784SOL     OW22987   2.659   2.618   4.767  0.2277  0.3804  0.4757
 3784SOL    HW122988   2.656   2.698   4.819 -5.4431 -0.3546  1.2741
 3784SOL    HW222989   2.697   2.654   4.686 -0.5309  0.0189 -0.0371
 3785SOL     OW22990   3.452   2.585   4.723 -0.0518 -0.0628 -0.0094
 3785SOL    HW122991   3.508   2.604   4.798  0.3548  1.1518 -0.6247
 3785SOL    HW222992   3.376   2.642   4.737  1.0541  1.5344 -0.4696
 3786SOL     OW22993   2.260   1.731   7.066  0.0203  0.0148  0.1209
 3786SOL    HW122994   2.309   1.653   7.041  0.5003  0.5031 -0.4524
 3786SOL    HW222995   2.193   1.690   7.121 -1.8897  0.5879 -1.7883
 3787SOL     OW22996   3.426   4.091  12.363 -0.0393 -0.0788 -0.2658
 3787SOL    HW122997   3.337   4.084  12.330 -0.3787 -0.7917  0.7779
 3787SOL    HW222998   3.470   4.010  12.336  0.0515 -0.2290  0.3279
 3788SOL     OW22999   0.066   0.112  14.277  0.6750 -0.4498 -0.6321
 3788SOL    HW123000   0.058   0.207  14.282  0.5651 -0.4785 -0.2218
 3788SOL    HW223001   0.115   0.121  14.196  0.6727  0.4386 -0.5367
 3789SOL     OW23002   3.007   4.480   2.768 -0.3657 -0.1577 -0.5030
 3789SOL    HW123003   2.994   4.428   2.847 -0.9578  0.0575 -0.4547
 3789SOL    HW223004   3.092   4.445   2.744  0.3631  2.1863 -1.3365
 3790SOL     OW23005   4.715   1.692   4.258  0.1662 -0.4171 -0.4146
 3790SOL    HW123006   4.626   1.689   4.223  0.4346 -0.7150 -1.0778
 3790SOL    HW223007   4.702   1.696   4.353 -0.1662  0.8106 -0.5053
 3791SOL     OW23008   4.271   2.049   1.262  0.5680  0.2054  0.4556
 3791SOL    HW123009   4.327   2.052   1.184 -0.6769  0.6562 -0.4320
 3791SOL    HW223010   4.269   2.142   1.284 -0.0255  0.7820 -2.0508
 3792SOL     OW23011   0.812   4.675  15.118 -1.1674  0.3787 -0.5731
 3792SOL    HW123012   0.899   4.656  15.084 -1.1576 -0.6684  0.0517
 3792SOL    HW223013   0.824   0.013  15.174  0.8857 -0.5703  0.2679
 3793SOL     OW23014   1.861   2.890   7.614  0.4898 -0.6543  0.3105
 3793SOL    HW123015   1.905   2.943   7.548  1.2993  0.1548  1.4868
 3793SOL    HW223016   1.777   2.877   7.570  0.4653  1.1256 -0.1981
 3794SOL     OW23017   3.526   3.444   3.897  0.4184 -0.2770 -0.0152
 3794SOL    HW123018   3.455   3.394   3.856 -0.4530 -0.6261  1.9334
 3794SOL    HW223019   3.548   3.506   3.828  0.9510 -0.6642 -0.1936
 3795SOL     OW23020   0.276   1.729  11.411  0.4315 -0.1193 -0.3322
 3795SOL    HW123021   0.269   1.672  11.487 -1.5135 -2.1322 -2.0111
 3795SOL    HW223022   0.203   1.789  11.401 -3.0587 -4.1168  1.2877
 3796SOL     OW23023   4.307   1.630   3.160  0.4313  0.1824 -0.0607
 3796SOL    HW123024   4.249   1.554   3.162  0.5828  0.0824  0.6619
 3796SOL    HW223025   4.371   1.609   3.092 -0.9946 -0.8291 -1.0793
 3797SOL     OW23026   0.804   0.163   2.059 -0.1622 -0.0266 -0.1091
 3797SOL    HW123027   0.865   0.219   2.107 -0.8169  0.8024 -0.2596
 3797SOL    HW223028   0.743   0.128   2.124 -0.7708  0.3952 -0.4583
 3798SOL     OW23029   4.148   1.843   2.225 -0.3130  0.3386  0.2824
 3798SOL    HW123030   4.164   1.935   2.206  0.2077  0.3364  0.6947
 3798SOL    HW223031   4.155   1.837   2.321 -0.3401 -0.7953  0.2126
 3799SOL     OW23032   0.555   0.724  13.703 -0.1666  0.4537 -0.0973
 3799SOL    HW123033   0.544   0.674  13.623 -0.0126  1.0792 -0.5069
 3799SOL    HW223034   0.607   0.801  13.680 -2.1560  1.5257 -1.0790
 3800SOL     OW23035   0.824   3.454  16.982 -0.0767 -0.8504 -0.5016
 3800SOL    HW123036   0.884   3.416  16.918  1.5487  0.3476  0.3201
 3800SOL    HW223037   0.846   3.547  16.985  0.9048 -1.1701  2.1133
 3801SOL     OW23038   0.580   2.554  12.034 -0.1480  0.2218  0.4170
 3801SOL    HW123039   0.498   2.581  11.993  2.2502  1.5289 -3.5689
 3801SOL    HW223040   0.580   2.632  12.090 -1.1033  1.8532 -1.8259
 3802SOL     OW23041   4.630   3.003   8.963 -0.2940  0.7675 -0.3947
 3802SOL    HW123042   4.669   3.083   8.997 -0.0098 -0.3145  1.8327
 3802SOL    HW223043   4.597   2.961   9.043  0.0368  2.0133  0.3997
 3803SOL     OW23044   3.105   1.583   8.355 -0.2501  0.0785  0.0401
 3803SOL    HW123045   3.195   1.566   8.325 -0.5059  0.1086 -0.7574
 3803SOL    HW223046   3.100   1.675   8.331  0.8049  0.3927  1.0066
 3804SOL     OW23047   0.506   3.464   3.646 -0.4432  0.2355  0.2505
 3804SOL    HW123048   0.442   3.421   3.702 -0.5153 -0.3957 -0.3028
 3804SOL    HW223049   0.488   3.415   3.566 -0.2386 -1.7645  1.4387
 3805SOL     OW23050   3.365   0.838   2.220  0.3917 -0.0059 -0.3203
 3805SOL    HW123051   3.297   0.905   2.226 -0.6852 -1.4921  3.8353
 3805SOL    HW223052   3.445   0.884   2.191  1.3106 -0.7289  1.0931
 3806SOL     OW23053   0.940   2.151  10.634  0.3496  0.1957 -0.0160
 3806SOL    HW123054   0.902   2.239  10.641 -1.7775 -0.4408 -3.3489
 3806SOL    HW223055   1.034   2.167  10.626  0.6505 -3.1180 -3.3302
 3807SOL     OW23056   4.229   0.182   2.263  0.2754  0.0636  0.1333
 3807SOL    HW123057   4.220   0.274   2.236 -1.6741 -0.9956 -2.7595
 3807SOL    HW223058   4.228   0.143   2.176 -2.5258 -2.1630  1.1760
 3808SOL     OW23059   3.598   2.526   8.850  0.1639 -0.1412 -0.1031
 3808SOL    HW123060   3.635   2.588   8.789 -0.1510 -0.1853 -0.3383
 3808SOL    HW223061   3.529   2.579   8.890 -0.2204 -0.9594  0.3359
 3809SOL     OW23062   3.871   0.127   4.817  0.1756  0.3837  0.7204
 3809SOL    HW123063   3.801   0.184   4.849 -0.0560  1.1227 -1.0757
 3809SOL    HW223064   3.910   0.180   4.747 -2.6011  0.9431 -0.4134
 3810SOL     OW23065   4.012   3.542   5.790 -0.2321  0.3254  0.4997
 3810SOL    HW123066   4.106   3.557   5.782 -0.7565  1.9517 -2.5180
 3810SOL    HW223067   3.985   3.634   5.793  1.9382  0.8883  1.9078
 3811SOL     OW23068   4.298   1.575  16.165 -0.2337 -0.6843  0.0837
 3811SOL    HW123069   4.389   1.583  16.137 -0.9226  2.1440 -1.2946
 3811SOL    HW223070   4.259   1.638  16.104  2.3659  0.3256 -0.5346
 3812SOL     OW23071   3.593   2.448  11.410 -0.6553 -0.1815 -0.1284
 3812SOL    HW123072   3.575   2.528  11.361  3.0707 -0.4117 -1.8720
 3812SOL    HW223073   3.667   2.426  11.353 -1.2343 -0.6743 -0.6949
 3813SOL     OW23074   2.857   3.670   5.999 -0.2081 -0.0641  0.0441
 3813SOL    HW123075   2.946   3.701   6.011  0.3933 -1.2073 -1.5406
 3813SOL    HW223076   2.849   3.616   6.078  2.5254 -2.2478 -1.1952
 3814SOL     OW23077   4.461   3.720   1.929  0.9593 -0.3031 -0.0596
 3814SOL    HW123078   4.487   3.763   2.010  0.7582  2.1499 -1.2929
 3814SOL    HW223079   4.522   3.646   1.919  0.7778 -0.5821  0.9060
 3815SOL     OW23080   0.398   1.131  13.734  0.7073  0.1131 -0.4007
 3815SOL    HW123081   0.491   1.127  13.756  0.7100  0.3496 -0.3691
 3815SOL    HW223082   0.364   1.221  13.741 -3.3087 -1.2206 -3.0205
 3816SOL     OW23083   1.526   1.764   7.700  0.2204 -0.4650  0.1297
 3816SOL    HW123084   1.489   1.681   7.670 -3.3599  1.0269  0.5192
 3816SOL    HW223085   1.472   1.784   7.776  0.8685 -1.5245  0.8625
 3817SOL     OW23086   4.413   4.191   6.580  0.0819 -0.0448  0.1537
 3817SOL    HW123087   4.405   4.212   6.673  0.3912 -0.1207  0.1977
 3817SOL    HW223088   4.490   4.134   6.582 -0.5878 -0.9919 -0.9910
 3818SOL     OW23089   0.915   2.684   0.320  0.2953  0.5255  0.5423
 3818SOL    HW123090   0.931   2.686   0.414  0.0457  3.1001  0.5204
 3818SOL    HW223091   0.920   2.777   0.302  0.7263  0.1320 -1.3872
 3819SOL     OW23092   2.253   0.311  17.123  0.2990 -0.1218 -0.6087
 3819SOL    HW123093   2.235   0.218  17.109  1.1236 -0.2765 -0.6337
 3819SOL    HW223094   2.321   0.316  17.056  0.7140 -3.5737 -0.4423
 3820SOL     OW23095   1.970   4.726   5.300 -0.4203  0.0771 -0.2089
 3820SOL    HW123096   1.972   4.713   5.205  2.4223 -2.0162  0.1138
 3820SOL    HW223097   1.920   4.653   5.338  1.8498  0.3408  3.3130
 3821SOL     OW23098   3.250   3.068   8.310  0.4425  0.1768 -0.4105
 3821SOL    HW123099   3.311   3.045   8.380 -1.2110 -0.6939  0.7452
 3821SOL    HW223100   3.180   3.011   8.341 -0.6306  1.1862 -0.9480
 3822SOL     OW23101   3.202   1.225   2.644  0.0227 -0.2782  0.0199
 3822SOL    HW123102   3.188   1.130   2.646  1.1426 -0.4041  1.5744
 3822SOL    HW223103   3.172   1.243   2.555  0.2382  2.1189  0.4470
 3823SOL     OW23104   1.140   0.953   6.953 -0.0132 -0.1734 -0.5274
 3823SOL    HW123105   1.118   1.044   6.971  0.0078  0.0682 -1.7174
 3823SOL    HW223106   1.232   0.957   6.928  0.8714 -0.3844  2.6879
 3824SOL     OW23107   0.465   4.525   2.304 -0.3826  0.5207 -0.6197
 3824SOL    HW123108   0.520   4.545   2.380 -2.1321 -0.2289  0.8259
 3824SOL    HW223109   0.380   4.566   2.322 -1.0274  0.4744 -3.5538
 3825SOL     OW23110   4.633   0.963   8.859 -0.0388 -0.2608  0.0522
 3825SOL    HW123111   4.538   0.954   8.860 -0.0741  0.1579  1.0667
 3825SOL    HW223112   4.651   0.950   8.952 -0.8224  0.4525  0.3021
 3826SOL     OW23113   4.054   2.839   2.152 -0.3502  0.0900  0.3689
 3826SOL    HW123114   3.984   2.861   2.214 -1.9584 -3.9710 -0.0671
 3826SOL    HW223115   4.089   2.925   2.126 -1.9219 -0.3711 -3.2054
 3827SOL     OW23116   1.594   3.090   2.741  0.3122  0.3826  0.0292
 3827SOL    HW123117   1.624   3.166   2.691  0.3870  0.7169  0.5808
 3827SOL    HW223118   1.510   3.119   2.777 -0.5999 -2.9252  0.5641
 3828SOL     OW23119   3.578   2.418  12.654  0.6171 -0.6758 -0.7077
 3828SOL    HW123120   3.515   2.479  12.692  1.9183 -1.3041  2.4602
 3828SOL    HW223121   3.524   2.374  12.589 -1.0005 -1.0850  0.9077
 3829SOL     OW23122   1.841   2.859  10.003  0.1358  0.3560  0.3788
 3829SOL    HW123123   1.829   2.786   9.942 -0.7831 -1.6350  2.9295
 3829SOL    HW223124   1.900   2.918   9.956  0.5791  0.2779  0.8351
 3830SOL     OW23125   0.442   2.731  13.798 -0.1074  0.2514  0.3261
 3830SOL    HW123126   0.382   2.660  13.775  1.7069 -0.8965 -0.8545
 3830SOL    HW223127   0.388   2.811  13.798  0.8877  0.9211  0.3311
 3831SOL     OW23128   0.736   3.367   9.931  0.4012 -0.4976  0.4219
 3831SOL    HW123129   0.780   3.316   9.863 -0.2609 -2.1245  1.1955
 3831SOL    HW223130   0.763   3.452   9.897 -0.1579 -0.8169 -0.8249
 3832SOL     OW23131   1.477   1.518  13.435  0.2793 -0.3525  0.0076
 3832SOL    HW123132   1.440   1.566  13.509  1.6476 -1.6711  1.5569
 3832SOL    HW223133   1.564   1.555  13.419  1.5229 -3.1887  0.1944
 3833SOL     OW23134   0.057   4.010   3.633  0.1956  0.0238 -0.0939
 3833SOL    HW123135   0.145   3.974   3.620  0.4702 -0.0966  2.0028
 3833SOL    HW223136   0.057   4.062   3.713  2.0558 -1.4654  0.8951
 3834SOL     OW23137   0.990   3.736  16.447  0.3046 -0.1769 -0.0785
 3834SOL    HW123138   1.073   3.704  16.411  0.6724 -1.1573  1.6649
 3834SOL    HW223139   0.973   3.818  16.400  0.0391  0.1505  0.6038
 3835SOL     OW23140   2.028   2.676  14.258  0.7751  0.5705 -0.2421
 3835SOL    HW123141   2.033   2.601  14.199 -1.6108 -0.7112  1.1542
 3835SOL    HW223142   2.093   2.736  14.223  0.4561  0.8052 -0.4341
 3836SOL     OW23143   2.946   2.491   2.226 -0.1956 -0.1348 -0.5873
 3836SOL    HW123144   2.954   2.400   2.197  1.3021  0.4959 -2.0943
 3836SOL    HW223145   2.863   2.488   2.273  0.2327  2.0389  0.2947
 3837SOL     OW23146   0.701   3.101   8.637 -0.0983 -0.2726  0.5271
 3837SOL    HW123147   0.665   3.128   8.722  1.0015 -0.0483  0.9163
 3837SOL    HW223148   0.784   3.147   8.651 -0.1952  0.2710 -0.6028
 3838SOL     OW23149   2.124   3.064   3.757  0.0113  0.6762 -0.5677
 3838SOL    HW123150   2.049   3.104   3.713  0.3394  0.8781 -0.9401
 3838SOL    HW223151   2.087   2.987   3.801 -0.5158  1.1227 -0.2322
 3839SOL     OW23152   2.655   1.232  13.645 -0.1899  0.3759  0.6897
 3839SOL    HW123153   2.716   1.159  13.656 -0.2254 -0.1474 -2.8860
 3839SOL    HW223154   2.714   1.306  13.632  0.2812 -0.1292 -0.0320
 3840SOL     OW23155   2.387   1.313  11.121 -0.4016 -0.2044 -0.4530
 3840SOL    HW123156   2.292   1.316  11.138 -0.4511  0.2263 -0.8242
 3840SOL    HW223157   2.443   1.361  11.182  2.1456 -1.5882 -1.7072
 3841SOL     OW23158   2.985   0.296  11.124 -0.6401  0.1938  0.2011
 3841SOL    HW123159   3.062   0.285  11.069 -0.1398  0.4578  0.8534
 3841SOL    HW223160   3.015   0.241  11.196  0.6606 -0.1912 -0.6458
 3842SOL     OW23161   3.704   1.489   8.217 -0.0284 -0.3195 -0.8763
 3842SOL    HW123162   3.733   1.501   8.308 -0.3371 -1.6063 -0.6190
 3842SOL    HW223163   3.657   1.406   8.224  1.1160 -0.7877  1.2972
 3843SOL     OW23164   0.448   0.172  17.343  0.0260  0.3248 -0.8262
 3843SOL    HW123165   0.498   0.096  17.313 -2.1841 -1.4876  0.0420
 3843SOL    HW223166   0.518   0.224  17.382  2.0297 -2.9074 -0.1492
 3844SOL     OW23167   1.230   2.287   2.587 -0.6373  0.1057  0.2929
 3844SOL    HW123168   1.314   2.259   2.623 -0.1056 -0.2276 -1.2087
 3844SOL    HW223169   1.253   2.323   2.501 -2.4813  1.3042  0.3010
 3845SOL     OW23170   0.186   1.337   1.678  0.1313 -0.7617 -0.0328
 3845SOL    HW123171   0.210   1.305   1.591 -0.6917 -0.9440 -0.1915
 3845SOL    HW223172   0.222   1.426   1.681 -2.9718  0.4121  2.6526
 3846SOL     OW23173   3.621   2.207   3.323  0.0348 -0.0208 -0.1022
 3846SOL    HW123174   3.689   2.165   3.374  1.2297 -0.6658 -2.2531
 3846SOL    HW223175   3.656   2.296   3.317  1.6753 -0.7761 -1.7295
 3847SOL     OW23176   1.526   1.306   2.376  0.2890 -0.3596  0.7377
 3847SOL    HW123177   1.498   1.222   2.340  2.1109 -0.3904 -0.6102
 3847SOL    HW223178   1.439   1.340   2.395  0.8902  0.2898  2.2653
 3848SOL     OW23179   3.608   3.212   2.297 -0.2337  0.1176 -0.2557
 3848SOL    HW123180   3.621   3.119   2.311  0.1543 -0.0840 -1.8902
 3848SOL    HW223181   3.550   3.237   2.369 -1.3982  1.7436 -1.7446
 3849SOL     OW23182   1.806   0.694   8.184  0.2697  0.0594  0.1105
 3849SOL    HW123183   1.719   0.655   8.194  1.1374 -1.8642  0.0941
 3849SOL    HW223184   1.824   0.716   8.276  0.2266 -0.6970  0.3039
 3850SOL     OW23185   3.890   0.338   2.467 -0.2387 -0.1709  1.3887
 3850SOL    HW123186   3.848   0.252   2.479  0.0272 -0.7264 -1.7752
 3850SOL    HW223187   3.812   0.391   2.451  0.2987  0.3289  0.4302
 3851SOL     OW23188   4.736   2.443   5.416  0.3109  0.1131  0.1621
 3851SOL    HW123189   0.075   2.433   5.471  0.5109  2.6258  0.3257
 3851SOL    HW223190   4.682   2.378   5.461  2.3999 -1.2494  0.6658
 3852SOL     OW23191   2.894   4.734   2.869 -0.0764 -0.2104 -0.1409
 3852SOL    HW123192   2.931   4.646   2.873 -0.5634 -0.4122 -0.0930
 3852SOL    HW223193   2.825   4.730   2.935  0.6263  0.5212  0.6411
 3853SOL     OW23194   4.672   2.995  17.632  0.5275 -0.3673  0.5555
 3853SOL    HW123195   0.022   3.027  17.615 -0.3394  1.3542 -0.7630
 3853SOL    HW223196   4.620   3.038  17.564  0.0531  0.2208  1.2953
 3854SOL     OW23197   0.344   3.852   9.881  0.1141  0.6716 -0.3449
 3854SOL    HW123198   0.282   3.875   9.812  0.4346 -0.3908 -0.9980
 3854SOL    HW223199   0.309   3.765   9.900  0.7126  0.7734  1.2583
 3855SOL     OW23200   0.789   0.685   2.635  0.6725  0.2464 -0.2827
 3855SOL    HW123201   0.866   0.662   2.687  1.3393 -0.4126 -1.5436
 3855SOL    HW223202   0.742   0.602   2.633  0.3129  0.4496 -0.3462
 3856SOL     OW23203   4.045   3.802   4.893  0.1969  0.3012 -0.0387
 3856SOL    HW123204   4.076   3.719   4.855  2.1049  0.6951  0.6682
 3856SOL    HW223205   3.952   3.782   4.881  0.4127  0.7091 -2.2374
 3857SOL     OW23206   2.461   2.124   7.480 -0.4906  0.0038 -0.1473
 3857SOL    HW123207   2.424   2.212   7.474  0.2262  0.2454 -1.0957
 3857SOL    HW223208   2.402   2.085   7.414 -1.0642  1.8441 -0.7072
 3858SOL     OW23209   3.681   1.323   2.853  0.8157 -0.2234  0.2125
 3858SOL    HW123210   3.727   1.327   2.769 -1.0833  1.5960 -0.7619
 3858SOL    HW223211   3.594   1.352   2.824  1.2395 -1.7349 -2.5956
 3859SOL     OW23212   3.084   1.970   7.026  0.0478 -0.4218 -0.1663
 3859SOL    HW123213   3.057   1.911   7.096 -0.4205 -1.0708 -0.8861
 3859SOL    HW223214   3.038   1.926   6.954 -0.7479  1.0443 -0.5369
 3860SOL     OW23215   1.450   4.228   6.967  0.0149 -0.6843 -0.0008
 3860SOL    HW123216   1.506   4.238   7.045 -1.0793 -1.1741  0.8472
 3860SOL    HW223217   1.465   4.137   6.942  0.7943 -0.5868  0.0881
 3861SOL     OW23218   0.986   2.140   0.821  0.7146 -0.1047 -0.1970
 3861SOL    HW123219   0.966   2.064   0.874  1.0826  0.4213  0.7013
 3861SOL    HW223220   1.011   2.097   0.739 -0.3740  0.0311 -0.5908
 3862SOL     OW23221   0.852   0.977   4.697 -0.7921  0.2465  0.3901
 3862SOL    HW123222   0.909   0.979   4.621  1.8558 -1.6626  2.3012
 3862SOL    HW223223   0.881   1.059   4.737  0.0082 -0.5298  1.4025
 3863SOL     OW23224   3.555   2.762   3.429 -0.2890 -0.3096  0.3600
 3863SOL    HW123225   3.601   2.827   3.376  1.5589 -0.0008  2.3752
 3863SOL    HW223226   3.492   2.725   3.366 -1.4278  2.2512 -0.0194
 3864SOL     OW23227   1.160   1.707  15.880  0.2131  0.7240  0.5059
 3864SOL    HW123228   1.191   1.785  15.835 -0.3608  2.5443  3.2926
 3864SOL    HW223229   1.205   1.726  15.962  3.0442 -0.4824 -0.7227
 3865SOL     OW23230   2.703   1.106  16.899 -0.7076  0.1527 -0.3694
 3865SOL    HW123231   2.779   1.119  16.843 -0.4953 -4.5505 -1.1699
 3865SOL    HW223232   2.692   1.192  16.940  0.6818  0.5329 -0.8143
 3866SOL     OW23233   3.625   4.317   3.054  0.0654  0.3334 -0.1085
 3866SOL    HW123234   3.581   4.362   3.126 -1.0987 -1.0403  0.0361
 3866SOL    HW223235   3.719   4.332   3.068 -0.1243 -0.1313  1.6162
 3867SOL     OW23236   0.803   2.951   3.885  0.8309  0.2756  0.1846
 3867SOL    HW123237   0.764   2.865   3.868  1.7577 -0.0942 -0.0534
 3867SOL    HW223238   0.883   2.924   3.930  0.8721 -0.0397 -0.0854
 3868SOL     OW23239   2.576   3.530   3.982  0.5485  0.1891 -0.4855
 3868SOL    HW123240   2.493   3.536   3.934 -0.6316 -0.6125  1.4547
 3868SOL    HW223241   2.551   3.508   4.071 -1.2453 -0.4674 -1.1399
 3869SOL     OW23242   0.166   4.106   7.167 -0.6514  0.5177 -0.2349
 3869SOL    HW123243   0.220   4.121   7.245 -0.1464  1.2155 -0.7253
 3869SOL    HW223244   0.149   4.195   7.138 -1.0938  0.8348  0.9872
 3870SOL     OW23245   0.435   2.981   7.919 -0.4859  0.1090  0.6110
 3870SOL    HW123246   0.360   3.039   7.916 -0.4205  0.1200 -0.8411
 3870SOL    HW223247   0.400   2.896   7.947 -1.7950 -0.3428 -2.3531
 3871SOL     OW23248   3.902   1.330   6.280 -0.2044 -0.3666 -0.2339
 3871SOL    HW123249   3.953   1.323   6.199  1.4323  0.3046  0.7388
 3871SOL    HW223250   3.957   1.394   6.326 -0.7375  0.2826 -0.4892
 3872SOL     OW23251   1.672   0.406   6.361 -0.5549 -0.7333  0.2413
 3872SOL    HW123252   1.641   0.352   6.288 -0.7147 -0.8857  0.4232
 3872SOL    HW223253   1.588   0.446   6.383 -0.5361 -1.4072  1.5057
 3873SOL     OW23254   3.413   0.018  11.722  0.0782  0.3153 -0.1766
 3873SOL    HW123255   3.342   0.066  11.765  0.6320  1.0461 -0.0629
 3873SOL    HW223256   3.410   0.056  11.634 -0.3241 -1.8477 -1.0800
 3874SOL     OW23257   1.228   0.172   4.500 -0.1052 -0.3988  0.0672
 3874SOL    HW123258   1.294   0.185   4.432  0.6293  2.0987  1.2312
 3874SOL    HW223259   1.284   0.170   4.578  1.2345  1.5173 -0.8224
 3875SOL     OW23260   2.038   4.358   3.018  0.9060  0.3165 -0.4448
 3875SOL    HW123261   2.063   4.309   3.096 -0.2942 -1.7312 -1.3402
 3875SOL    HW223262   2.111   4.334   2.961 -0.4228 -1.3119 -1.5013
 3876SOL     OW23263   1.447   2.616  10.925  0.2661  0.1972  0.4142
 3876SOL    HW123264   1.542   2.623  10.918  0.2911 -0.6860 -0.2269
 3876SOL    HW223265   1.435   2.680  10.995  1.3034  1.6117 -0.7208
 3877SOL     OW23266   2.560   3.280   3.734  0.1491 -0.4228  0.3026
 3877SOL    HW123267   2.546   3.260   3.642  0.9286  1.2916 -0.1947
 3877SOL    HW223268   2.491   3.226   3.773  1.5770 -0.6310  2.5546
 3878SOL     OW23269   1.892   2.957  13.781  0.8925  0.7925  0.4956
 3878SOL    HW123270   1.858   2.893  13.717  0.6010  0.2211  1.2213
 3878SOL    HW223271   1.980   2.967  13.747 -0.7435 -0.8526 -4.2699
 3879SOL     OW23272   3.584   3.717   7.915  0.2428  0.1749  0.2324
 3879SOL    HW123273   3.580   3.637   7.967 -3.1407 -0.3612 -0.8379
 3879SOL    HW223274   3.576   3.780   7.987 -2.9787  1.9266 -1.6378
 3880SOL     OW23275   3.914   3.732   8.347 -0.1408  0.7701  0.5051
 3880SOL    HW123276   3.940   3.669   8.414  0.2521 -2.0773 -2.2875
 3880SOL    HW223277   3.825   3.706   8.321  0.5273 -0.6773 -0.3454
 3881SOL     OW23278   1.851   3.535  14.873  0.0725 -0.1148  0.1886
 3881SOL    HW123279   1.809   3.609  14.918 -1.2249 -0.8941  0.2704
 3881SOL    HW223280   1.800   3.529  14.793  1.6081 -0.4722 -0.7524
 3882SOL     OW23281   0.828   1.269  12.913  0.0330  0.0538 -0.0919
 3882SOL    HW123282   0.755   1.330  12.908 -0.5043 -0.4333  1.7853
 3882SOL    HW223283   0.894   1.316  12.964  1.2928 -0.1393 -1.5328
 3883SOL     OW23284   3.409   0.917  14.461  0.2078 -0.1911  0.3726
 3883SOL    HW123285   3.326   0.876  14.486  0.2453 -0.0543  0.7238
 3883SOL    HW223286   3.385   0.946  14.373  0.7151 -2.6979 -0.6099
 3884SOL     OW23287   1.976   0.718   9.163 -0.3040  0.2910  0.0390
 3884SOL    HW123288   2.064   0.750   9.143 -0.9274  1.0630 -1.5142
 3884SOL    HW223289   1.924   0.791   9.128  0.1302  0.6021  0.0470
 3885SOL     OW23290   4.057   2.988   4.417  0.5756  0.0627  0.3912
 3885SOL    HW123291   4.140   3.003   4.462  0.0916  0.3263  1.2042
 3885SOL    HW223292   4.021   2.911   4.461  3.5599 -0.7652  1.3632
 3886SOL     OW23293   1.822   2.233  15.510 -0.5512 -0.4211 -0.1073
 3886SOL    HW123294   1.864   2.214  15.426 -0.6272 -0.4464 -0.1394
 3886SOL    HW223295   1.735   2.195  15.507 -0.7712 -0.1696  3.1067
 3887SOL     OW23296   4.120   0.038  15.936 -0.2322 -0.0307  0.1432
 3887SOL    HW123297   4.042   4.727  15.963  0.5937 -1.0287  0.7274
 3887SOL    HW223298   4.109   0.111  15.997  0.1085  1.1227 -1.1832
 3888SOL     OW23299   2.009   0.582   3.394 -0.1231  0.0275 -0.2902
 3888SOL    HW123300   1.974   0.667   3.419 -0.4816  0.4745 -2.3072
 3888SOL    HW223301   2.093   0.602   3.353  0.3472  1.5770  1.4488
 3889SOL     OW23302   0.894   2.681  17.426 -0.1031 -0.7544  0.4179
 3889SOL    HW123303   0.804   2.711  17.441  1.2989  2.9938  1.4246
 3889SOL    HW223304   0.928   2.768  17.403  1.1247 -1.1675  0.6862
 3890SOL     OW23305   2.451   4.029   8.463 -0.0345  0.1733  0.3485
 3890SOL    HW123306   2.412   4.012   8.549 -0.6827  1.3579  0.2945
 3890SOL    HW223307   2.530   4.080   8.483  0.7604 -2.1803  3.2477
 3891SOL     OW23308   1.312   3.996   3.156  0.1405  0.4800 -0.9831
 3891SOL    HW123309   1.361   4.073   3.125  1.1007 -0.3356 -1.4915
 3891SOL    HW223310   1.248   3.979   3.088 -0.3711 -2.8203  0.3521
 3892SOL     OW23311   0.678   0.676   6.757  0.1948 -0.0652  0.4379
 3892SOL    HW123312   0.596   0.696   6.803 -0.6686  0.4215 -1.3168
 3892SOL    HW223313   0.730   0.632   6.824 -1.1540 -1.3735  0.6397
 3893SOL     OW23314   2.655   2.102   9.594  0.0572 -0.4027 -0.4360
 3893SOL    HW123315   2.686   2.170   9.534 -4.0100  1.6702 -0.2119
 3893SOL    HW223316   2.624   2.165   9.660  1.0794  0.1893 -0.5315
 3894SOL     OW23317   2.848   4.619   6.921  0.1600 -0.0418  0.3365
 3894SOL    HW123318   2.926   4.647   6.872 -0.0579  1.1430  0.6608
 3894SOL    HW223319   2.872   4.644   7.010 -0.4899  0.8799  0.2499
 3895SOL     OW23320   1.167   2.363   7.058  0.2506 -0.4983  0.2654
 3895SOL    HW123321   1.208   2.421   7.123  1.5987 -0.8602 -0.2510
 3895SOL    HW223322   1.169   2.279   7.104  0.0690 -0.0220  1.1435
 3896SOL     OW23323   3.520   4.348  11.461  0.0469 -0.1204 -0.0241
 3896SOL    HW123324   3.582   4.310  11.523 -2.4787 -0.9329  1.9847
 3896SOL    HW223325   3.468   4.400  11.522  0.0474 -0.6209  0.4013
 3897SOL     OW23326   1.412   3.177   2.518 -0.4626 -0.1823 -0.1018
 3897SOL    HW123327   1.386   3.135   2.436  1.5208 -0.5033 -0.5729
 3897SOL    HW223328   1.489   3.218   2.480  0.7176 -0.9169  1.5019
 3898SOL     OW23329   0.919   2.525   3.050 -0.2623 -0.0069 -0.0280
 3898SOL    HW123330   0.882   2.441   3.023  0.0899 -0.0913 -0.2573
 3898SOL    HW223331   0.920   2.571   2.965  0.2846  2.1670  1.1503
 3899SOL     OW23332   2.501   0.698   1.614  0.2665 -0.6632 -0.0775
 3899SOL    HW123333   2.562   0.745   1.671  0.5596  0.4450 -1.3102
 3899SOL    HW223334   2.548   0.615   1.606 -0.6215 -1.2776  1.0101
 3900SOL     OW23335   3.005   3.902  12.606  0.0593  0.1294  0.2258
 3900SOL    HW123336   2.932   3.913  12.668 -0.1503  2.7610 -0.4782
 3900SOL    HW223337   3.030   3.816  12.639  0.4174  0.3842  0.6279
 3901SOL     OW23338   0.708   3.332  13.246 -0.0266 -0.0868  0.5006
 3901SOL    HW123339   0.646   3.404  13.258 -0.8697 -1.1358  2.3425
 3901SOL    HW223340   0.738   3.308  13.333  1.1961 -1.0360 -0.1828
 3902SOL     OW23341   3.438   3.727   2.935  0.1308 -0.6929 -0.2582
 3902SOL    HW123342   3.462   3.805   2.885  0.4823 -0.6378 -0.0057
 3902SOL    HW223343   3.479   3.661   2.879  0.5641 -0.5817 -0.0726
 3903SOL     OW23344   2.579   1.499   7.186  0.7746  0.2691 -0.1801
 3903SOL    HW123345   2.501   1.531   7.232  2.0141  0.4799  1.7977
 3903SOL    HW223346   2.590   1.558   7.111 -0.8954 -0.9802 -1.3793
 3904SOL     OW23347   0.882   2.155   4.714  0.0853 -0.2395 -0.1367
 3904SOL    HW123348   0.896   2.136   4.621 -0.0035  0.0699 -0.2126
 3904SOL    HW223349   0.800   2.204   4.704  0.2902 -0.1645 -1.4896
 3905SOL     OW23350   2.273   0.253   3.537 -0.9197  0.9806 -0.4660
 3905SOL    HW123351   2.354   0.204   3.525 -1.8610 -0.5677 -0.5022
 3905SOL    HW223352   2.251   0.205   3.617 -1.8957  2.6552  0.2886
 3906SOL     OW23353   0.274   4.481   7.383  0.3262 -0.4082 -0.0701
 3906SOL    HW123354   0.275   4.471   7.288 -0.2651  1.7801 -0.2912
 3906SOL    HW223355   0.212   4.413   7.411  1.6555 -1.4847  0.2427
 3907SOL     OW23356   2.315   0.790   6.270  0.2208  1.1091 -0.3461
 3907SOL    HW123357   2.346   0.727   6.335 -0.3822  1.6870  0.4902
 3907SOL    HW223358   2.369   0.865   6.292  0.5158  1.1693 -1.2904
 3908SOL     OW23359   0.659   3.223   6.616  0.3116 -0.4273  0.1793
 3908SOL    HW123360   0.709   3.174   6.551 -1.0451 -0.4090 -0.8569
 3908SOL    HW223361   0.730   3.281   6.646  0.7901 -0.7196 -0.3938
 3909SOL     OW23362   0.023   3.329   4.866  0.1940  0.4386 -0.0733
 3909SOL    HW123363   4.687   3.330   4.926  0.4240  0.5444  0.2096
 3909SOL    HW223364   0.008   3.411   4.819 -0.2166  0.6002  0.3382
 3910SOL     OW23365   4.590   4.190   3.561  0.0652  0.6782  0.4735
 3910SOL    HW123366   4.612   4.199   3.469 -0.1522  0.2257  0.3761
 3910SOL    HW223367   4.654   4.123   3.587  0.1745  0.1823 -1.0922
 3911SOL     OW23368   2.958   2.966   6.176  0.1451 -0.0006  0.6675
 3911SOL    HW123369   2.910   3.009   6.246 -1.7618 -1.4051  0.2339
 3911SOL    HW223370   3.020   2.904   6.215  3.4418  1.5774 -2.0126
 3912SOL     OW23371   3.713   2.573   6.561 -0.9653 -0.4384  0.5795
 3912SOL    HW123372   3.782   2.615   6.613 -1.2571  1.0267 -0.2086
 3912SOL    HW223373   3.718   2.485   6.599 -1.2730 -0.6105  0.2171
 3913SOL     OW23374   2.197   3.126  17.115  0.1188 -0.4545 -0.1013
 3913SOL    HW123375   2.267   3.187  17.092 -0.1290 -0.8573 -1.9887
 3913SOL    HW223376   2.126   3.163  17.063 -1.4577 -0.8184  1.8005
 3914SOL     OW23377   1.662   3.646   3.447 -0.2676  0.6900 -0.3216
 3914SOL    HW123378   1.718   3.723   3.438 -0.0215  0.6262  0.6081
 3914SOL    HW223379   1.722   3.573   3.459 -1.1206  0.0299 -0.0813
 3915SOL     OW23380   4.013   1.698   4.376 -0.1694 -0.4144  0.2663
 3915SOL    HW123381   4.027   1.761   4.447  0.5033 -0.8844  0.5459
 3915SOL    HW223382   3.959   1.749   4.315  3.1958  2.3358 -0.4246
 3916SOL     OW23383   0.172   0.162  16.643 -0.3190  0.8323 -0.7462
 3916SOL    HW123384   0.252   0.202  16.610  0.0398 -1.4657 -2.6508
 3916SOL    HW223385   0.172   0.091  16.578 -1.2493 -0.1282  0.2957
 3917SOL     OW23386   0.527   0.662   9.336  0.3195 -1.1126 -0.0748
 3917SOL    HW123387   0.488   0.632   9.254 -0.4654  1.3238 -0.5968
 3917SOL    HW223388   0.448   0.688   9.383  1.6526 -0.0235  1.5769
 3918SOL     OW23389   1.233   2.981   0.753 -0.2187 -0.3536  0.1946
 3918SOL    HW123390   1.196   2.959   0.839  0.9893  1.0843  1.0631
 3918SOL    HW223391   1.224   3.076   0.753 -0.4826 -0.3776  0.0709
 3919SOL     OW23392   2.235   3.434   7.242  0.1141 -0.3121  0.5380
 3919SOL    HW123393   2.329   3.449   7.256 -0.1221  1.5720 -0.0302
 3919SOL    HW223394   2.240   3.353   7.190  2.1265  0.7446 -0.9501
 3920SOL     OW23395   1.708   3.630  15.189  0.1866 -0.1641  0.8676
 3920SOL    HW123396   1.653   3.596  15.118  2.0548 -0.2218 -0.5558
 3920SOL    HW223397   1.773   3.560  15.184 -0.8249 -0.8770 -2.4144
 3921SOL     OW23398   3.600   4.025   1.414 -0.1318  0.1022 -0.2963
 3921SOL    HW123399   3.632   3.970   1.343 -0.4977  0.1580 -0.5086
 3921SOL    HW223400   3.551   4.080   1.352 -1.3192  1.1639  1.5669
 3922SOL     OW23401   3.803   1.761   5.896  0.0256  0.1258 -0.7231
 3922SOL    HW123402   3.791   1.723   5.983  2.3473 -0.5602 -0.6982
 3922SOL    HW223403   3.899   1.768   5.891  0.0451  0.0694 -0.4275
 3923SOL     OW23404   0.977   1.782   7.894  0.2342 -0.4386  0.2747
 3923SOL    HW123405   0.940   1.696   7.877 -0.5682 -0.4999  2.3559
 3923SOL    HW223406   0.986   1.784   7.990  0.9940 -0.1079  0.2000
 3924SOL     OW23407   1.496   3.394   5.338 -0.4797  0.2096 -0.2420
 3924SOL    HW123408   1.523   3.356   5.254 -2.5890  2.5541 -2.0011
 3924SOL    HW223409   1.571   3.442   5.373  0.2834 -0.6734 -0.7044
 3925SOL     OW23410   2.990   4.024   5.247  0.3877  0.0041  0.0544
 3925SOL    HW123411   3.068   3.969   5.236 -0.1134 -1.0167  1.6248
 3925SOL    HW223412   2.961   4.040   5.157 -0.5802 -2.2207 -0.0323
 3926SOL     OW23413   2.168   3.803   2.014  0.4439  0.2847 -0.0463
 3926SOL    HW123414   2.253   3.766   1.988  0.4552  0.2304  0.0675
 3926SOL    HW223415   2.160   3.866   1.942  0.5970  1.9970  1.4230
 3927SOL     OW23416   1.718   0.396   1.575  0.0005  0.4023 -0.3774
 3927SOL    HW123417   1.703   0.491   1.576 -2.8571 -0.0319 -1.1519
 3927SOL    HW223418   1.627   0.367   1.577 -0.1347  0.7470 -1.6357
 3928SOL     OW23419   4.544   4.415   6.433  0.1935  0.0580  1.0358
 3928SOL    HW123420   4.513   4.424   6.343 -0.8840  1.1684  1.5326
 3928SOL    HW223421   4.498   4.345   6.480  1.7403 -1.5663  0.1571
 3929SOL     OW23422   4.316   3.022   7.513 -0.0557 -0.1773 -0.4378
 3929SOL    HW123423   4.235   3.021   7.463 -0.7622 -0.8135  0.7207
 3929SOL    HW223424   4.379   3.057   7.450  1.6230 -1.7964  0.3396
 3930SOL     OW23425   2.366   0.544   9.458  0.1907  0.1100  0.6616
 3930SOL    HW123426   2.385   0.519   9.368 -1.0054  1.8155 -0.0703
 3930SOL    HW223427   2.439   0.498   9.499 -0.1071 -1.3549 -0.4848
 3931SOL     OW23428   2.726   2.316  14.373  0.3629 -0.4032 -0.2919
 3931SOL    HW123429   2.805   2.370  14.363 -1.1618  2.2007  1.6897
 3931SOL    HW223430   2.736   2.273  14.288  1.1690 -0.4590 -0.1720
 3932SOL     OW23431   3.363   2.497  16.710  0.3037 -0.7114  0.1039
 3932SOL    HW123432   3.283   2.451  16.739 -0.4351 -1.0442 -2.4199
 3932SOL    HW223433   3.421   2.483  16.784 -1.3558 -0.5068  1.4373
 3933SOL     OW23434   0.674   2.092  13.372 -0.0885 -0.1232  0.4400
 3933SOL    HW123435   0.759   2.130  13.397 -0.2704  0.1965  0.5813
 3933SOL    HW223436   0.648   2.044  13.451  3.7760 -1.1754  1.0967
 3934SOL     OW23437   1.622   2.567   6.352  0.2972 -0.4763  0.0088
 3934SOL    HW123438   1.570   2.588   6.430  2.8932  0.6439  1.4409
 3934SOL    HW223439   1.584   2.480   6.339 -1.6782  0.2723  0.7358
 3935SOL     OW23440   1.106   3.511   8.624  0.1981 -0.3526  0.2458
 3935SOL    HW123441   1.023   3.551   8.598  0.3610 -0.7245 -0.8639
 3935SOL    HW223442   1.104   3.438   8.562  1.3857 -0.5592  0.4411
 3936SOL     OW23443   3.399   3.100   5.919  0.3245 -0.6432  0.5807
 3936SOL    HW123444   3.313   3.058   5.922  0.1113 -0.2378  0.0517
 3936SOL    HW223445   3.412   3.118   6.012 -0.0117  2.2724  0.0511
 3937SOL     OW23446   3.266   1.202   8.480  0.2094  0.4616  0.5825
 3937SOL    HW123447   3.292   1.151   8.403  2.6369  0.1031  1.6324
 3937SOL    HW223448   3.327   1.275   8.489  0.1664  0.2926  2.3446
 3938SOL     OW23449   2.815   2.395   4.717 -0.0451 -0.3822  0.7479
 3938SOL    HW123450   2.779   2.366   4.633 -0.7157  1.8984  0.2617
 3938SOL    HW223451   2.774   2.480   4.725  1.6209  0.5749 -0.8394
 3939SOL     OW23452   0.752   1.284   7.335 -0.3052 -0.2144 -0.1493
 3939SOL    HW123453   0.755   1.376   7.363 -1.8337 -1.7493  5.0500
 3939SOL    HW223454   0.840   1.264   7.366  1.1025  2.5361 -2.3808
 3940SOL     OW23455   1.776   2.859   0.726 -0.3639  0.1126  0.5718
 3940SOL    HW123456   1.683   2.837   0.729 -1.1736  3.4546 -0.5656
 3940SOL    HW223457   1.822   2.785   0.767  0.0423  1.0126  1.7313
 3941SOL     OW23458   4.191   3.050   7.771 -0.4189  0.2765 -0.3647
 3941SOL    HW123459   4.119   3.068   7.711 -0.2149  0.1436 -0.6511
 3941SOL    HW223460   4.263   3.053   7.707  0.4621  1.5427  0.6866
 3942SOL     OW23461   0.625   2.295  12.916 -0.3194 -0.0315  0.2468
 3942SOL    HW123462   0.604   2.251  12.834  0.0098 -0.1880  0.2468
 3942SOL    HW223463   0.720   2.299  12.913 -0.2230 -2.2998  0.1812
 3943SOL     OW23464   0.276   3.151   4.021 -0.2826 -0.5172 -0.4440
 3943SOL    HW123465   0.289   3.112   3.934 -3.2951  0.7915 -1.4763
 3943SOL    HW223466   0.353   3.119   4.068 -0.2569  0.8489  0.4408
 3944SOL     OW23467   2.971   0.426   1.986  0.3989  0.3861  0.2213
 3944SOL    HW123468   2.894   0.368   1.986  0.5189  0.2246 -0.0119
 3944SOL    HW223469   2.972   0.452   1.894  2.4880  0.3731  0.2365
 3945SOL     OW23470   2.598   1.283   2.507  0.1163  0.0788  0.4864
 3945SOL    HW123471   2.645   1.345   2.563  1.4426 -0.4845 -0.0069
 3945SOL    HW223472   2.672   1.228   2.481 -0.9184 -0.4810 -1.2540
 3946SOL     OW23473   1.565   1.354   8.461 -0.1149  0.2453  0.1409
 3946SOL    HW123474   1.486   1.320   8.420 -0.1944 -2.3448  2.4539
 3946SOL    HW223475   1.571   1.299   8.539  0.7685  0.4308  0.2128
 3947SOL     OW23476   3.504   2.641  11.262 -0.8679 -0.3695  0.5793
 3947SOL    HW123477   3.440   2.712  11.257 -0.6433 -0.0908  1.6053
 3947SOL    HW223478   3.556   2.654  11.183  2.2035 -1.5331  2.4082
 3948SOL     OW23479   1.189   1.015   3.155  0.5871 -0.2108  0.2275
 3948SOL    HW123480   1.138   1.066   3.092 -1.3788 -2.3862  0.0931
 3948SOL    HW223481   1.276   1.052   3.139  2.3345 -3.3044  2.5387
 3949SOL     OW23482   1.715   0.583  14.064 -0.0542  0.2890 -0.3687
 3949SOL    HW123483   1.707   0.499  14.018 -0.3749  1.3243 -2.2342
 3949SOL    HW223484   1.810   0.577  14.069 -0.1032  1.0594  1.4028
 3950SOL     OW23485   2.318   3.615  13.644  0.1137 -0.4499 -0.3523
 3950SOL    HW123486   2.283   3.649  13.562  2.4740  1.1273 -0.7067
 3950SOL    HW223487   2.410   3.641  13.644 -0.1801  0.5507  0.8376
 3951SOL     OW23488   0.475   4.016   5.939  0.0517  0.0189  0.1510
 3951SOL    HW123489   0.461   3.975   5.854  0.5109  0.2285 -0.0255
 3951SOL    HW223490   0.526   3.948   5.982 -1.7450  0.1006  2.4038
 3952SOL     OW23491   4.411   1.110   2.097 -0.4030  0.2958 -0.5925
 3952SOL    HW123492   4.353   1.186   2.085  0.2523  0.9466  0.3392
 3952SOL    HW223493   4.491   1.161   2.109 -1.0793  1.6979 -2.0331
 3953SOL     OW23494   4.438   4.119   1.780 -0.1323  0.4153 -0.1244
 3953SOL    HW123495   4.347   4.099   1.797 -0.0347  0.9138  0.9564
 3953SOL    HW223496   4.455   4.055   1.711  1.0081 -0.4535  0.9615
 3954SOL     OW23497   0.411   0.904  15.845  0.2542 -0.6190  0.3967
 3954SOL    HW123498   0.321   0.935  15.854  0.9855  1.8633 -0.8562
 3954SOL    HW223499   0.454   0.958  15.912 -0.0157  0.0330  0.0416
 3955SOL     OW23500   2.115   1.416   1.522  0.0150 -0.1849  0.5680
 3955SOL    HW123501   2.080   1.505   1.525 -0.0949 -0.2196  0.3026
 3955SOL    HW223502   2.091   1.382   1.608 -0.5969 -0.7316  0.1810
 3956SOL     OW23503   0.523   4.288   3.910  0.3674 -0.3429  0.0934
 3956SOL    HW123504   0.556   4.358   3.967 -1.1027  2.6397 -2.7403
 3956SOL    HW223505   0.494   4.228   3.979 -0.5712  1.5163  1.3251
 3957SOL     OW23506   4.129   0.849   6.290  1.0730  0.4709 -0.3253
 3957SOL    HW123507   4.128   0.881   6.200  1.8915 -0.5544 -0.6845
 3957SOL    HW223508   4.139   0.933   6.335 -0.0638 -0.5970  1.9222
 3958SOL     OW23509   2.634   4.378   1.843  0.1466 -0.2760  0.0643
 3958SOL    HW123510   2.579   4.329   1.782  0.3132  1.2750 -1.3305
 3958SOL    HW223511   2.710   4.322   1.854 -0.1337 -1.0310 -1.9416
 3959SOL     OW23512   2.791   3.443   3.426  0.2611 -0.0236 -0.3891
 3959SOL    HW123513   2.787   3.417   3.518 -2.7006  0.1125 -0.4537
 3959SOL    HW223514   2.732   3.519   3.419 -0.4112 -0.5360 -0.3357
 3960SOL     OW23515   0.061   3.753  17.324  0.0674  0.1963  0.2410
 3960SOL    HW123516   0.061   3.712  17.238  0.6405  0.2174  0.2264
 3960SOL    HW223517   0.143   3.717  17.358  0.8430  1.8917  0.1707
 3961SOL     OW23518   3.354   0.097   6.341  0.4473  0.4770 -0.6040
 3961SOL    HW123519   3.366   0.137   6.255 -0.0277 -0.4025 -1.0759
 3961SOL    HW223520   3.410   0.145   6.402  0.1298  0.8152 -0.5740
 3962SOL     OW23521   0.679   4.120   0.223  0.2612 -0.0660 -0.6060
 3962SOL    HW123522   0.757   4.118   0.279  1.6036 -2.0632 -2.5320
 3962SOL    HW223523   0.707   4.184   0.158 -1.4471  0.5680 -0.7207
 3963SOL     OW23524   2.831   1.122   2.499  0.2324 -0.1468 -0.1657
 3963SOL    HW123525   2.829   1.026   2.494  0.3584 -0.0703 -1.6590
 3963SOL    HW223526   2.850   1.133   2.406 -1.1648  0.6447 -0.3564
 3964SOL     OW23527   4.425   3.017   8.174 -0.0707  0.3506 -0.0760
 3964SOL    HW123528   4.425   3.106   8.208  3.1784  0.1135  0.5473
 3964SOL    HW223529   4.466   2.954   8.233  2.9124  2.8532  0.5171
 3965SOL     OW23530   2.732   1.123  13.311  0.1703 -0.1336 -0.2914
 3965SOL    HW123531   2.825   1.144  13.309  0.3213 -0.8517 -0.6852
 3965SOL    HW223532   2.719   1.032  13.337  0.0985  0.5110  1.9711
 3966SOL     OW23533   2.989   0.032   5.651 -0.5650  0.1945  0.3588
 3966SOL    HW123534   2.928   0.003   5.583 -1.6334  1.5239  0.7684
 3966SOL    HW223535   2.956   4.730   5.731  3.0974  0.1234  1.8517
 3967SOL     OW23536   1.379   1.960   5.877 -0.3247  0.4068 -0.1319
 3967SOL    HW123537   1.309   2.007   5.922  1.4643  0.9103  2.0951
 3967SOL    HW223538   1.371   1.997   5.789  0.8201 -0.8613 -0.7674
 3968SOL     OW23539   3.978   1.759   1.510 -0.2957  0.6026  0.5083
 3968SOL    HW123540   4.057   1.805   1.482  0.1032  0.7828  1.9500
 3968SOL    HW223541   4.019   1.699   1.571  1.0367 -1.1654 -2.1322
 3969SOL     OW23542   2.046   1.867   7.478  0.1151 -0.3231 -0.3104
 3969SOL    HW123543   2.048   1.773   7.493  2.6026  0.2220  2.7666
 3969SOL    HW223544   1.956   1.877   7.507  0.5768  2.6426  0.1089
 3970SOL     OW23545   4.448   2.002   8.456  0.6789  0.8741  0.1741
 3970SOL    HW123546   4.377   1.975   8.398  1.0928  0.9625 -0.3760
 3970SOL    HW223547   4.456   1.927   8.514 -2.0815  0.8642  0.5066
 3971SOL     OW23548   1.035   2.496   2.444 -0.2792  0.8903 -0.3113
 3971SOL    HW123549   1.003   2.585   2.435  0.8239  1.5866  2.6248
 3971SOL    HW223550   1.037   2.497   2.540 -0.3235  2.2439 -0.3322
 3972SOL     OW23551   2.270   3.846   4.087  0.0479  0.0378  0.6756
 3972SOL    HW123552   2.320   3.790   4.147  0.2494  1.2472  1.6355
 3972SOL    HW223553   2.299   3.929   4.125  0.9209  0.6472 -1.3243
 3973SOL     OW23554   0.138   2.960   1.943 -0.2972  0.4374 -0.3646
 3973SOL    HW123555   0.159   2.949   2.035 -1.6810  3.4453  0.3090
 3973SOL    HW223556   0.218   2.928   1.901 -0.0782  1.9810 -1.1427
 3974SOL     OW23557   1.357   2.748  12.239  0.4107  0.5655 -0.1126
 3974SOL    HW123558   1.330   2.809  12.308  0.3911  0.3110  0.1069
 3974SOL    HW223559   1.447   2.730  12.266  1.4403  2.4490 -2.3785
 3975SOL     OW23560   0.829   3.596   4.192  0.3708  0.4842  0.5766
 3975SOL    HW123561   0.747   3.549   4.207  1.9217 -3.0943 -2.1164
 3975SOL    HW223562   0.889   3.527   4.222 -2.5603 -1.7117  1.4213
 3976SOL     OW23563   3.280   1.899   6.708 -0.0240  0.6616  0.1115
 3976SOL    HW123564   3.291   1.985   6.667  0.9794 -0.3297 -1.7144
 3976SOL    HW223565   3.361   1.848   6.708  0.7967  1.9511 -0.5845
 3977SOL     OW23566   0.614   0.190   5.392  0.0873 -0.0232 -0.5403
 3977SOL    HW123567   0.576   0.266   5.437  2.0090 -1.4276  3.4556
 3977SOL    HW223568   0.635   0.131   5.464 -1.9070  0.8320  0.7413
 3978SOL     OW23569   1.990   1.720  10.956  0.0811 -0.0507  0.0575
 3978SOL    HW123570   2.056   1.787  10.939  0.8764 -0.6745  0.6221
 3978SOL    HW223571   2.050   1.656  10.995  1.2055  0.5419 -0.6985
 3979SOL     OW23572   1.010   3.385  12.301 -0.0874  0.2739 -0.0565
 3979SOL    HW123573   0.921   3.361  12.275 -0.5869  2.6005 -0.4582
 3979SOL    HW223574   1.012   3.479  12.287  0.9771  0.2729  0.0299
 3980SOL     OW23575   1.474   0.752   9.217  0.4027 -0.0165  0.3124
 3980SOL    HW123576   1.469   0.738   9.122 -2.0329  0.1809  0.3948
 3980SOL    HW223577   1.490   0.846   9.225  0.4489 -0.0750  0.8685
 3981SOL     OW23578   4.651   0.758   2.517 -0.0407  0.0096 -0.0906
 3981SOL    HW123579   4.715   0.798   2.576  0.3569  1.7450 -1.6946
 3981SOL    HW223580   4.579   0.729   2.574 -1.4795 -0.1851 -1.9978
 3982SOL     OW23581   2.548   1.199   3.339  0.6383  0.6492 -0.7167
 3982SOL    HW123582   2.520   1.264   3.274 -0.1542  0.1578 -0.8654
 3982SOL    HW223583   2.555   1.118   3.290  1.4763  0.5370 -0.4025
 3983SOL     OW23584   0.115   0.985  14.816  0.9581 -0.2390 -0.0594
 3983SOL    HW123585   0.184   0.980  14.882 -1.3947 -1.8518  2.3067
 3983SOL    HW223586   0.038   0.955  14.865  1.3157 -1.8771 -0.4959
 3984SOL     OW23587   1.971   3.139   4.920 -0.5042  0.0125 -0.2980
 3984SOL    HW123588   1.997   3.063   4.972  3.5580  2.1077  0.7399
 3984SOL    HW223589   1.996   3.104   4.834  0.8397  0.5550 -0.1213
 3985SOL     OW23590   3.206   3.536   8.296  0.2697  0.2810  0.3646
 3985SOL    HW123591   3.273   3.468   8.302 -0.6434 -0.6365  0.1785
 3985SOL    HW223592   3.185   3.542   8.389 -0.8580  0.7547  0.0781
 3986SOL     OW23593   0.007   2.005  13.234 -0.2091  0.6512 -0.3902
 3986SOL    HW123594   4.690   2.081  13.219  0.5622  1.1760 -0.5791
 3986SOL    HW223595   4.712   1.945  13.167 -1.3334  2.2983 -1.2937
 3987SOL     OW23596   3.141   1.574   5.153  0.3372 -0.0189  0.1339
 3987SOL    HW123597   3.236   1.568   5.138  0.6125  1.9018  1.1408
 3987SOL    HW223598   3.132   1.668   5.165  0.1259  0.0464 -0.5434
 3988SOL     OW23599   1.949   1.615  15.516 -0.0464 -0.2543  0.3584
 3988SOL    HW123600   1.969   1.525  15.543  2.6405 -0.2978 -1.7562
 3988SOL    HW223601   1.863   1.606  15.475 -0.2618  3.0142  0.0690
 3989SOL     OW23602   3.483   4.678  11.098  0.0850  0.1628  0.5918
 3989SOL    HW123603   3.398   4.672  11.142  0.0521  0.5757  0.5847
 3989SOL    HW223604   3.495   4.583  11.099 -1.0556  0.0157 -0.0872
 3990SOL     OW23605   3.767   4.472   1.791 -0.2510 -0.0896 -0.0001
 3990SOL    HW123606   3.781   4.378   1.789 -0.2541 -0.0982  0.3466
 3990SOL    HW223607   3.794   4.490   1.701  0.0017  1.4199  0.3703
 3991SOL     OW23608   3.503   3.742   7.044  0.4419  0.0835 -0.2217
 3991SOL    HW123609   3.453   3.812   7.085  0.3338  0.9527 -1.8205
 3991SOL    HW223610   3.579   3.726   7.101 -0.2011  1.2087  0.9246
 3992SOL     OW23611   3.762   4.431   9.188  0.2069 -0.3757  0.0216
 3992SOL    HW123612   3.819   4.472   9.124  1.9132 -1.2077  1.0057
 3992SOL    HW223613   3.798   4.483   9.260  0.7923  0.4545 -0.8755
 3993SOL     OW23614   0.837   1.259   8.356 -0.2704 -0.4183 -0.2564
 3993SOL    HW123615   0.797   1.340   8.389  1.9997  0.0335  1.3797
 3993SOL    HW223616   0.858   1.289   8.267 -1.9583  0.9456 -0.2081
 3994SOL     OW23617   0.274   1.480   7.237  0.2061 -0.0879 -0.1770
 3994SOL    HW123618   0.235   1.467   7.323 -0.3942  0.2103 -0.4041
 3994SOL    HW223619   0.356   1.432   7.247  0.0911 -0.4563 -1.0020
 3995SOL     OW23620   2.891   4.357  10.353 -0.9583  0.1728  0.2862
 3995SOL    HW123621   2.796   4.361  10.365 -0.8583  1.4313  0.6635
 3995SOL    HW223622   2.915   4.420  10.421  0.9685 -0.6235  0.3473
 3996SOL     OW23623   3.181   0.136  11.810  0.3884  0.0415  0.3325
 3996SOL    HW123624   3.110   0.082  11.845  2.0352 -2.0693  0.4922
 3996SOL    HW223625   3.189   0.202  11.878  3.0429  0.9503 -0.8477
 3997SOL     OW23626   2.920   3.013   8.171 -0.0122  0.0323  0.0534
 3997SOL    HW123627   2.901   2.934   8.221 -0.9875 -1.0698 -2.0912
 3997SOL    HW223628   2.865   2.995   8.095 -1.9738  0.2759  1.4014
 3998SOL     OW23629   1.864   1.418  13.931 -0.2184  0.2014 -0.0463
 3998SOL    HW123630   1.838   1.328  13.913 -0.6878  0.4718 -0.7190
 3998SOL    HW223631   1.815   1.444  13.853  1.7854 -0.4549 -1.5204
 3999SOL     OW23632   1.704   4.063  17.324 -0.1174 -0.7843  0.2161
 3999SOL    HW123633   1.758   4.011  17.384  1.9077 -1.4949 -2.2060
 3999SOL    HW223634   1.749   4.147  17.326  1.1345 -1.4266 -1.1049
 4000SOL     OW23635   1.119   3.406   0.114  0.2165 -0.1395 -0.6639
 4000SOL    HW123636   1.196   3.350   0.128 -2.2046 -2.9522  1.4442
 4000SOL    HW223637   1.137   3.448   0.030  0.2970  0.1274 -0.5129
 4001SOL     OW23638   0.002   3.047   3.726  0.1398  0.2799  0.1298
 4001SOL    HW123639   4.719   3.121   3.782  0.9162  0.4848  0.1607
 4001SOL    HW223640   0.095   3.066   3.714  0.1829  1.1823  1.9168
 4002SOL     OW23641   3.547   2.874   6.878  0.5805  0.0106  0.4386
 4002SOL    HW123642   3.538   2.918   6.963 -3.4918  1.0712 -0.5201
 4002SOL    HW223643   3.629   2.827   6.890  0.2414 -1.1043 -1.6298
 4003SOL     OW23644   3.788   2.530   8.423 -0.2111 -0.4258 -0.3868
 4003SOL    HW123645   3.792   2.535   8.328  1.3341  1.3208 -0.2281
 4003SOL    HW223646   3.878   2.501   8.441  0.6882  2.8644  0.3409
 4004SOL     OW23647   1.640   4.714   7.040  0.0364  0.0093  0.2970
 4004SOL    HW123648   1.570   4.688   7.100  1.7589 -0.7790  1.9486
 4004SOL    HW223649   1.599   4.709   6.953  2.1791 -0.7472 -0.6881
 4005SOL     OW23650   4.097   2.323   5.713  0.3689  0.2481  0.1060
 4005SOL    HW123651   4.041   2.249   5.691 -1.9845  1.8349  0.7899
 4005SOL    HW223652   4.171   2.300   5.656  0.1712 -1.5772  0.5808
 4006SOL     OW23653   0.502   2.119   9.116 -0.3990  0.3968  0.4842
 4006SOL    HW123654   0.505   2.192   9.053  1.7280 -1.2508 -1.2933
 4006SOL    HW223655   0.406   2.111   9.117 -0.4803  1.0634 -0.8966
 4007SOL     OW23656   3.693   2.647  11.913  0.0697 -0.8871 -0.0899
 4007SOL    HW123657   3.615   2.654  11.968  0.3966 -0.5254  0.3320
 4007SOL    HW223658   3.767   2.677  11.966  0.5358  0.5904 -1.5778
 4008SOL     OW23659   2.194   3.762  13.431 -0.6778 -0.5356  0.0261
 4008SOL    HW123660   2.261   3.829  13.418 -0.3863 -0.8109  0.0980
 4008SOL    HW223661   2.111   3.807  13.419 -0.7958  0.1524  3.4223
 4009SOL     OW23662   3.569   3.573   3.626  0.2972 -0.2896 -0.7841
 4009SOL    HW123663   3.534   3.641   3.684  0.2284 -0.6345 -0.4218
 4009SOL    HW223664   3.587   3.621   3.545  1.6284  2.1182  0.9382
 4010SOL     OW23665   2.539   3.732   6.145 -0.5653  0.5043 -0.4751
 4010SOL    HW123666   2.538   3.648   6.191 -0.8674 -0.0739 -1.5323
 4010SOL    HW223667   2.451   3.722   6.108 -0.1790 -0.4911 -1.1212
 4011SOL     OW23668   0.054   3.970   6.652 -0.0744  0.2769 -0.4735
 4011SOL    HW123669   0.147   3.948   6.649 -0.4613 -1.3685 -0.8666
 4011SOL    HW223670   0.061   4.060   6.681  0.9463  0.2939 -0.7885
 4012SOL     OW23671   0.709   1.982  17.590  0.0198  0.3553 -0.3307
 4012SOL    HW123672   0.656   2.003  17.514 -0.5833 -0.6823 -0.2014
 4012SOL    HW223673   0.641   1.982  17.658 -0.5269 -4.9608 -0.8738
 4013SOL     OW23674   3.407   3.177   6.184  0.1701  0.0640  0.2090
 4013SOL    HW123675   3.323   3.223   6.183  1.6741  2.8146  0.4853
 4013SOL    HW223676   3.459   3.217   6.253  0.3139 -0.4195  0.3828
 4014SOL     OW23677   3.880   4.510  11.173 -0.1852  0.5449  0.7674
 4014SOL    HW123678   3.851   4.524  11.083  0.9462 -0.1528  0.2952
 4014SOL    HW223679   3.822   4.439  11.201 -2.5448  1.9082 -0.6773
 4015SOL     OW23680   1.713   3.434   3.186 -0.0263  0.3471 -0.0446
 4015SOL    HW123681   1.721   3.418   3.092 -0.1876 -2.2193  0.3729
 4015SOL    HW223682   1.794   3.391   3.214 -0.6260 -0.1053  0.9849
 4016SOL     OW23683   2.113   4.088   7.827 -0.2295  0.6456  0.0687
 4016SOL    HW123684   2.133   4.089   7.733 -0.9251 -0.7792 -0.0906
 4016SOL    HW223685   2.200   4.071   7.863 -1.0553 -1.3613  1.1049
 4017SOL     OW23686   0.959   1.232   2.822 -0.1783 -0.5814 -0.1173
 4017SOL    HW123687   1.030   1.239   2.886 -1.5103  1.4553  1.1393
 4017SOL    HW223688   0.973   1.139   2.806  1.2767 -0.2750 -0.6828
 4018SOL     OW23689   2.292   1.542  13.384  0.1926 -0.2838 -0.4131
 4018SOL    HW123690   2.213   1.529  13.330 -1.2839  1.2875  1.3898
 4018SOL    HW223691   2.300   1.464  13.438 -3.0470 -1.4810 -1.6248
 4019SOL     OW23692   1.758   2.931  17.241 -0.4711  0.1290 -0.5803
 4019SOL    HW123693   1.838   2.984  17.250 -1.3546  1.3985 -0.2286
 4019SOL    HW223694   1.702   2.973  17.306  0.6514  0.2872  0.2794
 4020SOL     OW23695   0.647   3.797  16.992  0.0600  0.3242  0.2995
 4020SOL    HW123696   0.676   3.886  16.972  0.8276 -0.1129 -0.5768
 4020SOL    HW223697   0.718   3.759  17.044 -0.1130 -0.9675 -0.4160
 4021SOL     OW23698   4.156   1.773   3.578  0.5660 -0.0482  0.5683
 4021SOL    HW123699   4.159   1.750   3.485  0.1940  1.2495  0.2384
 4021SOL    HW223700   4.133   1.866   3.582  0.0188 -0.0919 -1.5343
 4022SOL     OW23701   3.744   4.586   2.691  0.1024 -0.0708  0.2670
 4022SOL    HW123702   3.680   4.544   2.749 -0.0235  1.8231  1.5069
 4022SOL    HW223703   3.767   4.663   2.743 -2.3063  1.8675 -1.5407
 4023SOL     OW23704   3.214   3.739   2.253  0.9583  0.2239  0.3071
 4023SOL    HW123705   3.173   3.813   2.208 -2.9286 -2.3442 -0.3671
 4023SOL    HW223706   3.297   3.777   2.280  0.8210  0.1068  0.8922
 4024SOL     OW23707   0.856   4.378  12.623  0.5274  0.4069  0.1230
 4024SOL    HW123708   0.879   4.429  12.545  1.7569  1.9191  1.4607
 4024SOL    HW223709   0.943   4.353  12.654 -0.1256 -1.5113  0.3783
 4025SOL     OW23710   4.186   0.819   3.933 -0.3354  0.2467 -0.0604
 4025SOL    HW123711   4.273   0.779   3.930 -0.1929  0.6209 -1.0659
 4025SOL    HW223712   4.166   0.835   4.025 -1.2897 -1.2514  0.0011
 4026SOL     OW23713   3.988   2.367   2.093  0.4635  0.4616 -0.4150
 4026SOL    HW123714   4.040   2.341   2.169  0.1238  1.3211  0.1150
 4026SOL    HW223715   4.045   2.440   2.070  0.9443 -0.0579 -0.8931
 4027SOL     OW23716   3.365   1.198  14.465 -0.3423 -0.2627  0.5888
 4027SOL    HW123717   3.331   1.128  14.408 -3.3664  1.9608 -0.3437
 4027SOL    HW223718   3.423   1.250  14.409  0.5294  0.8641  2.5646
 4028SOL     OW23719   2.065   2.275  15.649  0.3971 -0.2672 -0.2142
 4028SOL    HW123720   2.125   2.238  15.583 -1.2894  0.0441 -1.9160
 4028SOL    HW223721   1.978   2.269  15.610  0.2062  0.5341  0.1115
 4029SOL     OW23722   2.660   0.674   5.833  0.0665 -0.2271 -0.2471
 4029SOL    HW123723   2.621   0.586   5.834  0.3414 -0.3339  1.0837
 4029SOL    HW223724   2.583   0.703   5.785  1.6449  1.5404 -1.7511
 4030SOL     OW23725   2.868   3.504  10.692 -0.0387 -0.0964  0.5499
 4030SOL    HW123726   2.849   3.534  10.603 -0.9899  2.1277  1.5180
 4030SOL    HW223727   2.813   3.427  10.705  0.3865 -0.6086 -0.6628
 4031SOL     OW23728   3.933   1.020   5.372 -0.8185 -0.0911 -0.4574
 4031SOL    HW123729   3.854   1.039   5.423 -0.8223 -2.4352  0.4229
 4031SOL    HW223730   3.907   1.066   5.292 -1.0721 -0.1577 -0.4132
 4032SOL     OW23731   3.896   4.454   0.787 -0.5091  0.0086 -0.3945
 4032SOL    HW123732   3.848   4.502   0.719  0.5897  0.3748 -0.9083
 4032SOL    HW223733   3.991   4.462   0.775 -0.5847 -0.4258 -1.3281
 4033SOL     OW23734   2.926   1.892   4.980  0.3025  0.6322 -0.6948
 4033SOL    HW123735   2.927   1.811   5.032  2.1202  0.0934 -1.5622
 4033SOL    HW223736   2.841   1.890   4.938 -0.9983 -1.2740  2.0011
 4034SOL     OW23737   2.348   1.451   0.756  0.5068  1.3443 -0.4321
 4034SOL    HW123738   2.418   1.392   0.727  2.5916  3.9480 -0.7304
 4034SOL    HW223739   2.331   1.499   0.675 -1.2834  0.7364 -0.4089
 4035SOL     OW23740   3.277   0.679   7.043  0.2226 -0.1092  0.1845
 4035SOL    HW123741   3.363   0.693   7.003 -0.9148  1.0697 -1.8123
 4035SOL    HW223742   3.299   0.612   7.108 -0.3976 -0.3835  0.1110
 4036SOL     OW23743   1.493   4.470  13.826  0.0335 -0.1247  0.0761
 4036SOL    HW123744   1.443   4.541  13.786  1.0978 -0.3447 -1.6357
 4036SOL    HW223745   1.422   4.408  13.839 -0.7248  0.7950  0.3110
 4037SOL     OW23746   3.494   4.260   0.809  0.0036  0.2321  0.2733
 4037SOL    HW123747   3.552   4.185   0.796 -1.2279 -0.6596 -0.1018
 4037SOL    HW223748   3.407   4.220   0.801  0.0533  0.4514 -1.2720
 4038SOL     OW23749   1.933   0.303  16.958  0.1071  0.0097  0.4791
 4038SOL    HW123750   1.904   0.282  17.047 -0.1011 -0.0776  0.3886
 4038SOL    HW223751   1.979   0.382  16.988 -0.5475  1.1538 -1.5013
 4039SOL     OW23752   2.705   1.527   0.709  0.0250 -0.4619  0.4563
 4039SOL    HW123753   2.634   1.580   0.671 -0.6561 -0.3719  1.8582
 4039SOL    HW223754   2.668   1.441   0.690 -0.9314  0.7278 -3.2676
 4040SOL     OW23755   1.487   3.211  15.715  0.5571  0.2550  0.8614
 4040SOL    HW123756   1.536   3.182  15.791 -0.1148 -0.9918  0.8155
 4040SOL    HW223757   1.435   3.282  15.753 -0.6499 -0.7528  1.0804
 4041SOL     OW23758   2.219   2.035   7.319  0.0225 -0.5082  0.0738
 4041SOL    HW123759   2.157   1.967   7.345  1.1213 -2.0201 -1.2967
 4041SOL    HW223760   2.168   2.113   7.340 -1.1965 -1.2083 -0.3126
 4042SOL     OW23761   4.412   1.646  13.468 -0.8345 -0.4553  0.6126
 4042SOL    HW123762   4.443   1.659  13.378 -1.2077  0.6424  0.6356
 4042SOL    HW223763   4.482   1.600  13.514  0.4256  2.1064  1.2458
 4043SOL     OW23764   1.524   3.633   2.970 -0.0292 -0.6391 -0.0278
 4043SOL    HW123765   1.525   3.608   3.062 -0.8951 -0.0683  0.1310
 4043SOL    HW223766   1.542   3.726   2.982  1.2913 -0.7634 -0.9876
 4044SOL     OW23767   0.473   1.245  15.326  0.2003 -0.0060  0.4243
 4044SOL    HW123768   0.473   1.326  15.276  0.0316 -0.4480 -0.2933
 4044SOL    HW223769   0.442   1.287  15.405  1.2259  1.0411  0.2705
 4045SOL     OW23770   1.881   1.793   6.587 -0.1078  0.2873  0.2511
 4045SOL    HW123771   1.870   1.801   6.682  1.7673 -1.5014  0.6244
 4045SOL    HW223772   1.815   1.734   6.551 -0.0397  1.3636 -1.6334
 4046SOL     OW23773   4.143   3.987   2.281  0.0363  0.4686 -0.9333
 4046SOL    HW123774   4.053   4.012   2.298  0.2593  2.1359 -2.1715
 4046SOL    HW223775   4.133   3.924   2.210 -2.5498  0.7703 -0.8159
 4047SOL     OW23776   0.478   0.700   3.174  0.7176 -0.2526 -0.6819
 4047SOL    HW123777   0.561   0.748   3.176 -0.7475  2.3148 -2.2775
 4047SOL    HW223778   0.424   0.757   3.120 -0.8271  0.9879  2.1254
 4048SOL     OW23779   1.459   0.706  13.400  0.2322 -0.8029  0.0900
 4048SOL    HW123780   1.489   0.689  13.310  1.5023  0.9103  0.1754
 4048SOL    HW223781   1.536   0.715  13.456  0.6791 -1.2564 -0.4530
 4049SOL     OW23782   4.404   0.049  13.054 -0.2425  0.7870 -0.1525
 4049SOL    HW123783   4.333   0.005  13.101  0.5967 -1.6516 -1.1652
 4049SOL    HW223784   4.359   0.127  13.023  0.7562  0.8166 -1.5096
 4050SOL     OW23785   4.690   1.078   6.872 -0.3610  0.2054  0.0387
 4050SOL    HW123786   4.644   1.006   6.915  0.2156  0.1873  0.6308
 4050SOL    HW223787   0.028   1.032   6.838 -1.5626  0.1557 -2.5887
 4051SOL     OW23788   3.853   4.079   5.116 -0.7533 -0.3324  0.1411
 4051SOL    HW123789   3.934   4.031   5.135 -1.9146 -2.3028  0.0836
 4051SOL    HW223790   3.881   4.165   5.148 -2.3208  0.3800 -0.4045
 4052SOL     OW23791   2.766   0.591   2.117  0.1588  0.7536 -0.1458
 4052SOL    HW123792   2.747   0.589   2.211 -1.3721 -4.3646 -0.5803
 4052SOL    HW223793   2.833   0.523   2.104  0.8066  1.1224  1.2150
 4053SOL     OW23794   0.851   2.306   5.254 -0.6186 -0.2070  0.8712
 4053SOL    HW123795   0.916   2.334   5.189 -3.2601 -0.0465 -1.7386
 4053SOL    HW223796   0.836   2.218   5.220 -2.3135  0.5108 -0.2441
 4054SOL     OW23797   3.261   4.617   4.884 -0.5068 -0.0658  0.0205
 4054SOL    HW123798   3.188   4.571   4.927  0.5434 -2.0245 -0.3123
 4054SOL    HW223799   3.308   4.544   4.844  1.2508  0.8476  0.4236
 4055SOL     OW23800   1.466   1.197   8.176  0.4095 -0.0812  0.0997
 4055SOL    HW123801   1.375   1.216   8.198 -0.4701 -1.9762 -1.8457
 4055SOL    HW223802   1.453   1.150   8.093 -1.1735 -1.8470  1.3312
 4056SOL     OW23803   3.626   3.872  14.298 -0.5217 -0.3657 -0.0389
 4056SOL    HW123804   3.695   3.937  14.287 -0.2901 -0.5855  0.1049
 4056SOL    HW223805   3.650   3.817  14.373  2.3852  1.8234  0.6135
 4057SOL     OW23806   1.086   2.450   6.539  0.4239 -0.0366  0.7386
 4057SOL    HW123807   1.059   2.380   6.479 -0.2053 -0.7700  1.8818
 4057SOL    HW223808   1.124   2.402   6.613  1.3033 -0.4604  0.0142
 4058SOL     OW23809   2.398   1.741   5.696 -0.0103  0.1314 -0.1024
 4058SOL    HW123810   2.312   1.701   5.685  0.5089 -0.4423 -2.2340
 4058SOL    HW223811   2.401   1.802   5.622  1.3659 -1.1134 -1.0835
 4059SOL     OW23812   0.723   3.648  11.078  0.0138  0.1493 -0.3463
 4059SOL    HW123813   0.778   3.571  11.093  1.0818  1.0324  0.2853
 4059SOL    HW223814   0.640   3.632  11.123  0.7913 -0.9633  0.6943
 4060SOL     OW23815   2.053   1.609   7.208 -0.7961  0.0302  0.2679
 4060SOL    HW123816   2.081   1.519   7.191  0.6538  0.2143  1.6659
 4060SOL    HW223817   1.974   1.590   7.259 -0.9152 -1.1588 -0.3628
 4061SOL     OW23818   0.514   1.774   8.805  0.0757 -0.2600 -0.3575
 4061SOL    HW123819   0.567   1.695   8.799  1.6395  0.6770  0.9190
 4061SOL    HW223820   0.437   1.737   8.848 -0.9764  1.3875 -0.8285
 4062SOL     OW23821   3.144   3.672  16.353  0.4926  0.1318 -0.5355
 4062SOL    HW123822   3.108   3.721  16.427  1.3428 -0.3205  0.1832
 4062SOL    HW223823   3.078   3.608  16.329  0.0751  0.4175 -0.1441
 4063SOL     OW23824   2.293   3.500   2.135 -0.4428 -0.7715 -0.3818
 4063SOL    HW123825   2.279   3.406   2.145  0.5827 -0.9392 -0.5157
 4063SOL    HW223826   2.212   3.534   2.173  1.1585  1.9542  0.5911
 4064SOL     OW23827   1.015   3.506   3.438  0.0994 -0.1776  0.6614
 4064SOL    HW123828   0.924   3.524   3.458  0.2105 -0.1593  1.1374
 4064SOL    HW223829   1.060   3.575   3.486 -0.8308 -0.5440  2.0417
 4065SOL     OW23830   2.558   3.543   2.107 -0.3825  0.4336 -0.5711
 4065SOL    HW123831   2.557   3.449   2.094 -0.3266  0.3350  0.1235
 4065SOL    HW223832   2.464   3.557   2.118 -0.6128 -2.8750  1.4186
 4066SOL     OW23833   2.138   3.516   4.854 -0.4809 -0.4227 -0.0275
 4066SOL    HW123834   2.096   3.494   4.771 -0.9573  0.5219 -0.0337
 4066SOL    HW223835   2.224   3.534   4.816 -0.2627 -0.0313  0.6519
 4067SOL     OW23836   1.679   3.018   5.269 -0.2658 -0.4566 -0.0436
 4067SOL    HW123837   1.595   3.002   5.311  0.8881 -1.2229  1.9438
 4067SOL    HW223838   1.656   2.996   5.178  0.0071 -1.4590  0.1329
 4068SOL     OW23839   3.273   0.506  10.080  0.2562 -0.1123 -0.1763
 4068SOL    HW123840   3.199   0.558  10.112  1.1190  1.4952 -0.7614
 4068SOL    HW223841   3.230   0.465  10.005 -0.0018 -0.7241  0.3097
 4069SOL     OW23842   1.411   4.196   5.222  0.1774 -0.2242 -0.7886
 4069SOL    HW123843   1.325   4.217   5.185  0.2308  0.1602 -0.6928
 4069SOL    HW223844   1.475   4.181   5.153  0.5366 -0.1685 -0.4657
 4070SOL     OW23845   1.094   2.230   1.415 -0.7214  0.0472  0.2138
 4070SOL    HW123846   1.108   2.136   1.427 -0.7781  0.1065  0.7274
 4070SOL    HW223847   1.180   2.239   1.372 -0.0530 -0.8975  1.3593
 4071SOL     OW23848   1.802   3.808  12.089  0.2478  0.5117 -0.3500
 4071SOL    HW123849   1.810   3.895  12.051 -0.7125  0.2065 -1.2465
 4071SOL    HW223850   1.888   3.809  12.130 -0.6046 -2.4611  1.5754
 4072SOL     OW23851   0.556   1.670   2.279 -0.4450 -0.2608  0.7267
 4072SOL    HW123852   0.576   1.577   2.270 -0.9138 -0.4844  1.8973
 4072SOL    HW223853   0.615   1.726   2.229  0.7085 -0.3204  2.0259
 4073SOL     OW23854   0.829   0.679  16.056  0.5239 -1.0250  0.6410
 4073SOL    HW123855   0.751   0.641  16.017 -0.0017  0.0112  0.6789
 4073SOL    HW223856   0.801   0.770  16.063  2.2539 -0.5287  1.1316
 4074SOL     OW23857   4.210   2.801  16.887  0.0952 -0.6354  0.0911
 4074SOL    HW123858   4.174   2.786  16.799  1.0390  1.3675 -0.6419
 4074SOL    HW223859   4.148   2.754  16.941  0.7393 -1.9500 -0.3141
 4075SOL     OW23860   0.495   1.617   4.384  0.0164  0.2743 -0.1124
 4075SOL    HW123861   0.552   1.579   4.450  1.3505  0.6546 -1.0536
 4075SOL    HW223862   0.415   1.570   4.406  0.0819 -0.1035 -0.7087
 4076SOL     OW23863   4.071   1.534   9.595 -0.0994  0.0920 -0.0694
 4076SOL    HW123864   4.089   1.455   9.647  0.2178  0.2765  0.1019
 4076SOL    HW223865   4.008   1.504   9.529  0.0322  0.4218 -0.3447
 4077SOL     OW23866   2.809   3.580   8.785 -0.1348 -0.1904  0.2153
 4077SOL    HW123867   2.877   3.513   8.788 -0.9735 -1.0151  0.6849
 4077SOL    HW223868   2.827   3.626   8.867  1.7251 -1.4952  0.5497
 4078SOL     OW23869   0.131   1.003   7.702  0.3298 -0.7873  0.0818
 4078SOL    HW123870   0.074   1.080   7.699  1.8254  0.2428 -1.6484
 4078SOL    HW223871   0.211   1.032   7.658 -0.4927  1.4699  0.0574
 4079SOL     OW23872   1.190   0.912   8.262  0.6400 -0.5745  0.0011
 4079SOL    HW123873   1.201   0.974   8.335  0.0089  1.7775 -1.8831
 4079SOL    HW223874   1.282   0.890   8.245  2.0233  3.7076  1.9108
 4080SOL     OW23875   4.021   0.221   6.500 -0.0813 -0.1816  0.3323
 4080SOL    HW123876   3.991   0.274   6.426 -0.8019  0.3543  1.0054
 4080SOL    HW223877   4.048   0.290   6.561  0.4243 -0.1535  0.0688
 4081SOL     OW23878   1.073   1.211   1.052  0.2863 -0.0289 -0.6096
 4081SOL    HW123879   1.165   1.219   1.025  1.0344 -0.6565  1.7140
 4081SOL    HW223880   1.041   1.300   1.034  1.6675  0.6047  0.0600
 4082SOL     OW23881   1.600   1.831   3.812  0.1973 -0.2001  0.1826
 4082SOL    HW123882   1.520   1.812   3.860 -0.7772  2.7629 -0.2643
 4082SOL    HW223883   1.593   1.926   3.800 -0.2302 -0.2462  0.0890
 4083SOL     OW23884   0.636   2.269  16.454  0.0372 -1.0179  0.6733
 4083SOL    HW123885   0.657   2.352  16.497  0.6931 -0.4219 -0.8166
 4083SOL    HW223886   0.674   2.290  16.369 -1.0778  0.1794  0.4701
 4084SOL     OW23887   0.903   3.644   0.230  0.6598 -0.2520  0.5160
 4084SOL    HW123888   0.817   3.687   0.230  2.2105  2.8780 -0.0037
 4084SOL    HW223889   0.951   3.687   0.160 -0.0691  2.2952  1.5680
 4085SOL     OW23890   4.254   0.624   8.649 -0.5544 -0.3857  0.2690
 4085SOL    HW123891   4.205   0.542   8.646  1.4385 -1.5929  0.7655
 4085SOL    HW223892   4.283   0.628   8.557  0.6572  1.0173  0.7052
 4086SOL     OW23893   3.223   4.342   8.346 -0.0003 -0.7572 -0.0401
 4086SOL    HW123894   3.268   4.349   8.430 -1.1396  1.6307  0.3601
 4086SOL    HW223895   3.206   4.248   8.345 -0.6282 -0.6607  2.3406
 4087SOL     OW23896   1.389   2.107  13.635  0.7824 -0.1168 -0.2656
 4087SOL    HW123897   1.379   2.196  13.601 -1.3979 -0.8949 -1.6785
 4087SOL    HW223898   1.451   2.063  13.578  2.1496  0.5680  0.6929
 4088SOL     OW23899   3.593   0.670   9.039 -0.1827  0.1626 -0.0389
 4088SOL    HW123900   3.648   0.667   8.961  1.0638 -2.2345  0.9587
 4088SOL    HW223901   3.509   0.634   9.009  0.2318 -0.3482 -0.5664
 4089SOL     OW23902   0.549   2.224   8.081 -0.0048  0.1565 -0.0676
 4089SOL    HW123903   0.608   2.253   8.150  1.8400 -0.6701 -1.3135
 4089SOL    HW223904   0.486   2.295   8.086 -1.5011 -1.1990  0.5887
 4090SOL     OW23905   0.080   4.538   2.848  0.6614 -0.3023  0.1370
 4090SOL    HW123906   0.122   4.549   2.763 -3.4684  1.3032 -1.6556
 4090SOL    HW223907   0.023   4.615   2.850 -0.4144 -1.1327  1.1366
 4091SOL     OW23908   2.335   0.513   5.574 -0.5077  0.1894 -0.2803
 4091SOL    HW123909   2.351   0.539   5.483  2.4395  2.0338  0.7648
 4091SOL    HW223910   2.242   0.535   5.588 -0.6626 -0.0929 -0.8753
 4092SOL     OW23911   3.161   1.036  11.909  0.1056  0.3233 -0.6764
 4092SOL    HW123912   3.163   0.940  11.916  2.2813  0.5222  1.1812
 4092SOL    HW223913   3.218   1.061  11.836 -0.0139  1.2240 -0.4610
 4093SOL     OW23914   3.616   4.248   2.550 -0.2076 -0.5006  0.7310
 4093SOL    HW123915   3.582   4.175   2.601  0.3847 -1.7979 -0.7540
 4093SOL    HW223916   3.624   4.315   2.619  0.1207 -1.0129  1.1880
 4094SOL     OW23917   2.184   0.839  14.011 -0.3525 -0.0873  0.1621
 4094SOL    HW123918   2.218   0.767  14.064 -0.2407 -1.7213 -2.1139
 4094SOL    HW223919   2.089   0.831  14.016 -0.2712  0.0653  1.7902
 4095SOL     OW23920   2.813   0.893   4.420 -0.2234 -0.3042  0.7443
 4095SOL    HW123921   2.769   0.977   4.433 -0.5396 -0.0586 -1.8844
 4095SOL    HW223922   2.828   0.872   4.512 -1.1006 -2.1960  0.4523
 4096SOL     OW23923   4.084   4.708   9.091 -0.1182 -0.1784  0.4282
 4096SOL    HW123924   4.139   4.727   9.016 -2.4907  0.7306 -1.0697
 4096SOL    HW223925   4.009   4.666   9.048  1.0781 -0.7488 -1.0751
 4097SOL     OW23926   0.705   1.741   7.589  0.0007  0.4141  0.6662
 4097SOL    HW123927   0.774   1.806   7.598 -0.1854  0.7721 -0.5589
 4097SOL    HW223928   0.631   1.791   7.553  0.9558  2.8745  2.1361
 4098SOL     OW23929   4.340   1.121   0.763  0.4235 -0.0023 -0.0975
 4098SOL    HW123930   4.274   1.187   0.785  2.1519  0.8169  2.5730
 4098SOL    HW223931   4.422   1.167   0.782  1.7781 -0.5372 -4.8439
 4099SOL     OW23932   0.389   1.979   2.879 -0.2081 -0.0102  0.3695
 4099SOL    HW123933   0.350   1.969   2.792 -0.8185  0.5814  0.5709
 4099SOL    HW223934   0.443   1.901   2.893 -0.7951 -0.2740  1.1514
 4100SOL     OW23935   2.341   3.805   9.877 -0.1606 -0.0635 -0.9676
 4100SOL    HW123936   2.281   3.748   9.827  0.1065  0.6026 -2.0593
 4100SOL    HW223937   2.423   3.800   9.828 -0.6025  0.9993 -1.8052
 4101SOL     OW23938   4.613   0.931   0.970  0.3850 -0.4012  0.0434
 4101SOL    HW123939   4.534   0.885   0.939  0.1167  1.6541 -2.2866
 4101SOL    HW223940   4.602   0.956   1.062  1.5186  1.0877 -0.2343
 4102SOL     OW23941   3.749   0.623   9.381 -0.1604  0.4379 -0.1525
 4102SOL    HW123942   3.716   0.697   9.432 -1.9985 -0.0659 -0.6094
 4102SOL    HW223943   3.829   0.646   9.334 -0.7361  2.1603 -0.2914
 4103SOL     OW23944   1.070   0.204   3.011  0.0900 -0.6136  0.5301
 4103SOL    HW123945   1.149   0.202   3.064  1.1850 -1.4867 -1.1226
 4103SOL    HW223946   1.023   0.131   3.053 -1.2846  0.3139  0.6114
 4104SOL     OW23947   2.008   3.572   3.942  0.1029  0.7722  0.5448
 4104SOL    HW123948   1.916   3.597   3.942 -0.5196 -1.5652 -1.0057
 4104SOL    HW223949   2.053   3.653   3.918  0.2357 -0.3538 -2.9643
 4105SOL     OW23950   2.738   0.585   6.515 -0.0107  0.0175  0.8433
 4105SOL    HW123951   2.776   0.618   6.433 -2.6006  0.6162 -0.1189
 4105SOL    HW223952   2.706   0.668   6.550 -0.8058 -0.7777  1.9989
 4106SOL     OW23953   0.620   4.340  11.958 -0.3002 -0.2364  0.0994
 4106SOL    HW123954   0.706   4.381  11.953 -0.3663  0.1446  1.8987
 4106SOL    HW223955   0.575   4.395  12.023  0.9000  0.8533  0.0039
 4107SOL     OW23956   2.656   3.784   7.306 -0.9144  0.2908 -0.2983
 4107SOL    HW123957   2.738   3.740   7.282 -1.4776 -1.8771  1.7510
 4107SOL    HW223958   2.682   3.874   7.325 -0.3807  0.1984 -0.5883
 4108SOL     OW23959   2.160   2.475  14.696 -0.0503  0.1710  0.3539
 4108SOL    HW123960   2.210   2.526  14.760 -0.3313  1.2235 -0.2582
 4108SOL    HW223961   2.224   2.405  14.679  0.1862  0.9342 -1.9511
 4109SOL     OW23962   1.957   4.086   6.018  0.4102  0.7516 -0.3003
 4109SOL    HW123963   1.873   4.111   6.057  0.2583  1.1690 -0.8900
 4109SOL    HW223964   1.989   4.172   5.989  1.4680  0.3620 -0.2839
 4110SOL     OW23965   2.057   3.333   4.076  0.3788 -0.1200 -0.1535
 4110SOL    HW123966   2.055   3.403   4.011  1.5258 -0.5642 -0.6678
 4110SOL    HW223967   1.989   3.274   4.042 -0.1828  0.7325 -0.5114
 4111SOL     OW23968   1.198   0.280   0.043 -0.2030  0.1875  0.0877
 4111SOL    HW123969   1.120   0.229   0.068  2.6114 -3.8779  0.6201
 4111SOL    HW223970   1.243   0.290   0.126  2.4913 -2.0846 -1.1026
 4112SOL     OW23971   3.897   0.819   6.518  0.1697  0.2333 -0.3417
 4112SOL    HW123972   3.867   0.778   6.437 -1.4931  0.9110 -0.0640
 4112SOL    HW223973   3.918   0.908   6.488  0.8673 -0.0494 -0.6894
 4113SOL     OW23974   2.315   2.663   5.717 -0.3638 -0.7247  0.4308
 4113SOL    HW123975   2.351   2.698   5.798 -0.9749  1.2497 -0.1456
 4113SOL    HW223976   2.288   2.575   5.745 -0.1062 -1.2184 -0.8573
 4114SOL     OW23977   2.470   0.975   0.345 -0.1203 -0.3335 -0.2133
 4114SOL    HW123978   2.405   0.913   0.311  0.3161 -0.4291 -0.8613
 4114SOL    HW223979   2.412   1.011   0.413  2.6356 -1.5869  2.8097
 4115SOL     OW23980   1.608   2.549   7.146  0.2016  0.3967  0.0781
 4115SOL    HW123981   1.676   2.566   7.082  1.6926 -0.1805  1.4954
 4115SOL    HW223982   1.606   2.634   7.191  1.2901  0.7407 -0.5250
 4116SOL     OW23983   1.537   1.495   4.269  0.0837  0.4131  0.0803
 4116SOL    HW123984   1.482   1.447   4.208  1.5639 -0.4972 -0.5485
 4116SOL    HW223985   1.505   1.465   4.354  1.7481  0.5948  0.7708
 4117SOL     OW23986   2.213   3.196   7.560 -0.5077 -0.2832 -0.1322
 4117SOL    HW123987   2.241   3.282   7.529  1.0442 -0.3963  0.9785
 4117SOL    HW223988   2.297   3.150   7.572 -1.0863 -1.4260 -0.4430
 4118SOL     OW23989   3.606   2.548   7.567 -0.3327  0.8560 -0.3809
 4118SOL    HW123990   3.691   2.563   7.526 -0.0544  0.1029 -0.0893
 4118SOL    HW223991   3.599   2.626   7.621  1.3134 -2.6859  4.9486
 4119SOL     OW23992   4.693   0.971   9.152  0.2574  0.2174 -0.0843
 4119SOL    HW123993   0.016   0.897   9.152 -0.8070 -0.6649 -0.1981
 4119SOL    HW223994   0.024   1.033   9.175  2.2429 -2.1167  0.3509
 4120SOL     OW23995   2.485   4.661   9.024 -0.0251  0.0980 -0.6463
 4120SOL    HW123996   2.535   4.658   9.105 -0.6305 -1.8039 -0.3263
 4120SOL    HW223997   2.539   4.721   8.973 -1.1333  1.9027  0.2988
 4121SOL     OW23998   2.499   1.384   3.172 -0.6218  0.1264  0.0475
 4121SOL    HW123999   2.557   1.413   3.101 -2.2149  1.9063 -0.5272
 4121SOL    HW224000   2.424   1.428   3.131 -1.8620 -0.2137  1.9408
 4122SOL     OW24001   1.872   2.424   9.910  0.5689 -0.7354 -0.0079
 4122SOL    HW124002   1.925   2.378   9.846  0.7280 -1.3618  0.5823
 4122SOL    HW224003   1.870   2.509   9.865 -1.2523 -0.5459  0.3929
 4123SOL     OW24004   1.837   3.179   4.021  0.0052 -0.4948 -0.2350
 4123SOL    HW124005   1.767   3.209   3.962  0.2325  0.7444  0.1283
 4123SOL    HW224006   1.791   3.210   4.099  0.5286 -1.5018  0.4694
 4124SOL     OW24007   0.364   0.275  16.506  0.1276  0.3220  0.3246
 4124SOL    HW124008   0.313   0.293  16.428  0.4205 -0.9826 -0.1647
 4124SOL    HW224009   0.444   0.323  16.482 -0.2623  0.0493 -1.5134
 4125SOL     OW24010   2.258   3.030   8.371  0.3047 -0.4615  0.1047
 4125SOL    HW124011   2.273   3.059   8.461  0.5971  0.1015 -0.1191
 4125SOL    HW224012   2.212   3.101   8.325 -2.7728 -1.7012  1.2621
 4126SOL     OW24013   1.879   0.789  12.389 -0.3688  0.2113  0.7034
 4126SOL    HW124014   1.859   0.876  12.356  0.9813  0.5797  0.8482
 4126SOL    HW224015   1.824   0.780  12.467 -0.1390 -0.4828  0.7906
 4127SOL     OW24016   0.226   1.230   2.377  0.4720  0.8281 -0.1552
 4127SOL    HW124017   0.215   1.303   2.316  1.3094 -0.0511 -1.3555
 4127SOL    HW224018   0.281   1.181   2.316  0.6349  0.0439  0.6150
 4128SOL     OW24019   4.346   2.779   7.221  0.3728  0.1918 -0.7163
 4128SOL    HW124020   4.427   2.807   7.263 -0.7655  3.2246 -0.5360
 4128SOL    HW224021   4.375   2.755   7.133 -1.3704 -0.8918 -0.9731
 4129SOL     OW24022   4.437   1.647   9.635 -0.2084  0.0681 -0.0844
 4129SOL    HW124023   4.518   1.643   9.687 -0.9031  1.5685  1.1269
 4129SOL    HW224024   4.484   1.627   9.554  0.2377 -1.0271  0.4451
 4130SOL     OW24025   3.460   3.851   2.315  0.2658 -0.0910 -0.1132
 4130SOL    HW124026   3.521   3.779   2.331 -0.4755 -0.6486  0.2255
 4130SOL    HW224027   3.461   3.887   2.404  2.4133 -0.8202  0.1346
 4131SOL     OW24028   1.376   3.222  15.059 -0.0972 -0.3934 -0.5567
 4131SOL    HW124029   1.329   3.144  15.088  0.9010 -0.5653  0.5999
 4131SOL    HW224030   1.327   3.240  14.978  0.1699  0.1256 -0.6050
 4132SOL     OW24031   2.893   4.372   4.489 -0.5654 -0.0051  0.2858
 4132SOL    HW124032   2.815   4.383   4.434 -0.4489 -0.2472  0.0729
 4132SOL    HW224033   2.903   4.277   4.488  0.9789  0.1699 -1.3899
 4133SOL     OW24034   3.214   4.477  10.437  0.2793  0.3476  0.3555
 4133SOL    HW124035   3.193   4.398  10.488 -0.1456 -1.6758 -2.9543
 4133SOL    HW224036   3.133   4.528  10.435  0.4101  0.4487 -1.6866
 4134SOL     OW24037   0.428   3.885  17.233 -0.2779 -0.2090 -0.3581
 4134SOL    HW124038   0.500   3.928  17.280  0.2344 -0.1861 -1.1717
 4134SOL    HW224039   0.382   3.830  17.296  0.8123 -1.5380 -0.7212
 4135SOL     OW24040   3.132   0.620  14.938  0.2011  0.0947  0.2006
 4135SOL    HW124041   3.183   0.637  15.018  0.9408  0.8307 -0.4288
 4135SOL    HW224042   3.180   0.540  14.914  0.9553  0.6482 -0.1242
 4136SOL     OW24043   2.038   0.184   4.819  0.1494  0.3249  0.1768
 4136SOL    HW124044   2.079   0.268   4.839 -0.2984  0.8255 -1.0106
 4136SOL    HW224045   2.022   0.190   4.724 -0.2789 -0.9473  0.1683
 4137SOL     OW24046   3.396   0.661   8.685  0.0746  0.1698  0.0637
 4137SOL    HW124047   3.371   0.571   8.668 -0.7320  0.7101 -1.5923
 4137SOL    HW224048   3.317   0.683   8.735 -0.2352  1.3126 -0.9155
 4138SOL     OW24049   2.442   0.887  16.195 -0.0350  0.0470  1.1814
 4138SOL    HW124050   2.522   0.846  16.162 -0.9114  1.0189 -2.1420
 4138SOL    HW224051   2.449   0.854  16.284 -0.3587 -1.5115  0.6324
 4139SOL     OW24052   3.086   2.725   7.676  0.0112 -0.3392  0.2274
 4139SOL    HW124053   3.060   2.745   7.766  2.8182  0.5824  0.8283
 4139SOL    HW224054   3.051   2.637   7.662 -0.1317 -0.0203 -1.4238
 4140SOL     OW24055   3.247   4.296   8.916 -0.0802 -0.2907 -0.1625
 4140SOL    HW124056   3.184   4.318   8.985 -1.7654  1.6233 -2.2975
 4140SOL    HW224057   3.237   4.202   8.905  1.5996 -0.5283  0.5041
 4141SOL     OW24058   3.278   3.367  15.501  0.3619  0.1713 -0.3393
 4141SOL    HW124059   3.252   3.364  15.593 -0.1668 -3.2273 -0.5880
 4141SOL    HW224060   3.359   3.317  15.510  0.2854  0.0565 -0.2860
 4142SOL     OW24061   1.405   1.662   5.136  0.1173  0.1869 -0.2462
 4142SOL    HW124062   1.312   1.683   5.136 -0.6130 -3.0140 -1.8409
 4142SOL    HW224063   1.415   1.663   5.231  1.2064 -1.6471 -0.3311
 4143SOL     OW24064   3.918   3.274   5.206 -0.2933 -0.1287 -0.2032
 4143SOL    HW124065   3.848   3.250   5.267  2.4682 -0.1072  2.9949
 4143SOL    HW224066   3.901   3.368   5.202  0.6478  0.0416 -0.2218
 4144SOL     OW24067   2.722   0.540   3.841 -0.4566  0.0368 -0.7645
 4144SOL    HW124068   2.677   0.488   3.773 -1.5190  2.0979 -1.6427
 4144SOL    HW224069   2.748   0.465   3.894  1.1554 -0.1794 -1.8428
 4145SOL     OW24070   3.774   0.663   0.886  0.1484 -0.2352 -0.4810
 4145SOL    HW124071   3.842   0.595   0.884  0.7754  0.4448 -2.5212
 4145SOL    HW224072   3.800   0.707   0.967  1.7715 -0.7324 -0.7177
 4146SOL     OW24073   2.652   3.504   9.618 -0.2179 -0.0653 -0.7210
 4146SOL    HW124074   2.629   3.413   9.598 -1.6012  0.8402 -3.2905
 4146SOL    HW224075   2.742   3.498   9.647 -0.9273  1.0507  1.7691
 4147SOL     OW24076   1.671   0.131  13.419 -0.2321  0.7556  0.1080
 4147SOL    HW124077   1.631   0.115  13.504  0.1532  0.5741  0.2560
 4147SOL    HW224078   1.614   0.070  13.372  1.2546 -0.0944 -0.5926
 4148SOL     OW24079   0.958   0.060   3.455 -0.2010 -0.2071 -0.0894
 4148SOL    HW124080   0.989   0.125   3.391 -2.3414  1.5600  0.6598
 4148SOL    HW224081   0.990   4.715   3.420  0.0751 -0.2191  0.1942
 4149SOL     OW24082   3.771   4.591   0.568 -0.3308 -0.6006 -0.2040
 4149SOL    HW124083   3.681   4.568   0.543 -0.8353  0.2861  0.7974
 4149SOL    HW224084   3.825   4.542   0.506  2.0995  0.8383  0.7601
 4150SOL     OW24085   2.678   3.488   3.098  0.1249  0.5242  0.0836
 4150SOL    HW124086   2.714   3.437   3.025 -1.2468 -0.4646  0.1046
 4150SOL    HW224087   2.610   3.426   3.126  0.8089 -0.0189  0.5497
 4151SOL     OW24088   3.356   1.928   7.141  0.1264  0.5673 -0.1427
 4151SOL    HW124089   3.364   1.833   7.146  2.2339  0.7662  0.0925
 4151SOL    HW224090   3.269   1.941   7.101 -0.8283  0.7674  2.0001
 4152SOL     OW24091   2.305   1.478   3.009 -0.5312 -0.0677 -0.2410
 4152SOL    HW124092   2.274   1.397   2.969  0.4021 -0.3693 -0.3476
 4152SOL    HW224093   2.226   1.508   3.055 -0.0358  0.4145  0.2980
 4153SOL     OW24094   2.904   3.584   8.506 -0.3387  0.7001  0.0564
 4153SOL    HW124095   2.811   3.567   8.516 -0.0835 -0.0077  1.2350
 4153SOL    HW224096   2.941   3.497   8.524  3.8696  2.2647 -1.0249
 4154SOL     OW24097   0.255   0.604   5.956 -0.1927 -0.0532 -0.1464
 4154SOL    HW124098   0.204   0.680   5.928 -0.5171 -0.4919 -0.7458
 4154SOL    HW224099   0.181   0.543   5.956  0.8890 -1.3688  1.6606
 4155SOL     OW24100   0.108   4.258   9.983  0.3521 -0.4405  0.1729
 4155SOL    HW124101   0.082   4.281  10.072 -0.6471  1.5713 -0.6583
 4155SOL    HW224102   0.182   4.203  10.008 -0.2083 -1.1479  0.2846
 4156SOL     OW24103   3.770   1.198   1.001 -0.4611 -0.4089  0.2559
 4156SOL    HW124104   3.733   1.120   1.044  0.1265 -0.3611  0.8475
 4156SOL    HW224105   3.754   1.259   1.073  0.0594 -0.7744  0.6845
 4157SOL     OW24106   0.919   2.551   0.089  0.1588  0.1175  0.2157
 4157SOL    HW124107   0.923   2.597   0.174  1.1842 -0.0152  0.2448
 4157SOL    HW224108   0.855   2.606   0.044 -2.3403 -2.5925  0.4392
 4158SOL     OW24109   3.110   1.471   9.043 -0.4873 -0.0044  0.4156
 4158SOL    HW124110   3.108   1.433   8.956  1.2358 -0.1213  0.4245
 4158SOL    HW224111   3.022   1.506   9.055 -0.4877 -0.7659  2.6266
 4159SOL     OW24112   2.851   3.949   8.077 -0.2964 -0.0987  0.0624
 4159SOL    HW124113   2.757   3.935   8.069 -0.7439  2.7132  0.2352
 4159SOL    HW224114   2.878   3.862   8.105  1.1077  1.1640  2.7020
 4160SOL     OW24115   1.384   0.470   2.391 -0.1678  0.1048 -0.3779
 4160SOL    HW124116   1.466   0.432   2.424  0.4189  1.2366 -0.5154
 4160SOL    HW224117   1.404   0.483   2.299  0.8028  0.8498 -0.0633
 4161SOL     OW24118   0.331   3.189   2.058 -0.2411 -0.5206  0.3956
 4161SOL    HW124119   0.352   3.100   2.088 -0.0254 -0.8282 -0.6418
 4161SOL    HW224120   0.310   3.223   2.144  1.8355 -1.1054  1.1360
 4162SOL     OW24121   3.875   1.540   9.409  0.3203  0.0040 -0.3015
 4162SOL    HW124122   3.859   1.584   9.326 -0.4913 -1.4348 -0.9160
 4162SOL    HW224123   3.869   1.449   9.380 -0.5069  0.8849 -2.9096
 4163SOL     OW24124   3.541   1.330   8.972 -0.1103 -0.2459  0.6461
 4163SOL    HW124125   3.583   1.392   9.032 -1.7752  2.3904 -0.9135
 4163SOL    HW224126   3.621   1.293   8.936  0.3010 -0.1537  1.4701
 4164SOL     OW24127   4.115   1.465   2.952 -0.2552 -0.3080 -0.0207
 4164SOL    HW124128   4.047   1.522   2.987 -1.2190 -1.8532  0.6173
 4164SOL    HW224129   4.086   1.374   2.961  1.3058 -0.6443  1.5736
 4165SOL     OW24130   1.203   2.828   0.517 -0.0806 -0.0580 -0.0577
 4165SOL    HW124131   1.269   2.758   0.526 -1.2976 -1.4588 -2.0351
 4165SOL    HW224132   1.204   2.879   0.598  1.4826  0.6261 -0.5020
 4166SOL     OW24133   2.402   1.389   4.735 -0.0637  0.3298 -0.0548
 4166SOL    HW124134   2.314   1.414   4.708  0.9824  1.5923 -2.3262
 4166SOL    HW224135   2.386   1.386   4.829 -0.5537 -0.2039 -0.1552
 4167SOL     OW24136   0.668   4.589   7.434  0.3668  0.0418  0.1629
 4167SOL    HW124137   0.645   4.663   7.490  4.5445  1.5022 -0.0939
 4167SOL    HW224138   0.745   4.612   7.382  0.2577  0.3281  0.1307
 4168SOL     OW24139   3.342   1.376   7.418  0.0285  0.5730 -0.1487
 4168SOL    HW124140   3.253   1.382   7.452  0.7768  2.3282  1.4689
 4168SOL    HW224141   3.324   1.319   7.343  0.2701 -1.2652  1.1656
 4169SOL     OW24142   1.044   1.931   9.558 -0.2520 -0.3902  0.0316
 4169SOL    HW124143   1.100   1.859   9.530 -0.7312 -0.5508 -0.5292
 4169SOL    HW224144   0.957   1.897   9.535 -1.0359  0.6839  1.3401
 4170SOL     OW24145   4.180   4.379   5.364  0.2203  0.5541  0.3902
 4170SOL    HW124146   4.147   4.300   5.407  0.9748  0.3973  0.6799
 4170SOL    HW224147   4.093   4.420   5.363  1.7589  3.6811 -2.7061
 4171SOL     OW24148   1.548   3.929  11.902 -0.1641  0.1517 -0.1394
 4171SOL    HW124149   1.578   3.843  11.871  1.4749  0.3835  0.8121
 4171SOL    HW224150   1.469   3.906  11.950 -1.8416  1.5941 -2.2122
 4172SOL     OW24151   3.069   1.794   7.245 -0.0584 -0.1415  0.2925
 4172SOL    HW124152   2.985   1.749   7.237 -0.7775  0.8757  2.3334
 4172SOL    HW224153   3.127   1.736   7.294  0.7350  2.1256  2.0193
 4173SOL     OW24154   3.125   4.076   1.465 -0.5519  0.0199  0.5520
 4173SOL    HW124155   3.061   4.078   1.536 -0.0038 -2.4447  1.1197
 4173SOL    HW224156   3.138   4.170   1.455  0.0433 -0.2254 -1.0617
 4174SOL     OW24157   0.983   2.909   2.765 -0.4531 -0.3567 -0.5221
 4174SOL    HW124158   0.898   2.903   2.809 -1.3191  0.5813 -2.0625
 4174SOL    HW224159   0.976   3.004   2.756  2.0753 -0.2368 -1.1767
 4175SOL     OW24160   0.576   3.036  11.514 -0.2652  0.5548  0.4582
 4175SOL    HW124161   0.608   2.956  11.557  1.2418  0.5195 -0.7158
 4175SOL    HW224162   0.629   3.100  11.560 -1.0454  0.6327  1.2532
 4176SOL     OW24163   2.055   2.541  13.435 -0.3354  0.1653  0.0332
 4176SOL    HW124164   2.083   2.449  13.437  1.4625  0.6903 -0.5964
 4176SOL    HW224165   1.972   2.529  13.481 -0.7443 -0.2445 -0.7985
 4177SOL     OW24166   0.620   4.181   6.126 -0.4697  0.2835  0.0881
 4177SOL    HW124167   0.603   4.117   6.196 -1.0005  1.7909  1.3314
 4177SOL    HW224168   0.579   4.128   6.057 -0.0406 -1.9279  1.5301
 4178SOL     OW24169   3.941   4.682   2.482  0.0158  0.7438 -0.2622
 4178SOL    HW124170   3.871   4.631   2.523  0.6268  1.3465  1.5285
 4178SOL    HW224171   3.916   4.682   2.389  0.1742  1.7236 -0.3005
 4179SOL     OW24172   3.303   0.753   4.237 -0.2122  0.3907 -0.1594
 4179SOL    HW124173   3.346   0.800   4.308  3.5480  0.3184 -2.4159
 4179SOL    HW224174   3.212   0.773   4.261 -0.7063 -2.1074  0.1002
 4180SOL     OW24175   4.284   2.044   6.560  0.1693  0.1258  0.0094
 4180SOL    HW124176   4.231   2.058   6.639 -0.1900 -0.9486 -0.0544
 4180SOL    HW224177   4.249   2.124   6.519 -2.8201 -1.2017 -0.0366
 4181SOL     OW24178   4.001   3.651   7.084  0.2760 -0.4444 -0.4723
 4181SOL    HW124179   4.052   3.642   7.164  0.6162 -0.5817 -0.7034
 4181SOL    HW224180   4.063   3.623   7.015 -0.0611 -1.7073 -0.2704
 4182SOL     OW24181   3.610   4.379   2.805  0.3075  0.3423  0.5758
 4182SOL    HW124182   3.617   4.331   2.888  1.8001 -0.6263 -0.1192
 4182SOL    HW224183   3.545   4.440   2.839 -1.6731 -1.2347 -0.3370
 4183SOL     OW24184   0.598   2.278  10.011 -0.5497  0.6708 -0.2669
 4183SOL    HW124185   0.632   2.190  10.029  2.2996  2.3594  2.6827
 4183SOL    HW224186   0.665   2.326   9.962 -0.3726  0.3277 -0.3602
 4184SOL     OW24187   2.270   1.312   8.550 -0.4177  0.0246  0.0743
 4184SOL    HW124188   2.262   1.296   8.456 -0.6426 -3.8171  0.7504
 4184SOL    HW224189   2.183   1.346   8.571 -0.3267  1.8944 -2.6121
 4185SOL     OW24190   1.219   0.697  13.554  0.0020  0.9868 -0.2022
 4185SOL    HW124191   1.142   0.644  13.537 -1.4884  3.0307  0.1764
 4185SOL    HW224192   1.289   0.652  13.507  1.2692  1.6708  1.0159
 4186SOL     OW24193   4.318   3.964   4.327 -0.1298 -0.0214 -0.5818
 4186SOL    HW124194   4.330   4.024   4.401  0.3064 -1.6345  0.6802
 4186SOL    HW224195   4.394   3.908   4.342 -0.7782 -1.2753 -1.9314
 4187SOL     OW24196   1.578   2.846  16.723 -0.2544  0.6050 -0.5135
 4187SOL    HW124197   1.650   2.897  16.759  1.8298 -2.1782 -0.7377
 4187SOL    HW224198   1.524   2.911  16.679 -0.7569  0.9400  0.5861
 4188SOL     OW24199   0.946   2.752   2.544 -0.4901 -0.2848  0.2435
 4188SOL    HW124200   0.954   2.816   2.615 -0.1953  0.0744 -0.1137
 4188SOL    HW224201   1.015   2.788   2.489  1.6789 -1.2284  2.3408
 4189SOL     OW24202   4.276   2.850   1.442 -0.4690  0.1385 -0.4302
 4189SOL    HW124203   4.246   2.939   1.464  0.8722  0.9698 -1.9251
 4189SOL    HW224204   4.361   2.855   1.485 -1.1275 -1.2348  0.9916
 4190SOL     OW24205   2.280   0.197   7.970 -0.0187  0.3277 -0.1157
 4190SOL    HW124206   2.352   0.139   7.996  1.4762  3.5539  2.9372
 4190SOL    HW224207   2.214   0.176   8.036 -0.2268 -1.2935 -0.8487
 4191SOL     OW24208   3.195   2.343   2.481  0.0987  0.0315  0.5960
 4191SOL    HW124209   3.236   2.257   2.471  0.0711 -0.1404  2.0040
 4191SOL    HW224210   3.137   2.323   2.554  1.4891 -0.7796  1.4786
 4192SOL     OW24211   4.087   2.723   2.564 -0.3789 -0.2206  0.1415
 4192SOL    HW124212   4.116   2.666   2.635  2.0732  0.3781 -0.4153
 4192SOL    HW224213   4.138   2.690   2.491 -0.9815  1.5335 -1.0696
 4193SOL     OW24214   3.683   0.511   5.724  0.4916 -0.2997 -0.5367
 4193SOL    HW124215   3.772   0.545   5.729  0.1797  0.1299  2.1376
 4193SOL    HW224216   3.652   0.570   5.656 -0.5999 -3.1477 -2.5112
 4194SOL     OW24217   4.725   3.883  14.397 -0.2982 -0.2789 -0.4753
 4194SOL    HW124218   4.713   3.976  14.414 -1.4895  0.0623 -3.1423
 4194SOL    HW224219   0.010   3.845  14.482 -0.1563 -0.5614 -0.6407
 4195SOL     OW24220   0.891   0.040   4.311  0.1201  0.3276  0.7575
 4195SOL    HW124221   0.850   0.096   4.378 -0.2643  0.8034  0.1177
 4195SOL    HW224222   0.865   4.691   4.341 -1.0887  1.0540  1.8600
 4196SOL     OW24223   4.376   0.008   6.624 -0.2474  0.1529  0.5217
 4196SOL    HW124224   4.331   0.075   6.675  0.3624  0.1156  1.1041
 4196SOL    HW224225   4.334   0.029   6.540  0.3428  0.1128  0.2129
 4197SOL     OW24226   0.706   3.713   0.554 -0.3150 -0.3309 -0.0694
 4197SOL    HW124227   0.645   3.692   0.483 -0.3702  0.9424 -0.3971
 4197SOL    HW224228   0.646   3.700   0.627  0.4257 -2.2906  0.1871
 4198SOL     OW24229   2.763   1.555   5.965  0.2318 -0.1193  0.2918
 4198SOL    HW124230   2.791   1.482   5.910  0.4644  1.2814 -1.4382
 4198SOL    HW224231   2.678   1.580   5.930  0.6927  0.6603 -0.2727
 4199SOL     OW24232   0.928   3.982   2.684  0.2517  0.1877 -0.5292
 4199SOL    HW124233   1.007   4.025   2.650  0.8061  0.7877  1.5437
 4199SOL    HW224234   0.897   4.056   2.736 -2.0241 -0.3232 -1.1754
 4200SOL     OW24235   0.581   2.306   8.929 -0.1461 -0.7610  0.0035
 4200SOL    HW124236   0.600   2.247   8.857  1.1735 -0.7037  0.2971
 4200SOL    HW224237   0.671   2.325   8.956 -0.0600 -0.9028 -0.1905
 4201SOL     OW24238   0.430   3.384   0.828  0.1651 -0.0772 -0.0381
 4201SOL    HW124239   0.435   3.354   0.919  2.1932 -0.1752 -0.1734
 4201SOL    HW224240   0.508   3.338   0.796  0.8798  1.5451 -0.6631
 4202SOL     OW24241   0.289   4.205   3.764 -0.4203  0.4287  0.0462
 4202SOL    HW124242   0.345   4.222   3.839  0.0556 -0.1236 -0.1844
 4202SOL    HW224243   0.205   4.215   3.808 -0.0642  1.6687  0.4399
 4203SOL     OW24244   1.170   2.074   6.678  0.2608 -0.3267  0.0581
 4203SOL    HW124245   1.155   2.030   6.762 -2.3879  2.3735  0.9780
 4203SOL    HW224246   1.192   2.162   6.709  0.0297 -0.7339  1.3462
 4204SOL     OW24247   3.190   3.163   2.982 -0.1210  0.1454 -0.3911
 4204SOL    HW124248   3.103   3.121   2.986 -0.2543  0.5201  0.7507
 4204SOL    HW224249   3.169   3.228   3.049  0.4478 -1.1842  1.0803
 4205SOL     OW24250   2.646   3.829   8.659 -0.6839  0.2778 -0.1347
 4205SOL    HW124251   2.631   3.922   8.641  2.0908  0.8304  0.3691
 4205SOL    HW224252   2.629   3.780   8.579 -1.5367  1.2121 -0.5250
 4206SOL     OW24253   2.782   1.257   7.838  0.3897 -0.4418  0.6006
 4206SOL    HW124254   2.797   1.217   7.924 -0.2451 -0.1943  0.8304
 4206SOL    HW224255   2.741   1.341   7.861  4.5545  1.5426  0.8603
 4207SOL     OW24256   0.220   2.284   4.547  0.4729 -0.2784 -0.3038
 4207SOL    HW124257   0.301   2.301   4.499  0.5273  0.5107  0.0607
 4207SOL    HW224258   0.242   2.345   4.618  1.7926 -1.9026  0.6970
 4208SOL     OW24259   1.742   3.484   4.455 -0.5807 -0.3749 -0.7708
 4208SOL    HW124260   1.692   3.517   4.380 -1.6561  1.3735  0.6964
 4208SOL    HW224261   1.834   3.476   4.429  0.3162  0.8628  1.9723
 4209SOL     OW24262   1.506   3.775  17.065  0.0031 -0.1856 -0.6332
 4209SOL    HW124263   1.541   3.690  17.040 -1.4838 -0.9347 -0.1871
 4209SOL    HW224264   1.593   3.813  17.080  0.5362 -1.2569 -1.0148
 4210SOL     OW24265   3.219   0.093  17.365 -0.3105 -0.4746  0.3686
 4210SOL    HW124266   3.263   0.094  17.450 -0.2056  1.9947  0.2786
 4210SOL    HW224267   3.150   0.027  17.369  1.1149 -1.9371  1.4158
 4211SOL     OW24268   1.034   3.847   4.472  0.2876 -0.6691  0.1180
 4211SOL    HW124269   0.940   3.833   4.463 -0.0894  1.3352  0.8628
 4211SOL    HW224270   1.065   3.859   4.382  0.8236  2.3677  0.7052
 4212SOL     OW24271   1.044   0.511   7.824 -0.2591 -0.4257 -0.1927
 4212SOL    HW124272   1.000   0.452   7.885 -1.1742  0.2853 -0.1788
 4212SOL    HW224273   0.979   0.500   7.754  0.6090 -1.4462 -0.8482
 4213SOL     OW24274   2.150   0.681  13.775 -0.0875  0.3813  0.0202
 4213SOL    HW124275   2.190   0.726  13.849 -0.3769  1.2126 -0.3298
 4213SOL    HW224276   2.168   0.587  13.786 -0.4610  0.3513  0.3667
 4214SOL     OW24277   1.981   2.192   2.432 -0.5673 -0.3412 -0.2277
 4214SOL    HW124278   2.060   2.231   2.470 -1.7049  1.3340  0.3995
 4214SOL    HW224279   2.021   2.146   2.359 -1.3105 -0.8976 -0.2766
 4215SOL     OW24280   2.868   1.225   0.609 -0.1061 -0.0079 -0.2250
 4215SOL    HW124281   2.792   1.176   0.578  2.2092 -1.2343 -3.9189
 4215SOL    HW224282   2.865   1.305   0.556  0.7441  1.2674  1.6207
 4216SOL     OW24283   2.635   0.113   4.871 -0.2012 -0.0491  0.5399
 4216SOL    HW124284   2.647   0.018   4.871  0.3526  0.0240  1.2062
 4216SOL    HW224285   2.639   0.132   4.777 -0.5823  1.1363  0.7565
 4217SOL     OW24286   0.501   1.198   8.316 -0.0645 -0.7274  0.1474
 4217SOL    HW124287   0.592   1.191   8.287 -0.1921 -0.0270 -0.4243
 4217SOL    HW224288   0.511   1.204   8.411  2.1023 -0.9395 -0.0874
 4218SOL     OW24289   1.869   2.505  15.490  0.0255 -0.2747 -0.2668
 4218SOL    HW124290   1.841   2.414  15.500  1.8215 -0.6355  1.2178
 4218SOL    HW224291   1.942   2.499  15.428 -0.7096  0.6924 -1.2384
 4219SOL     OW24292   4.318   2.753  10.473  0.0339  0.2408  0.2514
 4219SOL    HW124293   4.394   2.750  10.530  0.7222  0.2237 -0.6693
 4219SOL    HW224294   4.269   2.829  10.505 -1.3773  0.0991 -1.5632
 4220SOL     OW24295   4.236   3.249  11.182 -0.6219  0.3927  0.2095
 4220SOL    HW124296   4.219   3.218  11.093  0.1633  1.0549 -0.1755
 4220SOL    HW224297   4.147   3.242  11.215  0.1302 -0.1354  2.1206
 4221SOL     OW24298   3.099   4.178   4.862 -0.5274 -0.0679 -0.2518
 4221SOL    HW124299   3.009   4.148   4.863  0.0375 -1.7514 -0.8744
 4221SOL    HW224300   3.105   4.223   4.778  1.3445  1.2401  0.5794
 4222SOL     OW24301   0.206   3.172  12.631 -0.2117  0.4454  0.0444
 4222SOL    HW124302   0.209   3.131  12.545  3.3225 -1.1148  0.8963
 4222SOL    HW224303   0.136   3.124  12.675  0.1881  0.4698  0.7040
 4223SOL     OW24304   0.260   1.925   7.456  0.6257  0.1306  0.0833
 4223SOL    HW124305   0.214   1.986   7.514 -0.5352 -0.9367  0.2878
 4223SOL    HW224306   0.213   1.950   7.376 -0.9408  0.1606  1.0130
 4224SOL     OW24307   4.225   2.687   8.481  0.1830  0.4141 -0.2184
 4224SOL    HW124308   4.176   2.761   8.444 -2.5167 -1.6195 -0.6287
 4224SOL    HW224309   4.157   2.622   8.497 -0.8070  1.4690 -0.1602
 4225SOL     OW24310   0.139   4.375   7.132  0.3490  0.0866 -0.0967
 4225SOL    HW124311   0.160   4.449   7.075  0.1879 -0.1008 -0.3950
 4225SOL    HW224312   0.044   4.378   7.140  0.4955 -0.2869  1.7631
 4226SOL     OW24313   0.248   2.356   5.499 -0.0801 -0.8016  0.5201
 4226SOL    HW124314   0.295   2.415   5.439  0.4592  0.5540  2.2729
 4226SOL    HW224315   0.314   2.287   5.503 -0.4938 -1.1474  1.3204
 4227SOL     OW24316   1.047   1.915  11.711  0.0408 -0.1407  0.3123
 4227SOL    HW124317   1.101   1.962  11.648  2.1975 -2.4227  0.4425
 4227SOL    HW224318   1.066   1.963  11.791 -0.7636  1.3699 -0.4072
 4228SOL     OW24319   2.511   0.126   1.398  0.0082  0.2184  0.2537
 4228SOL    HW124320   2.515   0.190   1.469 -0.5284 -0.1621  0.6323
 4228SOL    HW224321   2.597   0.093   1.371 -0.0974  0.6194 -0.5619
 4229SOL     OW24322   2.678   3.952   0.098 -0.4402 -0.1919 -0.3344
 4229SOL    HW124323   2.596   3.989   0.065 -0.8638 -1.4004 -0.6304
 4229SOL    HW224324   2.657   3.966   0.190  1.0096 -3.9197  0.5462
 4230SOL     OW24325   2.009   2.696   6.521 -0.5344  0.3334  0.1403
 4230SOL    HW124326   2.063   2.630   6.478 -0.4962  0.1779  0.4296
 4230SOL    HW224327   1.984   2.748   6.444  1.3405 -0.8115 -1.2471
 4231SOL     OW24328   0.761   1.503   6.062 -0.0428 -0.1754  0.0051
 4231SOL    HW124329   0.698   1.573   6.051 -0.7473 -1.1922 -2.5213
 4231SOL    HW224330   0.820   1.507   5.987 -0.3648 -1.6174 -0.3327
 4232SOL     OW24331   1.943   0.332   8.861  0.4350 -0.0666  0.1284
 4232SOL    HW124332   1.914   0.388   8.933  0.8196 -2.0409  1.8232
 4232SOL    HW224333   1.942   0.395   8.789  0.2685 -1.1360 -0.8046
 4233SOL     OW24334   3.188   1.543  17.143  0.5115  0.0527  0.1346
 4233SOL    HW124335   3.273   1.513  17.112 -0.2959 -2.2955  0.2084
 4233SOL    HW224336   3.178   1.628  17.100  0.6367  0.4804  0.9524
 4234SOL     OW24337   2.135   2.812   2.576  0.4976 -0.4596  0.8792
 4234SOL    HW124338   2.112   2.721   2.597 -4.2012  0.5591  0.2592
 4234SOL    HW224339   2.228   2.791   2.582  0.9458  1.6653  1.6416
 4235SOL     OW24340   2.653   3.172   6.535 -0.3914 -0.2867 -0.2833
 4235SOL    HW124341   2.637   3.079   6.549 -0.2129  0.1032  2.4613
 4235SOL    HW224342   2.637   3.219   6.617 -0.5576  0.2704 -0.6304
 4236SOL     OW24343   1.046   0.789   8.939  0.4445  1.2197 -0.3274
 4236SOL    HW124344   0.991   0.844   8.995  1.0804 -0.8332  2.3125
 4236SOL    HW224345   0.995   0.789   8.858 -0.9026 -1.6033  0.5435
 4237SOL     OW24346   3.976   3.285   6.418 -0.3473 -0.0507 -0.1278
 4237SOL    HW124347   3.882   3.303   6.420 -0.6067 -1.4102 -0.2913
 4237SOL    HW224348   3.988   3.320   6.329 -2.1610 -0.4807 -0.5410
 4238SOL     OW24349   2.707   1.389  15.461 -0.0597  0.3031  0.0746
 4238SOL    HW124350   2.664   1.355  15.540 -0.7774 -2.3374 -1.4792
 4238SOL    HW224351   2.738   1.304  15.432  0.0712  0.9306 -1.5963
 4239SOL     OW24352   4.041   2.171  15.569  0.0493 -0.0121 -0.1164
 4239SOL    HW124353   4.081   2.239  15.516  1.4935 -1.6950 -1.1487
 4239SOL    HW224354   3.954   2.209  15.558 -0.6217 -1.3356  0.5110
 4240SOL     OW24355   3.745   0.447   4.842  0.6091  0.6911  0.2706
 4240SOL    HW124356   3.765   0.432   4.749 -0.8324  2.4487 -0.3230
 4240SOL    HW224357   3.713   0.537   4.832  1.7282  1.2247  1.5723
 4241SOL     OW24358   2.446   0.739   5.668 -0.5836 -0.3397  0.2228
 4241SOL    HW124359   2.465   0.789   5.589  0.0191 -1.4191 -0.3183
 4241SOL    HW224360   2.408   0.662   5.626 -2.6577  0.4803  0.6264
 4242SOL     OW24361   0.116   1.618  14.653  0.2791  0.2879 -0.1029
 4242SOL    HW124362   0.070   1.632  14.735 -1.3671 -1.0867 -0.8027
 4242SOL    HW224363   0.115   1.524  14.637 -2.5308  0.4114 -0.5194
 4243SOL     OW24364   2.295   2.865  12.178  0.1624  0.6874  0.2954
 4243SOL    HW124365   2.272   2.796  12.241  2.2848 -0.5770 -0.3102
 4243SOL    HW224366   2.385   2.882  12.205 -0.0190 -0.7529  1.8337
 4244SOL     OW24367   1.205   0.561  12.300  0.2217  0.3018  0.0948
 4244SOL    HW124368   1.202   0.634  12.361  2.0974  0.2062  0.3250
 4244SOL    HW224369   1.120   0.569  12.257 -0.1845  0.7549  0.9827
 4245SOL     OW24370   0.316   4.260   5.297  0.1196  0.6619  0.1835
 4245SOL    HW124371   0.372   4.267   5.375 -0.5945 -2.4345  0.9454
 4245SOL    HW224372   0.338   4.180   5.249  2.3920  2.1667 -1.2884
 4246SOL     OW24373   1.812   0.968   7.767  0.6369  0.4008  0.4155
 4246SOL    HW124374   1.785   1.046   7.718 -1.3941  0.8194  2.1971
 4246SOL    HW224375   1.902   0.956   7.738  0.5164 -1.6098  0.8921
 4247SOL     OW24376   3.196   3.639   3.861  1.0139  0.3435  0.3672
 4247SOL    HW124377   3.114   3.677   3.892  1.2726  0.5798  0.7690
 4247SOL    HW224378   3.165   3.573   3.800 -2.0206 -0.2540  2.5505
 4248SOL     OW24379   1.322   3.150   0.081  0.0210  0.3671 -0.1846
 4248SOL    HW124380   1.386   3.192   0.139  0.2652 -2.3398  1.5311
 4248SOL    HW224381   1.286   3.100   0.155  3.5078 -2.7890 -0.5962
 4249SOL     OW24382   2.015   0.061   6.429 -0.1730  0.7465 -0.7024
 4249SOL    HW124383   2.081   0.001   6.393  1.1333  1.4941  0.4452
 4249SOL    HW224384   2.009   0.023   6.517 -1.1584  0.0599 -1.0661
 4250SOL     OW24385   0.886   0.023   5.511 -0.8190  0.6499  0.8605
 4250SOL    HW124386   0.837   4.689   5.550 -0.6729  0.6300  1.0032
 4250SOL    HW224387   0.965   0.028   5.564 -0.9218 -1.0025  1.1817
 4251SOL     OW24388   1.409   3.808   7.896 -0.0497  0.6683 -0.8447
 4251SOL    HW124389   1.439   3.898   7.909 -0.0854  0.6959 -0.9516
 4251SOL    HW224390   1.404   3.763   7.980  2.4834  0.5550 -0.7487
 4252SOL     OW24391   3.354   0.416   8.662 -0.2302  0.0384  0.0570
 4252SOL    HW124392   3.389   0.368   8.737 -1.1107  1.1412  1.1774
 4252SOL    HW224393   3.302   0.348   8.620  1.2402 -0.1001 -1.5627
 4253SOL     OW24394   4.524   3.466   4.542  0.2362  0.0413  0.0495
 4253SOL    HW124395   4.431   3.485   4.547  0.6957  3.2329 -3.3372
 4253SOL    HW224396   4.519   3.428   4.454 -0.6481 -0.2237  0.2139
 4254SOL     OW24397   0.613   4.421   5.837 -0.1073  0.0784  0.2456
 4254SOL    HW124398   0.653   4.344   5.798 -0.2361 -0.3055  0.8735
 4254SOL    HW224399   0.545   4.384   5.893 -1.3214  0.6727 -0.8258
 4255SOL     OW24400   0.447   3.265  11.325  0.4252  0.1738 -0.3337
 4255SOL    HW124401   0.482   3.181  11.296 -1.2090 -0.4395 -0.5102
 4255SOL    HW224402   0.454   3.256  11.420  0.8628  0.4257 -0.3453
 4256SOL     OW24403   2.875   1.591   7.470  0.4086  1.1668 -0.2093
 4256SOL    HW124404   2.876   1.668   7.526 -1.5200  0.2422  1.1128
 4256SOL    HW224405   2.786   1.580   7.438  0.5812 -2.0770  0.4002
 4257SOL     OW24406   3.310   0.288   3.727  1.0302 -0.2157 -0.0841
 4257SOL    HW124407   3.350   0.311   3.811  1.4138 -1.6626  0.1138
 4257SOL    HW224408   3.304   0.378   3.693  0.5009 -0.3821 -0.4459
 4258SOL     OW24409   2.133   4.493  14.259  0.1956  0.0167 -0.2450
 4258SOL    HW124410   2.114   4.437  14.184 -0.9764 -0.9934  0.8052
 4258SOL    HW224411   2.226   4.514  14.258  0.2854 -0.3914 -0.2554
 4259SOL     OW24412   0.598   2.989   4.670 -0.8185  0.2748 -0.2512
 4259SOL    HW124413   0.598   2.939   4.752  1.2517  0.7357  0.0356
 4259SOL    HW224414   0.684   2.965   4.636 -0.3622 -0.4149  1.3656
 4260SOL     OW24415   4.409   3.414  13.710  0.1562 -0.1895  0.4550
 4260SOL    HW124416   4.477   3.420  13.777  0.8542  0.7745 -0.3290
 4260SOL    HW224417   4.407   3.319  13.696  0.9020 -0.1561  0.1071
 4261SOL     OW24418   1.043   3.979  16.819  0.3784  0.1136  0.3987
 4261SOL    HW124419   0.975   3.941  16.764  2.0862 -0.6076 -1.2017
 4261SOL    HW224420   1.118   4.000  16.763  0.5138  1.2604  0.9936
 4262SOL     OW24421   2.194   3.296   5.004  0.6082 -0.6060 -0.1366
 4262SOL    HW124422   2.169   3.362   4.939 -1.3134  0.8834  2.0887
 4262SOL    HW224423   2.145   3.219   4.975 -0.7854 -0.0489  0.6639
 4263SOL     OW24424   3.532   0.907   3.579  0.2601 -0.3725  0.4704
 4263SOL    HW124425   3.438   0.924   3.569  0.1718 -1.5274 -0.5706
 4263SOL    HW224426   3.548   0.933   3.670  3.0114 -1.6727  0.3664
 4264SOL     OW24427   0.073   0.152   2.346 -0.3666 -0.4026 -0.0442
 4264SOL    HW124428   0.114   0.235   2.321 -0.1640  0.2794  2.5276
 4264SOL    HW224429   4.731   0.153   2.294 -1.9432 -0.1052  2.4308
 4265SOL     OW24430   4.425   2.079   1.017 -0.3011  0.0165 -0.1005
 4265SOL    HW124431   4.391   2.028   0.943  0.0442 -0.8812  0.3701
 4265SOL    HW224432   4.451   2.162   0.977  1.4870  0.1164  1.3110
 4266SOL     OW24433   0.562   3.818   4.273  0.5392  0.2160  0.3489
 4266SOL    HW124434   0.517   3.873   4.336 -0.7207  0.0746 -0.4211
 4266SOL    HW224435   0.485   3.767   4.244  0.0769  1.2264 -0.1947
 4267SOL     OW24436   4.515   3.610   5.355 -0.2599 -0.1669  0.3608
 4267SOL    HW124437   4.422   3.586   5.352 -0.3210  0.1404 -0.5133
 4267SOL    HW224438   4.558   3.538   5.310  3.6040  2.9644 -0.9927
 4268SOL     OW24439   0.583   4.026   8.468 -0.0692  0.4451  0.5173
 4268SOL    HW124440   0.498   4.053   8.502 -0.6232 -0.9768  0.2458
 4268SOL    HW224441   0.617   4.113   8.446 -0.3761  0.4859  0.1969
 4269SOL     OW24442   3.616   0.268   3.368 -0.9987  0.0014 -0.2623
 4269SOL    HW124443   3.610   0.250   3.461 -0.0151  0.6211 -0.0813
 4269SOL    HW224444   3.694   0.221   3.338  0.1338  1.5713  0.2004
 4270SOL     OW24445   3.707   0.684   3.079  0.2765  0.0409 -0.3915
 4270SOL    HW124446   3.662   0.600   3.094  0.5013  0.1063  0.6827
 4270SOL    HW224447   3.788   0.664   3.127  0.0471 -1.1488 -0.4921
 4271SOL     OW24448   2.972   1.611   0.715 -0.6161 -0.3264  0.0380
 4271SOL    HW124449   2.878   1.591   0.715 -0.7871  0.4591 -0.6656
 4271SOL    HW224450   2.990   1.660   0.635  2.7648  0.7256  1.4657
 4272SOL     OW24451   3.996   1.239   7.673  0.2309  0.2068  0.6518
 4272SOL    HW124452   4.054   1.198   7.609  0.3459  0.0474  0.8592
 4272SOL    HW224453   3.974   1.153   7.709 -0.8244  0.6201  0.9852
 4273SOL     OW24454   2.922   0.483   5.463  0.3401  0.5154  0.8721
 4273SOL    HW124455   2.884   0.566   5.432 -0.3483 -0.2822 -0.3852
 4273SOL    HW224456   3.002   0.515   5.506  2.9882 -3.5738 -1.0390
 4274SOL     OW24457   2.364   1.335   9.152  0.0192  0.0179  0.4543
 4274SOL    HW124458   2.337   1.269   9.088 -0.1147  0.7034 -0.1837
 4274SOL    HW224459   2.308   1.402   9.113  2.3189  0.6529 -1.7265
 4275SOL     OW24460   3.578   2.977   5.749  0.1681 -0.2398  0.5814
 4275SOL    HW124461   3.505   3.006   5.804 -0.4550  0.4505 -0.6229
 4275SOL    HW224462   3.646   3.025   5.796 -2.3016  1.3295  2.5600
 4276SOL     OW24463   1.052   1.136   0.561 -0.1532  0.7771 -0.3470
 4276SOL    HW124464   0.989   1.092   0.503 -0.4927 -1.3392  1.6452
 4276SOL    HW224465   0.996   1.149   0.637  0.3401 -1.0418  0.3118
 4277SOL     OW24466   1.754   4.353   7.871  0.2922  0.3284 -0.2305
 4277SOL    HW124467   1.818   4.413   7.832 -0.9799  1.8199 -0.0231
 4277SOL    HW224468   1.712   4.318   7.793 -0.7403  0.0856  0.4391
 4278SOL     OW24469   4.141   4.200  10.337  0.2429  0.1685  0.4354
 4278SOL    HW124470   4.069   4.253  10.371 -0.1215  0.4594 -0.7911
 4278SOL    HW224471   4.107   4.159  10.257 -1.1779  1.2679  0.4720
 4279SOL     OW24472   3.590   0.134   3.848  0.5765  0.2343 -0.5474
 4279SOL    HW124473   3.615   0.190   3.922 -1.0493 -0.5938  0.6185
 4279SOL    HW224474   3.508   0.099   3.882  1.1482 -1.1191 -0.5483
 4280SOL     OW24475   4.535   0.604   1.476  0.2675  0.2188 -0.1048
 4280SOL    HW124476   4.579   0.675   1.522 -1.7269  1.4796 -0.1279
 4280SOL    HW224477   4.604   0.570   1.419  1.8072  0.8396  1.3849
 4281SOL     OW24478   3.424   3.528   4.386 -0.0689 -0.3203  0.1283
 4281SOL    HW124479   3.499   3.477   4.353  0.7495 -0.4700  2.2221
 4281SOL    HW224480   3.380   3.544   4.303  0.0816 -1.1569 -0.1143
 4282SOL     OW24481   1.814   2.249   4.121  0.5967 -0.2439 -0.1068
 4282SOL    HW124482   1.818   2.345   4.115  0.5898 -0.2421 -0.0851
 4282SOL    HW224483   1.758   2.244   4.198 -1.2625 -3.4692 -1.6858
 4283SOL     OW24484   1.801   1.477   7.699  0.4267 -0.2656 -0.1854
 4283SOL    HW124485   1.836   1.550   7.751 -1.6563  0.9814 -0.5360
 4283SOL    HW224486   1.748   1.522   7.633 -0.4603 -2.0013 -0.6380
 4284SOL     OW24487   0.943   4.131   5.366  0.0546 -0.2186  0.0825
 4284SOL    HW124488   1.027   4.124   5.412  1.4768  0.9730 -2.3486
 4284SOL    HW224489   0.919   4.038   5.359  2.0048 -0.7869  0.9882
 4285SOL     OW24490   4.396   1.519   4.357  0.5013  0.3162  0.4583
 4285SOL    HW124491   4.359   1.454   4.298 -2.0080  2.5173 -0.3955
 4285SOL    HW224492   4.482   1.479   4.346  0.3007  0.4681 -1.6622
 4286SOL     OW24493   3.028   3.872   3.556 -0.2542 -0.0784  0.3319
 4286SOL    HW124494   3.012   3.796   3.612  1.1668 -0.2946  0.4539
 4286SOL    HW224495   3.113   3.895   3.593  0.5301 -1.7871 -0.3819
 4287SOL     OW24496   4.256   4.255   5.880 -0.2210 -0.0165  0.6272
 4287SOL    HW124497   4.299   4.237   5.964 -2.1581 -0.0037  1.6214
 4287SOL    HW224498   4.168   4.223   5.900 -1.7647  2.3141 -2.5171
 4288SOL     OW24499   3.635   3.316   4.581 -0.0508 -0.2724  0.4089
 4288SOL    HW124500   3.650   3.303   4.488 -0.2333 -1.1897  0.5019
 4288SOL    HW224501   3.540   3.301   4.586 -0.1527  0.3808  0.3827
 4289SOL     OW24502   2.545   0.384   2.165  0.2733  0.0231 -0.4854
 4289SOL    HW124503   2.603   0.399   2.239  0.0873  2.9899 -0.9270
 4289SOL    HW224504   2.604   0.399   2.092  1.1571  0.3304  0.2968
 4290SOL     OW24505   2.839   2.936  17.668  0.8978 -0.4070  0.4075
 4290SOL    HW124506   2.929   2.953  17.698 -0.8901  1.5010  4.7426
 4290SOL    HW224507   2.809   2.868  17.729 -1.0945  0.6049  0.5560
 4291SOL     OW24508   1.386   0.147   4.740 -0.5547 -0.7992 -0.0931
 4291SOL    HW124509   1.367   0.068   4.791 -1.4445 -0.5959 -0.1072
 4291SOL    HW224510   1.316   0.203   4.774 -1.0595  0.2813 -2.9108
 4292SOL     OW24511   1.834   2.840   9.541  0.1475  0.1358 -0.2344
 4292SOL    HW124512   1.840   2.935   9.554 -0.6955  0.1561 -0.0245
 4292SOL    HW224513   1.751   2.837   9.494  0.0093 -0.6533  0.0690
 4293SOL     OW24514   3.218   2.820  17.576 -0.5666 -0.4124  0.2721
 4293SOL    HW124515   3.137   2.771  17.586  0.6505 -2.5397 -0.1645
 4293SOL    HW224516   3.201   2.883  17.645  0.1775 -0.4779  0.5173
 4294SOL     OW24517   1.431   3.778   5.459  0.2051  0.3633  0.1863
 4294SOL    HW124518   1.434   3.873   5.471 -1.5210  0.4915 -0.3794
 4294SOL    HW224519   1.485   3.745   5.531  0.1031 -0.4880 -0.1314
 4295SOL     OW24520   2.933   3.542   7.687  0.5343 -0.3784 -0.2431
 4295SOL    HW124521   2.955   3.517   7.777  4.3187 -0.7823 -1.2648
 4295SOL    HW224522   2.943   3.637   7.684  1.9847 -0.5406 -0.7622
 4296SOL     OW24523   3.593   2.250   2.322  0.0423  0.0575  0.3822
 4296SOL    HW124524   3.615   2.158   2.310 -1.5299 -0.1992 -0.4381
 4296SOL    HW224525   3.528   2.240   2.391 -0.1271 -1.8018 -0.0520
 4297SOL     OW24526   2.992   3.266   4.831  0.2912  0.5743  0.0489
 4297SOL    HW124527   3.076   3.223   4.847 -0.4274 -0.5467  0.7816
 4297SOL    HW224528   3.009   3.292   4.740  1.6138 -2.9332 -0.7054
 4298SOL     OW24529   2.424   4.461   6.903 -0.3753 -0.3261 -0.3495
 4298SOL    HW124530   2.381   4.547   6.906 -0.7006 -0.5007 -0.0074
 4298SOL    HW224531   2.514   4.494   6.905 -0.6955  0.4302  1.3286
 4299SOL     OW24532   4.566   3.159   4.724 -0.4933 -0.1272 -0.4234
 4299SOL    HW124533   4.584   3.181   4.632  1.0383 -0.5856 -0.2325
 4299SOL    HW224534   4.646   3.195   4.763 -1.3829 -0.0852  1.3439
 4300SOL     OW24535   1.762   2.652  11.190  0.8466  0.1261  0.0229
 4300SOL    HW124536   1.848   2.693  11.196 -0.8627  4.1319 -2.6252
 4300SOL    HW224537   1.695   2.711  11.226  0.4716  0.9781 -2.0621
 4301SOL     OW24538   1.240   0.758   2.932 -0.1217 -0.3080 -0.3371
 4301SOL    HW124539   1.230   0.853   2.930 -1.0564 -0.4018 -0.2093
 4301SOL    HW224540   1.328   0.739   2.898  1.3050 -0.4644  3.4218
 4302SOL     OW24541   4.290   0.143  12.609  0.4251 -0.0457 -0.0638
 4302SOL    HW124542   4.306   0.193  12.689 -2.7878  0.8504  0.0032
 4302SOL    HW224543   4.297   0.056  12.647 -0.6276  0.5594  1.5115
 4303SOL     OW24544   4.087   0.796   7.896  0.0618 -0.2354  0.0041
 4303SOL    HW124545   4.109   0.885   7.922  0.0669 -0.0079 -0.7783
 4303SOL    HW224546   4.040   0.756   7.969 -1.7975  0.7094 -0.6857
 4304SOL     OW24547   0.771   0.136   7.541 -0.2097  0.5454 -0.0135
 4304SOL    HW124548   0.696   0.145   7.600 -0.5957  1.6366 -0.6821
 4304SOL    HW224549   0.757   0.195   7.468  0.8872  2.1834  1.1014
 4305SOL     OW24550   1.944   3.725   5.610  0.6020 -0.9797  0.3313
 4305SOL    HW124551   2.033   3.704   5.582  0.9227 -0.3741  0.9129
 4305SOL    HW224552   1.955   3.813   5.645 -0.1459 -0.6631 -0.2284
 4306SOL     OW24553   0.446   1.737  12.181 -0.2220 -0.2515  0.1632
 4306SOL    HW124554   0.392   1.798  12.130 -1.1476  0.3456  1.8414
 4306SOL    HW224555   0.398   1.655  12.170 -0.6549 -0.1425  1.2712
 4307SOL     OW24556   2.464   3.486   6.201  0.7125  0.1935 -0.5622
 4307SOL    HW124557   2.442   3.497   6.294 -2.9770  1.3150 -1.5761
 4307SOL    HW224558   2.497   3.396   6.203 -2.3912 -0.9285  0.0380
 4308SOL     OW24559   2.861   4.425   5.196  0.5039 -0.1293 -0.1452
 4308SOL    HW124560   2.771   4.446   5.168  0.7147 -0.0672 -0.7710
 4308SOL    HW224561   2.847   4.380   5.280 -0.7414 -0.0908 -0.3266
 4309SOL     OW24562   4.494   1.797   3.909  0.0467 -0.0113  0.1813
 4309SOL    HW124563   4.554   1.731   3.874 -0.6204 -0.8507  0.6082
 4309SOL    HW224564   4.526   1.878   3.868 -0.4014  0.2282  0.3030
 4310SOL     OW24565   3.296   2.370   7.855 -0.1828  0.2178 -0.8725
 4310SOL    HW124566   3.291   2.454   7.902 -0.3533 -1.1019  1.4530
 4310SOL    HW224567   3.383   2.345   7.886 -0.4549  0.9253  0.4998
 4311SOL     OW24568   0.769   0.996  15.275  0.5561 -0.4488  0.2573
 4311SOL    HW124569   0.719   0.921  15.243 -0.2341 -0.3660  1.2954
 4311SOL    HW224570   0.767   1.046  15.193  0.6996 -1.4633 -0.3585
 4312SOL     OW24571   2.967   1.473  11.470 -0.2080 -0.4795  0.3368
 4312SOL    HW124572   3.054   1.435  11.473  0.1580  0.1555 -1.9537
 4312SOL    HW224573   2.918   1.396  11.440 -1.4884 -0.0982  1.4165
 4313SOL     OW24574   1.863   0.791   3.438  0.0422  0.4745  0.4365
 4313SOL    HW124575   1.835   0.881   3.422 -0.7330  0.0245 -0.7828
 4313SOL    HW224576   1.789   0.768   3.494 -0.6717  2.7251  0.4142
 4314SOL     OW24577   3.778   0.487  17.492  0.2314  0.2808  0.5275
 4314SOL    HW124578   3.711   0.469  17.425  0.3044  0.2780  0.4556
 4314SOL    HW224579   3.731   0.553  17.543  3.8520  3.2791 -0.0224
 4315SOL     OW24580   1.751   3.179   8.836  0.4108 -0.5894  0.4147
 4315SOL    HW124581   1.752   3.133   8.752 -1.8913  1.5773 -0.8065
 4315SOL    HW224582   1.843   3.166   8.856  0.8281  0.5622 -0.7575
 4316SOL     OW24583   2.092   1.363   7.709 -0.5817  0.2721 -0.1683
 4316SOL    HW124584   2.070   1.298   7.776  0.7717  0.5122  0.5014
 4316SOL    HW224585   2.007   1.401   7.686 -0.8469  1.8194  3.3796
 4317SOL     OW24586   2.515   0.972   6.361  0.0110 -0.8258  0.5829
 4317SOL    HW124587   2.443   1.035   6.372  0.9088  0.3259 -0.0928
 4317SOL    HW224588   2.580   1.024   6.314  0.5049 -1.0787  0.9860
 4318SOL     OW24589   4.240   4.106   7.361  0.2816  0.6758 -0.5760
 4318SOL    HW124590   4.260   4.067   7.276  0.9959  0.4908 -0.3235
 4318SOL    HW224591   4.317   4.162   7.371  0.2850  0.8818 -1.7383
 4319SOL     OW24592   2.781   2.685  12.382  0.2399 -0.1132  0.2199
 4319SOL    HW124593   2.702   2.689  12.436 -0.1341 -2.4547 -0.1382
 4319SOL    HW224594   2.764   2.609  12.327 -0.0133 -1.4166  2.0966
 4320SOL     OW24595   3.530   1.873   9.292  0.3148  0.2886  0.0314
 4320SOL    HW124596   3.615   1.900   9.256  0.4002  1.0989  0.8401
 4320SOL    HW224597   3.550   1.865   9.385  3.5805  3.1540 -0.3982
 4321SOL     OW24598   3.830   0.006   6.980  0.0519 -0.3597 -1.0656
 4321SOL    HW124599   3.785   0.084   7.015  1.8562  0.0442  0.3644
 4321SOL    HW224600   3.827   4.682   7.052 -0.9568 -0.5634 -1.2889
 4322SOL     OW24601   3.384   0.313  10.490 -0.5683 -0.1628  0.2843
 4322SOL    HW124602   3.410   0.225  10.460 -0.7468 -0.6597  1.6047
 4322SOL    HW224603   3.406   0.371  10.417 -0.7468 -0.6347 -0.1476
 4323SOL     OW24604   0.638   1.574   6.859 -0.6699 -0.0127 -0.1112
 4323SOL    HW124605   0.612   1.498   6.912 -2.2312 -0.3115 -1.3130
 4323SOL    HW224606   0.665   1.527   6.780 -2.7863 -0.3480 -0.6155
 4324SOL     OW24607   1.480   2.958   0.361  0.0163 -0.2318 -0.1803
 4324SOL    HW124608   1.397   2.922   0.329 -0.3987 -0.2266  0.8774
 4324SOL    HW224609   1.464   3.041   0.405 -0.7672 -0.1007 -0.7179
 4325SOL     OW24610   4.222   0.212   9.203 -0.6462  0.0933  0.4153
 4325SOL    HW124611   4.154   0.145   9.190  0.2284 -0.4951 -1.1285
 4325SOL    HW224612   4.220   0.211   9.298  2.4846 -1.2533  0.4510
 4326SOL     OW24613   1.665   0.747  15.522 -0.8098 -0.2294 -0.0811
 4326SOL    HW124614   1.745   0.781  15.561  0.0913  0.2380 -2.3372
 4326SOL    HW224615   1.687   0.654  15.515  1.3711  0.1257  1.9497
 4327SOL     OW24616   0.317   4.723   5.185 -0.0486 -0.5296 -0.5918
 4327SOL    HW124617   0.319   4.632   5.156 -0.7846 -0.1772 -1.7438
 4327SOL    HW224618   0.224   0.009   5.182  0.0155 -0.6951 -3.5924
 4328SOL     OW24619   3.593   3.326   1.823 -0.2296 -0.8619 -0.0716
 4328SOL    HW124620   3.655   3.259   1.794  1.2626  0.2350  0.6364
 4328SOL    HW224621   3.635   3.340   1.907  1.0439 -1.7013 -0.5740
 4329SOL     OW24622   0.576   0.657   5.932  0.5693 -0.3366  0.9454
 4329SOL    HW124623   0.585   0.727   5.996  1.8084 -0.1710  0.5998
 4329SOL    HW224624   0.555   0.581   5.987  0.3814 -1.8827 -1.2330
 4330SOL     OW24625   0.718   1.377   6.682  0.1109 -0.6907 -0.2181
 4330SOL    HW124626   0.777   1.303   6.689  2.6184  1.1634 -1.6926
 4330SOL    HW224627   0.664   1.349   6.609 -0.2432 -2.8719  0.8757
 4331SOL     OW24628   3.746   2.333   0.296 -0.8867  0.1170  0.5797
 4331SOL    HW124629   3.708   2.410   0.338 -1.4185 -0.4558  1.1566
 4331SOL    HW224630   3.791   2.291   0.370 -1.3215  0.0352  0.8022
 4332SOL     OW24631   0.076   0.523   6.416  0.1204  0.1980 -0.2448
 4332SOL    HW124632   0.022   0.527   6.495  0.2038 -0.5584 -0.1468
 4332SOL    HW224633   0.024   0.472   6.353 -0.0747  0.3535 -0.2084
 4333SOL     OW24634   3.516   1.805   2.543 -0.6351 -0.1596 -0.3588
 4333SOL    HW124635   3.485   1.718   2.569 -1.5023 -0.0569 -1.0498
 4333SOL    HW224636   3.520   1.842   2.632 -0.5908  0.4505 -0.6120
 4334SOL     OW24637   0.503   1.618   3.161 -0.0280  0.6151 -0.6125
 4334SOL    HW124638   0.536   1.535   3.126  1.5024  0.9219  0.1279
 4334SOL    HW224639   0.470   1.668   3.086 -1.1701 -1.3728 -1.4278
 4335SOL     OW24640   1.288   2.349   5.770 -0.5667 -0.2435 -0.2021
 4335SOL    HW124641   1.341   2.385   5.699  0.3519  2.6719  1.9565
 4335SOL    HW224642   1.234   2.414   5.814 -3.2250 -2.5009 -0.0965
 4336SOL     OW24643   0.448   0.533   6.924 -0.0393  0.1805 -0.0101
 4336SOL    HW124644   0.448   0.501   7.014  1.0151 -0.1025 -0.1038
 4336SOL    HW224645   0.517   0.472   6.895  0.0576 -0.0332  0.6730
 4337SOL     OW24646   3.795   0.093  10.435  0.6497  0.4747 -0.2262
 4337SOL    HW124647   3.804   0.184  10.408 -1.0859  0.7194  0.0227
 4337SOL    HW224648   3.744   0.096  10.516  2.0974 -0.7016  0.7265
 4338SOL     OW24649   2.975   0.528  16.191 -0.3693  0.1860  0.6509
 4338SOL    HW124650   2.931   0.533  16.276  1.5618 -1.8080  1.7642
 4338SOL    HW224651   3.031   0.452  16.208  2.2413  1.7077 -1.1901
 4339SOL     OW24652   1.115   2.727   5.635 -0.4431 -0.0674  0.0224
 4339SOL    HW124653   1.207   2.743   5.659 -1.0606 -2.2656  3.8478
 4339SOL    HW224654   1.106   2.670   5.558 -1.2854 -2.1774  1.6896
 4340SOL     OW24655   1.133   2.682   5.348 -0.2776  0.3390  0.4226
 4340SOL    HW124656   1.207   2.622   5.357  0.0975  0.7283  0.0146
 4340SOL    HW224657   1.181   2.763   5.330  0.8546  0.0456  2.1392
 4341SOL     OW24658   3.923   4.514   0.372  0.0239  0.2155  0.1638
 4341SOL    HW124659   4.016   4.509   0.350  0.0623 -0.4096  0.4662
 4341SOL    HW224660   3.903   4.599   0.333  1.0657  0.9537  1.2578
 4342SOL     OW24661   0.927   1.994   3.479  0.7687  0.7307 -0.0512
 4342SOL    HW124662   0.983   1.920   3.500  0.2783  0.4127  0.1362
 4342SOL    HW224663   0.961   2.073   3.520  0.9899  1.1453 -1.0303
 4343SOL     OW24664   0.236   0.572  15.886  0.2236 -0.0687  0.1071
 4343SOL    HW124665   0.278   0.614  15.961  1.0336  1.2904 -1.1102
 4343SOL    HW224666   0.157   0.533  15.923  0.8507 -2.5058 -1.1269
 4344SOL     OW24667   4.303   3.173   4.627 -0.3143  0.3890 -0.1245
 4344SOL    HW124668   4.375   3.184   4.689 -2.1336 -0.9989  2.2258
 4344SOL    HW224669   4.311   3.082   4.596 -1.2467 -0.2054  1.3840
 4345SOL     OW24670   3.674   0.588   5.459 -0.3512  0.1113  0.5966
 4345SOL    HW124671   3.663   0.638   5.378  1.2578 -0.3651  0.0962
 4345SOL    HW224672   3.608   0.519   5.457  0.1970 -0.4168  0.7754
 4346SOL     OW24673   2.839   1.566  15.271  0.0193 -0.4575  0.1064
 4346SOL    HW124674   2.855   1.490  15.215  0.4441  1.3239 -2.2215
 4346SOL    HW224675   2.776   1.540  15.338  1.1801  1.5108  1.9760
 4347SOL     OW24676   2.872   3.394  12.629  0.3553 -0.0910  0.1034
 4347SOL    HW124677   2.903   3.483  12.613 -0.2732 -0.4000 -2.8392
 4347SOL    HW224678   2.791   3.397  12.579 -0.8597 -0.4460  2.0183
 4348SOL     OW24679   2.936   4.483   6.615 -0.1103  0.2657 -0.7361
 4348SOL    HW124680   2.848   4.486   6.652 -0.5873  1.5591 -1.9902
 4348SOL    HW224681   2.966   4.560   6.663 -1.2852  0.3827 -0.2050
 4349SOL     OW24682   4.027   3.966   0.292 -0.2618 -0.2103 -0.1215
 4349SOL    HW124683   4.113   3.938   0.260 -1.3482 -1.4797 -1.9526
 4349SOL    HW224684   4.018   4.051   0.250 -1.9249 -1.0370 -1.4460
 4350SOL     OW24685   2.918   2.315   9.324 -0.2508 -1.0073 -0.2885
 4350SOL    HW124686   2.976   2.302   9.249  2.1069  0.1098  1.3107
 4350SOL    HW224687   2.977   2.358   9.387  0.8427 -1.3545 -1.0828
 4351SOL     OW24688   1.245   4.422   4.257 -0.0420 -0.0416 -0.3214
 4351SOL    HW124689   1.308   4.478   4.303 -0.2133  0.5163 -0.7661
 4351SOL    HW224690   1.210   4.478   4.187 -0.3050  1.1780  0.7715
 4352SOL     OW24691   1.808   3.339  12.865  0.4641  0.1402 -0.0600
 4352SOL    HW124692   1.801   3.345  12.769  0.2928 -0.4540 -0.0802
 4352SOL    HW224693   1.783   3.425  12.901 -1.5549 -0.5646  0.2052
 4353SOL     OW24694   0.890   3.641   6.756  0.3115 -0.6332  0.6651
 4353SOL    HW124695   0.971   3.651   6.806  0.9246 -0.0645 -0.4397
 4353SOL    HW224696   0.910   3.563   6.704  0.7105  0.3079 -0.6179
 4354SOL     OW24697   1.027   4.051   7.957 -0.0076  0.1117  0.2987
 4354SOL    HW124698   1.094   4.117   7.972  0.7796 -0.3161 -1.4082
 4354SOL    HW224699   1.027   3.993   8.033 -2.3515  1.4346  1.3075
 4355SOL     OW24700   0.589   1.232   3.539 -0.0488  0.3269  0.3603
 4355SOL    HW124701   0.579   1.300   3.473  0.7613  0.0369 -0.0587
 4355SOL    HW224702   0.641   1.177   3.480 -0.4115 -0.4766  0.7886
 4356SOL     OW24703   2.758   2.855   6.023  0.1889  0.9127  0.3259
 4356SOL    HW124704   2.842   2.869   6.068 -0.1446  2.6628  0.4109
 4356SOL    HW224705   2.768   2.927   5.961  1.4774 -0.9704 -1.6610
 4357SOL     OW24706   0.623   4.359   3.116  0.0989 -0.0716 -0.2155
 4357SOL    HW124707   0.596   4.272   3.145 -2.0536  0.8038  0.3635
 4357SOL    HW224708   0.576   4.410   3.181 -0.3948 -0.6400 -0.1232
 4358SOL     OW24709   2.320   1.723   4.956  0.1164  0.1470  0.0106
 4358SOL    HW124710   2.275   1.695   4.876  0.9809 -2.8822  0.6072
 4358SOL    HW224711   2.369   1.801   4.929 -1.1267  0.6374 -0.8499
 4359SOL     OW24712   0.792   2.888  15.161  0.2999 -0.1124 -0.6875
 4359SOL    HW124713   0.810   2.833  15.237 -1.5492  0.6143  0.2785
 4359SOL    HW224714   0.701   2.869  15.138  0.4316 -0.1108 -1.2096
 4360SOL     OW24715   3.750   0.586  10.371  0.3169 -0.3065 -0.1079
 4360SOL    HW124716   3.768   0.493  10.377  1.7637 -0.0757 -0.8696
 4360SOL    HW224717   3.780   0.620  10.456 -1.7138  2.0501 -0.3377
 4361SOL     OW24718   2.010   4.366   6.113  0.0436  0.6268  0.3145
 4361SOL    HW124719   2.009   4.448   6.064 -0.3469  1.2339  1.3387
 4361SOL    HW224720   1.989   4.397   6.201 -0.6621  0.7166  0.1118
 4362SOL     OW24721   3.630   0.935   2.163  0.0527 -0.3801 -0.6521
 4362SOL    HW124722   3.660   0.938   2.072  1.0294 -0.3893 -0.3338
 4362SOL    HW224723   3.693   0.991   2.208  0.6019 -0.6549 -1.0847
 4363SOL     OW24724   2.863   1.586   2.784  0.4758  0.1116 -0.2834
 4363SOL    HW124725   2.923   1.524   2.827  1.4642  1.9784  1.0485
 4363SOL    HW224726   2.828   1.534   2.712  2.2936 -0.7410 -0.5746
 4364SOL     OW24727   0.818   4.458   5.103  0.9624 -0.4449 -0.3755
 4364SOL    HW124728   0.883   4.508   5.053 -0.9299  1.3496 -1.0570
 4364SOL    HW224729   0.745   4.458   5.042 -0.0113 -2.1048  0.7996
 4365SOL     OW24730   4.240   4.688   4.333  0.3445 -0.4278 -0.2533
 4365SOL    HW124731   4.220   4.677   4.426  3.2863  0.7862  0.5234
 4365SOL    HW224732   4.315   0.008   4.339  0.5929 -0.6503 -1.2051
 4366SOL     OW24733   2.190   2.973   8.674 -0.2576  0.0760 -0.8391
 4366SOL    HW124734   2.284   2.964   8.691 -0.4296  0.3998  0.2268
 4366SOL    HW224735   2.164   2.886   8.705  0.6842  0.4943  1.1077
 4367SOL     OW24736   1.251   1.214   2.262 -0.4905 -0.0588 -0.5492
 4367SOL    HW124737   1.277   1.158   2.189  0.9188  1.3988 -1.1710
 4367SOL    HW224738   1.162   1.188   2.282 -0.2196 -1.1262 -0.7410
 4368SOL     OW24739   1.717   1.544   6.201  0.1792  0.1971  0.3484
 4368SOL    HW124740   1.702   1.516   6.111 -0.3571 -0.4523  0.6464
 4368SOL    HW224741   1.738   1.461   6.243  0.8439 -0.9933 -2.4030
 4369SOL     OW24742   4.110   2.524   8.224 -0.0477 -0.4206  0.7956
 4369SOL    HW124743   4.057   2.458   8.267 -2.0453  0.9903  0.5193
 4369SOL    HW224744   4.055   2.589   8.179  1.9581  0.0792 -0.9337
 4370SOL     OW24745   3.516   0.680  11.374 -0.3483  0.1871 -0.4297
 4370SOL    HW124746   3.491   0.588  11.382  0.3804 -0.1025 -1.3872
 4370SOL    HW224747   3.611   0.672  11.376 -0.6192 -2.6350  0.7416
 4371SOL     OW24748   1.148   2.487   4.323  0.2821  0.7013 -0.0068
 4371SOL    HW124749   1.162   2.581   4.306 -0.4708  0.9782  0.8786
 4371SOL    HW224750   1.114   2.457   4.239  0.2998 -1.6352  0.8358
 4372SOL     OW24751   2.903   1.697  15.052  0.5873  0.0476 -0.1821
 4372SOL    HW124752   2.872   1.646  15.127 -0.9789  2.8200  1.0557
 4372SOL    HW224753   2.841   1.770  15.053  1.3960  0.6687  3.0566
 4373SOL     OW24754   2.971   2.950   8.978 -0.1648  0.0625  0.0276
 4373SOL    HW124755   3.029   3.016   9.017 -0.2415 -0.7884  1.5834
 4373SOL    HW224756   3.033   2.906   8.920 -1.6058 -0.8541 -0.7961
 4374SOL     OW24757   3.774   1.500   8.743 -0.0486 -0.0138  0.5022
 4374SOL    HW124758   3.835   1.496   8.817 -0.6709 -1.8207  0.9299
 4374SOL    HW224759   3.702   1.556   8.770 -0.1180 -0.7433  1.8278
 4375SOL     OW24760   4.242   3.102  11.410 -0.6410  0.2464  0.4390
 4375SOL    HW124761   4.147   3.091  11.410 -0.6875  0.3694 -3.4399
 4375SOL    HW224762   4.259   3.150  11.328 -4.0249 -0.5161 -0.7057
 4376SOL     OW24763   3.985   3.517  12.232 -0.0427 -0.4294 -0.1139
 4376SOL    HW124764   4.022   3.431  12.250 -0.9345 -1.1452 -1.6754
 4376SOL    HW224765   3.987   3.499  12.138 -0.5904  1.1677 -0.4389
 4377SOL     OW24766   4.367   2.219   8.598  0.4563 -0.5301  0.4578
 4377SOL    HW124767   4.404   2.150   8.544 -1.2775 -0.9722 -0.1635
 4377SOL    HW224768   4.437   2.233   8.662 -0.1225 -0.2632  1.0353
 4378SOL     OW24769   2.776   2.890   2.314 -0.3918  0.0774  0.3099
 4378SOL    HW124770   2.752   2.918   2.402  1.5605  1.5951  0.3591
 4378SOL    HW224771   2.839   2.960   2.299  0.6567 -1.1590 -1.0171
 4379SOL     OW24772   1.715   3.513   2.400 -0.0019 -0.0072 -0.5618
 4379SOL    HW124773   1.621   3.512   2.383 -0.5208 -0.9955  2.3409
 4379SOL    HW224774   1.718   3.597   2.447  0.3322  0.2553 -1.0461
 4380SOL     OW24775   4.091   3.498   6.534 -0.0481  0.6668  0.2410
 4380SOL    HW124776   4.181   3.468   6.520 -0.6246 -0.0462 -1.9235
 4380SOL    HW224777   4.038   3.433   6.488  0.1359  0.6430  0.0641
 4381SOL     OW24778   1.197   0.292   8.441  0.3999 -0.2313  0.4233
 4381SOL    HW124779   1.264   0.361   8.448 -0.8328  0.7584  2.3692
 4381SOL    HW224780   1.158   0.318   8.358  1.6201 -0.9412 -0.3747
 4382SOL     OW24781   3.457   0.462   2.086 -0.0708  0.0821  0.5624
 4382SOL    HW124782   3.545   0.460   2.125 -0.5351 -3.4302  1.4132
 4382SOL    HW224783   3.466   0.546   2.040  0.5969  0.5973  1.6153
 4383SOL     OW24784   0.784   0.900   7.912  0.0603  0.4380  0.2393
 4383SOL    HW124785   0.848   0.860   7.853  1.0294 -0.4769  1.9132
 4383SOL    HW224786   0.738   0.827   7.954 -2.5291  0.3659 -2.7752
 4384SOL     OW24787   0.062   4.075   4.142 -0.4910  0.1822 -0.0096
 4384SOL    HW124788   0.076   3.982   4.159  0.8323  0.4560  0.4046
 4384SOL    HW224789   0.013   4.104   4.219 -2.7339 -1.4107 -0.8438
 4385SOL     OW24790   2.788   0.830  16.420  0.1259 -0.3296 -0.0196
 4385SOL    HW124791   2.818   0.739  16.426  3.1227  0.7637  1.4469
 4385SOL    HW224792   2.696   0.814  16.442  0.0131 -1.0834 -1.0387
 4386SOL     OW24793   1.517   2.292   0.814  0.3569  0.2581 -0.8004
 4386SOL    HW124794   1.531   2.287   0.719  0.0343 -0.9015 -0.7919
 4386SOL    HW224795   1.445   2.354   0.825 -1.2494 -1.0790 -3.4740
 4387SOL     OW24796   2.832   3.462   1.591 -0.3010  0.2719  0.0957
 4387SOL    HW124797   2.834   3.385   1.648  3.4550 -0.1530 -0.6149
 4387SOL    HW224798   2.750   3.507   1.612 -1.0461 -0.9889 -0.0706
 4388SOL     OW24799   3.393   4.396   4.746 -0.2076 -0.0357 -0.0858
 4388SOL    HW124800   3.471   4.371   4.795 -0.0802 -0.1536 -0.3449
 4388SOL    HW224801   3.425   4.399   4.656  0.6543  1.6888  0.2861
 4389SOL     OW24802   3.295   2.636   4.445 -0.7842  0.1447  0.2710
 4389SOL    HW124803   3.377   2.668   4.484  0.0633  0.4080 -1.7536
 4389SOL    HW224804   3.263   2.709   4.392  0.9895  0.2571 -0.6539
 4390SOL     OW24805   0.868   3.942  11.657  0.4019 -0.1061  0.1792
 4390SOL    HW124806   0.859   3.927  11.563 -2.5662  0.4653  0.3611
 4390SOL    HW224807   0.840   4.034  11.656 -0.4806 -0.3689  0.4937
 4391SOL     OW24808   2.993   2.315   4.915 -0.4070 -1.0991 -0.0307
 4391SOL    HW124809   2.935   2.356   4.851 -2.6275 -0.8632  2.1395
 4391SOL    HW224810   3.069   2.306   4.857  1.0581 -0.5021  1.7574
 4392SOL     OW24811   2.731   0.488   3.510 -0.9350 -0.2635  0.3440
 4392SOL    HW124812   2.791   0.548   3.553  0.0419 -0.3228 -0.9314
 4392SOL    HW224813   2.789   0.451   3.443  1.6316  0.4269  2.1565
 4393SOL     OW24814   4.187   0.582   9.504  0.0943 -0.5330 -0.4175
 4393SOL    HW124815   4.134   0.661   9.512  0.7781 -0.5499  3.8900
 4393SOL    HW224816   4.176   0.557   9.412 -0.7688  0.7623 -0.6718
 4394SOL     OW24817   1.307   4.492  13.397 -0.5120  0.0672 -0.1068
 4394SOL    HW124818   1.269   4.418  13.446 -0.4100 -0.9346 -1.5497
 4394SOL    HW224819   1.264   4.491  13.312  1.0816 -4.6799 -0.8220
 4395SOL     OW24820   2.521   4.585   9.506  0.1990 -0.2762  0.0063
 4395SOL    HW124821   2.461   4.521   9.543 -0.2096 -0.4874 -1.0192
 4395SOL    HW224822   2.600   4.531   9.501 -0.5977 -1.2613 -2.1724
 4396SOL     OW24823   3.119   0.946   2.774 -0.1496 -0.1425  0.4573
 4396SOL    HW124824   3.172   0.881   2.727 -0.5340  0.5270 -0.8865
 4396SOL    HW224825   3.091   0.890   2.847  0.5596 -2.0078 -0.7155
 4397SOL     OW24826   0.281   1.589   2.958 -0.2657 -0.0175  0.5773
 4397SOL    HW124827   0.265   1.657   2.892  0.5544 -0.0067  0.3820
 4397SOL    HW224828   0.222   1.521   2.925  0.8533 -0.1914 -1.0648
 4398SOL     OW24829   3.634   1.062   4.542  0.0888  0.0896 -0.9800
 4398SOL    HW124830   3.590   1.147   4.544  0.3164  0.2210 -1.5279
 4398SOL    HW224831   3.557   1.015   4.508 -0.4064  0.3163 -0.1842
 4399SOL     OW24832   4.442   3.234   3.557 -0.4621  0.3113  0.2037
 4399SOL    HW124833   4.424   3.140   3.555  1.2798 -0.0294  0.3127
 4399SOL    HW224834   4.440   3.249   3.652 -1.0088 -1.6558  0.5037
 4400SOL     OW24835   3.413   3.556   9.104 -0.1589 -0.2669  0.3829
 4400SOL    HW124836   3.364   3.489   9.152 -0.9097 -0.8792 -1.2140
 4400SOL    HW224837   3.395   3.631   9.161 -0.0678 -1.1947  1.6335
 4401SOL     OW24838   4.577   0.297   2.209  0.6627  0.2811  0.1663
 4401SOL    HW124839   4.549   0.229   2.147 -0.5319  2.2251 -1.4164
 4401SOL    HW224840   4.645   0.333   2.152  1.6880 -0.7930  0.7225
 4402SOL     OW24841   3.008   4.391   7.445  0.2614 -0.0029 -0.0637
 4402SOL    HW124842   3.020   4.398   7.350 -0.9645  3.1701  0.0049
 4402SOL    HW224843   2.917   4.420   7.447  0.1555 -0.2517 -1.4905
 4403SOL     OW24844   0.436   3.082   5.079  0.0344  0.4188 -0.3460
 4403SOL    HW124845   0.417   3.010   5.019  0.7756 -0.7124  0.7856
 4403SOL    HW224846   0.411   3.063   5.169 -0.2528  2.0014 -0.0919
 4404SOL     OW24847   2.012   4.195   9.585 -0.1201  0.3226  0.0636
 4404SOL    HW124848   2.078   4.256   9.553  0.1878  0.4661  0.9680
 4404SOL    HW224849   2.036   4.195   9.677  0.1417 -0.3575 -0.0047
 4405SOL     OW24850   0.842   1.345  16.684 -0.4186 -0.0320  0.3030
 4405SOL    HW124851   0.905   1.303  16.625  0.0827 -0.6017  1.2608
 4405SOL    HW224852   0.783   1.386  16.619  0.7877 -0.4129 -1.0332
 4406SOL     OW24853   1.204   2.246   8.575  1.0369 -0.0717 -0.1242
 4406SOL    HW124854   1.143   2.318   8.562  1.1530 -0.1456 -1.0733
 4406SOL    HW224855   1.262   2.266   8.501 -0.1085  0.2520 -0.9342
 4407SOL     OW24856   0.718   3.122   6.208  0.0826 -0.0857  0.5556
 4407SOL    HW124857   0.736   3.197   6.151  1.2276 -2.2209 -1.9361
 4407SOL    HW224858   0.635   3.088   6.175  0.5448  0.2937 -1.0025
 4408SOL     OW24859   3.714   0.560   7.134  0.0836  0.2323  0.3832
 4408SOL    HW124860   3.673   0.506   7.202 -0.8700 -0.4971 -0.7670
 4408SOL    HW224861   3.775   0.491   7.110 -0.7227 -0.3286 -0.0521
 4409SOL     OW24862   4.303   2.460   6.476  0.1407  0.2766  0.0403
 4409SOL    HW124863   4.221   2.505   6.456 -0.8173 -2.6329 -2.4708
 4409SOL    HW224864   4.367   2.531   6.485  0.7846  0.0428 -2.7843
 4410SOL     OW24865   3.733   4.381   6.258 -0.1598  0.1694  0.2077
 4410SOL    HW124866   3.828   4.393   6.260 -0.3454  1.7107 -0.0666
 4410SOL    HW224867   3.693   4.459   6.295 -0.6496  0.6578 -1.3648
 4411SOL     OW24868   3.069   3.379   3.109 -0.1274  0.4294  0.2679
 4411SOL    HW124869   3.000   3.418   3.056  0.7294  3.2455  1.2470
 4411SOL    HW224870   3.137   3.445   3.097  0.3570 -0.1804 -0.3612
 4412SOL     OW24871   2.253   0.862  16.676 -0.3704  0.7963 -0.2805
 4412SOL    HW124872   2.195   0.829  16.744  0.2688 -3.6499 -1.8943
 4412SOL    HW224873   2.330   0.892  16.725  0.5279 -3.2580  0.7061
 4413SOL     OW24874   3.374   2.946   2.166  0.1041  0.0450  0.3074
 4413SOL    HW124875   3.346   3.016   2.225 -0.5318 -0.9392  1.1848
 4413SOL    HW224876   3.421   2.885   2.223 -0.8614 -1.1860 -0.1980
 4414SOL     OW24877   2.408   4.368   4.102 -0.0864 -0.3793 -0.1902
 4414SOL    HW124878   2.346   4.424   4.055 -1.3365 -0.5475  1.2374
 4414SOL    HW224879   2.487   4.397   4.057  0.0610 -0.8000 -0.2002
 4415SOL     OW24880   2.990   0.606   2.791  0.5201 -0.7035 -0.3952
 4415SOL    HW124881   2.907   0.564   2.812  0.9474 -1.4034 -0.1217
 4415SOL    HW224882   2.991   0.670   2.863  1.0845 -1.9011  0.6494
 4416SOL     OW24883   2.804   4.078   6.626 -0.2167 -0.5150  0.1008
 4416SOL    HW124884   2.803   4.015   6.697  3.2106 -0.3612  0.3148
 4416SOL    HW224885   2.828   4.026   6.549 -2.6826  0.7254 -1.5015
 4417SOL     OW24886   0.279   3.032  11.545  0.7314  0.1330 -0.0380
 4417SOL    HW124887   0.372   3.022  11.523 -0.0350 -3.7866 -1.4766
 4417SOL    HW224888   0.297   3.080  11.625  0.3355  0.0084  0.1264
 4418SOL     OW24889   1.100   3.871   2.956 -0.2090 -0.0931  0.3736
 4418SOL    HW124890   1.032   3.809   2.983 -1.0728  0.9206  0.4803
 4418SOL    HW224891   1.118   3.837   2.869 -1.0845 -0.0481  0.1818
 4419SOL     OW24892   3.221   1.069   7.806  0.1935  0.5342 -0.0727
 4419SOL    HW124893   3.181   1.156   7.799  0.7959  0.8648  0.6033
 4419SOL    HW224894   3.139   1.020   7.805 -0.1494  1.1297 -1.0988
 4420SOL     OW24895   2.086   2.215   6.259  0.3979 -0.1770  0.4488
 4420SOL    HW124896   2.018   2.243   6.198  1.2203 -2.0952 -1.3666
 4420SOL    HW224897   2.047   2.140   6.305  0.4703 -0.3450  0.2319
 4421SOL     OW24898   2.595   2.446  16.869  0.1235 -0.8031 -0.1805
 4421SOL    HW124899   2.580   2.538  16.890 -0.6024 -0.9183 -0.1814
 4421SOL    HW224900   2.546   2.437  16.787 -1.0275  2.8150  0.0873
 4422SOL     OW24901   0.354   3.835   6.742  0.5050 -0.9443 -0.4985
 4422SOL    HW124902   0.299   3.873   6.811 -0.8592 -1.8927 -1.0665
 4422SOL    HW224903   0.438   3.864   6.778  0.4136  0.0896 -1.1071
 4423SOL     OW24904   0.082   0.393   6.053 -0.0111  0.2133 -0.2195
 4423SOL    HW124905   0.079   0.378   6.148 -0.7813 -1.1021 -0.4549
 4423SOL    HW224906   0.108   0.306   6.022 -0.4851  0.0479 -0.1507
 4424SOL     OW24907   2.084   1.226   7.949  0.2009 -0.1925  0.3065
 4424SOL    HW124908   2.114   1.301   8.000 -0.0510 -0.1370  0.3732
 4424SOL    HW224909   1.988   1.231   7.948  0.2771  0.8680 -1.7263
 4425SOL     OW24910   4.075   4.724   4.946 -0.5967  0.2137  0.4205
 4425SOL    HW124911   4.017   4.683   5.009  0.0502  0.9923  1.5143
 4425SOL    HW224912   4.013   0.025   4.885 -2.7159 -4.0502 -0.1952
 4426SOL     OW24913   1.908   0.274   9.394 -0.0163 -0.4394 -0.7278
 4426SOL    HW124914   1.829   0.237   9.355  1.7916 -1.1477 -3.7240
 4426SOL    HW224915   1.949   0.309   9.315 -0.2291 -1.3429 -1.2262
 4427SOL     OW24916   4.319   3.587   5.779 -0.3849 -0.2278 -0.3293
 4427SOL    HW124917   4.406   3.576   5.739 -0.1568  0.5433 -0.0501
 4427SOL    HW224918   4.326   3.677   5.812  0.3292 -0.8267  1.1296
 4428SOL     OW24919   2.343   3.981   6.375  0.3284  0.3587 -0.0795
 4428SOL    HW124920   2.413   4.046   6.378 -1.0955  1.9643 -1.4403
 4428SOL    HW224921   2.380   3.912   6.430 -0.4478 -2.4675 -3.0801
 4429SOL     OW24922   1.774   1.589   3.459 -0.0831 -0.4976 -0.3844
 4429SOL    HW124923   1.801   1.541   3.538  0.0469  0.6391  0.2540
 4429SOL    HW224924   1.730   1.667   3.492  3.8170  1.0517  1.0449
 4430SOL     OW24925   0.174   0.627  14.609  0.8544  0.0670 -0.1415
 4430SOL    HW124926   0.229   0.694  14.568  1.1799 -0.8408 -1.1785
 4430SOL    HW224927   0.205   0.539  14.590 -1.1865 -0.6357 -0.2179
 4431SOL     OW24928   2.226   2.593   6.097  0.1548 -0.5467  0.1075
 4431SOL    HW124929   2.131   2.588   6.086  0.1604  1.5065 -0.8521
 4431SOL    HW224930   2.227   2.687   6.114 -0.8044 -0.9375  2.3922
 4432SOL     OW24931   2.852   2.965   3.778 -0.3219 -0.3432 -0.0061
 4432SOL    HW124932   2.835   2.915   3.697  1.9154 -2.6841  0.9620
 4432SOL    HW224933   2.901   2.921   3.847  1.7000 -0.3210 -1.3940
 4433SOL     OW24934   4.371   1.732  14.147  0.2878  0.1996 -0.0349
 4433SOL    HW124935   4.353   1.705  14.057 -1.1453 -0.1327  0.3377
 4433SOL    HW224936   4.281   1.730  14.180  0.6654  1.3262  1.0470
 4434SOL     OW24937   2.658   1.921   5.372  0.0073 -0.2013  0.4272
 4434SOL    HW124938   2.721   1.993   5.378 -0.8668  0.4638  1.6008
 4434SOL    HW224939   2.710   1.858   5.421 -0.4902 -1.1099 -0.2233
 4435SOL     OW24940   4.133   0.263   6.170  0.5919  0.1034 -0.6552
 4435SOL    HW124941   4.106   0.204   6.100 -1.3521  0.6381 -0.3485
 4435SOL    HW224942   4.055   0.307   6.204  2.2550  1.2483  1.6998
 4436SOL     OW24943   1.063   1.329  14.362 -0.1770  0.2275 -0.9988
 4436SOL    HW124944   1.058   1.416  14.321 -2.5433 -0.5578 -2.3948
 4436SOL    HW224945   1.077   1.276  14.283  1.6891 -0.2840 -0.3133
 4437SOL     OW24946   1.270   1.839   1.918  0.2438  0.6578  0.1889
 4437SOL    HW124947   1.323   1.760   1.908 -0.9559  0.2557 -3.0897
 4437SOL    HW224948   1.312   1.897   1.854  1.1339  0.7982  0.9060
 4438SOL     OW24949   3.332   3.616  17.249 -0.2776 -0.0360 -0.4398
 4438SOL    HW124950   3.362   3.529  17.223  2.1425  0.1836  1.6577
 4438SOL    HW224951   3.404   3.642  17.307  0.5728 -0.0463 -1.5015
 4439SOL     OW24952   1.789   2.932   6.884  0.2478 -0.0762 -0.0965
 4439SOL    HW124953   1.798   2.939   6.789 -1.0699  2.1491 -0.0722
 4439SOL    HW224954   1.701   2.893   6.879  1.0452 -1.5399 -2.3519
 4440SOL     OW24955   1.355   2.861   2.095  0.5015  0.1803  0.3226
 4440SOL    HW124956   1.318   2.840   2.010 -0.0726 -1.9260  1.1041
 4440SOL    HW224957   1.448   2.870   2.071  1.0519 -2.5389  1.4800
 4441SOL     OW24958   4.529   0.663   8.768  0.2870  0.0442  0.0161
 4441SOL    HW124959   4.551   0.709   8.687 -0.6724 -2.1250 -1.5117
 4441SOL    HW224960   4.434   0.661   8.755  0.5759 -0.3465 -2.0216
 4442SOL     OW24961   2.600   2.905   7.037 -0.2980 -0.3099  0.2990
 4442SOL    HW124962   2.615   2.815   7.065  1.0756  0.2600  1.3970
 4442SOL    HW224963   2.536   2.882   6.969 -1.5615 -1.4617  1.8908
 4443SOL     OW24964   1.915   3.423   5.332  0.4565 -0.1866  0.3726
 4443SOL    HW124965   1.873   3.407   5.247 -0.0544 -3.6899  1.2848
 4443SOL    HW224966   1.846   3.423   5.398 -1.2207  1.0573 -1.3395
 4444SOL     OW24967   0.820   0.853   7.518  0.0830  0.4308  0.2361
 4444SOL    HW124968   0.803   0.944   7.544 -0.3053  1.0946 -2.3758
 4444SOL    HW224969   0.855   0.876   7.432 -0.2015  0.3533  0.1004
 4445SOL     OW24970   3.868   4.025  14.272  0.1519  0.2930  0.3673
 4445SOL    HW124971   3.943   4.040  14.329 -0.0080 -0.4613  0.7759
 4445SOL    HW224972   3.905   3.963  14.209 -1.2192  0.6999 -0.8203
 4446SOL     OW24973   3.322   0.299   9.170 -0.3747  0.2832 -0.1940
 4446SOL    HW124974   3.392   0.297   9.236 -1.0427  2.6994  0.5916
 4446SOL    HW224975   3.310   0.392   9.156 -0.7200  0.6231  2.3620
 4447SOL     OW24976   0.277   1.795  11.743  0.0680 -0.5830 -0.1750
 4447SOL    HW124977   0.202   1.855  11.741  0.0505 -0.5496  1.1950
 4447SOL    HW224978   0.264   1.727  11.676 -1.9753  0.6144 -0.9959
 4448SOL     OW24979   2.080   0.033   6.762 -0.4389 -0.9426 -0.4296
 4448SOL    HW124980   2.135   4.694   6.748 -0.0776 -0.5425 -1.2193
 4448SOL    HW224981   2.000   4.733   6.726 -0.7429 -0.6826 -0.0289
 4449SOL     OW24982   4.325   2.905   1.840 -0.5721  0.2072  0.1299
 4449SOL    HW124983   4.377   2.875   1.765 -0.3158  1.9461 -0.3899
 4449SOL    HW224984   4.306   2.827   1.892 -0.8659  0.8335  0.9605
 4450SOL     OW24985   3.248   0.684   1.726 -0.6671 -0.0819  0.0156
 4450SOL    HW124986   3.193   0.758   1.702  0.5056  0.3372 -1.3519
 4450SOL    HW224987   3.240   0.670   1.820  0.4661 -2.1584 -0.1913
 4451SOL     OW24988   1.276   3.570  10.162  0.6465  0.2668  0.2000
 4451SOL    HW124989   1.186   3.573  10.196  0.4860 -0.5726 -0.1422
 4451SOL    HW224990   1.294   3.476  10.149 -0.4228  0.1328 -0.2874
 4452SOL     OW24991   3.718   0.322   4.114  0.5961  0.0619  0.6863
 4452SOL    HW124992   3.731   0.238   4.157  0.4285  0.1350  0.8797
 4452SOL    HW224993   3.796   0.352   4.069  1.4044 -0.6000  1.6396
 4453SOL     OW24994   3.259   2.424   5.069  0.1415  0.2460  0.0970
 4453SOL    HW124995   3.279   2.392   4.981 -0.1947 -0.5514  0.3091
 4453SOL    HW224996   3.293   2.359   5.131 -1.4363  1.3332  2.1175
 4454SOL     OW24997   1.859   0.745   5.120 -0.3177  0.4199  0.1971
 4454SOL    HW124998   1.904   0.790   5.048 -1.9470  2.3519  0.3708
 4454SOL    HW224999   1.903   0.660   5.120 -1.9460 -0.4297 -2.7141
 4455SOL     OW25000   4.677   0.005   1.708  0.2196 -0.1068  0.9319
 4455SOL    HW125001   4.734   0.074   1.742  0.6938 -0.2516  0.4429
 4455SOL    HW225002   4.682   4.685   1.784  1.5920 -0.3143  0.6913
 4456SOL     OW25003   1.340   3.889   7.249  0.1032 -0.5731 -1.0389
 4456SOL    HW125004   1.431   3.884   7.218  0.8556  1.3274  0.8487
 4456SOL    HW225005   1.342   3.851   7.337 -1.3595  0.3308 -0.6264
 4457SOL     OW25006   3.089   3.759   5.495  0.1375  0.1481  0.6181
 4457SOL    HW125007   3.102   3.763   5.400 -3.2840  3.3629  0.2849
 4457SOL    HW225008   2.995   3.743   5.507  0.3142 -0.9687  0.5280
 4458SOL     OW25009   3.988   4.246   8.433  0.2177  0.0332  0.6534
 4458SOL    HW125010   4.031   4.309   8.491  2.9150 -1.6498  0.4987
 4458SOL    HW225011   3.989   4.298   8.352  1.4693 -1.9791 -0.6292
 4459SOL     OW25012   3.829   4.054   8.522  0.7495 -0.0396 -0.1621
 4459SOL    HW125013   3.889   4.128   8.513 -1.2571  1.6686  0.4929
 4459SOL    HW225014   3.815   4.047   8.616  3.5687 -0.7753  0.1987
 4460SOL     OW25015   3.121   4.735   4.000 -0.1170  0.2117  0.1963
 4460SOL    HW125016   3.107   0.082   3.959  3.6746  1.5761  1.7316
 4460SOL    HW225017   3.080   0.024   4.081  0.4461  0.6023  0.3519
 4461SOL     OW25018   0.879   1.327   2.181 -0.3960 -0.6008  0.5890
 4461SOL    HW125019   0.857   1.307   2.090 -2.7831 -3.1320  1.7350
 4461SOL    HW225020   0.915   1.243   2.209  0.1875  0.0322  1.7769
 4462SOL     OW25021   1.684   2.324   7.338 -0.7989 -0.2983  0.0314
 4462SOL    HW125022   1.624   2.382   7.292  0.7863  0.2363 -1.3669
 4462SOL    HW225023   1.766   2.334   7.289  0.0114  0.1723  1.4698
 4463SOL     OW25024   2.815   4.588   1.818  0.2769 -0.2252  0.0289
 4463SOL    HW125025   2.781   4.674   1.797  0.5054  0.1674  1.2601
 4463SOL    HW225026   2.737   4.533   1.824  0.3160 -0.1842  0.9000
 4464SOL     OW25027   1.802   3.782   7.651 -0.0316 -0.2207  0.2451
 4464SOL    HW125028   1.739   3.734   7.704 -1.1157 -1.3100 -1.9980
 4464SOL    HW225029   1.863   3.806   7.721 -0.9152  1.3012  0.4743
 4465SOL     OW25030   2.645   0.665   8.017  0.0276  0.0423  0.2547
 4465SOL    HW125031   2.622   0.743   7.966 -0.7932 -0.7850 -0.6429
 4465SOL    HW225032   2.612   0.697   8.101  2.8788  1.0170  0.9774
 4466SOL     OW25033   3.094   0.140   2.295 -0.6106 -0.1381  0.0907
 4466SOL    HW125034   3.134   0.216   2.253 -0.1466 -0.8827 -0.8043
 4466SOL    HW225035   3.127   0.143   2.385  0.9808  1.1583 -0.5370
 4467SOL     OW25036   0.302   0.338   2.944 -0.2687 -0.4875  0.2446
 4467SOL    HW125037   0.387   0.367   2.978 -0.2651  1.8363 -1.7222
 4467SOL    HW225038   0.248   0.308   3.016 -2.5418  0.6863 -0.9686
 4468SOL     OW25039   3.161   3.814   5.219 -0.4493 -0.2581  0.4095
 4468SOL    HW125040   3.143   3.822   5.125 -0.1610  0.6103  0.4328
 4468SOL    HW225041   3.231   3.749   5.218 -0.9268 -0.7702 -0.0903
 4469SOL     OW25042   4.014   2.348   6.652 -0.3029 -0.3548 -0.5673
 4469SOL    HW125043   4.033   2.371   6.561  0.6725 -1.4225 -0.6393
 4469SOL    HW225044   3.918   2.344   6.655 -0.1357 -3.0633  0.8221
 4470SOL     OW25045   4.418   0.379   7.431 -0.0305 -0.1056 -0.1694
 4470SOL    HW125046   4.327   0.351   7.432 -1.0056  3.1648  0.8916
 4470SOL    HW225047   4.421   0.422   7.516 -0.3944 -1.2133  0.3954
 4471SOL     OW25048   3.624   1.666   3.096  0.1840 -0.2473 -0.1905
 4471SOL    HW125049   3.593   1.661   3.006  1.2270 -0.4936 -0.5361
 4471SOL    HW225050   3.535   1.670   3.133  0.4646  1.0979  0.3683
 4472SOL     OW25051   1.425   0.312   5.850  0.1518  0.4189  0.2675
 4472SOL    HW125052   1.347   0.265   5.879 -0.1276  1.3560  1.0099
 4472SOL    HW225053   1.476   0.241   5.809 -0.7639 -0.5305  0.7662
 4473SOL     OW25054   0.647   3.077  15.030  0.6196 -0.1426  0.0614
 4473SOL    HW125055   0.692   3.087  14.947 -0.8057 -1.0763 -0.8298
 4473SOL    HW225056   0.728   3.054  15.075  0.1428 -2.5161 -0.2567
 4474SOL     OW25057   1.688   1.144  17.369 -0.2644  0.5371  0.0446
 4474SOL    HW125058   1.624   1.122  17.436  0.1445  2.5286  1.0942
 4474SOL    HW225059   1.638   1.198  17.308  0.4490 -0.1758 -1.1800
 4475SOL     OW25060   0.576   1.320   7.614 -0.0937  0.3110 -0.5132
 4475SOL    HW125061   0.533   1.235   7.622 -1.7943  1.1681 -0.5648
 4475SOL    HW225062   0.555   1.356   7.700  0.2392 -1.3626  0.2753
 4476SOL     OW25063   3.492   0.430   8.378 -0.2937  0.5883 -0.1410
 4476SOL    HW125064   3.443   0.445   8.297 -0.3779 -1.4342 -0.4638
 4476SOL    HW225065   3.438   0.360   8.414  0.0682  1.2671  1.6802
 4477SOL     OW25066   2.034   0.661  14.599  0.2946  0.6615 -0.2623
 4477SOL    HW125067   1.945   0.627  14.588  0.2691  0.7272 -0.2623
 4477SOL    HW225068   2.029   0.688  14.691  1.4711  0.7423 -0.2261
 4478SOL     OW25069   2.751   1.963   6.078 -0.0797  0.1779  0.5655
 4478SOL    HW125070   2.695   1.919   6.142  0.3047 -1.8930 -0.5209
 4478SOL    HW225071   2.812   2.007   6.137  1.3019 -1.3212  0.2614
 4479SOL     OW25072   2.207   1.748   5.448  0.3625 -0.2368 -0.1510
 4479SOL    HW125073   2.152   1.720   5.522  0.7742 -0.5487  0.0392
 4479SOL    HW225074   2.235   1.836   5.472  1.2294 -0.6329  0.3034
 4480SOL     OW25075   4.138   1.866  16.335  0.2522 -0.1289 -0.4985
 4480SOL    HW125076   4.123   1.942  16.392 -0.1418 -2.6109  2.7327
 4480SOL    HW225077   4.052   1.853  16.296  0.1662 -1.0701  0.0011
 4481SOL     OW25078   2.163   2.978   6.613 -0.1197  0.6716  0.2502
 4481SOL    HW125079   2.150   2.891   6.576 -1.3644  0.4117  1.2754
 4481SOL    HW225080   2.087   3.023   6.576 -1.4026 -1.3455  0.3993
 4482SOL     OW25081   1.706   1.847   4.497 -0.1370 -0.3018 -0.6701
 4482SOL    HW125082   1.757   1.770   4.524  1.1191  0.7649  0.0301
 4482SOL    HW225083   1.750   1.872   4.416  1.0731  0.9753  0.3751
 4483SOL     OW25084   0.738   2.701   3.763  0.0152  0.2742  0.1987
 4483SOL    HW125085   0.734   2.613   3.803 -0.9453 -0.0636 -0.6440
 4483SOL    HW225086   0.825   2.687   3.725  0.0835 -0.7558  0.7154
 4484SOL     OW25087   1.774   1.050   6.773  0.6467  0.2162  0.5030
 4484SOL    HW125088   1.858   1.080   6.806  0.3066 -0.2053  1.7500
 4484SOL    HW225089   1.772   0.954   6.773 -2.1354  0.2409  2.8416
 4485SOL     OW25090   3.135   3.151   7.043 -0.3756 -0.5641 -0.0081
 4485SOL    HW125091   3.190   3.100   7.102  0.6048  0.0702 -0.3649
 4485SOL    HW225092   3.104   3.082   6.985  0.8832 -1.2726  0.1696
 4486SOL     OW25093   4.337   2.009  14.809  0.5130 -0.4347  0.1832
 4486SOL    HW125094   4.350   2.088  14.756 -1.3332 -0.0558  0.2959
 4486SOL    HW225095   4.282   2.055  14.872  0.0250  1.4185 -1.6111
 4487SOL     OW25096   2.255   2.489   9.376  0.2149 -0.2470 -0.4249
 4487SOL    HW125097   2.241   2.405   9.419  1.2358 -0.4287 -0.4583
 4487SOL    HW225098   2.265   2.468   9.283 -1.0423  0.3933 -0.7140
 4488SOL     OW25099   0.792   0.911   3.865 -0.1401  0.2617 -0.5043
 4488SOL    HW125100   0.725   0.921   3.933 -0.3639  0.9099 -0.8196
 4488SOL    HW225101   0.728   0.903   3.793 -1.2067 -1.9570  0.6924
 4489SOL     OW25102   3.934   1.285   3.364 -0.0493  0.4475  0.0654
 4489SOL    HW125103   3.889   1.310   3.284  1.2742  0.5451 -0.6550
 4489SOL    HW225104   3.915   1.192   3.370  2.5865 -0.0131  1.4097
 4490SOL     OW25105   2.049   3.338   2.647  0.1653  0.4363 -0.3259
 4490SOL    HW125106   2.027   3.286   2.723  2.1906  0.8618  0.5456
 4490SOL    HW225107   2.115   3.291   2.596  0.3939  0.6383 -0.2167
 4491SOL     OW25108   0.350   0.124   3.792  0.4369  0.2985 -0.0084
 4491SOL    HW125109   0.352   0.042   3.743 -0.5991  1.3314 -1.7486
 4491SOL    HW225110   0.351   0.192   3.725 -1.3105 -0.5062 -0.8530
 4492SOL     OW25111   2.959   3.290  15.481 -0.3618 -0.5702  0.2848
 4492SOL    HW125112   2.899   3.267  15.410 -1.2521 -2.2464  1.5760
 4492SOL    HW225113   3.043   3.289  15.436  0.5334  1.3347  1.9658
 4493SOL     OW25114   0.361   4.206   6.901  0.1700  0.1198  0.0530
 4493SOL    HW125115   0.266   4.202   6.895  0.1227 -0.6078  1.3716
 4493SOL    HW225116   0.373   4.264   6.977  0.9816 -0.3172  0.2621
 4494SOL     OW25117   1.363   4.522   7.035 -0.2865  0.0144  0.1926
 4494SOL    HW125118   1.440   4.487   6.990  0.6854  0.1412  1.7470
 4494SOL    HW225119   1.379   4.501   7.127  1.2678  0.9964  0.1447
 4495SOL     OW25120   0.027   1.131   4.123 -0.1138  0.0623 -0.0144
 4495SOL    HW125121   4.704   1.059   4.111 -1.7782  1.1804  2.0013
 4495SOL    HW225122   0.024   1.176   4.038  1.8916 -3.2437 -1.8084
 4496SOL     OW25123   2.869   2.625  16.561 -0.5186  0.2449 -0.1175
 4496SOL    HW125124   2.815   2.548  16.541 -2.6196  1.4075  1.1428
 4496SOL    HW225125   2.830   2.691  16.504 -2.3445 -0.2536  0.5719
 4497SOL     OW25126   1.171   2.322   9.779 -0.9066  0.5047  0.3360
 4497SOL    HW125127   1.154   2.376   9.702 -1.8036 -0.6034 -0.2389
 4497SOL    HW225128   1.193   2.236   9.742  1.2453  1.5673 -0.8822
 4498SOL     OW25129   3.761   3.050   8.800  0.6347 -0.2765 -0.0767
 4498SOL    HW125130   3.731   3.127   8.849 -2.6316 -1.0829 -0.8033
 4498SOL    HW225131   3.789   2.994   8.872  2.2009 -1.2632 -1.4583
 4499SOL     OW25132   1.877   2.458   8.294 -0.5562  0.4496  0.2321
 4499SOL    HW125133   1.927   2.487   8.371 -1.6555 -1.6108  1.7187
 4499SOL    HW225134   1.883   2.539   8.244 -0.2901  1.8007  2.4736
 4500SOL     OW25135   2.675   0.154   5.946 -0.0656 -0.4638  0.1444
 4500SOL    HW125136   2.749   0.211   5.969 -1.7006  1.5832  0.3602
 4500SOL    HW225137   2.605   0.186   6.004 -0.3655  2.5675 -1.8828
 4501SOL     OW25138   1.231   3.329  13.963 -0.6421  0.3453 -0.0902
 4501SOL    HW125139   1.153   3.277  13.983 -0.7201  0.7935  0.7606
 4501SOL    HW225140   1.214   3.359  13.873  0.1914 -2.3511 -1.1525
 4502SOL     OW25141   1.032   0.695   8.327  0.1856  0.6197 -0.2920
 4502SOL    HW125142   1.068   0.647   8.402 -0.4326  1.4341  0.5231
 4502SOL    HW225143   1.085   0.774   8.317 -0.2930  1.0753  0.7712
 4503SOL     OW25144   0.183   1.352   5.414 -0.4223  0.5363  0.4765
 4503SOL    HW125145   0.203   1.439   5.448  0.3622  0.4653  0.1871
 4503SOL    HW225146   0.173   1.304   5.496  0.6415 -0.4583  0.0175
 4504SOL     OW25147   1.634   2.062   8.959 -0.1157 -0.0094 -0.0365
 4504SOL    HW125148   1.545   2.062   8.996 -0.1784 -1.2910 -0.2008
 4504SOL    HW225149   1.678   2.115   9.026  0.3992 -0.9180  0.3535
 4505SOL     OW25150   4.089   3.744   2.855 -0.5339  0.5411 -0.6259
 4505SOL    HW125151   4.088   3.756   2.760  3.1813 -1.3629 -0.9219
 4505SOL    HW225152   4.007   3.696   2.861 -0.5904  0.7412  0.2217
 4506SOL     OW25153   3.015   2.015   4.707  0.4238 -0.2604  0.6862
 4506SOL    HW125154   2.996   1.934   4.660  1.0024  0.8992 -1.5595
 4506SOL    HW225155   3.034   1.985   4.796 -1.8081 -0.9021  0.9425
 4507SOL     OW25156   1.391   2.384   3.359  0.0376  0.4386  0.0781
 4507SOL    HW125157   1.311   2.360   3.407 -0.7614  0.7645 -1.0853
 4507SOL    HW225158   1.397   2.302   3.310 -0.7886  1.2487 -1.3669
 4508SOL     OW25159   1.630   0.151   5.713 -0.1685  0.4227  0.1996
 4508SOL    HW125160   1.675   0.068   5.727 -1.6336 -0.3145  0.4862
 4508SOL    HW225161   1.700   0.213   5.735 -0.5397  0.2385  1.8579
 4509SOL     OW25162   1.273   2.542   3.694 -0.5488  0.1894  0.2299
 4509SOL    HW125163   1.216   2.532   3.617 -0.1406 -1.7545  0.1736
 4509SOL    HW225164   1.277   2.637   3.701  1.4143  0.1689 -0.8401
 4510SOL     OW25165   0.349   3.813   0.513  0.4668  0.0358 -0.3910
 4510SOL    HW125166   0.372   3.893   0.466 -0.0315  1.5792  2.0318
 4510SOL    HW225167   0.279   3.848   0.566 -1.1068 -2.3887 -0.8532
 4511SOL     OW25168   2.195   2.062  16.408 -0.3864 -0.4477  0.6501
 4511SOL    HW125169   2.237   2.135  16.363  0.8693 -0.5365  1.6888
 4511SOL    HW225170   2.113   2.098  16.442 -0.6665 -0.9443  0.4960
 4512SOL     OW25171   0.205   0.245  17.423  0.2078  0.0042  0.2318
 4512SOL    HW125172   0.291   0.219  17.389 -0.0218 -0.1624 -0.2190
 4512SOL    HW225173   0.215   0.338  17.405 -2.4807 -0.4327 -3.4820
 4513SOL     OW25174   1.244   1.868   7.363  0.2735 -0.0547 -0.4239
 4513SOL    HW125175   1.188   1.815   7.420  1.0452 -2.1111 -1.5826
 4513SOL    HW225176   1.208   1.955   7.383 -1.0725 -0.7733  0.2419
 4514SOL     OW25177   2.041   2.595  10.277  0.1910 -0.2284 -0.0694
 4514SOL    HW125178   2.045   2.688  10.255  1.6710 -0.3156 -0.2011
 4514SOL    HW225179   1.955   2.590  10.317  1.3194  0.9855  2.4892
 4515SOL     OW25180   4.082   3.997   9.010  0.5038 -0.2635  0.0646
 4515SOL    HW125181   4.010   3.936   9.028 -0.4998  0.7160 -0.6719
 4515SOL    HW225182   4.144   3.937   8.967  0.6823  0.7740 -1.1000
 4516SOL     OW25183   0.062   1.917   7.251  0.0464  0.6297  0.0080
 4516SOL    HW125184   4.706   1.905   7.261  0.2207  0.5877  1.5358
 4516SOL    HW225185   0.065   1.951   7.161  0.1189 -0.0959 -0.2647
 4517SOL     OW25186   2.133   4.003   5.008 -0.0383  0.0801 -0.0429
 4517SOL    HW125187   2.078   3.942   5.057 -0.1347  1.3228  1.3955
 4517SOL    HW225188   2.146   3.963   4.922 -1.7678  2.1181 -1.2340
 4518SOL     OW25189   3.000   4.295  16.037  0.0220 -0.2280  0.0639
 4518SOL    HW125190   2.972   4.263  15.951 -0.8528  0.4711  0.0789
 4518SOL    HW225191   2.947   4.236  16.091 -2.9151  1.6618 -0.7173
 4519SOL     OW25192   3.270   1.976   4.832 -0.3398 -0.0192  0.8817
 4519SOL    HW125193   3.303   1.958   4.744 -3.7691 -0.3056 -0.3781
 4519SOL    HW225194   3.318   1.919   4.892  1.3489 -2.9729 -3.3022
 4520SOL     OW25195   2.567   1.097   6.893 -0.2665  0.0871 -0.4605
 4520SOL    HW125196   2.565   1.139   6.807  1.3645  0.0327 -0.5162
 4520SOL    HW225197   2.588   1.009   6.863 -1.5807  0.4355 -2.4018
 4521SOL     OW25198   4.569   2.060  10.635 -0.6978 -0.2568 -0.1584
 4521SOL    HW125199   4.521   2.142  10.636  1.0035  0.7289  0.4593
 4521SOL    HW225200   4.547   2.028  10.722  2.3890 -1.4913  0.1790
 4522SOL     OW25201   1.468   0.587   0.038 -0.1628  0.2001 -0.4599
 4522SOL    HW125202   1.487   0.623   0.124  2.0800 -0.2803 -0.7636
 4522SOL    HW225203   1.523   0.645  17.738  0.4815  0.4540  0.5181
 4523SOL     OW25204   0.467   4.354  10.221  0.1390  0.3120 -0.2422
 4523SOL    HW125205   0.402   4.298  10.263 -0.5169  0.3972 -1.1425
 4523SOL    HW225206   0.512   4.381  10.300  0.2547 -1.3822  0.2798
 4524SOL     OW25207   0.458   2.543   5.973  0.7537 -0.5172 -0.0045
 4524SOL    HW125208   0.430   2.589   6.052  1.5803 -1.6028  0.9215
 4524SOL    HW225209   0.443   2.606   5.902  0.6168  1.4276  1.7653
 4525SOL     OW25210   1.575   0.229   3.920 -0.4388 -0.5875  0.3227
 4525SOL    HW125211   1.670   0.216   3.922 -0.1878  1.5917  1.8854
 4525SOL    HW225212   1.573   0.317   3.957 -0.0703 -0.1921 -0.6098
 4526SOL     OW25213   1.518   1.814  15.622  0.6632  0.1818 -0.3627
 4526SOL    HW125214   1.446   1.860  15.664  0.3356 -0.8784  0.2362
 4526SOL    HW225215   1.580   1.809  15.695  0.5687  2.0934 -0.1594
 4527SOL     OW25216   3.788   1.773   3.515 -0.6980  0.3548 -0.5339
 4527SOL    HW125217   3.871   1.763   3.469  0.6335  1.6224  1.5686
 4527SOL    HW225218   3.759   1.682   3.524  3.1369 -0.7936  0.0335
 4528SOL     OW25219   4.666   1.498   9.525 -0.2487 -0.6596  0.3283
 4528SOL    HW125220   0.001   1.536   9.574 -2.0233  4.0946 -0.6558
 4528SOL    HW225221   4.698   1.408   9.527  1.7494  0.0954  2.4769
 4529SOL     OW25222   3.324   0.544   4.947 -0.1577  0.1771 -0.0678
 4529SOL    HW125223   3.290   0.627   4.915  1.9614 -0.3124 -3.5763
 4529SOL    HW225224   3.242   0.497   4.963 -1.5777  2.1020 -1.5901
 4530SOL     OW25225   1.101   4.069   4.965  0.8199  0.0905 -0.3976
 4530SOL    HW125226   1.109   4.163   4.981  1.2116  0.3429 -2.0632
 4530SOL    HW225227   1.042   4.070   4.890  0.1753 -1.4371  0.0851
 4531SOL     OW25228   3.511   0.174   5.199  0.3358  0.1484 -0.4328
 4531SOL    HW125229   3.536   0.089   5.165  1.0159  0.6683 -1.2205
 4531SOL    HW225230   3.573   0.227   5.150 -0.7813  2.7464  0.8921
 4532SOL     OW25231   0.668   2.259  11.893 -0.5007  0.1156 -0.3565
 4532SOL    HW125232   0.727   2.216  11.954  0.9177 -0.0347 -1.8408
 4532SOL    HW225233   0.700   2.346  11.918  1.1669 -0.4407 -0.5859
 4533SOL     OW25234   3.428   2.326   6.453 -0.1341 -0.5458 -0.3558
 4533SOL    HW125235   3.350   2.342   6.399 -1.0900  0.8976  1.4577
 4533SOL    HW225236   3.480   2.264   6.402 -0.6541 -0.3088 -1.1721
 4534SOL     OW25237   2.657   3.480   0.803 -0.1461 -0.3027  0.3353
 4534SOL    HW125238   2.679   3.388   0.788  3.0799  0.6324 -0.6448
 4534SOL    HW225239   2.737   3.497   0.853  0.4493 -2.5907  0.1809
 4535SOL     OW25240   0.990   0.648   7.210  0.3283 -0.0761 -0.5825
 4535SOL    HW125241   0.937   0.728   7.205  2.0142  1.0641 -0.2101
 4535SOL    HW225242   1.078   0.684   7.220 -0.0054  1.1454 -1.9936
 4536SOL     OW25243   3.171   2.858   4.235  0.7119 -0.0554 -0.7536
 4536SOL    HW125244   3.250   2.911   4.245  1.6017 -1.4136 -0.6942
 4536SOL    HW225245   3.106   2.927   4.219  0.9024 -0.0919 -1.6397
 4537SOL     OW25246   1.305   1.716   2.331 -0.2851 -0.4102 -0.2028
 4537SOL    HW125247   1.400   1.714   2.332 -0.2792 -0.7994 -1.4430
 4537SOL    HW225248   1.287   1.705   2.238  1.5846 -1.5303 -0.4281
 4538SOL     OW25249   1.173   3.002   0.302 -0.3356 -0.4535  0.4322
 4538SOL    HW125250   1.169   2.942   0.376  0.7854 -1.7334 -0.5388
 4538SOL    HW225251   1.082   3.027   0.285  0.0811 -0.1440 -1.3751
 4539SOL     OW25252   3.593   3.849  15.003  0.2992 -0.1038  0.3798
 4539SOL    HW125253   3.688   3.858  15.003  0.1926  0.9685 -0.6063
 4539SOL    HW225254   3.569   3.903  14.928 -0.6037 -1.8382 -0.5975
 4540SOL     OW25255   2.598   4.400   7.511 -0.2459  0.0762  0.2089
 4540SOL    HW125256   2.652   4.474   7.538 -0.0702 -0.5942  1.6995
 4540SOL    HW225257   2.516   4.436   7.478 -0.8234  0.5343  2.1844
 4541SOL     OW25258   2.318   2.098  15.504 -0.1396  0.0146 -0.1486
 4541SOL    HW125259   2.279   2.024  15.549 -1.1650  1.8283  1.9813
 4541SOL    HW225260   2.396   2.056  15.467 -0.2265 -0.2593 -0.0147
 4542SOL     OW25261   0.014   2.630   7.886 -0.0660 -0.4476  0.0421
 4542SOL    HW125262   0.017   2.536   7.903 -0.0588 -0.4573 -0.0138
 4542SOL    HW225263   0.041   2.672   7.967  3.0096 -0.4901 -0.9880
 4543SOL     OW25264   2.833   4.701   0.517 -0.4342  0.1312  0.1102
 4543SOL    HW125265   2.910   4.732   0.565  1.5695 -1.4065 -2.1119
 4543SOL    HW225266   2.878   4.691   0.433  1.7804 -0.9090  1.4183
 4544SOL     OW25267   2.236   0.741  10.867 -0.5049 -0.3903 -0.1528
 4544SOL    HW125268   2.276   0.781  10.790  0.2258 -0.5001  0.1732
 4544SOL    HW225269   2.220   0.824  10.912  0.2447  1.6779 -3.7051
 4545SOL     OW25270   1.244   2.120   3.981 -0.6807 -0.1015  0.1469
 4545SOL    HW125271   1.185   2.191   4.007 -0.7730  0.2277 -0.9724
 4545SOL    HW225272   1.211   2.044   4.029  0.4649 -0.4786  0.3424
 4546SOL     OW25273   0.848   0.683   0.392 -0.5019 -0.4305 -0.7320
 4546SOL    HW125274   0.763   0.647   0.415 -0.2300 -1.6001 -1.5995
 4546SOL    HW225275   0.907   0.612   0.417 -0.0096  0.0860 -0.3956
 4547SOL     OW25276   0.415   2.434   4.363  0.1723 -0.0287  0.2764
 4547SOL    HW125277   0.466   2.423   4.282 -0.6416 -0.1800 -0.2139
 4547SOL    HW225278   0.488   2.466   4.415  0.4006  1.2814 -0.8540
 4548SOL     OW25279   1.790   4.409   4.562  0.4266  0.4013 -0.0813
 4548SOL    HW125280   1.795   4.358   4.643  0.7478 -0.2454 -0.5130
 4548SOL    HW225281   1.792   4.337   4.499 -4.2821  1.8679 -1.8507
 4549SOL     OW25282   0.349   0.180   5.607  0.3319 -0.9381 -0.5650
 4549SOL    HW125283   0.383   0.091   5.605  1.0879 -0.6295 -1.1550
 4549SOL    HW225284   0.330   0.183   5.701  1.4979 -3.7351 -0.2406
 4550SOL     OW25285   2.571   1.500   1.918  0.2156 -0.4013  0.2752
 4550SOL    HW125286   2.544   1.409   1.930  3.0487 -1.6156 -2.4778
 4550SOL    HW225287   2.485   1.541   1.926 -0.0383 -0.8698 -0.1468
 4551SOL     OW25288   1.109   4.329   1.348 -0.4247  0.2306  0.4877
 4551SOL    HW125289   1.046   4.315   1.278  1.8003  1.4214 -1.7519
 4551SOL    HW225290   1.073   4.297   1.431  0.7305 -1.7181  0.2506
 4552SOL     OW25291   0.736   3.117  13.525  0.0741  0.1031  0.0369
 4552SOL    HW125292   0.679   3.110  13.448  0.8170 -0.9444 -0.4113
 4552SOL    HW225293   0.753   3.211  13.523  0.3465  0.0668  0.9357
 4553SOL     OW25294   2.235   0.411   1.613  0.4081  0.0324 -0.0302
 4553SOL    HW125295   2.192   0.475   1.556 -1.1733  1.6577  3.0313
 4553SOL    HW225296   2.183   0.332   1.598 -1.0851  0.9003  0.5983
 4554SOL     OW25297   4.289   0.695  15.680 -0.4550 -0.2678  0.6532
 4554SOL    HW125298   4.378   0.682  15.714  0.7029  1.1374 -1.8644
 4554SOL    HW225299   4.291   0.775  15.627 -0.5888  0.2011  1.3605
 4555SOL     OW25300   4.038   3.268   1.911 -0.1269  0.2732 -0.7131
 4555SOL    HW125301   4.028   3.356   1.873 -0.5054 -0.1245 -1.5199
 4555SOL    HW225302   3.979   3.277   1.986  0.2536 -0.9509 -0.2727
 4556SOL     OW25303   3.544   1.652   2.814 -0.7240 -0.2042 -0.5882
 4556SOL    HW125304   3.460   1.698   2.821 -0.1032  0.6323  1.3025
 4556SOL    HW225305   3.523   1.566   2.778  3.1687 -1.1364 -0.6058
 4557SOL     OW25306   0.347   3.856   5.085  0.2019 -0.0844 -0.4667
 4557SOL    HW125307   0.398   3.911   5.144 -1.6275  1.1690 -0.0595
 4557SOL    HW225308   0.376   3.883   4.998  0.5005  0.4546 -0.1976
 4558SOL     OW25309   3.367   3.697   0.858 -0.1601 -0.2264 -0.1016
 4558SOL    HW125310   3.418   3.727   0.934 -0.5377 -1.6091  0.6952
 4558SOL    HW225311   3.279   3.694   0.895 -0.1039  0.9185  0.1192
 4559SOL     OW25312   3.605   4.638  13.785 -0.0018 -0.7079 -0.2752
 4559SOL    HW125313   3.583   4.574  13.853 -0.5234  0.1107  0.3127
 4559SOL    HW225314   3.523   4.649  13.736  0.1905 -0.5113 -0.5513
 4560SOL     OW25315   0.133   1.551   4.792 -0.2162 -0.8335  0.0401
 4560SOL    HW125316   0.140   1.568   4.699  1.0398 -1.8783 -0.0512
 4560SOL    HW225317   0.157   1.459   4.800  0.2687 -0.7691 -0.7853
 4561SOL     OW25318   1.695   4.406   2.204 -0.6075  0.3803 -0.2739
 4561SOL    HW125319   1.660   4.478   2.151 -0.1394 -0.3409 -1.5502
 4561SOL    HW225320   1.699   4.443   2.292  2.9499  0.2952 -0.3855
 4562SOL     OW25321   2.131   1.678  16.817 -0.3533  0.4946 -0.1645
 4562SOL    HW125322   2.076   1.647  16.745  0.2841  0.1612 -0.5014
 4562SOL    HW225323   2.084   1.635  16.889  1.0636 -1.4957 -0.4188
 4563SOL     OW25324   1.023   4.096  17.065 -0.0865 -0.5490 -0.1136
 4563SOL    HW125325   1.053   4.035  16.997  1.4488  0.1569 -0.0792
 4563SOL    HW225326   1.097   4.090  17.125 -1.8351 -2.9164  1.7926
 4564SOL     OW25327   3.849   4.679   2.199 -0.0574  0.5590 -0.2402
 4564SOL    HW125328   3.763   4.720   2.210 -1.1423 -1.6891 -0.2316
 4564SOL    HW225329   3.880   4.726   2.122  1.3875  2.0465  1.2672
 4565SOL     OW25330   1.251   3.636   4.373  0.1273 -0.3938  0.3495
 4565SOL    HW125331   1.197   3.672   4.302  0.3043 -0.3928  0.2131
 4565SOL    HW225332   1.211   3.668   4.453 -0.6831  2.1327 -1.0702
 4566SOL     OW25333   0.097   3.233   5.945  0.0077 -0.3584  0.5412
 4566SOL    HW125334   0.003   3.253   5.946  0.0780  0.0783 -0.9372
 4566SOL    HW225335   0.121   3.237   6.037 -0.5977  1.0306  0.6475
 4567SOL     OW25336   1.833   2.666   9.798  0.0245  0.4558 -0.0066
 4567SOL    HW125337   1.773   2.613   9.746  1.9644 -1.7418 -0.0304
 4567SOL    HW225338   1.891   2.687   9.725 -0.0767 -0.9060 -0.4640
 4568SOL     OW25339   1.465   1.241   7.747  0.2819  0.6450  0.1235
 4568SOL    HW125340   1.554   1.208   7.762  0.4280  0.1022 -1.9572
 4568SOL    HW225341   1.431   1.158   7.712 -1.0441  1.8534 -1.4119
 4569SOL     OW25342   2.990   3.374   5.708  0.1847  0.8595 -0.0582
 4569SOL    HW125343   3.049   3.300   5.721  1.0346  1.5466 -0.0294
 4569SOL    HW225344   2.933   3.356   5.783 -2.2197  0.0322 -2.0586
 4570SOL     OW25345   1.448   4.419  12.826 -0.0596 -0.6321 -0.7531
 4570SOL    HW125346   1.395   4.397  12.902 -0.3660 -0.7024 -0.9867
 4570SOL    HW225347   1.529   4.373  12.849 -0.4811 -1.1245 -0.2673
 4571SOL     OW25348   1.902   1.544  16.684 -0.0501 -0.5472 -0.1775
 4571SOL    HW125349   1.950   1.482  16.739 -1.5186 -0.7397  0.8892
 4571SOL    HW225350   1.816   1.516  16.715 -1.2509  0.4817 -2.5715
 4572SOL     OW25351   1.193   1.895   4.132 -0.4175 -0.2404  0.2169
 4572SOL    HW125352   1.183   1.805   4.165  0.4445 -0.2634  0.4282
 4572SOL    HW225353   1.156   1.942   4.206 -0.4656  0.9689 -0.5737
 4573SOL     OW25354   1.741   1.221   7.657  0.1502 -0.3007  0.0837
 4573SOL    HW125355   1.766   1.227   7.565  1.1303 -0.6964  0.3301
 4573SOL    HW225356   1.759   1.310   7.687 -2.4499  0.8773 -1.8912
 4574SOL     OW25357   0.547   2.376  12.274  0.1845 -0.7823 -0.4278
 4574SOL    HW125358   0.571   2.421  12.193  0.5375 -0.2115 -0.0099
 4574SOL    HW225359   0.617   2.387  12.339  0.0595 -2.1867 -0.0530
 4575SOL     OW25360   2.257   2.795   9.221  0.0719 -0.0462 -0.1647
 4575SOL    HW125361   2.296   2.767   9.304 -0.2291  0.5727  0.1851
 4575SOL    HW225362   2.304   2.875   9.199  2.5399 -0.6627  2.8425
 4576SOL     OW25363   2.074   4.326  14.009 -0.2754  0.2080  0.1912
 4576SOL    HW125364   2.149   4.356  13.958  0.7528 -0.3895  1.3546
 4576SOL    HW225365   2.000   4.343  13.951  0.3046  1.1676 -0.2721
 4577SOL     OW25366   0.342   4.328  17.727  0.5761 -0.1950 -0.1734
 4577SOL    HW125367   0.424   4.311  17.682 -0.3097 -2.7008 -0.8716
 4577SOL    HW225368   0.281   4.265  17.688  0.6702 -1.3339  1.5149
 4578SOL     OW25369   2.709   0.795   8.673 -0.2283 -0.1513 -0.0035
 4578SOL    HW125370   2.764   0.718   8.687 -0.8594 -0.5355  0.3808
 4578SOL    HW225371   2.691   0.826   8.762  0.9094 -0.2440  0.2596
 4579SOL     OW25372   4.036   2.471   8.532  0.3970 -0.3158 -0.0808
 4579SOL    HW125373   4.090   2.443   8.606 -0.0917 -1.8791 -0.3213
 4579SOL    HW225374   4.038   2.394   8.477 -0.1810  1.0792 -2.0478
 4580SOL     OW25375   0.998   0.660   3.626  0.2350 -0.5981  0.0137
 4580SOL    HW125376   1.031   0.570   3.633 -1.1100 -0.8789  2.7252
 4580SOL    HW225377   1.021   0.690   3.714  0.7990  0.4762 -0.4961
 4581SOL     OW25378   1.486   2.363   2.981 -0.6126  0.0995 -0.1046
 4581SOL    HW125379   1.396   2.371   2.947 -0.6195 -2.5296 -0.7183
 4581SOL    HW225380   1.503   2.270   2.964  2.1469  0.7371 -0.7768
 4582SOL     OW25381   0.090   1.039  17.537  0.0610  0.1450  0.1615
 4582SOL    HW125382   0.140   0.957  17.540 -1.3355 -0.6970  0.4822
 4582SOL    HW225383   0.144   1.083  17.603  0.5047  0.8349 -0.6612
 4583SOL     OW25384   0.320   0.034   8.171  0.8670 -0.9718 -0.3510
 4583SOL    HW125385   0.282   0.122   8.173  1.7207 -0.6204  0.5778
 4583SOL    HW225386   0.390   0.039   8.237  1.0939  0.8515 -0.7254
 4584SOL     OW25387   4.626   0.950   2.328  0.5984 -0.0269  0.0209
 4584SOL    HW125388   4.607   0.886   2.396  0.8678 -0.6595 -0.4947
 4584SOL    HW225389   4.676   1.014   2.378  0.3319  0.7253 -0.6852
 4585SOL     OW25390   3.135   4.344   6.490 -0.3018 -0.2998 -0.2444
 4585SOL    HW125391   3.069   4.387   6.544  1.1409  0.0310  1.2705
 4585SOL    HW225392   3.095   4.300   6.415 -0.1039 -0.5576 -0.2002
 4586SOL     OW25393   1.940   0.419  13.229  0.0257 -0.3904  0.0207
 4586SOL    HW125394   1.939   0.430  13.133  1.1013  1.0026  0.1552
 4586SOL    HW225395   2.003   0.483  13.261  0.6587 -0.4030 -1.1866
 4587SOL     OW25396   0.586   4.122   7.164  0.4175  0.1003  0.1113
 4587SOL    HW125397   0.556   4.206   7.130 -0.7870 -0.9152 -1.3134
 4587SOL    HW225398   0.580   4.161   7.251  1.8269 -0.9755  0.6857
 4588SOL     OW25399   2.347   4.556   7.625 -0.3692 -0.6190  0.4386
 4588SOL    HW125400   2.410   4.607   7.676  1.2857 -1.2962 -0.9082
 4588SOL    HW225401   2.310   4.635   7.586 -2.2344 -1.1773  1.0828
 4589SOL     OW25402   3.253   2.237   7.035 -0.3775  0.3132  0.1758
 4589SOL    HW125403   3.192   2.164   7.021 -0.5523  0.3274  0.8723
 4589SOL    HW225404   3.331   2.195   7.070 -1.2155  0.3323  2.0698
 4590SOL     OW25405   4.038   0.570   4.417  0.5855 -0.0141  0.1069
 4590SOL    HW125406   4.020   0.659   4.387 -1.1863 -0.8174 -1.1545
 4590SOL    HW225407   3.972   0.513   4.377 -0.7953  1.6174  0.0690
 4591SOL     OW25408   0.867   3.329   2.008 -0.0061  0.7589 -0.0576
 4591SOL    HW125409   0.961   3.347   2.014  1.1408 -4.0921 -3.6634
 4591SOL    HW225410   0.863   3.331   1.912  0.5777  2.5203 -0.0398
 4592SOL     OW25411   2.610   2.849   3.166  0.1349 -0.3694 -0.6757
 4592SOL    HW125412   2.696   2.819   3.194 -1.6652 -2.7897  2.1776
 4592SOL    HW225413   2.644   2.923   3.115  1.4607  0.3516  1.2427
 4593SOL     OW25414   4.135   3.979   1.880  0.2364  0.3308 -0.0984
 4593SOL    HW125415   4.054   3.959   1.927 -1.2720  0.9317 -2.4552
 4593SOL    HW225416   4.136   4.074   1.890 -1.6234  0.3529 -0.0418
 4594SOL     OW25417   3.438   3.128  11.885 -0.0333  0.2472 -0.0539
 4594SOL    HW125418   3.431   3.049  11.833 -1.8056 -1.0252  2.1228
 4594SOL    HW225419   3.518   3.107  11.932 -0.3346 -2.2406 -0.6479
 4595SOL     OW25420   2.237   0.755  17.124 -0.1796  0.8301 -0.1477
 4595SOL    HW125421   2.319   0.711  17.102  1.2800  2.6907  1.5654
 4595SOL    HW225422   2.263   0.847  17.126  1.5875  0.2736  2.2392
 4596SOL     OW25423   3.759   1.916   3.135  0.6038  0.3300  0.4866
 4596SOL    HW125424   3.707   1.838   3.115  1.4158  0.2978 -1.5233
 4596SOL    HW225425   3.728   1.926   3.225  2.5559 -0.3198  1.2188
 4597SOL     OW25426   4.069   1.086   3.858 -1.3515  0.2656  0.2168
 4597SOL    HW125427   4.153   1.128   3.840  0.3287 -2.2917  2.1835
 4597SOL    HW225428   4.085   0.993   3.846  0.2121  0.6169 -0.3422
 4598SOL     OW25429   2.336   2.161   6.054 -0.0142  0.6214  0.2062
 4598SOL    HW125430   2.329   2.098   5.981 -0.1530  0.2402  0.5478
 4598SOL    HW225431   2.243   2.180   6.066  0.1968  0.4581  2.1115
 4599SOL     OW25432   2.492   0.940  16.838  0.2592 -0.1437  0.2238
 4599SOL    HW125433   2.529   0.857  16.868 -4.0542 -2.2968 -0.4373
 4599SOL    HW225434   2.559   1.003  16.864  0.5607 -0.4659  0.2390
 4600SOL     OW25435   2.279   3.341  13.686 -0.3016 -0.3011 -0.0434
 4600SOL    HW125436   2.306   3.425  13.650  0.9363 -0.8392 -0.3905
 4600SOL    HW225437   2.220   3.305  13.620  0.9880 -0.7312 -0.9807
 4601SOL     OW25438   2.559   2.018   1.551  0.3271  0.1156 -0.2765
 4601SOL    HW125439   2.593   1.940   1.594 -0.1688 -1.0676 -2.0588
 4601SOL    HW225440   2.485   1.983   1.503 -0.3712  0.4109  0.5799
 4602SOL     OW25441   4.081   2.860   7.314  0.6475  0.3595  0.1960
 4602SOL    HW125442   4.154   2.857   7.252  0.8689  2.0106  0.3785
 4602SOL    HW225443   4.052   2.950   7.302 -2.3554 -0.1542  3.6540
 4603SOL     OW25444   4.352   0.350  15.534 -0.3733 -0.3584  0.2495
 4603SOL    HW125445   4.433   0.300  15.535 -0.2168 -0.1280 -1.2048
 4603SOL    HW225446   4.381   0.441  15.528 -0.7670 -0.2143  0.4967
 4604SOL     OW25447   3.099   2.492   3.779  0.2637  0.3273  0.1195
 4604SOL    HW125448   3.075   2.476   3.870  0.1384  0.3269  0.0864
 4604SOL    HW225449   3.192   2.468   3.779  0.4864  1.1021 -2.3494
 4605SOL     OW25450   3.149   2.959   2.630 -0.3534 -0.0193 -0.0564
 4605SOL    HW125451   3.213   2.891   2.608 -1.0351 -0.8429  0.5042
 4605SOL    HW225452   3.101   2.967   2.548  0.6618  0.0412 -0.6512
 4606SOL     OW25453   3.923   0.408   7.510  0.0863  0.0197 -0.1277
 4606SOL    HW125454   3.990   0.374   7.450  0.5910 -1.1333  1.0869
 4606SOL    HW225455   3.977   0.468   7.560  0.4155 -0.9594  0.6903
 4607SOL     OW25456   0.566   4.644  10.207  0.2846 -0.2051  0.6780
 4607SOL    HW125457   0.517   4.571  10.170  0.0357 -0.1170  0.8313
 4607SOL    HW225458   0.583   4.620  10.298  2.8811 -1.8641 -0.2358
 4608SOL     OW25459   0.388   3.164  15.113  0.8014 -0.8080  0.5696
 4608SOL    HW125460   0.468   3.131  15.073  1.5253  2.5478 -0.7690
 4608SOL    HW225461   0.362   3.228  15.047  0.3590 -2.4927 -0.8879
 4609SOL     OW25462   0.055   4.137   3.104 -0.6183 -0.3907 -0.2279
 4609SOL    HW125463   0.041   4.167   3.014  1.3245 -0.3390 -0.5184
 4609SOL    HW225464   0.036   4.043   3.105 -2.7775  0.0484  0.4874
 4610SOL     OW25465   0.446   1.059   6.523 -1.0569  0.4251  0.0931
 4610SOL    HW125466   0.370   1.004   6.507  1.0753 -2.3040 -0.6746
 4610SOL    HW225467   0.518   0.997   6.536 -1.4502 -0.1560 -0.5270
 4611SOL     OW25468   2.434   3.033   4.419  0.2708 -0.1195 -0.6198
 4611SOL    HW125469   2.519   3.068   4.390  0.1893 -0.8254 -1.6965
 4611SOL    HW225470   2.400   3.100   4.478  1.8964  1.1239 -1.0840
 4612SOL     OW25471   3.834   0.615  10.631  0.3484 -0.3438  0.0610
 4612SOL    HW125472   3.753   0.617  10.681 -0.5679  1.0340 -1.4770
 4612SOL    HW225473   3.871   0.541  10.680 -0.4596  0.7744  2.3617
 4613SOL     OW25474   4.601   1.762  10.200  0.3192  0.4652  0.5438
 4613SOL    HW125475   4.519   1.752  10.151  1.1301  0.2863 -0.7711
 4613SOL    HW225476   4.571   1.759  10.290 -0.3279 -1.8531  0.2433
 4614SOL     OW25477   1.579   0.542   6.724  0.1366 -0.6422  0.3005
 4614SOL    HW125478   1.541   0.531   6.636 -0.8634 -0.5677  0.7257
 4614SOL    HW225479   1.665   0.499   6.720  0.9284  0.7799  2.0969
 4615SOL     OW25480   2.477   2.447   2.098  0.1332  0.8842  0.0479
 4615SOL    HW125481   2.502   2.432   2.007  2.6232 -0.5046  0.9528
 4615SOL    HW225482   2.550   2.502   2.126 -0.1812  1.3782 -0.1240
 4616SOL     OW25483   0.655   3.327  11.562  0.2064  0.2329 -0.2493
 4616SOL    HW125484   0.740   3.296  11.532  0.5243  1.5135 -0.6787
 4616SOL    HW225485   0.655   3.313  11.656 -0.2075 -0.0090 -0.2863
 4617SOL     OW25486   3.047   0.475   3.892 -1.0267 -0.6237 -0.2524
 4617SOL    HW125487   3.069   0.491   3.800  3.3731  1.7514  1.2436
 4617SOL    HW225488   3.029   0.567   3.915  0.9656 -0.6314  1.2761
 4618SOL     OW25489   4.627   3.746   8.058 -0.6877  0.0997  0.4526
 4618SOL    HW125490   4.540   3.752   8.097 -0.3758 -1.7760  1.4186
 4618SOL    HW225491   4.678   3.686   8.112  0.5355  1.9333  1.3621
 4619SOL     OW25492   2.179   4.614   6.335 -0.4280 -0.8927 -0.1164
 4619SOL    HW125493   2.246   4.660   6.285  0.0391 -2.2098 -0.6976
 4619SOL    HW225494   2.200   4.520   6.330 -1.4842 -1.1917  1.1476
 4620SOL     OW25495   3.852   2.706   9.096  0.0235  0.5313  0.1428
 4620SOL    HW125496   3.890   2.787   9.130 -0.4865  0.2878  1.2752
 4620SOL    HW225497   3.901   2.700   9.013 -0.2697  1.3094 -0.0896
 4621SOL     OW25498   4.150   3.150   3.896  0.4908  0.0332  0.2650
 4621SOL    HW125499   4.116   3.133   3.808 -2.0024 -0.3806  1.2855
 4621SOL    HW225500   4.075   3.200   3.929 -0.2826  0.2047 -1.7061
 4622SOL     OW25501   2.724   4.359   9.207  0.0695  0.2617 -0.4732
 4622SOL    HW125502   2.727   4.358   9.111 -2.6089  0.2958 -0.5528
 4622SOL    HW225503   2.706   4.452   9.218 -1.8955 -0.1876  0.0660
 4623SOL     OW25504   3.805   2.537   0.093 -0.6448 -0.2302 -0.5138
 4623SOL    HW125505   3.744   2.592   0.143  0.4885  0.1783  0.4096
 4623SOL    HW225506   3.801   2.459   0.148 -0.9605  1.6559  2.1212
 4624SOL     OW25507   1.690   4.630  11.177 -0.3380  0.6207  0.3228
 4624SOL    HW125508   1.725   4.572  11.110 -1.1973 -0.1628  0.5455
 4624SOL    HW225509   1.695   4.573  11.254  0.2257 -1.5616 -1.3170
 4625SOL     OW25510   3.931   0.320   2.008 -0.2609 -0.5267 -0.3119
 4625SOL    HW125511   3.987   0.320   2.086  0.1054  1.1447 -0.5699
 4625SOL    HW225512   3.977   0.363   1.935  0.9935 -1.4220 -0.0587
 4626SOL     OW25513   1.529   3.872  13.008 -0.1147  1.0135 -0.4678
 4626SOL    HW125514   1.500   3.849  13.097  0.7709  0.2324 -0.3952
 4626SOL    HW225515   1.476   3.952  13.002 -0.5926  0.6231 -1.3156
 4627SOL     OW25516   4.350   1.191   8.738  0.0189  0.3092  0.6892
 4627SOL    HW125517   4.377   1.250   8.808  2.3550  2.0811 -1.7421
 4627SOL    HW225518   4.255   1.185   8.753 -0.0819  0.5242  0.1381
 4628SOL     OW25519   4.552   1.551   8.527 -0.1721 -0.1327 -0.6965
 4628SOL    HW125520   4.595   1.535   8.611  0.5853  0.5400 -0.9569
 4628SOL    HW225521   4.562   1.463   8.491  0.1487 -0.9065  1.3048
 4629SOL     OW25522   2.909   3.040   5.583  0.1337 -0.4990 -0.0684
 4629SOL    HW125523   2.848   3.049   5.656 -0.7291  0.1417 -0.8651
 4629SOL    HW225524   2.855   3.090   5.522  0.6052 -0.9595 -0.8759
 4630SOL     OW25525   2.727   2.220   1.632  0.0695  0.2297  0.3551
 4630SOL    HW125526   2.658   2.164   1.596 -0.9962  2.8458 -1.6128
 4630SOL    HW225527   2.772   2.244   1.551 -1.7847  0.4369 -0.5944
 4631SOL     OW25528   3.256   3.906   7.445 -0.3209  0.4365  0.1878
 4631SOL    HW125529   3.177   3.956   7.426 -1.6397 -0.0904  4.3915
 4631SOL    HW225530   3.307   3.966   7.500  2.0342 -1.7411  0.4113
 4632SOL     OW25531   3.052   3.456  14.319 -0.3798 -0.3227  1.1263
 4632SOL    HW125532   3.130   3.504  14.292  1.3820 -3.7764  0.1083
 4632SOL    HW225533   3.023   3.410  14.241 -0.8429  0.2000  0.9906
 4633SOL     OW25534   3.656   2.881   8.544  0.6578 -0.0320 -0.1778
 4633SOL    HW125535   3.671   2.793   8.581 -0.7404 -0.3592 -0.3680
 4633SOL    HW225536   3.747   2.908   8.539 -0.1948  2.6143 -1.4195
 4634SOL     OW25537   0.965   3.329   9.708 -0.2929 -0.6158 -0.2241
 4634SOL    HW125538   0.968   3.424   9.702 -2.0994 -0.6478 -1.5406
 4634SOL    HW225539   1.052   3.310   9.673 -0.0438 -0.6974  0.4534
 4635SOL     OW25540   1.934   0.578  15.456  0.4786 -0.5500  0.0224
 4635SOL    HW125541   1.880   0.501  15.476 -0.4997  0.1178 -0.0529
 4635SOL    HW225542   2.014   0.549  15.498  0.4817 -2.7674 -1.4995
 4636SOL     OW25543   4.138   1.353   6.448 -0.2623 -0.0302  0.2354
 4636SOL    HW125544   4.180   1.437   6.431  1.4154 -0.4950  2.1120
 4636SOL    HW225545   4.159   1.343   6.541  0.9069  0.9053  0.0695
 4637SOL     OW25546   1.212   2.598   7.214 -0.9565  0.1293 -0.2148
 4637SOL    HW125547   1.150   2.652   7.263 -2.4498  0.1504 -2.1697
 4637SOL    HW225548   1.206   2.639   7.128 -2.6148  0.7738  0.1975
 4638SOL     OW25549   4.571   1.533   7.521 -0.7286  0.4725 -0.1598
 4638SOL    HW125550   4.537   1.506   7.606  0.9722 -0.5331  0.2131
 4638SOL    HW225551   4.567   1.629   7.528 -0.1686  0.3233  2.0274
 4639SOL     OW25552   4.583   2.071   6.404 -0.3295  0.3032  0.3930
 4639SOL    HW125553   4.614   2.026   6.326 -2.7162 -1.1576  0.2747
 4639SOL    HW225554   4.519   2.011   6.443 -0.3451 -0.0910 -0.2546
 4640SOL     OW25555   1.168   4.259  17.611 -0.0067  0.5489 -0.1061
 4640SOL    HW125556   1.087   4.220  17.644  0.6207 -0.0204  0.7666
 4640SOL    HW225557   1.135   4.326  17.552  1.1659 -1.0980 -2.6565
 4641SOL     OW25558   3.106   3.157   9.432 -0.2943 -0.4667 -0.0976
 4641SOL    HW125559   3.087   3.064   9.425 -2.6775  0.1062 -1.2522
 4641SOL    HW225560   3.179   3.165   9.370 -0.3639 -0.6081 -0.1955
 4642SOL     OW25561   1.740   3.461   6.792 -0.4617 -0.0336 -0.4789
 4642SOL    HW125562   1.753   3.527   6.725 -0.9812 -1.0522 -1.5908
 4642SOL    HW225563   1.650   3.479   6.818  0.8082  1.9114  2.5793
 4643SOL     OW25564   2.570   2.717   2.307  0.3577  0.6113  0.1373
 4643SOL    HW125565   2.553   2.793   2.363  1.2643 -0.0191  1.2522
 4643SOL    HW225566   2.639   2.756   2.254 -0.2848  0.3328 -0.9283
 4644SOL     OW25567   0.524   4.551   8.469 -0.1236  0.5149  0.2505
 4644SOL    HW125568   0.584   4.519   8.536 -2.9881 -0.4402  2.3672
 4644SOL    HW225569   0.487   4.476   8.422  1.3590 -1.1872  1.8187
 4645SOL     OW25570   2.988   0.617  10.135 -0.2323 -0.5077 -0.5669
 4645SOL    HW125571   2.923   0.656  10.076 -1.2632 -0.0422  0.8905
 4645SOL    HW225572   2.978   0.666  10.216  1.4978 -1.9887  0.5283
 4646SOL     OW25573   0.538   1.068   3.929  0.2403  0.4436  0.3712
 4646SOL    HW125574   0.531   1.080   4.024  1.4240 -2.5294  0.8380
 4646SOL    HW225575   0.448   1.091   3.907  0.8121  0.3722 -2.0323
 4647SOL     OW25576   4.539   2.914   4.858 -0.1852 -0.0628 -0.5867
 4647SOL    HW125577   4.496   2.852   4.799 -0.6996  0.3948 -0.7037
 4647SOL    HW225578   4.541   2.994   4.805 -1.0545 -0.2754 -0.9465
 4648SOL     OW25579   1.942   1.820   5.938 -0.1334 -0.4515  0.1611
 4648SOL    HW125580   1.847   1.830   5.934 -0.1471 -0.0603  1.4075
 4648SOL    HW225581   1.948   1.754   6.006  1.6376  1.4396  1.8278
 4649SOL     OW25582   4.353   4.551  12.953 -0.1743  0.0852 -0.1005
 4649SOL    HW125583   4.397   4.468  12.969 -2.1465 -1.2938 -1.7945
 4649SOL    HW225584   4.415   4.621  12.974 -0.4331 -0.2395  1.7006
 4650SOL     OW25585   3.427   2.753   7.700 -0.1111  0.2074  0.0022
 4650SOL    HW125586   3.356   2.689   7.696  1.0086 -1.0802  0.6722
 4650SOL    HW225587   3.465   2.737   7.787 -1.0500  0.2381  0.4128
 4651SOL     OW25588   1.422   4.090  10.382  0.0226 -0.4151 -0.5162
 4651SOL    HW125589   1.513   4.069  10.361  0.8336  2.3874  0.1285
 4651SOL    HW225590   1.396   4.149  10.312  1.6400 -0.9607 -1.5634
 4652SOL     OW25591   1.555   1.815   8.504 -0.1827  0.0371 -0.0863
 4652SOL    HW125592   1.537   1.909   8.513 -0.5451 -0.3248  3.0810
 4652SOL    HW225593   1.467   1.784   8.524  0.0558  0.6268  1.8629
 4653SOL     OW25594   0.029   2.932  11.834  0.2437  0.7196 -0.2503
 4653SOL    HW125595   0.016   3.024  11.811  3.3298  1.1596 -0.2795
 4653SOL    HW225596   4.682   2.909  11.869 -0.1396 -1.1801 -2.4787
 4654SOL     OW25597   4.711   2.350   9.122 -0.0650  0.2684  0.2083
 4654SOL    HW125598   4.687   2.422   9.062  3.7974  1.3916  0.0089
 4654SOL    HW225599   4.726   2.405   9.199 -3.5933  0.7452  0.5772
 4655SOL     OW25600   3.528   1.972   2.088 -0.5717  0.1202 -0.4407
 4655SOL    HW125601   3.579   1.963   2.168  0.6789  0.5625 -1.1834
 4655SOL    HW225602   3.583   1.950   2.013  2.9793 -0.2042  2.2532
 4656SOL     OW25603   4.317   3.646   8.484  0.5669  0.3237  0.3103
 4656SOL    HW125604   4.375   3.582   8.524 -0.5580  0.3191  1.9110
 4656SOL    HW225605   4.344   3.729   8.524 -1.5652  1.1890 -0.0350
 4657SOL     OW25606   0.030   3.709   7.394  0.7833  0.3161  0.3218
 4657SOL    HW125607   0.086   3.635   7.369 -1.1180 -1.1873  0.5032
 4657SOL    HW225608   4.709   3.663   7.452 -0.9085 -0.2398 -1.8631
 4658SOL     OW25609   1.639   3.867   3.050  0.1216 -0.5076 -0.6881
 4658SOL    HW125610   1.596   3.922   3.115  0.9085 -0.3332 -0.3274
 4658SOL    HW225611   1.637   3.909   2.964 -2.1808 -1.8115 -1.2868
 4659SOL     OW25612   2.688   1.935   7.075  0.1223 -0.2527 -0.0324
 4659SOL    HW125613   2.597   1.953   7.100  0.5684  0.6252  0.9801
 4659SOL    HW225614   2.711   2.025   7.050  0.0223  0.4163  2.2407
 4660SOL     OW25615   2.702   2.691   3.587 -0.5588 -0.6400 -0.0839
 4660SOL    HW125616   2.693   2.636   3.664  2.1181  1.7640  1.9463
 4660SOL    HW225617   2.795   2.681   3.564 -0.8445 -1.7864 -0.7664
 4661SOL     OW25618   1.238   2.412  10.352 -0.3266  0.6944  0.3989
 4661SOL    HW125619   1.299   2.471  10.307 -0.5136 -0.1282 -0.9152
 4661SOL    HW225620   1.278   2.329  10.325 -1.1134  0.5646 -0.3425
 4662SOL     OW25621   2.058   0.773   7.389 -0.0032 -0.3810 -0.2662
 4662SOL    HW125622   1.970   0.763   7.425 -0.0467  0.6921 -0.0597
 4662SOL    HW225623   2.065   0.867   7.407  1.6484 -0.2130 -1.7850
 4663SOL     OW25624   2.614   3.618  10.840 -0.9493 -0.3305  0.1342
 4663SOL    HW125625   2.709   3.609  10.826 -0.7512 -0.8861  1.8305
 4663SOL    HW225626   2.600   3.534  10.884  0.8573 -0.1241  1.0923
 4664SOL     OW25627   4.561   1.951  10.910 -0.1254  0.0142 -0.1397
 4664SOL    HW125628   4.504   2.019  10.947 -2.1132 -0.4273 -2.3926
 4664SOL    HW225629   4.576   1.885  10.978 -0.7478  1.0384  0.9733
 4665SOL     OW25630   4.210   4.702   8.855 -0.2446 -0.2441  0.0327
 4665SOL    HW125631   4.234   4.625   8.805  0.2295 -0.1047  0.0468
 4665SOL    HW225632   4.267   0.037   8.832 -2.1249  1.1807 -0.1237
 4666SOL     OW25633   1.514   1.465   3.078 -0.0746  0.7436  0.4994
 4666SOL    HW125634   1.494   1.496   3.166 -0.2739  0.3822  0.5814
 4666SOL    HW225635   1.521   1.370   3.089  1.2170  0.7950  0.0756
 4667SOL     OW25636   1.190   3.222   9.396  0.3721 -0.5261 -0.3928
 4667SOL    HW125637   1.105   3.198   9.434 -0.3507  0.4001 -1.4191
 4667SOL    HW225638   1.160   3.198   9.309  1.3931 -0.6068 -0.7236
 4668SOL     OW25639   0.885   1.599   6.363 -0.3766  0.6752 -0.4031
 4668SOL    HW125640   0.815   1.582   6.299 -0.7813  0.1692  0.1669
 4668SOL    HW225641   0.831   1.594   6.442 -0.7422  2.2028 -0.5570
 4669SOL     OW25642   1.127   3.746   2.655  0.2390  0.2850  0.3185
 4669SOL    HW125643   1.032   3.745   2.660  0.1589 -4.7760 -1.9827
 4669SOL    HW225644   1.144   3.666   2.604  0.3958  1.9036 -2.1440
 4670SOL     OW25645   1.861   3.403   9.478  0.5089 -0.0092 -0.1916
 4670SOL    HW125646   1.910   3.409   9.396  1.4960 -1.3379  0.2928
 4670SOL    HW225647   1.862   3.494   9.508 -1.4403  0.0893 -0.4070
 4671SOL     OW25648   0.793   4.342  14.743 -0.0623  0.1591 -0.0454
 4671SOL    HW125649   0.732   4.381  14.680 -0.8333 -0.0823  0.5497
 4671SOL    HW225650   0.872   4.354  14.691 -1.4649  0.0163 -2.2147
 4672SOL     OW25651   3.018   0.705   4.604  0.3539  0.1559 -0.2176
 4672SOL    HW125652   2.953   0.639   4.631 -1.2056  2.4368  1.5458
 4672SOL    HW225653   3.011   0.769   4.674 -1.0770 -0.1991 -0.0303
 4673SOL     OW25654   1.572   1.071   9.591  0.5053  0.2952  0.9374
 4673SOL    HW125655   1.529   1.005   9.645 -0.0802 -0.8301 -0.9024
 4673SOL    HW225656   1.664   1.044   9.596  0.3963 -0.4346 -0.8897
 4674SOL     OW25657   1.162   3.585   7.243  0.5354  0.1363 -0.4453
 4674SOL    HW125658   1.247   3.577   7.286 -1.1678 -2.5390  2.4301
 4674SOL    HW225659   1.170   3.532   7.165  0.2535 -0.4170 -0.0976
 4675SOL     OW25660   2.238   0.361   6.919  0.5364  0.3764 -0.3358
 4675SOL    HW125661   2.186   0.325   6.847 -1.2519  4.2632 -0.9919
 4675SOL    HW225662   2.321   0.316   6.903  0.7250  0.6486 -0.1142
 4676SOL     OW25663   3.026   4.353   7.180  0.0903  0.2790  0.0936
 4676SOL    HW125664   3.059   4.351   7.091  0.4262  1.4491  0.1921
 4676SOL    HW225665   2.975   4.273   7.166 -0.3534  0.6187 -0.2112
 4677SOL     OW25666   1.599   4.307   9.594  0.1897 -0.6831 -0.0799
 4677SOL    HW125667   1.684   4.333   9.629  0.7438 -0.8736 -1.2946
 4677SOL    HW225668   1.628   4.284   9.506 -1.0219 -2.9321  0.1090
 4678SOL     OW25669   0.102   2.443  14.577  0.2172 -0.6240  0.2497
 4678SOL    HW125670   0.060   2.505  14.518 -0.5949 -1.9430 -0.5419
 4678SOL    HW225671   0.152   2.501  14.635  0.4135 -0.1667 -0.3814
 4679SOL     OW25672   1.709   4.635   3.173  0.0850  0.3020  0.1121
 4679SOL    HW125673   1.799   4.620   3.202  0.7031  0.7034 -1.5994
 4679SOL    HW225674   1.675   4.689   3.245  0.5040  1.2341 -0.3851
 4680SOL     OW25675   2.816   1.777   9.244 -0.5895  0.5097  0.4910
 4680SOL    HW125676   2.760   1.850   9.215  0.3544  0.0602 -2.4943
 4680SOL    HW225677   2.885   1.824   9.290 -0.9623  0.2742  1.2840
 4681SOL     OW25678   0.129   4.451   4.958 -0.2832  0.0201  0.2458
 4681SOL    HW125679   0.106   4.377   5.013  0.4721 -1.0622 -0.9025
 4681SOL    HW225680   0.207   4.485   5.001 -0.7066  0.2393  0.8369
 4682SOL     OW25681   1.989   3.865   5.291 -0.3790  0.2406  0.4945
 4682SOL    HW125682   2.055   3.837   5.354  1.8771  2.1104 -1.0446
 4682SOL    HW225683   1.967   3.783   5.247  0.3082  0.1821  0.2577
 4683SOL     OW25684   2.409   2.033   8.408 -0.2401 -0.0424 -0.0311
 4683SOL    HW125685   2.470   2.073   8.346 -1.8445 -0.6524 -2.0301
 4683SOL    HW225686   2.330   2.073   8.372  0.2660  0.2075 -0.8642
 4684SOL     OW25687   1.869   1.237  16.168  0.3230  0.0787  0.1435
 4684SOL    HW125688   1.781   1.203  16.183  1.4473 -1.4740  3.2498
 4684SOL    HW225689   1.853   1.291  16.091 -0.1306 -0.8489 -0.4155
 4685SOL     OW25690   3.397   0.682   2.883  0.5522 -0.1404  0.2039
 4685SOL    HW125691   3.436   0.595   2.877 -0.4753 -0.5716 -0.3989
 4685SOL    HW225692   3.318   0.661   2.934  1.5770 -1.3353  1.2950
 4686SOL     OW25693   1.064   0.106   4.112 -0.0508 -0.3060 -0.7280
 4686SOL    HW125694   1.015   0.092   4.193 -2.4124 -1.2916 -2.3069
 4686SOL    HW225695   1.136   0.165   4.136 -0.9942  1.2386 -1.6983
 4687SOL     OW25696   3.503   0.323   0.779 -1.0761 -0.0418  0.2767
 4687SOL    HW125697   3.423   0.280   0.809 -1.8267 -0.3486 -2.2156
 4687SOL    HW225698   3.469   0.409   0.757  3.0061  1.3287 -0.7484
 4688SOL     OW25699   4.672   1.781   5.565  0.0830 -0.0772 -0.8058
 4688SOL    HW125700   4.727   1.859   5.570 -2.1530  1.5445 -1.3959
 4688SOL    HW225701   4.664   1.756   5.658  0.5447 -0.6799 -0.9250
 4689SOL     OW25702   3.998   1.432   3.579  0.2603  0.2823 -0.0249
 4689SOL    HW125703   3.966   1.404   3.493 -1.1976 -2.3902  1.4358
 4689SOL    HW225704   4.089   1.402   3.574  0.0767 -0.2100 -0.4426
 4690SOL     OW25705   2.284   1.308   2.614  0.2009 -0.1394 -0.2564
 4690SOL    HW125706   2.191   1.317   2.634  0.3056  3.3909 -1.1962
 4690SOL    HW225707   2.285   1.340   2.523  2.8763 -0.1516 -0.2224
 4691SOL     OW25708   3.460   3.276  16.247  0.5721 -0.5015  0.1394
 4691SOL    HW125709   3.551   3.305  16.237  0.2262  0.2541 -0.7522
 4691SOL    HW225710   3.470   3.181  16.240 -0.9059 -0.5296 -1.4405
 4692SOL     OW25711   4.607   2.307   2.153 -0.3481 -0.1940 -0.0216
 4692SOL    HW125712   4.567   2.257   2.082 -0.8779 -0.5561  0.5300
 4692SOL    HW225713   4.650   2.235   2.199  1.2132  1.9067  1.7667
 4693SOL     OW25714   1.983   2.426   6.868 -0.4355 -0.3140  0.3715
 4693SOL    HW125715   1.891   2.428   6.842 -0.6696 -0.0215  1.2111
 4693SOL    HW225716   2.015   2.359   6.809  0.0678  2.0340 -2.0478
 4694SOL     OW25717   0.606   4.076   2.823 -0.5451 -0.3422 -0.0873
 4694SOL    HW125718   0.587   4.044   2.911  2.1315 -0.4212  0.4699
 4694SOL    HW225719   0.520   4.093   2.787 -0.8461  1.5003  1.5331
 4695SOL     OW25720   3.015   4.068   4.043  0.4567  0.7206  0.2214
 4695SOL    HW125721   3.035   4.158   4.070 -0.2792  0.4862  1.5799
 4695SOL    HW225722   3.047   4.084   3.954  0.7669 -1.6045 -0.0786
 4696SOL     OW25723   1.739   4.598   6.032 -0.3199  0.2765 -0.3367
 4696SOL    HW125724   1.776   4.642   6.109  2.2619 -1.8736 -0.3324
 4696SOL    HW225725   1.813   4.610   5.972  0.9301 -0.0500  1.1054
 4697SOL     OW25726   1.852   4.096   8.332  0.4497  0.5262 -0.3993
 4697SOL    HW125727   1.838   4.099   8.238  1.2439  0.5862 -0.5191
 4697SOL    HW225728   1.762   4.082   8.360  1.3391  0.4859  2.4968
 4698SOL     OW25729   0.963   4.405   4.223  0.4549  0.1035  0.0213
 4698SOL    HW125730   0.916   4.428   4.303 -0.2100  0.4944 -0.4851
 4698SOL    HW225731   1.049   4.409   4.265  1.3300 -1.2229 -1.6497
 4699SOL     OW25732   0.539   0.707   8.349  0.0703 -0.4252  0.0547
 4699SOL    HW125733   0.540   0.636   8.284  1.6341 -1.2303  0.9634
 4699SOL    HW225734   0.613   0.761   8.322  0.4575 -1.0909 -0.2271
 4700SOL     OW25735   0.122   3.347   4.533  0.0296 -0.0074  0.2564
 4700SOL    HW125736   0.069   3.425   4.551  1.5596  1.3445 -1.0483
 4700SOL    HW225737   0.212   3.379   4.530 -0.6732  2.0459  0.9746
 4701SOL     OW25738   1.430   4.115  12.750  0.7446 -0.3207  0.1852
 4701SOL    HW125739   1.384   4.107  12.833 -0.6390 -0.6743 -0.6098
 4701SOL    HW225740   1.501   4.171  12.782  0.1531  1.3841 -1.4211
 4702SOL     OW25741   1.277   2.645  13.051 -0.2562 -0.0164  0.6669
 4702SOL    HW125742   1.261   2.551  13.052 -0.1751 -0.0222  1.3039
 4702SOL    HW225743   1.369   2.651  13.076 -0.0823 -1.1716  0.2863
 4703SOL     OW25744   1.182   3.538   6.118 -0.7945 -0.1604 -0.1692
 4703SOL    HW125745   1.120   3.522   6.048 -1.9563  0.4564  0.7180
 4703SOL    HW225746   1.244   3.467   6.101 -0.3912 -0.0708  0.9337
 4704SOL     OW25747   1.139   0.628   7.549 -0.3477 -0.5824 -0.3448
 4704SOL    HW125748   1.213   0.610   7.608 -1.4906  0.6309  1.4893
 4704SOL    HW225749   1.186   0.659   7.472 -2.4940 -1.5028 -2.0082
 4705SOL     OW25750   4.065   4.261   8.738  0.1464 -0.0388  0.2616
 4705SOL    HW125751   4.037   4.175   8.707  1.1937 -0.6986  1.1311
 4705SOL    HW225752   4.144   4.261   8.684  0.0298  1.8201  0.1029
 4706SOL     OW25753   3.622   4.000   2.075 -0.6042 -0.2674 -0.2237
 4706SOL    HW125754   3.530   4.021   2.057 -1.0720 -0.6427  1.7760
 4706SOL    HW225755   3.604   3.938   2.145  1.0484  1.0369  1.3474
 4707SOL     OW25756   4.400   4.316   8.333 -0.1521  0.2968  0.2606
 4707SOL    HW125757   4.350   4.293   8.256  0.6482 -0.1123 -0.1367
 4707SOL    HW225758   4.462   4.379   8.296 -0.2093  1.6450  2.4146
 4708SOL     OW25759   3.367   1.350   3.961  0.3079  0.2815 -0.4274
 4708SOL    HW125760   3.333   1.279   3.906  1.3803 -0.8833  0.3857
 4708SOL    HW225761   3.392   1.415   3.896 -0.3149  1.9811  1.0397
 4709SOL     OW25762   3.365   3.545   4.095  0.1440  0.6307 -0.0286
 4709SOL    HW125763   3.419   3.508   4.025  0.4460  0.8705  0.0755
 4709SOL    HW225764   3.306   3.608   4.053 -1.1161 -0.5562 -0.0627
 4710SOL     OW25765   3.746   2.479   4.585 -0.4538  0.1302  0.6584
 4710SOL    HW125766   3.757   2.408   4.523  1.7657  0.8347  0.2770
 4710SOL    HW225767   3.833   2.515   4.600  0.5791 -1.6831 -1.0652
 4711SOL     OW25768   2.341   2.939   4.763 -0.0727  0.1241  0.9071
 4711SOL    HW125769   2.404   3.007   4.740  0.7195 -1.4568 -1.5884
 4711SOL    HW225770   2.368   2.938   4.855 -1.5654 -0.5049  1.3436
 4712SOL     OW25771   3.374   3.555  14.589  0.2123  0.1087  0.0865
 4712SOL    HW125772   3.438   3.621  14.615 -2.1342  2.5081 -0.2612
 4712SOL    HW225773   3.425   3.493  14.537 -1.2267  0.6335 -1.9312
 4713SOL     OW25774   4.623   3.440   3.478 -0.3744 -0.0663 -0.2732
 4713SOL    HW125775   4.625   3.453   3.573  1.5981 -1.4690 -0.1444
 4713SOL    HW225776   4.564   3.365   3.470 -1.0024  0.3183  0.6998
 4714SOL     OW25777   2.020   2.954   5.119  0.2892 -0.3427 -0.5067
 4714SOL    HW125778   1.938   2.907   5.130 -0.0440  0.7542  1.7908
 4714SOL    HW225779   2.085   2.909   5.173  0.2908 -1.6260 -1.5809
 4715SOL     OW25780   3.543   3.338   3.503 -0.7091 -0.4390  0.1035
 4715SOL    HW125781   3.600   3.293   3.566  3.9551  2.3265 -2.1025
 4715SOL    HW225782   3.522   3.421   3.546  1.8896  0.6359 -0.7095
 4716SOL     OW25783   1.450   0.493  11.605  0.2170 -0.5107  0.9158
 4716SOL    HW125784   1.440   0.521  11.514 -2.6449 -0.9868  1.0793
 4716SOL    HW225785   1.490   0.573  11.638  0.0191  0.0804 -0.2709
 4717SOL     OW25786   1.322   4.338   6.593 -0.6585  0.0574 -0.7174
 4717SOL    HW125787   1.277   4.381   6.666  0.0083 -0.8327  0.2242
 4717SOL    HW225788   1.406   4.319   6.634 -0.0523  0.9977 -1.5483
 4718SOL     OW25789   3.016   2.419   9.813  0.2151 -0.3598  0.0774
 4718SOL    HW125790   2.949   2.413   9.745  1.3738  0.2947 -1.1253
 4718SOL    HW225791   3.034   2.333   9.850  2.6403 -0.0049 -0.2363
 4719SOL     OW25792   0.518   3.812   8.289 -0.7052 -0.0427 -0.1108
 4719SOL    HW125793   0.529   3.871   8.364 -1.6189 -0.6105  0.4797
 4719SOL    HW225794   0.560   3.857   8.216 -0.7509 -0.4076 -0.3593
 4720SOL     OW25795   4.595   3.427   0.027  0.1269 -0.0393 -0.0668
 4720SOL    HW125796   4.531   3.357   0.015  1.7433 -1.8449  1.6902
 4720SOL    HW225797   4.661   3.408  17.712 -0.8853 -0.1998 -1.0046
 4721SOL     OW25798   1.072   2.096   7.484  0.1488 -0.2758  1.0113
 4721SOL    HW125799   1.138   2.096   7.553  3.3813  0.3781 -2.0413
 4721SOL    HW225800   1.078   2.181   7.440 -0.1475 -0.6510  0.2400
 4722SOL     OW25801   2.369   0.790   7.791 -0.3410  0.4720  0.5227
 4722SOL    HW125802   2.347   0.869   7.840 -0.1876 -0.4684  2.1363
 4722SOL    HW225803   2.402   0.829   7.711 -0.5567 -1.3918 -0.4767
 4723SOL     OW25804   0.348   2.288  16.496  0.4740 -0.1406  0.0805
 4723SOL    HW125805   0.315   2.222  16.436 -0.0480  1.2046 -1.1210
 4723SOL    HW225806   0.442   2.274  16.497  0.8353  2.2519  1.1627
 4724SOL     OW25807   2.133   1.856   8.186 -0.4371 -0.1682  0.5100
 4724SOL    HW125808   2.039   1.840   8.189 -0.5703  0.0925 -2.1500
 4724SOL    HW225809   2.134   1.951   8.200 -0.1648 -0.3051  1.4258
 4725SOL     OW25810   2.067   3.177   5.747  0.2689  0.1349  0.4184
 4725SOL    HW125811   2.161   3.163   5.735  0.1391 -1.5151  1.3973
 4725SOL    HW225812   2.037   3.087   5.755  3.1200 -0.6233  2.8597
 4726SOL     OW25813   0.063   2.922   4.962 -0.5302 -0.0211  0.5789
 4726SOL    HW125814   4.730   2.877   4.916  0.7363 -2.7806  1.3490
 4726SOL    HW225815   0.106   2.968   4.890  0.5295  0.1500  1.3325
 4727SOL     OW25816   2.925   0.953   3.243  0.2315  0.3271  0.4920
 4727SOL    HW125817   2.881   0.886   3.191  0.8092 -0.6120  1.2235
 4727SOL    HW225818   3.017   0.955   3.218  0.5013  0.0260  1.4569
 4728SOL     OW25819   3.461   1.760  14.509  0.1025  0.0781  0.0855
 4728SOL    HW125820   3.473   1.673  14.547  1.5582 -0.0428 -0.6340
 4728SOL    HW225821   3.437   1.730  14.421 -4.4257 -0.7253  1.6073
 4729SOL     OW25822   3.155   0.380   6.114 -0.3018  0.2478 -0.4398
 4729SOL    HW125823   3.106   0.313   6.161 -0.5512 -0.5170 -1.7917
 4729SOL    HW225824   3.175   0.448   6.178 -0.4534 -1.9427  1.9426
 4730SOL     OW25825   2.891   3.654   7.238  0.1647  0.0663 -0.1007
 4730SOL    HW125826   2.881   3.623   7.148 -4.3047  3.5732 -0.8490
 4730SOL    HW225827   2.966   3.706   7.210  0.8576 -0.0691  1.5158
 4731SOL     OW25828   0.862   1.217   4.815 -0.0156  0.1917 -0.5205
 4731SOL    HW125829   0.910   1.246   4.893 -2.1198 -2.1910  1.6360
 4731SOL    HW225830   0.776   1.208   4.854 -0.6372  2.7974 -1.2908
 4732SOL     OW25831   3.914   1.085   6.414 -0.9590  0.0268 -0.3816
 4732SOL    HW125832   3.915   1.173   6.377 -0.0854  0.8028  1.4369
 4732SOL    HW225833   3.909   1.122   6.502  1.0641 -0.7497  0.0697
 4733SOL     OW25834   3.304   3.097   4.543 -0.0507  0.2341  1.3420
 4733SOL    HW125835   3.271   3.186   4.530  0.9966  0.5533  0.9051
 4733SOL    HW225836   3.372   3.082   4.478 -0.4905  2.5152  0.3610
 4734SOL     OW25837   3.949   0.201   8.275 -0.1209  0.3352 -0.6030
 4734SOL    HW125838   3.935   0.133   8.340 -0.6173  1.4558  0.4604
 4734SOL    HW225839   3.875   0.182   8.217 -0.0617  0.2769 -0.6601
 4735SOL     OW25840   0.359   2.048   8.476 -0.9818  0.0806  0.3103
 4735SOL    HW125841   0.438   2.053   8.424 -1.2564 -1.7459 -0.3004
 4735SOL    HW225842   0.331   1.958   8.461 -1.1700  0.0009  1.1065
 4736SOL     OW25843   0.673   2.047   8.520  0.0506 -0.6413 -0.0319
 4736SOL    HW125844   0.644   2.089   8.601 -0.3356 -1.4356  0.2417
 4736SOL    HW225845   0.644   1.957   8.538  1.4552 -1.0551  0.1597
 4737SOL     OW25846   4.104   0.481  14.842 -0.0027  1.1928  0.0509
 4737SOL    HW125847   4.018   0.513  14.816 -0.8547 -0.3570  1.0049
 4737SOL    HW225848   4.098   0.489  14.937  0.7659 -0.3782  0.2154
 4738SOL     OW25849   3.247   4.437  11.870 -0.3824  0.4566  0.7313
 4738SOL    HW125850   3.296   4.416  11.949  1.4053 -0.9416 -0.7253
 4738SOL    HW225851   3.196   4.510  11.903  0.1070 -0.0783  2.6523
 4739SOL     OW25852   0.450   3.343   6.087  0.1213  0.5953  1.2222
 4739SOL    HW125853   0.398   3.286   6.143  0.8421 -0.1537  1.1256
 4739SOL    HW225854   0.396   3.422   6.081 -0.3801  0.1508 -0.0183
 4740SOL     OW25855   1.637   0.466   3.557  0.1047  0.4606 -0.6622
 4740SOL    HW125856   1.685   0.460   3.474 -0.1525 -0.1946 -0.7682
 4740SOL    HW225857   1.689   0.396   3.596  1.3109  1.6010 -0.2170
 4741SOL     OW25858   0.647   0.536   0.476  0.4475 -0.3990  0.3365
 4741SOL    HW125859   0.579   0.469   0.460 -1.4216  1.4188  0.6997
 4741SOL    HW225860   0.671   0.531   0.568 -0.4760  1.7838  0.6912
 4742SOL     OW25861   0.801   3.743   5.869  0.1327 -0.0087  0.0660
 4742SOL    HW125862   0.850   3.772   5.946 -0.5097  1.1904  0.0096
 4742SOL    HW225863   0.719   3.772   5.908  0.8836  2.4873 -0.2528
 4743SOL     OW25864   4.557   2.495   8.124  0.2585 -0.3554  0.4489
 4743SOL    HW125865   4.479   2.475   8.175  0.4328 -0.7574  0.5599
 4743SOL    HW225866   4.559   2.588   8.145  1.2763 -0.6688  1.7727
 4744SOL     OW25867   1.274   3.404   7.564 -0.1448  0.3443  0.0510
 4744SOL    HW125868   1.339   3.366   7.504 -2.1678 -0.5732 -1.5740
 4744SOL    HW225869   1.192   3.364   7.533  1.4019  0.0195 -3.5929
 4745SOL     OW25870   3.324   3.430   9.341  0.2927 -0.0532 -0.5023
 4745SOL    HW125871   3.386   3.423   9.414 -0.3431  1.7026  0.2068
 4745SOL    HW225872   3.246   3.460   9.389  1.4060  1.5446  0.2998
 4746SOL     OW25873   2.663   4.145   2.197  0.0040 -0.0325 -0.2791
 4746SOL    HW125874   2.588   4.127   2.141 -0.0072 -1.2577  0.1285
 4746SOL    HW225875   2.667   4.065   2.249 -1.5219  0.7908  1.0953
 4747SOL     OW25876   3.675   0.717   8.755 -0.0359 -0.0921 -0.8643
 4747SOL    HW125877   3.692   0.628   8.722  2.4866  0.2085 -0.3966
 4747SOL    HW225878   3.581   0.717   8.740 -0.4894  2.2911  2.0893
 4748SOL     OW25879   0.719   4.082   4.270  0.1282  0.3594  0.0875
 4748SOL    HW125880   0.628   4.110   4.267  0.5606  1.7722 -0.1085
 4748SOL    HW225881   0.724   4.048   4.181  2.5659 -0.8674  0.6835
 4749SOL     OW25882   4.656   1.003   1.480  0.3255  0.4936  0.2983
 4749SOL    HW125883   4.653   0.917   1.522 -1.0696  0.4454  0.0835
 4749SOL    HW225884   4.587   1.051   1.525 -0.8800 -1.3595  0.4101
 4750SOL     OW25885   0.803   1.790  15.002 -0.1713 -0.2762  0.0920
 4750SOL    HW125886   0.872   1.753  15.056 -0.0371  1.0563  0.8488
 4750SOL    HW225887   0.722   1.770  15.049 -0.4711 -0.7069 -0.5957
 4751SOL     OW25888   0.088   2.848   5.990  0.3530 -0.1510 -0.1223
 4751SOL    HW125889   0.142   2.920   5.959 -2.0821  1.7079 -0.0946
 4751SOL    HW225890   0.127   2.779   5.937 -2.3202 -0.6054 -1.5083
 4752SOL     OW25891   2.792   1.484   8.010  0.1167  0.1475  0.4930
 4752SOL    HW125892   2.886   1.471   7.999  0.2053  1.0677  0.1394
 4752SOL    HW225893   2.776   1.441   8.094  1.1550  0.4727  0.8496
 4753SOL     OW25894   4.308   1.898   3.276  0.1697 -0.1964 -0.1444
 4753SOL    HW125895   4.300   1.827   3.212 -0.6528 -1.0319  0.8922
 4753SOL    HW225896   4.334   1.969   3.216  2.8074 -0.1516  1.0389
 4754SOL     OW25897   1.862   3.891  16.223 -0.1393 -0.2167 -0.1405
 4754SOL    HW125898   1.925   3.873  16.153 -0.9997 -1.3218 -0.6216
 4754SOL    HW225899   1.840   3.801  16.247  0.9077 -1.3807 -3.4386
 4755SOL     OW25900   3.197   4.563   7.556  0.8180 -0.4620  0.1799
 4755SOL    HW125901   3.125   4.514   7.515 -0.0286  2.5325 -1.8833
 4755SOL    HW225902   3.166   4.567   7.646  0.5003  0.2349  0.0382
 4756SOL     OW25903   3.917   1.479  11.979  0.5364  0.2591  0.4686
 4756SOL    HW125904   3.848   1.537  11.945  1.4631 -0.0218 -1.8849
 4756SOL    HW225905   3.861   1.434  12.043 -0.2594 -0.9086 -1.0253
 4757SOL     OW25906   4.574   4.058   6.915  0.0447 -0.1770  0.3117
 4757SOL    HW125907   4.652   4.104   6.945  0.9349 -0.8492 -0.9900
 4757SOL    HW225908   4.523   4.133   6.882 -2.9048 -2.1005  0.4840
 4758SOL     OW25909   2.141   4.221   1.682  0.0243 -0.0676 -0.0866
 4758SOL    HW125910   2.191   4.223   1.600  0.0989 -1.6518 -0.0674
 4758SOL    HW225911   2.196   4.266   1.747  0.3579  1.5790 -1.5008
 4759SOL     OW25912   2.347   4.696   7.344 -0.1342 -0.4971  0.3990
 4759SOL    HW125913   2.272   4.649   7.307  0.2438 -0.0959 -0.8576
 4759SOL    HW225914   2.328   0.049   7.325  0.3743 -0.0931  1.8584
 4760SOL     OW25915   1.861   0.771   9.424 -0.2593 -0.0537 -0.0743
 4760SOL    HW125916   1.812   0.691   9.445 -0.1029 -0.1863 -0.2131
 4760SOL    HW225917   1.893   0.753   9.335 -2.0228  2.2837 -1.1805
 4761SOL     OW25918   0.831   1.725   5.207 -0.4373 -0.6769 -0.4668
 4761SOL    HW125919   0.801   1.710   5.297  0.9378  0.9199  0.2385
 4761SOL    HW225920   0.856   1.817   5.214  2.0807 -1.4667  0.7712
 4762SOL     OW25921   1.927   2.070   9.927 -0.4236 -0.4743  0.4591
 4762SOL    HW125922   1.913   1.994   9.984 -1.9590 -0.3490  0.2525
 4762SOL    HW225923   1.978   2.029   9.857  0.0846 -1.8269  1.6144
 4763SOL     OW25924   0.013   4.147   3.872  0.2172 -0.0579  0.3152
 4763SOL    HW125925   4.658   4.166   3.866  0.4052 -0.1266 -2.9558
 4763SOL    HW225926   0.030   4.144   3.966  2.2818  0.0834 -0.0498
 4764SOL     OW25927   1.866   2.382   7.146 -1.1762 -0.2031 -0.7662
 4764SOL    HW125928   1.859   2.477   7.138  0.9556  0.2131  2.3401
 4764SOL    HW225929   1.935   2.374   7.080  0.0106 -3.3004  0.8316
 4765SOL     OW25930   1.760   4.418   8.640  0.5244 -0.2536 -0.3301
 4765SOL    HW125931   1.706   4.341   8.656  3.1415 -1.3765  3.0952
 4765SOL    HW225932   1.832   4.406   8.703  0.8797  2.4078 -0.2332
 4766SOL     OW25933   0.103   0.122   5.142 -0.2359 -0.1925 -0.3616
 4766SOL    HW125934   0.157   0.186   5.188  0.4795 -0.1260 -1.2782
 4766SOL    HW225935   0.137   0.135   5.053  0.3217 -0.7527 -0.2277
 4767SOL     OW25936   0.582   0.382  13.679  0.0853  0.0678 -0.4212
 4767SOL    HW125937   0.582   0.288  13.661  1.4811  0.0809 -0.5124
 4767SOL    HW225938   0.581   0.429  13.596  0.0922  3.0424  1.2892
 4768SOL     OW25939   3.862   3.386   3.503 -0.0446  0.2157 -0.4385
 4768SOL    HW125940   3.926   3.334   3.550  1.1918 -0.8745 -3.3010
 4768SOL    HW225941   3.816   3.429   3.575  1.9758  1.2040  0.2601
 4769SOL     OW25942   4.073   0.914  15.392  0.5445 -0.3627  0.4009
 4769SOL    HW125943   4.029   0.829  15.385 -0.9470  0.4860 -0.5075
 4769SOL    HW225944   4.149   0.892  15.446  0.1886 -2.5364  0.0548
 4770SOL     OW25945   3.656   1.518   3.892  0.8997 -0.5418  0.3378
 4770SOL    HW125946   3.665   1.473   3.976 -1.3799  0.2731  1.0231
 4770SOL    HW225947   3.715   1.467   3.837 -0.4715 -1.2436 -0.4871
 4771SOL     OW25948   2.424   0.783   3.183 -0.2610 -0.1215 -0.2618
 4771SOL    HW125949   2.396   0.851   3.122  0.2924 -0.1097 -0.5009
 4771SOL    HW225950   2.484   0.837   3.234 -0.8493 -0.8823  1.2555
 4772SOL     OW25951   2.422   1.935   4.372 -0.1840  0.6009 -0.1849
 4772SOL    HW125952   2.333   1.960   4.396 -0.4705  1.0813 -1.7577
 4772SOL    HW225953   2.420   1.844   4.345  0.7189  0.6048 -0.2551
 4773SOL     OW25954   0.910   3.235   5.236 -0.3347  0.2042  0.4382
 4773SOL    HW125955   0.866   3.200   5.313 -0.8687 -0.5063 -0.2004
 4773SOL    HW225956   0.886   3.328   5.232 -0.9487  0.1214  2.2906
 4774SOL     OW25957   1.653   4.396  14.073  0.4367 -0.0235  0.2466
 4774SOL    HW125958   1.583   4.422  14.014  1.1334 -0.8512 -0.9472
 4774SOL    HW225959   1.707   4.349  14.010  0.1871 -1.5646  1.2010
 4775SOL     OW25960   0.527   3.785  16.695  0.1158 -0.5265 -0.4186
 4775SOL    HW125961   0.579   3.822  16.766  0.3805  0.7326 -1.2580
 4775SOL    HW225962   0.486   3.714  16.744 -1.3329 -0.5404 -1.6247
 4776SOL     OW25963   1.466   0.357   6.160  0.1226 -0.1879  0.3942
 4776SOL    HW125964   1.416   0.437   6.175 -0.8170 -0.5983 -0.5475
 4776SOL    HW225965   1.532   0.387   6.097  1.8970 -0.9811  1.8722
 4777SOL     OW25966   3.157   4.680  14.340  0.4949 -0.6105  0.0261
 4777SOL    HW125967   3.182   0.031  14.316 -0.7089 -0.7423 -1.6773
 4777SOL    HW225968   3.140   4.692  14.434 -0.2003 -0.7073 -0.0877
 4778SOL     OW25969   2.746   1.000   5.215 -0.0592  0.4917 -0.7679
 4778SOL    HW125970   2.785   1.020   5.130  3.6700  2.1804  1.2932
 4778SOL    HW225971   2.756   1.077   5.270  1.6615 -1.0673  1.1336
 4779SOL     OW25972   3.232   4.648   9.973 -0.4008 -0.4007  0.3486
 4779SOL    HW125973   3.138   4.664   9.962 -0.3374  1.1564  2.1154
 4779SOL    HW225974   3.246   4.663  10.066  2.6327 -0.5743 -0.0738
 4780SOL     OW25975   1.056   3.970   7.650  0.0209 -0.3308  0.3399
 4780SOL    HW125976   1.051   3.975   7.745 -1.6774  1.0132  0.1845
 4780SOL    HW225977   1.123   4.032   7.620 -0.8928  0.8743  0.7655
 4781SOL     OW25978   0.257   2.629   9.161  0.1625 -0.0993 -0.1055
 4781SOL    HW125979   0.283   2.559   9.102 -3.5261 -2.1584  0.7242
 4781SOL    HW225980   0.337   2.661   9.201 -1.3033  2.8633  0.5132
 4782SOL     OW25981   2.897   0.530  13.975  0.1459  0.0022  0.8440
 4782SOL    HW125982   2.807   0.529  13.943  0.7461  0.4982 -0.8428
 4782SOL    HW225983   2.927   0.600  13.917  2.0894 -2.0304 -0.6432
 4783SOL     OW25984   1.442   0.593   5.828 -0.1401 -0.2950 -0.1344
 4783SOL    HW125985   1.352   0.620   5.808 -0.4571  0.8420  2.8540
 4783SOL    HW225986   1.434   0.497   5.826  1.6683 -0.4782  2.0401
 4784SOL     OW25987   1.349   2.056   5.628  0.1087  0.3880  0.2995
 4784SOL    HW125988   1.406   2.111   5.573 -0.7229  0.7360 -0.2147
 4784SOL    HW225989   1.357   1.970   5.586  1.1883  0.5580  0.1571
 4785SOL     OW25990   0.932   0.887   6.141 -0.3874  0.7274 -0.2774
 4785SOL    HW125991   0.845   0.875   6.179 -0.3992  4.4066  0.8130
 4785SOL    HW225992   0.994   0.898   6.213  0.9213  1.2469 -1.4738
 4786SOL     OW25993   1.160   1.591   4.866  0.3264 -0.5363  0.6600
 4786SOL    HW125994   1.112   1.517   4.902  0.0596 -0.1292  1.1448
 4786SOL    HW225995   1.231   1.546   4.820 -0.2229  0.2373 -0.9317
 4787SOL     OW25996   4.378   0.488   1.653  0.3859 -0.2357  0.0555
 4787SOL    HW125997   4.355   0.567   1.701  0.2061 -0.0966 -0.2576
 4787SOL    HW225998   4.432   0.532   1.587  0.2428 -0.3138 -0.1157
 4788SOL     OW25999   1.768   3.249  16.043  0.2767 -0.2304 -0.0709
 4788SOL    HW126000   1.797   3.295  15.964 -0.0673  0.0228 -0.0507
 4788SOL    HW226001   1.702   3.186  16.015 -0.8182  1.1381 -0.5715
 4789SOL     OW26002   3.827   0.298   6.057  0.5235 -0.3945 -0.1351
 4789SOL    HW126003   3.740   0.298   6.018 -0.0404 -0.8797  1.1380
 4789SOL    HW226004   3.879   0.239   6.002  1.5545 -1.5365  2.0531
 4790SOL     OW26005   0.944   3.126   9.492  0.1602  0.1052  0.0499
 4790SOL    HW126006   0.912   3.044   9.531  1.3811 -1.0452 -1.3691
 4790SOL    HW226007   0.944   3.189   9.563  0.3510  0.2875 -0.1135
 4791SOL     OW26008   2.546   4.255  15.596 -0.6430 -0.0729 -0.5405
 4791SOL    HW126009   2.557   4.350  15.597  1.2180 -0.3378  3.4677
 4791SOL    HW226010   2.536   4.239  15.690  1.2647  1.6547 -0.0407
 4792SOL     OW26011   2.745   1.334   8.502  0.0121 -0.4775 -0.1661
 4792SOL    HW126012   2.667   1.346   8.557  0.0105  0.9647 -0.4625
 4792SOL    HW226013   2.758   1.241   8.520 -1.5014  0.3091  4.9551
 4793SOL     OW26014   3.259   3.942   5.936  0.0334 -0.4416  0.3261
 4793SOL    HW126015   3.195   3.941   5.864  1.0605  1.7066 -0.6154
 4793SOL    HW226016   3.345   3.934   5.896 -1.2225  1.1733 -2.7210
 4794SOL     OW26017   2.484   3.205   7.643 -0.4588 -0.3952 -0.1494
 4794SOL    HW126018   2.546   3.176   7.709  0.4086 -0.1172 -0.8485
 4794SOL    HW226019   2.505   3.298   7.639 -0.7203 -0.5075 -4.2439
 4795SOL     OW26020   2.018   3.687   4.550  0.2846 -0.3962  0.0286
 4795SOL    HW126021   2.028   3.603   4.507  2.3784 -1.2111  2.0893
 4795SOL    HW226022   2.046   3.744   4.478 -1.2368 -1.2312 -1.2182
 4796SOL     OW26023   0.277   2.005   1.107 -0.1138 -0.2880  0.0906
 4796SOL    HW126024   0.356   1.997   1.054 -0.0690  0.5196  0.0434
 4796SOL    HW226025   0.295   1.957   1.187 -0.1755 -0.0170  0.2663
 4797SOL     OW26026   2.254   4.366  16.248 -0.4536  0.5612  0.1711
 4797SOL    HW126027   2.219   4.279  16.229  3.1241 -0.9758  0.6739
 4797SOL    HW226028   2.195   4.430  16.209  0.3522  1.1293 -0.1303
 4798SOL     OW26029   1.150   4.332   3.351 -0.0082  0.0321 -0.0435
 4798SOL    HW126030   1.058   4.324   3.326 -0.2976 -2.3957  1.9131
 4798SOL    HW226031   1.172   4.247   3.388 -0.5714  0.1160  0.4703
 4799SOL     OW26032   3.251   0.006   3.051  0.1877  0.0115  0.5523
 4799SOL    HW126033   3.213   0.058   3.123 -1.8330 -2.2551  1.1284
 4799SOL    HW226034   3.224   0.054   2.973 -0.2494  1.0045  1.3148
 4800SOL     OW26035   0.838   2.234   7.268 -0.1638  0.2158 -0.4182
 4800SOL    HW126036   0.808   2.196   7.351  1.4687 -1.5010 -0.6379
 4800SOL    HW226037   0.786   2.314   7.261  0.3438  0.4908 -0.9949
 4801SOL     OW26038   2.631   4.185   8.593  0.2888  0.3517 -0.2841
 4801SOL    HW126039   2.714   4.137   8.596 -1.4320 -2.4434  2.6996
 4801SOL    HW226040   2.659   4.271   8.626 -0.7670  1.3712 -2.0495
 4802SOL     OW26041   1.301   4.414   5.905 -0.3927 -1.0282 -0.3267
 4802SOL    HW126042   1.277   4.507   5.896 -1.0010 -1.5031 -3.4736
 4802SOL    HW226043   1.333   4.400   5.994  1.8445 -0.4783 -1.0259
 4803SOL     OW26044   2.970   4.244   6.280  0.1341 -0.0900 -0.3391
 4803SOL    HW126045   2.987   4.160   6.236  3.4620 -0.6009  1.9036
 4803SOL    HW226046   3.000   4.307   6.215 -2.4499 -1.3228 -2.6910
 4804SOL     OW26047   3.084   0.151   9.436 -0.3345 -0.0923  0.3508
 4804SOL    HW126048   3.099   0.241   9.465  1.6109 -0.2138 -0.2952
 4804SOL    HW226049   3.143   0.102   9.493 -1.2575 -1.7278 -0.1075
 4805SOL     OW26050   2.631   3.486  16.438  0.3056  0.6940  0.2156
 4805SOL    HW126051   2.541   3.468  16.464  0.7291 -2.1829 -0.3324
 4805SOL    HW226052   2.633   3.466  16.344  1.5628  0.3918  0.3007
 4806SOL     OW26053   1.501   4.165   7.745  0.1961  0.1300 -0.7532
 4806SOL    HW126054   1.524   4.129   7.830 -1.6939  1.6228  0.4026
 4806SOL    HW226055   1.584   4.157   7.699  0.6926  0.0895  0.1519
 4807SOL     OW26056   1.824   1.337   2.849  0.5719  0.0717 -0.5672
 4807SOL    HW126057   1.771   1.312   2.773 -0.7930 -0.8322  0.6770
 4807SOL    HW226058   1.761   1.356   2.918  1.4911  0.8313  0.0691
 4808SOL     OW26059   3.566   2.667   4.946 -0.2851 -0.5783 -0.1507
 4808SOL    HW126060   3.550   2.596   5.008  2.8604 -0.4987  0.7652
 4808SOL    HW226061   3.662   2.664   4.944 -0.2560 -0.1126  0.4124
 4809SOL     OW26062   2.624   0.311  17.162 -0.6314  0.0015 -0.1455
 4809SOL    HW126063   2.543   0.351  17.193 -0.0425  1.5772 -0.6543
 4809SOL    HW226064   2.600   0.219  17.177  1.0012 -0.3215  0.5425
 4810SOL     OW26065   4.088   4.005   2.963 -0.0216  0.1615  0.2789
 4810SOL    HW126066   4.084   3.910   2.968  1.9141  0.1725  2.0922
 4810SOL    HW226067   4.053   4.026   2.877  0.3112  0.3368  0.1859
 4811SOL     OW26068   3.312   3.199   5.277 -0.0759 -0.2993 -0.3720
 4811SOL    HW126069   3.376   3.130   5.261  1.5618  0.6245  2.2783
 4811SOL    HW226070   3.247   3.144   5.320 -0.6210  0.4223 -0.2723
 4812SOL     OW26071   0.072   2.965  14.901  0.0570 -0.0282 -0.0941
 4812SOL    HW126072   4.738   3.027  14.895 -0.7835 -0.9026  0.9867
 4812SOL    HW226073   0.038   2.899  14.839 -0.8920  0.9111 -0.5848
 4813SOL     OW26074   3.393   0.956  12.236 -0.1135 -0.8440 -0.2223
 4813SOL    HW126075   3.455   0.888  12.263  0.0883 -1.1239 -1.4057
 4813SOL    HW226076   3.352   0.921  12.157  0.0181  0.8687 -1.0369
 4814SOL     OW26077   3.453   4.394   6.193  0.0182 -0.5225  0.9159
 4814SOL    HW126078   3.449   4.463   6.259  0.4740 -0.5495  0.9684
 4814SOL    HW226079   3.542   4.360   6.200  1.0436  2.4279  2.0912
 4815SOL     OW26080   1.747   4.102  16.695  0.2925  0.0492  0.1763
 4815SOL    HW126081   1.668   4.052  16.713 -0.3918  0.8978 -0.4344
 4815SOL    HW226082   1.713   4.191  16.683  6.0137  1.9685 -1.9596
 4816SOL     OW26083   2.074   0.642  17.312 -0.1645  0.8025 -0.2468
 4816SOL    HW126084   2.143   0.679  17.256  1.4599 -1.8568  0.0136
 4816SOL    HW226085   2.123   0.572  17.353  0.0731  0.9380 -0.2976
 4817SOL     OW26086   2.240   4.487   7.888 -0.4166  0.2781  0.4074
 4817SOL    HW126087   2.168   4.425   7.898  0.5279 -1.0407 -0.9678
 4817SOL    HW226088   2.251   4.506   7.795 -0.9731  0.0033  0.2899
 4818SOL     OW26089   0.521   1.888   7.380 -0.0540  0.1504  0.7463
 4818SOL    HW126090   0.515   1.900   7.286  2.2071  1.7814  0.7965
 4818SOL    HW226091   0.433   1.903   7.414  0.1592  0.4212  1.1832
 4819SOL     OW26092   1.343   1.889  10.296  0.1106  0.0960 -0.0347
 4819SOL    HW126093   1.368   1.817  10.353  0.5486 -0.5296 -1.0020
 4819SOL    HW226094   1.248   1.882  10.283  0.2327 -0.2024 -0.7761
 4820SOL     OW26095   1.942   4.002   7.544 -0.2950  0.6850  0.1846
 4820SOL    HW126096   1.889   3.930   7.579  1.3013 -0.3909  0.3941
 4820SOL    HW226097   1.962   3.967   7.457  0.9000  2.1303 -0.1211
 4821SOL     OW26098   1.182   1.055   6.031 -0.3337  0.5090  0.2021
 4821SOL    HW126099   1.104   1.014   6.068 -1.9709  2.5713 -0.9614
 4821SOL    HW226100   1.204   1.122   6.096  0.6807  0.1387  0.2477
 4822SOL     OW26101   2.336   4.110   4.187 -0.2912  0.7343 -0.3366
 4822SOL    HW126102   2.365   4.195   4.155  3.2071 -0.2543  0.2242
 4822SOL    HW226103   2.310   4.121   4.279 -1.0996  0.6465 -0.5519
 4823SOL     OW26104   3.531   3.517   2.800  0.5264  0.5965 -0.4777
 4823SOL    HW126105   3.552   3.444   2.859 -0.2845  1.1309  0.4603
 4823SOL    HW226106   3.552   3.484   2.713  1.6785 -0.5601  0.2276
 4824SOL     OW26107   3.496   0.670   9.990  0.6728 -0.1031  0.0001
 4824SOL    HW126108   3.448   0.598  10.031  0.2555  0.0488 -0.2303
 4824SOL    HW226109   3.514   0.628   9.907  0.8610  2.0495 -1.0473
 4825SOL     OW26110   3.587   2.261   8.212 -0.1705 -0.6566  0.3253
 4825SOL    HW126111   3.661   2.257   8.152  0.7349  1.5043  1.2838
 4825SOL    HW226112   3.540   2.341   8.188 -1.8633 -1.7142  0.1232
 4826SOL     OW26113   1.448   3.940   9.782 -0.2911  0.6510 -0.3233
 4826SOL    HW126114   1.436   4.019   9.834  2.3292  0.4923  0.4823
 4826SOL    HW226115   1.372   3.889   9.812 -0.6457  1.5361  0.2655
 4827SOL     OW26116   2.801   4.354   5.453 -0.2934  0.0570  0.1084
 4827SOL    HW126117   2.826   4.327   5.542 -1.1357 -0.1968  0.2726
 4827SOL    HW226118   2.730   4.290   5.446 -0.7323  0.4417  0.9438
 4828SOL     OW26119   2.591   1.613   8.351  0.0715 -0.0440  0.2066
 4828SOL    HW126120   2.594   1.619   8.446  2.2877  1.6233  0.0213
 4828SOL    HW226121   2.615   1.704   8.334 -0.1885 -0.1560 -0.7749
 4829SOL     OW26122   2.775   1.797  16.973 -0.0145 -0.5194  0.0120
 4829SOL    HW126123   2.703   1.859  16.986  0.6474 -0.4114  3.3708
 4829SOL    HW226124   2.847   1.842  17.017  0.7380 -1.8422  0.1423
 4830SOL     OW26125   1.148   3.887   3.522  0.5643  0.3059 -0.4548
 4830SOL    HW126126   1.173   3.808   3.570  1.7075  1.0370  0.1464
 4830SOL    HW226127   1.091   3.847   3.456  1.8683 -0.0181 -1.3821
 4831SOL     OW26128   1.868   4.706   7.198 -0.0101 -0.0432 -0.1214
 4831SOL    HW126129   1.931   0.030   7.162  1.5771  0.0276  2.7904
 4831SOL    HW226130   1.790   4.711   7.144  0.1939 -0.2993 -0.4441
 4832SOL     OW26131   3.927   4.417   6.537 -0.2783  0.2126 -0.0229
 4832SOL    HW126132   4.000   4.466   6.576 -0.1793 -0.8403  1.1384
 4832SOL    HW226133   3.950   4.390   6.448 -0.7120  1.5855 -0.5445
 4833SOL     OW26134   1.798   4.527   6.945 -0.5953 -0.2781 -0.8819
 4833SOL    HW126135   1.817   4.537   6.851 -0.1836  1.7149 -0.5919
 4833SOL    HW226136   1.739   4.600   6.964  0.2982  0.3425 -0.5483
 4834SOL     OW26137   1.804   1.948   6.238  0.3828 -0.4174  0.1714
 4834SOL    HW126138   1.765   2.036   6.233  0.6166 -0.2666  1.0930
 4834SOL    HW226139   1.764   1.902   6.164  0.1415  0.4526 -0.2423
 4835SOL     OW26140   1.650   2.691   4.020  0.2947  0.0592  0.1869
 4835SOL    HW126141   1.560   2.715   3.998  0.5779  0.0407 -1.0008
 4835SOL    HW226142   1.685   2.690   3.931 -0.9418  0.5870 -0.3042
 4836SOL     OW26143   4.512   2.542   8.748 -0.1518 -0.4575 -0.2532
 4836SOL    HW126144   4.571   2.572   8.679 -0.5557  0.4773 -0.1917
 4836SOL    HW226145   4.525   2.621   8.801  3.0525  0.3297 -2.1967
 4837SOL     OW26146   2.398   2.575   4.981  0.1078 -0.4058  0.4397
 4837SOL    HW126147   2.476   2.630   4.989 -0.9653  1.2038 -0.1385
 4837SOL    HW226148   2.323   2.635   4.979 -1.0443 -1.8352  0.8283
 4838SOL     OW26149   4.358   1.527   2.095  0.1478 -0.5447 -0.1452
 4838SOL    HW126150   4.282   1.577   2.067 -0.5488 -0.7544  1.4048
 4838SOL    HW226151   4.336   1.446   2.048  2.0822  0.5946 -3.0112
 4839SOL     OW26152   3.679   0.548  11.998 -0.4007 -0.3209  0.5493
 4839SOL    HW126153   3.731   0.546  12.079  0.8504 -0.0636 -0.2474
 4839SOL    HW226154   3.748   0.516  11.940  1.8329  2.1533  1.8707
 4840SOL     OW26155   1.163   2.575   5.920  0.0256  0.0012  0.7430
 4840SOL    HW126156   1.116   2.645   5.874  0.6752 -0.0839 -0.0485
 4840SOL    HW226157   1.150   2.586   6.014 -0.9345  0.6573  0.5363
 4841SOL     OW26158   3.324   0.560   0.182 -0.0475  0.0684  0.1502
 4841SOL    HW126159   3.253   0.584   0.241  1.3291 -0.7450  2.1323
 4841SOL    HW226160   3.364   0.645   0.164  1.2658 -0.3677  1.0070
 4842SOL     OW26161   2.904   3.476   2.844 -0.1789  0.2381  0.4506
 4842SOL    HW126162   2.993   3.503   2.820 -0.2902 -1.0033 -1.3450
 4842SOL    HW226163   2.859   3.503   2.763  0.8215 -1.7658 -0.7771
 4843SOL     OW26164   1.706   2.695   5.579  0.0427  0.4335 -0.0653
 4843SOL    HW126165   1.664   2.775   5.611 -2.5967 -1.2198  0.6163
 4843SOL    HW226166   1.762   2.677   5.654 -1.1475 -0.1588  0.6880
 4844SOL     OW26167   3.025   1.250   3.926 -0.1472  0.1212  0.1199
 4844SOL    HW126168   2.971   1.289   3.858  0.1330  1.2940  0.5693
 4844SOL    HW226169   3.100   1.216   3.876  2.0621  2.5914  1.7167
 4845SOL     OW26170   2.714   1.858  11.537 -0.3221 -0.5271 -0.7031
 4845SOL    HW126171   2.796   1.905  11.542 -0.8688  0.3823 -0.2792
 4845SOL    HW226172   2.674   1.912  11.605  1.2454  0.9110 -0.9479
 4846SOL     OW26173   2.760   3.697  16.961  0.0528  0.0128 -0.0423
 4846SOL    HW126174   2.746   3.791  16.972  4.6839  0.6166  0.9606
 4846SOL    HW226175   2.738   3.694  16.868 -0.2394 -0.9398  0.0605
 4847SOL     OW26176   1.698   4.036   4.833  0.1511  0.2434  0.4788
 4847SOL    HW126177   1.739   3.962   4.787 -1.9488  0.0012 -1.0079
 4847SOL    HW226178   1.663   3.983   4.904 -1.7626  1.6004  0.5527
 4848SOL     OW26179   2.439   3.380   1.563  0.4661  0.5339  0.4662
 4848SOL    HW126180   2.474   3.469   1.556  0.9575  0.2590 -0.7268
 4848SOL    HW226181   2.350   3.406   1.537  0.1280 -0.3102  0.7874
 4849SOL     OW26182   0.523   1.439  10.753  0.0585 -0.0592 -0.0652
 4849SOL    HW126183   0.581   1.370  10.786  1.0729  1.1561  0.7063
 4849SOL    HW226184   0.580   1.515  10.747 -0.0219  0.1387  1.7109
 4850SOL     OW26185   0.904   4.268   3.260 -0.0427 -0.4191 -0.0195
 4850SOL    HW126186   0.918   4.217   3.180  2.2072 -0.4141  0.3739
 4850SOL    HW226187   0.819   4.234   3.287  0.8283 -1.1164  1.8040
 4851SOL     OW26188   4.190   3.187   3.343 -0.2483 -0.4668  0.4583
 4851SOL    HW126189   4.169   3.096   3.321 -1.0538  0.2225 -1.7055
 4851SOL    HW226190   4.163   3.223   3.258  1.5900 -0.0016  0.0784
 4852SOL     OW26191   4.636   2.713  13.679 -0.0287  0.2441 -0.7845
 4852SOL    HW126192   4.727   2.703  13.707  0.4010  1.0627 -1.9288
 4852SOL    HW226193   4.646   2.795  13.631  1.3333  0.0919 -0.7506
 4853SOL     OW26194   1.469   0.739   6.243  0.2748  0.0298  0.0732
 4853SOL    HW126195   1.561   0.757   6.225  0.1107 -0.9623 -1.8379
 4853SOL    HW226196   1.413   0.786   6.181  0.8688  0.2438 -0.2972
 4854SOL     OW26197   3.690   4.006   2.832  0.5185  0.4095 -0.0954
 4854SOL    HW126198   3.607   4.052   2.822  1.7246  2.3238 -1.3077
 4854SOL    HW226199   3.694   3.997   2.927  0.2659 -0.9119 -0.2065
 4855SOL     OW26200   2.680   0.785  14.735  0.4767 -0.6146  0.2304
 4855SOL    HW126201   2.773   0.763  14.734  0.5602 -0.0852 -2.6918
 4855SOL    HW226202   2.695   0.879  14.741  0.5982 -0.5776 -0.6468
 4856SOL     OW26203   0.297   3.930  15.506  0.3746  0.0875  0.8854
 4856SOL    HW126204   0.340   4.015  15.518 -1.0627  1.4144 -3.2540
 4856SOL    HW226205   0.233   3.930  15.577  0.5386 -0.0608  1.0331
 4857SOL     OW26206   3.886   2.710   5.754 -0.0268 -0.0283 -0.7185
 4857SOL    HW126207   3.876   2.754   5.839 -0.7655  0.2545 -0.9457
 4857SOL    HW226208   3.794   2.720   5.728 -0.2552 -2.6634 -0.8713
 4858SOL     OW26209   1.325   0.926   1.308  0.2464  0.4491  0.1376
 4858SOL    HW126210   1.266   0.869   1.260  0.0843  1.8417 -1.3218
 4858SOL    HW226211   1.366   0.983   1.243 -2.6578  1.2911 -0.9422
 4859SOL     OW26212   4.149   3.688  11.210  0.7673 -0.0569 -0.3014
 4859SOL    HW126213   4.066   3.683  11.257 -0.1306 -0.9557 -1.9554
 4859SOL    HW226214   4.169   3.781  11.216 -0.3522  0.2907 -1.7228
 4860SOL     OW26215   2.323   4.301   5.886 -0.1926 -0.0936 -0.5938
 4860SOL    HW126216   2.313   4.264   5.973 -0.1235 -0.1780 -0.6225
 4860SOL    HW226217   2.328   4.394   5.909  2.1660 -0.7258  1.4110
 4861SOL     OW26218   2.298   0.626   8.946  0.0457 -0.1757  0.1392
 4861SOL    HW126219   2.393   0.626   8.960 -0.1727  0.7841  1.5863
 4861SOL    HW226220   2.283   0.534   8.922  0.3809 -0.4070  0.8259
 4862SOL     OW26221   0.380   2.382   4.794  0.4263 -0.1335 -0.1996
 4862SOL    HW126222   0.471   2.353   4.801  1.6114  3.2162 -1.6174
 4862SOL    HW226223   0.342   2.294   4.801  1.3009 -0.6018 -1.3003
 4863SOL     OW26224   3.094   0.898   6.662 -0.2883 -0.5889 -0.3289
 4863SOL    HW126225   3.036   0.974   6.655  1.4357  0.6715 -0.7295
 4863SOL    HW226226   3.116   0.896   6.755 -0.7968  3.2290 -0.1355
 4864SOL     OW26227   0.603   4.139   3.297 -0.0632  0.2312  0.0824
 4864SOL    HW126228   0.547   4.103   3.365 -2.3868  0.9745 -1.4412
 4864SOL    HW226229   0.627   4.216   3.349 -0.3011  1.5469 -1.7373
 4865SOL     OW26230   4.063   4.078   4.279 -0.2050 -0.1474 -1.3717
 4865SOL    HW126231   4.054   4.166   4.313 -0.0210 -0.3855 -0.7168
 4865SOL    HW226232   4.142   4.048   4.324 -1.8800 -0.6180  1.2632
 4866SOL     OW26233   3.088   2.548   8.229  0.2137  0.1689 -0.3216
 4866SOL    HW126234   3.080   2.454   8.240  1.5724 -0.0422 -1.1373
 4866SOL    HW226235   3.171   2.561   8.276  0.7368 -1.1631 -0.8870
 4867SOL     OW26236   4.225   0.329   3.615  0.1375 -0.1452  0.0976
 4867SOL    HW126237   4.173   0.274   3.556  0.5904  0.7588 -1.1424
 4867SOL    HW226238   4.266   0.253   3.655 -1.3286 -0.3517  1.2188
 4868SOL     OW26239   2.210   1.978   4.081  0.1010 -0.5911  0.3952
 4868SOL    HW126240   2.230   1.896   4.036  0.9170  1.4861 -3.0690
 4868SOL    HW226241   2.119   1.979   4.112 -0.2189 -0.7248 -0.5350
 4869SOL     OW26242   2.832   2.546   6.994  0.4306  0.5034 -0.0033
 4869SOL    HW126243   2.767   2.535   6.924  0.4045  2.1885 -0.2575
 4869SOL    HW226244   2.917   2.529   6.954  0.4696  1.1287 -0.1970
 4870SOL     OW26245   2.135   3.751   7.596 -0.0506 -0.4834 -0.3812
 4870SOL    HW126246   2.161   3.659   7.583  0.5547  0.0500 -2.9195
 4870SOL    HW226247   2.108   3.776   7.508 -2.3045  1.7789  0.9735
 4871SOL     OW26248   1.932   0.065  13.321 -0.4977 -0.5358 -0.3069
 4871SOL    HW126249   1.922   0.143  13.375 -0.2915  0.7686 -2.1358
 4871SOL    HW226250   1.847   0.026  13.340 -0.8645 -0.6315 -2.1556
 4872SOL     OW26251   3.777   3.068  16.865  0.0633  0.2571  0.6702
 4872SOL    HW126252   3.762   3.056  16.771 -1.8309  0.9932  0.8798
 4872SOL    HW226253   3.866   3.103  16.866 -0.3642  1.2050  4.0620
 4873SOL     OW26254   0.794   2.366   6.847  0.3800  0.1735 -0.1702
 4873SOL    HW126255   0.752   2.303   6.906 -0.4419  0.8708 -0.0096
 4873SOL    HW226256   0.820   2.315   6.771 -1.0287 -1.9278  0.7418
 4874SOL     OW26257   3.545   3.774   7.642  0.0176 -0.3813  0.6303
 4874SOL    HW126258   3.579   3.859   7.669  1.3398 -0.7960  0.2498
 4874SOL    HW226259   3.582   3.729   7.718  0.4934 -0.6465  0.2394
 4875SOL     OW26260   1.366   2.452  15.821 -0.3006  0.6365 -0.2736
 4875SOL    HW126261   1.397   2.463  15.731  1.5116 -0.9498  0.1703
 4875SOL    HW226262   1.429   2.507  15.868 -0.8833  0.5592  0.6056
 4876SOL     OW26263   4.734   1.829   8.039  0.1049  0.1399 -0.0244
 4876SOL    HW126264   4.675   1.812   8.113  1.3354 -2.1746  0.4108
 4876SOL    HW226265   0.063   1.766   8.062 -0.2574 -0.1009  0.3939
 4877SOL     OW26266   2.272   3.102   2.623 -0.2587  0.1796  0.5607
 4877SOL    HW126267   2.352   3.078   2.669  0.1525 -3.0870 -1.8246
 4877SOL    HW226268   2.231   3.016   2.631  0.2539 -0.5187 -4.1257
 4878SOL     OW26269   1.487   0.873  17.206  0.3213  0.1510 -0.0712
 4878SOL    HW126270   1.565   0.841  17.252  1.6753  0.9325 -1.8246
 4878SOL    HW226271   1.449   0.786  17.196  0.0808  0.4125 -1.4057
 4879SOL     OW26272   3.685   1.541   5.324  0.4342 -0.0361  0.1233
 4879SOL    HW126273   3.701   1.472   5.389  1.4529  0.1233  0.0429
 4879SOL    HW226274   3.693   1.617   5.382 -1.3828 -0.5963  1.1139
 4880SOL     OW26275   3.364   4.315   8.578 -0.5006 -0.1654 -0.4271
 4880SOL    HW126276   3.451   4.342   8.548 -1.1888  0.7859 -1.5426
 4880SOL    HW226277   3.399   4.243   8.631  2.3465  1.6818  0.2446
 4881SOL     OW26278   1.487   3.384   6.979  0.0185 -0.3694  0.2397
 4881SOL    HW126279   1.539   3.340   7.046  1.2657  0.5385 -0.1240
 4881SOL    HW226280   1.462   3.310   6.924  0.0950 -1.5152  1.7258
 4882SOL     OW26281   2.960   0.355  10.046 -0.2523  0.2790  0.0696
 4882SOL    HW126282   2.987   0.433  10.095 -1.4302  1.2403 -0.8448
 4882SOL    HW226283   2.866   0.366  10.032 -0.0065  0.4226 -1.4072
 4883SOL     OW26284   2.853   0.845   2.472  0.2175 -0.2758 -0.5936
 4883SOL    HW126285   2.876   0.815   2.560  0.6153  1.6101 -0.0577
 4883SOL    HW226286   2.761   0.818   2.467 -0.5802  2.1603  0.6162
 4884SOL     OW26287   2.941   4.658   2.201 -0.1807 -0.3225 -0.1206
 4884SOL    HW126288   2.874   4.704   2.252 -0.6740 -1.7450  0.5129
 4884SOL    HW226289   3.015   4.717   2.215 -0.3059 -0.2656  0.2918
 4885SOL     OW26290   1.974   3.586   2.112  0.6069 -0.2744  0.2230
 4885SOL    HW126291   2.010   3.525   2.048  0.6739 -1.0865  1.0235
 4885SOL    HW226292   2.013   3.560   2.196  1.3414 -1.1193 -0.3818
 4886SOL     OW26293   4.510   1.159   4.377 -0.2586 -0.0582 -0.2946
 4886SOL    HW126294   4.424   1.193   4.351 -0.0196  0.7544 -0.0150
 4886SOL    HW226295   4.569   1.229   4.349  1.0904 -1.2965 -0.5067
 4887SOL     OW26296   2.333   1.367  14.531  0.1413 -0.3898 -0.1739
 4887SOL    HW126297   2.280   1.372  14.451  0.1374 -1.2793 -0.2234
 4887SOL    HW226298   2.302   1.443  14.581 -2.3161 -0.9268 -0.8923
 4888SOL     OW26299   0.294   1.487   9.084 -0.5148  0.8048 -0.2559
 4888SOL    HW126300   0.226   1.473   9.151  2.5186 -1.3713  2.4142
 4888SOL    HW226301   0.365   1.491   9.148 -0.8520 -1.1443  0.2313
 4889SOL     OW26302   4.235   3.052   6.009 -0.4089  0.4172 -0.1553
 4889SOL    HW126303   4.269   2.964   5.991 -0.3662  0.3307  0.3502
 4889SOL    HW226304   4.174   3.033   6.080  0.1413  0.9053  0.4452
 4890SOL     OW26305   1.196   4.346  15.572 -0.7744  0.3516 -0.1687
 4890SOL    HW126306   1.117   4.294  15.565  0.2536 -1.4073  1.3537
 4890SOL    HW226307   1.273   4.294  15.549 -1.7471 -1.9707  1.8830
 4891SOL     OW26308   1.472   3.190   9.523 -0.1938  0.2051 -0.0128
 4891SOL    HW126309   1.502   3.279   9.503  1.8237 -0.4072  0.2096
 4891SOL    HW226310   1.486   3.133   9.448  0.5256 -0.2471  0.4624
 4892SOL     OW26311   2.105   4.199   0.261  0.1946 -0.0804  0.0437
 4892SOL    HW126312   2.175   4.218   0.199  0.3396  2.7356  1.0794
 4892SOL    HW226313   2.032   4.201   0.199 -1.4438  0.1516  1.9752
 4893SOL     OW26314   3.371   3.406   0.819  0.0094 -0.2419 -0.4530
 4893SOL    HW126315   3.362   3.409   0.724 -0.5558  0.3669 -0.3794
 4893SOL    HW226316   3.365   3.496   0.850 -0.1143 -0.3658 -0.1157
 4894SOL     OW26317   2.123   1.556   9.694  0.3014  0.5742 -0.0252
 4894SOL    HW126318   2.118   1.460   9.701  0.0532  0.7021  1.5471
 4894SOL    HW226319   2.036   1.569   9.656  0.6774  0.8826 -0.7768
 4895SOL     OW26320   3.196   0.949   3.174  0.7136  0.0990  0.3083
 4895SOL    HW126321   3.237   1.036   3.174 -0.6902  0.7571  1.5856
 4895SOL    HW226322   3.270   0.894   3.148  0.2989  0.3798 -1.4150
 4896SOL     OW26323   2.091   0.772  16.881  0.0971 -0.3808 -0.5182
 4896SOL    HW126324   2.105   0.744  16.971  1.1979  0.0908 -0.5394
 4896SOL    HW226325   2.019   0.712  16.863 -0.3221  0.7587 -2.6438
 4897SOL     OW26326   3.738   2.993  14.924 -0.3145 -0.1270  0.0741
 4897SOL    HW126327   3.677   3.003  14.851 -0.1050 -0.2828 -0.1210
 4897SOL    HW226328   3.698   3.029  15.003 -0.1961 -1.3681  0.7061
 4898SOL     OW26329   2.762   1.095   3.754 -0.5821  0.0488  0.4301
 4898SOL    HW126330   2.671   1.096   3.724  0.0350 -1.3338 -1.5214
 4898SOL    HW226331   2.760   1.065   3.845 -0.1963 -1.2815  0.0141
 4899SOL     OW26332   0.633   1.894   8.266 -0.2853 -0.0162  0.2653
 4899SOL    HW126333   0.651   1.972   8.318  0.5722 -0.6916  0.9892
 4899SOL    HW226334   0.619   1.827   8.333  2.2264 -2.4526 -1.6172
 4900SOL     OW26335   0.508   2.986   3.410  0.2360 -0.4550 -0.0818
 4900SOL    HW126336   0.517   3.080   3.425 -1.2454 -0.0968 -1.4309
 4900SOL    HW226337   0.587   2.953   3.454  0.7301  1.7332  0.6264
 4901SOL     OW26338   4.580   4.315  12.190 -0.0647  0.3444  0.0218
 4901SOL    HW126339   4.487   4.335  12.181 -0.3861 -0.2985  1.8489
 4901SOL    HW226340   4.603   4.349  12.277 -0.4954  0.9258 -0.0955
 4902SOL     OW26341   4.257   0.360  12.229  0.5387 -0.7115  0.5139
 4902SOL    HW126342   4.178   0.393  12.187  0.8447  2.0551  2.1457
 4902SOL    HW226343   4.320   0.344  12.158 -1.2602 -1.5161 -0.9012
 4903SOL     OW26344   3.073   4.050   6.116 -0.4048  0.2456  0.5237
 4903SOL    HW126345   3.121   4.039   6.197 -0.5669 -1.9805  0.3294
 4903SOL    HW226346   3.135   4.024   6.048  0.2123 -1.5659  1.7691
 4904SOL     OW26347   0.995   1.408   2.577 -0.3245 -0.2190  0.5134
 4904SOL    HW126348   0.998   1.317   2.549  0.2808  0.6064 -2.0634
 4904SOL    HW226349   0.995   1.391   2.672 -1.7674  0.4070  0.6227
 4905SOL     OW26350   4.137   2.984  12.297  0.7521 -0.3909  0.0503
 4905SOL    HW126351   4.115   2.904  12.345  0.3330  0.1060  0.6828
 4905SOL    HW226352   4.191   2.955  12.223  0.5274 -0.2202 -0.1789
 4906SOL     OW26353   4.377   1.172   3.814 -0.6149  0.2235  0.3964
 4906SOL    HW126354   4.430   1.242   3.774  0.6028 -0.9576 -0.0684
 4906SOL    HW226355   4.426   1.101   3.773  0.6331  1.1337  0.2827
 4907SOL     OW26356   1.159   3.192   2.285 -0.0796 -0.7844  0.3811
 4907SOL    HW126357   1.187   3.254   2.218  0.4872 -1.7111 -0.2494
 4907SOL    HW226358   1.243   3.146   2.284 -0.4552 -1.4658 -0.2088
 4908SOL     OW26359   3.649   3.030  10.305  0.0907  0.2697 -0.1391
 4908SOL    HW126360   3.687   3.090  10.241 -1.4245 -0.2049 -1.5133
 4908SOL    HW226361   3.692   3.064  10.383 -1.7789 -2.5080  2.0979
 4909SOL     OW26362   1.459   2.497  11.984  0.0811  0.6674 -0.3310
 4909SOL    HW126363   1.415   2.516  12.066  0.4184  1.9668 -0.4518
 4909SOL    HW226364   1.517   2.573  11.978  0.5470  0.2834 -0.7414
 4910SOL     OW26365   3.196   0.790   8.298 -0.1506 -0.2417 -0.1817
 4910SOL    HW126366   3.162   0.731   8.365  2.4550 -1.4432  0.0931
 4910SOL    HW226367   3.135   0.773   8.226 -2.0360  1.3385  1.0414
 4911SOL     OW26368   3.944   3.299   7.245  0.2361 -0.1833  0.3203
 4911SOL    HW126369   3.906   3.354   7.314  0.4156 -1.5258  1.4959
 4911SOL    HW226370   3.898   3.332   7.168 -1.2154 -0.1400  1.1894
 4912SOL     OW26371   1.162   3.488   5.053 -0.1820 -0.4729 -0.0255
 4912SOL    HW126372   1.255   3.479   5.036  0.1040 -0.6059  1.5943
 4912SOL    HW226373   1.155   3.582   5.036 -0.7463 -0.2313  1.5304
 4913SOL     OW26374   4.386   0.014  14.376 -0.5419  0.0265  0.0023
 4913SOL    HW126375   4.313   4.711  14.330 -0.3600  0.3243 -0.5588
 4913SOL    HW226376   4.465   4.713  14.339 -0.2447  0.4214  0.2125
 4914SOL     OW26377   4.474   2.243   4.519  0.1060 -0.2470 -0.3320
 4914SOL    HW126378   4.497   2.156   4.486 -2.3431 -1.3681  0.8823
 4914SOL    HW226379   4.496   2.246   4.612  0.7862  0.8868 -0.5303
 4915SOL     OW26380   4.090   4.663   5.832 -0.2242  0.0312 -0.0430
 4915SOL    HW126381   4.168   4.619   5.865 -0.7102 -1.2252 -0.5853
 4915SOL    HW226382   4.039   4.594   5.788 -1.1655  2.3589 -2.6103
 4916SOL     OW26383   0.477   3.850   5.735  0.2661 -0.1393  0.1813
 4916SOL    HW126384   0.498   3.758   5.746  0.6185 -0.2903 -1.8098
 4916SOL    HW226385   0.452   3.848   5.643 -0.3937 -1.6316  0.4023
 4917SOL     OW26386   3.694   0.078  10.971  0.5562 -0.3356  0.0483
 4917SOL    HW126387   3.633   0.142  10.933  1.7051  2.5425  3.0424
 4917SOL    HW226388   3.634   0.008  10.996 -0.2804  0.5461  0.5280
 4918SOL     OW26389   0.283   0.949   6.882 -0.1493  0.0794  0.3480
 4918SOL    HW126390   0.285   0.896   6.962  0.9724  2.9634  2.2075
 4918SOL    HW226391   0.248   0.879   6.826  1.5624  0.3714 -1.0792
 4919SOL     OW26392   0.510   4.409  13.522  0.0211  0.1676 -0.4776
 4919SOL    HW126393   0.510   4.483  13.461 -0.0879  1.0688  0.6201
 4919SOL    HW226394   0.416   4.409  13.538  0.2697  0.4798  1.0026
 4920SOL     OW26395   2.716   2.200   7.022 -1.0214 -0.2269  0.8377
 4920SOL    HW126396   2.775   2.219   7.095  1.2718 -1.3194 -0.7312
 4920SOL    HW226397   2.646   2.265   7.028 -0.4758  0.3103  1.4367
 4921SOL     OW26398   3.779   1.357   5.530 -0.4745 -0.0338 -0.1429
 4921SOL    HW126399   3.745   1.286   5.585 -1.5331  0.7196  0.1563
 4921SOL    HW226400   3.776   1.434   5.585  0.2751  0.0253 -0.1862
 4922SOL     OW26401   1.691   0.882  17.401 -0.4925 -0.1970  0.0360
 4922SOL    HW126402   1.694   0.973  17.372  1.1088  0.2089  1.4489
 4922SOL    HW226403   1.782   0.865  17.424  0.2281  1.6595 -1.5018
 4923SOL     OW26404   0.998   3.029   3.608 -0.3021 -0.0954 -0.2556
 4923SOL    HW126405   1.016   3.086   3.534  0.3589  1.3352  0.9947
 4923SOL    HW226406   0.999   3.094   3.678 -2.6008 -2.6337  2.1620
 4924SOL     OW26407   1.578   4.301   6.703 -0.2259 -0.1611  0.3997
 4924SOL    HW126408   1.624   4.227   6.665 -2.3259 -0.9534 -0.6519
 4924SOL    HW226409   1.583   4.283   6.796 -0.8155  0.0388  0.4733
 4925SOL     OW26410   3.291   0.314   3.048  0.1472  0.2571  0.0706
 4925SOL    HW126411   3.359   0.250   3.026 -0.2808 -0.7100  1.5777
 4925SOL    HW226412   3.275   0.350   2.960 -1.2012  2.1136  1.0810
 4926SOL     OW26413   3.472   3.210  16.555  0.4691 -0.3957  0.5567
 4926SOL    HW126414   3.457   3.194  16.648 -0.0460  0.0172  0.5447
 4926SOL    HW226415   3.422   3.289  16.535 -0.4984 -1.1830 -0.1665
 4927SOL     OW26416   3.360   4.375  10.105 -0.2525 -0.2499 -0.3042
 4927SOL    HW126417   3.350   4.467  10.129  0.2044 -1.0639  2.9426
 4927SOL    HW226418   3.271   4.342  10.095 -0.9782  0.7004  2.9040
 4928SOL     OW26419   1.808   1.297   6.316  0.0131  0.3382 -0.0486
 4928SOL    HW126420   1.900   1.280   6.295 -0.5766 -1.7892 -0.8435
 4928SOL    HW226421   1.774   1.208   6.313 -1.7749  1.0506 -0.8496
 4929SOL     OW26422   3.591   4.089  15.689  0.7050 -0.4473  0.5484
 4929SOL    HW126423   3.625   4.150  15.624 -0.1279 -0.9542 -0.3462
 4929SOL    HW226424   3.645   4.124  15.760  0.8536  1.4724 -0.5204
 4930SOL     OW26425   3.887   4.424   2.023 -0.0663  0.3761  0.4412
 4930SOL    HW126426   3.888   4.502   2.078  1.8745 -0.4800  1.6426
 4930SOL    HW226427   3.860   4.466   1.942  0.0394 -1.2367 -0.4376
 4931SOL     OW26428   3.639   2.587   0.391  0.1003  0.1515  0.0824
 4931SOL    HW126429   3.577   2.613   0.459 -0.6844  1.0485 -0.9732
 4931SOL    HW226430   3.613   2.648   0.322 -0.7310 -1.7693 -1.2939
 4932SOL     OW26431   4.299   0.103   5.432 -0.4366  0.0814 -0.6087
 4932SOL    HW126432   4.235   0.087   5.362 -0.1200  1.1700 -1.1463
 4932SOL    HW226433   4.336   0.017   5.451  1.9613  1.3905  0.6479
 4933SOL     OW26434   0.097   0.374   2.135  0.0080  0.5219 -0.4307
 4933SOL    HW126435   0.110   0.457   2.182  0.6842  0.9142 -1.3008
 4933SOL    HW226436   0.155   0.386   2.059 -1.3553 -2.1330 -1.8779
 4934SOL     OW26437   3.448   1.984   8.566 -0.0732 -0.1073 -0.3190
 4934SOL    HW126438   3.434   1.975   8.471  0.2719 -0.4916 -0.3331
 4934SOL    HW226439   3.528   2.037   8.568  1.1198 -1.8689 -1.0935
 4935SOL     OW26440   2.960   1.472  11.991 -0.1875  0.8679  0.3506
 4935SOL    HW126441   2.928   1.551  11.947 -1.0891  0.8041  0.8812
 4935SOL    HW226442   2.888   1.447  12.049  2.0823  0.2426  2.8757
 4936SOL     OW26443   0.334   3.308   4.804 -0.7096  0.1110  0.2862
 4936SOL    HW126444   0.295   3.390   4.775  0.9253  1.0384  0.7436
 4936SOL    HW226445   0.424   3.311   4.772 -0.5867 -0.0117  0.6135
 4937SOL     OW26446   3.213   0.504   1.040 -0.6417 -0.0467  0.0422
 4937SOL    HW126447   3.299   0.536   1.013 -1.2931 -0.1301 -2.1189
 4937SOL    HW226448   3.158   0.547   0.975 -1.1319 -2.2775 -1.0242
 4938SOL     OW26449   4.710   2.116   7.993 -0.2432  0.8077  0.0369
 4938SOL    HW126450   4.694   2.022   7.982  0.0913  0.9246 -1.5006
 4938SOL    HW226451   0.016   2.118   8.077 -0.5474  1.9626  0.1728
 4939SOL     OW26452   0.632   2.527   7.795 -0.1057  0.1361 -0.1282
 4939SOL    HW126453   0.547   2.491   7.772  0.8359 -2.0873 -0.0781
 4939SOL    HW226454   0.643   2.589   7.723  1.8712 -1.5416 -1.2932
 4940SOL     OW26455   3.517   2.776   9.254  0.3201 -0.0748  0.0235
 4940SOL    HW126456   3.560   2.811   9.332  0.2040 -0.6239  0.3344
 4940SOL    HW226457   3.492   2.696   9.299  1.8714 -1.0883 -0.9267
 4941SOL     OW26458   0.883   2.701  16.463  0.3451 -0.5089 -0.0548
 4941SOL    HW126459   0.939   2.772  16.493 -3.3193  1.5040  2.0974
 4941SOL    HW226460   0.810   2.752  16.427  1.8351 -1.3227 -4.1757
 4942SOL     OW26461   0.536   1.074   6.130  0.1628 -0.0692 -0.2866
 4942SOL    HW126462   0.587   1.128   6.190 -0.6050 -0.4118  0.6762
 4942SOL    HW226463   0.447   1.105   6.144  0.7969  0.6999  2.0833
 4943SOL     OW26464   3.851   2.733   7.222  0.8963 -0.2822  0.6822
 4943SOL    HW126465   3.788   2.718   7.292  1.1138  2.1834  1.3982
 4943SOL    HW226466   3.927   2.777   7.261  0.5412 -1.8865  3.1627
 4944SOL     OW26467   3.223   1.138   5.392  0.6371  0.6750  0.6356
 4944SOL    HW126468   3.135   1.175   5.394 -0.1875 -1.2218 -1.4498
 4944SOL    HW226469   3.253   1.167   5.479  2.0098 -4.0399  1.7143
 4945SOL     OW26470   4.222   0.467  17.697 -0.4903 -0.4754  0.1178
 4945SOL    HW126471   4.145   0.507  17.656  0.8763  2.0509  0.0732
 4945SOL    HW226472   4.223   0.532   0.015  1.7415 -0.3843 -0.0014
 4946SOL     OW26473   2.223   0.015   1.633 -0.2776  0.0438 -0.6472
 4946SOL    HW126474   2.134   0.011   1.598 -1.0598  0.7433  1.2546
 4946SOL    HW226475   2.204   0.042   1.723  0.1594  2.7386 -1.3803
 4947SOL     OW26476   2.666   1.301   8.911  0.2380 -0.3886  0.0678
 4947SOL    HW126477   2.660   1.396   8.925  0.5412 -0.5691  1.4428
 4947SOL    HW226478   2.643   1.291   8.818  2.9965 -0.9048 -0.5512
 4948SOL     OW26479   2.611   1.912   7.874 -0.1793  1.1940 -0.0085
 4948SOL    HW126480   2.582   1.913   7.783  0.0278 -0.1309 -0.0962
 4948SOL    HW226481   2.580   1.827   7.904  1.8473  0.7276  0.7612
 4949SOL     OW26482   0.953   1.594   2.204  0.6192 -0.0943  0.1915
 4949SOL    HW126483   0.908   1.513   2.178  1.0180 -0.2418 -0.0285
 4949SOL    HW226484   0.990   1.616   2.119 -2.1865  1.5310 -0.6029
 4950SOL     OW26485   1.506   1.140  14.820 -0.3914 -0.0847  1.0576
 4950SOL    HW126486   1.537   1.049  14.817 -2.1289 -0.5850 -1.2554
 4950SOL    HW226487   1.542   1.170  14.737 -1.1548 -1.3462  0.2641
 4951SOL     OW26488   1.737   3.059   9.311  0.0965 -0.9921  0.5411
 4951SOL    HW126489   1.698   3.059   9.223  0.3790  0.1265  0.4099
 4951SOL    HW226490   1.824   3.032   9.283 -0.1470 -2.4551  1.2191
 4952SOL     OW26491   3.851   4.337  13.997  0.1958  0.1253 -0.2507
 4952SOL    HW126492   3.862   4.335  14.092  3.2011 -0.8151 -0.6192
 4952SOL    HW226493   3.914   4.272  13.968  0.5172  0.8781 -1.2168
 4953SOL     OW26494   3.521   4.553  16.303 -0.5986 -0.2400 -0.7211
 4953SOL    HW126495   3.521   4.533  16.209  1.0145  0.4890 -0.8732
 4953SOL    HW226496   3.474   4.636  16.299 -0.3750 -0.0380  0.8517
 4954SOL     OW26497   1.941   1.108   6.157  0.4068 -0.3582 -0.4278
 4954SOL    HW126498   2.003   1.036   6.142  0.7920 -0.3108  0.9232
 4954SOL    HW226499   1.931   1.150   6.072 -1.6674 -2.1761 -1.0986
 4955SOL     OW26500   2.163   3.676   5.060 -0.5969 -0.5397 -0.0667
 4955SOL    HW126501   2.179   3.754   5.006 -2.1078 -0.1787  0.0215
 4955SOL    HW226502   2.160   3.607   4.993  1.0467 -1.2231  0.5584
 4956SOL     OW26503   1.680   1.289   2.607 -0.2660 -0.4164  0.1183
 4956SOL    HW126504   1.647   1.295   2.518 -0.4779 -1.2442  0.1356
 4956SOL    HW226505   1.643   1.366   2.651 -1.7361 -0.4950 -1.0086
 4957SOL     OW26506   3.436   1.292   4.569 -0.0456 -0.0595  0.2202
 4957SOL    HW126507   3.497   1.364   4.561  0.4055 -0.5117 -0.4300
 4957SOL    HW226508   3.391   1.301   4.653  2.0597  0.2479  1.3146
 4958SOL     OW26509   1.646   0.104   2.106 -0.2232 -0.4095 -0.0031
 4958SOL    HW126510   1.681   0.048   2.037  1.7006 -1.2123  1.6287
 4958SOL    HW226511   1.649   0.036   2.173 -0.5881 -0.7511 -0.3390
 4959SOL     OW26512   2.445   3.798   2.964 -0.7698 -0.0383 -0.2259
 4959SOL    HW126513   2.483   3.775   2.880  1.4799  2.4065  0.1174
 4959SOL    HW226514   2.372   3.737   2.958 -0.5794 -0.2532 -0.3343
 4960SOL     OW26515   4.049   0.134   0.613 -0.5083  0.1241  0.1315
 4960SOL    HW126516   3.993   0.088   0.550  1.0330 -1.3010 -0.2177
 4960SOL    HW226517   4.025   0.225   0.598 -2.4689 -0.1824  1.3889
 4961SOL     OW26518   1.376   3.044   2.275 -0.1134 -0.1340 -0.1824
 4961SOL    HW126519   1.373   2.980   2.204  0.5641 -0.8143  0.3942
 4961SOL    HW226520   1.470   3.062   2.270 -0.2246  0.9240  1.3121
 4962SOL     OW26521   2.751   1.039   8.576  0.3036 -0.5723  0.1352
 4962SOL    HW126522   2.738   0.948   8.601  0.4046  0.1844  2.9658
 4962SOL    HW226523   2.844   1.043   8.599  0.6475  0.9725 -1.5104
 4963SOL     OW26524   3.032   2.765   7.255 -0.1687  0.7020 -0.6020
 4963SOL    HW126525   3.113   2.811   7.234  1.2340 -0.4412  2.3691
 4963SOL    HW226526   2.974   2.824   7.206  0.9196  0.4267 -2.2061
 4964SOL     OW26527   0.143   3.109   4.703 -0.0355  0.1960  0.0769
 4964SOL    HW126528   0.136   3.199   4.671  0.5254  0.4599  0.7041
 4964SOL    HW226529   0.217   3.132   4.760 -0.2715  2.1030 -0.3997
 4965SOL     OW26530   3.069   1.604   3.053 -0.0800  0.1999  0.3476
 4965SOL    HW126531   3.131   1.552   3.003 -1.5363 -1.4234  0.2053
 4965SOL    HW226532   3.076   1.684   3.002 -0.3556  1.5963  2.5215
 4966SOL     OW26533   2.488   4.109   0.612  0.5849 -0.8069  0.3616
 4966SOL    HW126534   2.495   4.187   0.557 -1.4220 -1.2058 -0.4534
 4966SOL    HW226535   2.404   4.122   0.657 -0.7699 -0.2594 -2.3348
 4967SOL     OW26536   0.755   2.612   8.032  0.4777 -0.0402  0.0208
 4967SOL    HW126537   0.701   2.606   7.953  0.4945 -2.2918  0.1923
 4967SOL    HW226538   0.703   2.674   8.083  2.2936  0.0357  1.7558
 4968SOL     OW26539   2.786   1.871   2.797  0.2198  0.4862  0.1345
 4968SOL    HW126540   2.795   1.776   2.790 -0.3628  0.3902  0.6299
 4968SOL    HW226541   2.786   1.902   2.707  2.6073 -2.2191 -0.7854
 4969SOL     OW26542   1.846   4.493   5.390 -0.2413 -0.9725 -0.1864
 4969SOL    HW126543   1.759   4.469   5.358 -0.3843 -0.9627  0.1975
 4969SOL    HW226544   1.891   4.426   5.339 -1.1389 -0.4223 -1.6989
 4970SOL     OW26545   3.159   2.179   8.730 -0.3984  0.3185  0.3292
 4970SOL    HW126546   3.221   2.203   8.798 -1.0905 -1.1651  1.4795
 4970SOL    HW226547   3.192   2.228   8.655  1.4149 -1.3235  0.0412
 4971SOL     OW26548   1.246   2.420   7.761 -0.5283 -0.0931 -0.2202
 4971SOL    HW126549   1.160   2.390   7.791 -0.9023  0.5002 -0.6873
 4971SOL    HW226550   1.285   2.433   7.847 -1.7006 -0.2585  0.3473
 4972SOL     OW26551   4.627   1.046   3.373 -0.0948 -0.1478  0.0266
 4972SOL    HW126552   4.716   1.081   3.362 -0.6242  0.9206 -0.8906
 4972SOL    HW226553   4.591   1.132   3.395  0.2086  0.0985 -0.4216
 4973SOL     OW26554   0.201   1.530   9.639  0.0397 -0.0990  0.2688
 4973SOL    HW126555   0.166   1.569   9.719 -0.5608 -2.8362  1.3214
 4973SOL    HW226556   0.268   1.596   9.620  1.0721 -1.5571 -1.1290
 4974SOL     OW26557   2.437   1.658   1.720  0.9320 -0.2719 -0.6426
 4974SOL    HW126558   2.515   1.713   1.706  0.8339 -0.1260 -0.6135
 4974SOL    HW226559   2.375   1.716   1.765  0.8277 -0.0521 -1.0677
 4975SOL     OW26560   3.615   0.712   0.471 -0.2210 -0.2803  0.2432
 4975SOL    HW126561   3.584   0.622   0.481 -1.1665  0.3247  2.6270
 4975SOL    HW226562   3.585   0.755   0.551  0.4211 -1.3242  1.0510
 4976SOL     OW26563   2.696   4.712   3.095  0.0737  0.1190  0.2119
 4976SOL    HW126564   2.748   4.644   3.137 -0.3135 -0.2959  0.0122
 4976SOL    HW226565   2.618   4.658   3.084  0.4731 -0.2896 -0.6492
 4977SOL     OW26566   0.607   0.899   0.320 -0.1691  0.3010 -0.2419
 4977SOL    HW126567   0.682   0.928   0.268 -1.0620  0.8349 -1.2026
 4977SOL    HW226568   0.595   0.977   0.375 -1.3317 -0.9378  1.2573
 4978SOL     OW26569   4.067   2.038   3.603 -0.5324 -0.0003 -0.2549
 4978SOL    HW126570   4.004   2.095   3.560  0.4798  1.5294  0.3244
 4978SOL    HW226571   4.019   2.048   3.685  2.6639 -1.7697  1.8313
 4979SOL     OW26572   4.219   1.742  15.973  0.6646 -0.3179  0.0419
 4979SOL    HW126573   4.246   1.832  15.986 -1.5130  0.2728  0.3822
 4979SOL    HW226574   4.139   1.763  15.924  0.5722  0.3249  0.4751
 4980SOL     OW26575   1.801   4.321  17.408 -0.4314 -0.0146  0.5276
 4980SOL    HW126576   1.723   4.370  17.431 -0.7467 -0.5654  0.6300
 4980SOL    HW226577   1.829   4.372  17.332  0.7863  0.5789  1.3710
 4981SOL     OW26578   0.135   2.446   9.568  0.1212  0.4771 -0.1811
 4981SOL    HW126579   0.092   2.514   9.620 -1.3836 -1.4431  1.0345
 4981SOL    HW226580   0.191   2.402   9.632  0.5126  1.2594  0.0190
 4982SOL     OW26581   1.244   2.089   9.665  0.1338 -0.5156 -0.1799
 4982SOL    HW126582   1.298   2.096   9.585  0.7929  0.5942  0.3613
 4982SOL    HW226583   1.162   2.058   9.627 -0.0864 -0.2411  0.0687
 4983SOL     OW26584   3.032   2.103   8.480  0.6692  0.2893 -0.2568
 4983SOL    HW126585   3.077   2.132   8.560 -1.5001 -0.9474  1.4363
 4983SOL    HW226586   2.976   2.030   8.507 -0.1272  1.1715  0.4698
 4984SOL     OW26587   0.211   0.169   8.479 -0.6878 -0.1076 -0.5006
 4984SOL    HW126588   0.120   0.151   8.457 -0.8357 -2.6139  2.2772
 4984SOL    HW226589   0.197   0.211   8.564  0.3063  0.1303 -0.4554
 4985SOL     OW26590   3.662   3.122   9.242  0.8413 -0.8640 -0.3063
 4985SOL    HW126591   3.652   3.103   9.336 -1.4943 -0.1982 -0.4046
 4985SOL    HW226592   3.743   3.075   9.222  1.1196  0.3663 -2.0216
 4986SOL     OW26593   0.799   4.148   4.525 -0.3667  0.3478 -0.1344
 4986SOL    HW126594   0.887   4.158   4.488 -0.8011  3.8066 -0.2439
 4986SOL    HW226595   0.751   4.124   4.446  0.3339 -2.9490  0.4381
 4987SOL     OW26596   4.329   3.675   2.959  0.0686  0.1077  0.1843
 4987SOL    HW126597   4.314   3.584   2.934  1.4067  0.3360 -1.4526
 4987SOL    HW226598   4.244   3.711   2.932 -0.4150 -1.5490 -0.4971
 4988SOL     OW26599   1.199   1.075   8.516  0.0740 -0.2628  0.4874
 4988SOL    HW126600   1.268   1.050   8.577  0.8507  1.8062  0.4724
 4988SOL    HW226601   1.213   1.170   8.512  1.8865 -0.6039 -1.0355
 4989SOL     OW26602   1.106   3.132   7.308  0.2728 -0.9019  0.6325
 4989SOL    HW126603   1.052   3.158   7.383 -1.0627 -1.9553  0.0467
 4989SOL    HW226604   1.180   3.191   7.321 -1.3176  1.1853  0.2069
 4990SOL     OW26605   3.132   4.224  12.509 -0.5517 -0.1431  0.2472
 4990SOL    HW126606   3.055   4.279  12.528 -2.1310 -1.7723 -1.4897
 4990SOL    HW226607   3.139   4.197  12.601  0.9110  0.4424  0.3013
 4991SOL     OW26608   3.572   0.048   2.227  0.2962 -0.0609 -0.0043
 4991SOL    HW126609   3.526   0.084   2.151 -2.5199 -0.3771  1.5745
 4991SOL    HW226610   3.556   4.694   2.212  0.8648 -0.1910  0.2060
 4992SOL     OW26611   0.089   3.404   7.688  0.4973 -1.3034  0.7649
 4992SOL    HW126612   0.026   3.430   7.621  0.0895 -0.2995  1.5374
 4992SOL    HW226613   0.107   3.487   7.733  0.8043 -2.3860  2.6487
 4993SOL     OW26614   1.748   1.623   4.908  0.3670 -0.1102 -0.2705
 4993SOL    HW126615   1.749   1.697   4.969 -0.3177 -1.6364  1.6086
 4993SOL    HW226616   1.654   1.605   4.899  0.5532 -0.3164 -1.8303
 4994SOL     OW26617   4.700   3.818  13.905 -0.3136 -0.6836 -0.6445
 4994SOL    HW126618   4.655   3.859  13.979  1.0011  0.2461 -0.3594
 4994SOL    HW226619   4.734   3.739  13.946  1.6559  0.5933  0.2022
 4995SOL     OW26620   2.880   4.538   3.182 -0.5215  0.0768  0.1212
 4995SOL    HW126621   2.960   4.513   3.136  0.6420  2.1051  1.0921
 4995SOL    HW226622   2.862   4.459   3.233 -1.1275  0.8809  1.1551
 4996SOL     OW26623   2.510   3.617  11.937  0.1893 -0.3545  0.1179
 4996SOL    HW126624   2.604   3.601  11.949  0.5684  0.9690 -1.0480
 4996SOL    HW226625   2.517   3.704  11.897 -2.3876  0.2420  0.9743
 4997SOL     OW26626   4.636   1.391   8.710  0.5606  0.0528 -0.1087
 4997SOL    HW126627   4.688   1.387   8.791 -1.2905  2.2141  1.1729
 4997SOL    HW226628   4.623   1.304   8.673 -0.8927  1.5549 -3.0612
 4998SOL     OW26629   4.699   0.071   9.277 -0.2731 -0.0408 -0.0412
 4998SOL    HW126630   4.645   4.733   9.259 -0.6935 -0.1956  1.8096
 4998SOL    HW226631   4.650   0.138   9.229 -0.6284 -1.1616 -1.2339
 4999SOL     OW26632   3.221   3.833  14.647  0.3245  0.2650  0.1922
 4999SOL    HW126633   3.309   3.797  14.645  0.0246 -0.3962 -1.2091
 4999SOL    HW226634   3.198   3.784  14.725 -1.6104 -2.6402 -2.2282
 5000SOL     OW26635   1.711   0.209   0.019  0.1181  0.1459 -0.9391
 5000SOL    HW126636   1.777   0.247   0.076  0.3872 -4.3352  1.7559
 5000SOL    HW226637   1.710   0.278  17.706 -2.2455  0.0292 -1.0570
 5001SOL     OW26638   0.171   0.788   9.166 -0.1262 -0.7657 -0.1438
 5001SOL    HW126639   0.192   0.777   9.259 -0.4239 -3.7187 -0.4262
 5001SOL    HW226640   0.239   0.854   9.152 -0.4445 -1.1134 -3.4229
 5002SOL     OW26641   2.065   0.965   5.849 -0.8484  0.0758  0.2270
 5002SOL    HW126642   2.081   0.939   5.939  1.6091 -3.1477 -1.1412
 5002SOL    HW226643   2.002   0.896   5.827 -0.8919  0.6989 -1.6099
 5003SOL     OW26644   3.939   4.132   7.367  0.7394  0.3666  0.3988
 5003SOL    HW126645   4.027   4.156   7.393  1.3411 -0.7551 -0.5715
 5003SOL    HW226646   3.883   4.148   7.443 -0.0495 -0.5759  0.0205
 5004SOL     OW26647   1.839   3.898   4.181 -0.2188  0.0550 -0.6562
 5004SOL    HW126648   1.806   3.831   4.121  1.7702 -0.9151 -0.6325
 5004SOL    HW226649   1.817   3.981   4.139  0.5310  0.7200  0.2784
 5005SOL     OW26650   2.572   0.112   7.975  0.0191  0.0871 -0.7003
 5005SOL    HW126651   2.639   0.127   8.042  0.7125  0.5833 -1.4991
 5005SOL    HW226652   2.552   0.206   7.969  0.4260  0.2942  1.2209
 5006SOL     OW26653   2.359   3.820   8.298 -0.1703  0.1660 -0.3053
 5006SOL    HW126654   2.282   3.811   8.354  0.5955 -1.6945  0.4685
 5006SOL    HW226655   2.397   3.898   8.340  0.0477 -0.1704  0.1190
 5007SOL     OW26656   2.130   2.713   8.735  0.1486 -0.0575  0.4529
 5007SOL    HW126657   2.152   2.671   8.818 -0.4089  0.7263  1.0006
 5007SOL    HW226658   2.035   2.710   8.745  0.2161  1.2824  1.5841
 5008SOL     OW26659   4.399   4.592   5.385  0.2140  0.4701  0.0136
 5008SOL    HW126660   4.397   4.576   5.290  0.2647 -0.3906  0.1627
 5008SOL    HW226661   4.334   4.530   5.417  0.7746 -0.6004 -0.8951
 5009SOL     OW26662   4.028   2.049   4.179  0.1195 -0.2772 -0.2515
 5009SOL    HW126663   4.021   2.068   4.085  1.5321  1.7519  0.0577
 5009SOL    HW226664   4.121   2.051   4.200 -0.6571  2.0049  2.9817
 5010SOL     OW26665   2.828   1.759   8.017  0.0566 -0.5487 -0.1302
 5010SOL    HW126666   2.814   1.664   8.010  1.0019 -0.9052  2.8842
 5010SOL    HW226667   2.744   1.791   7.983 -0.0100 -1.8404 -1.1904
 5011SOL     OW26668   2.607   3.341   2.388 -0.2963  0.7106 -0.1315
 5011SOL    HW126669   2.695   3.357   2.353 -0.4359 -1.9803 -1.6843
 5011SOL    HW226670   2.565   3.326   2.303 -3.6940 -1.2995  1.9419
 5012SOL     OW26671   0.229   0.555   7.135 -0.0851  0.2039 -0.1613
 5012SOL    HW126672   0.237   0.583   7.226 -2.0960 -2.4741  0.8423
 5012SOL    HW226673   0.170   0.623   7.105  1.0201  1.2211 -0.0202
 5013SOL     OW26674   1.590   1.544   7.185  0.3308 -0.0197 -0.1767
 5013SOL    HW126675   1.527   1.603   7.143 -0.1087 -1.4907 -1.6118
 5013SOL    HW226676   1.533   1.468   7.196 -2.8031  2.3623  0.1074
 5014SOL     OW26677   0.476   3.933   4.856 -0.5682 -0.4229 -0.2938
 5014SOL    HW126678   0.489   3.938   4.762 -2.0334  0.0665 -0.4707
 5014SOL    HW226679   0.569   3.930   4.880 -0.1095  0.7238 -1.9689
 5015SOL     OW26680   3.644   0.177   2.448 -0.8313  0.0124 -0.3739
 5015SOL    HW126681   3.639   0.111   2.380 -0.0635 -0.1323 -0.2917
 5015SOL    HW226682   3.609   0.252   2.401 -1.5284  0.5321  0.9549
 5016SOL     OW26683   0.604   0.760  13.207 -0.2264  0.7345 -0.3904
 5016SOL    HW126684   0.696   0.742  13.189 -0.6030  0.9575 -2.4835
 5016SOL    HW226685   0.593   0.840  13.156  0.7794  2.4606  2.0886
 5017SOL     OW26686   2.494   2.169  14.198  0.0934 -0.4065 -0.0013
 5017SOL    HW126687   2.458   2.232  14.261 -1.2778 -1.7512  0.5571
 5017SOL    HW226688   2.582   2.207  14.196  0.1110 -0.4221  0.4244
 5018SOL     OW26689   4.149   1.457   5.605  0.7257 -0.0845  1.1119
 5018SOL    HW126690   4.215   1.387   5.603  0.0283 -0.6975 -1.8586
 5018SOL    HW226691   4.085   1.421   5.543  0.1885  0.2121  1.4984
 5019SOL     OW26692   0.060   1.372   2.935 -0.4792 -0.9039  0.4172
 5019SOL    HW126693   0.141   1.327   2.910  0.0117  0.3976 -0.3417
 5019SOL    HW226694   0.002   1.296   2.944  0.7237 -1.4595  3.3689
 5020SOL     OW26695   2.579   0.789   8.254 -0.2531 -0.2815  0.2382
 5020SOL    HW126696   2.674   0.787   8.265 -0.5277 -1.2305  2.3419
 5020SOL    HW226697   2.560   0.852   8.323 -1.0464  0.5702 -0.7384
 5021SOL     OW26698   1.999   3.093  17.294 -0.4702  0.2489 -0.0215
 5021SOL    HW126699   2.053   3.029  17.247 -1.5218 -2.2594  2.1717
 5021SOL    HW226700   2.069   3.148  17.328  1.1178 -0.7200 -1.7118
 5022SOL     OW26701   1.337   0.406   2.811  0.1585  0.1301  0.1680
 5022SOL    HW126702   1.385   0.324   2.801 -0.1269 -0.1624  1.1497
 5022SOL    HW226703   1.247   0.381   2.788  0.6289  0.8579 -2.3941
 5023SOL     OW26704   2.584   1.651   6.945  0.0729 -0.2915  0.6195
 5023SOL    HW126705   2.646   1.722   6.964  1.2798 -1.3282  0.5851
 5023SOL    HW226706   2.570   1.655   6.851 -1.2841  0.4552  0.8652
 5024SOL     OW26707   2.020   4.596   3.271 -0.2053 -0.0881 -0.3802
 5024SOL    HW126708   2.033   4.518   3.326  0.4376 -1.3084 -2.2650
 5024SOL    HW226709   2.055   4.670   3.320 -1.1172 -0.0561  0.2387
 5025SOL     OW26710   1.643   1.907  16.579  0.5667 -0.3192  0.2660
 5025SOL    HW126711   1.653   1.984  16.523 -2.4356  0.2227  0.4648
 5025SOL    HW226712   1.723   1.859  16.556  0.4736 -0.8045  0.9722
 5026SOL     OW26713   0.229   0.933   4.162  0.0192  0.2111  0.5956
 5026SOL    HW126714   0.307   0.899   4.206 -0.5703 -0.4592  1.1090
 5026SOL    HW226715   0.215   1.017   4.206  1.3557  1.6099 -1.6104
 5027SOL     OW26716   1.635   1.353   3.326  0.4234 -0.4852  0.2789
 5027SOL    HW126717   1.660   1.436   3.367  1.1111 -0.9966  0.9047
 5027SOL    HW226718   1.546   1.355   3.360 -0.6176 -2.8314 -2.3256
 5028SOL     OW26719   1.681   2.147  12.825 -0.2239  0.2040  0.2289
 5028SOL    HW126720   1.723   2.160  12.910 -2.1726 -0.3688  1.2580
 5028SOL    HW226721   1.725   2.219  12.780 -0.4147 -0.3298 -0.8132
 5029SOL     OW26722   1.768   0.686  14.320  0.2974  0.4965  0.5362
 5029SOL    HW126723   1.751   0.645  14.235  1.1194 -0.4059  0.7994
 5029SOL    HW226724   1.839   0.625  14.339  1.4781  2.4703  2.4371
 5030SOL     OW26725   2.138   2.111  11.998 -0.4155 -0.2010  0.0812
 5030SOL    HW126726   2.230   2.093  12.018  0.4185  1.1149 -2.5428
 5030SOL    HW226727   2.127   2.077  11.909  0.1622  1.0088 -0.4457
 5031SOL     OW26728   2.304   1.856   7.899 -0.3294 -0.1585 -0.0854
 5031SOL    HW126729   2.240   1.914   7.858  0.3466 -1.0279 -2.3419
 5031SOL    HW226730   2.354   1.921   7.948 -1.2074  0.3395  0.1331
 5032SOL     OW26731   4.123   0.694   5.085 -0.0871 -0.3345 -0.0273
 5032SOL    HW126732   4.035   0.673   5.117 -0.4752  1.6760  0.2396
 5032SOL    HW226733   4.115   0.786   5.061  1.5012 -0.0563  0.5112
 5033SOL     OW26734   0.157   2.266   3.804  0.3767  0.1987  0.3091
 5033SOL    HW126735   0.119   2.283   3.890 -0.8360  2.7556 -0.7465
 5033SOL    HW226736   0.183   2.174   3.810 -0.3711  0.0254  0.8596
 5034SOL     OW26737   2.638   1.648  17.424  0.1318  0.3895 -0.0164
 5034SOL    HW126738   2.601   1.735  17.436 -0.5980  0.3422 -1.9301
 5034SOL    HW226739   2.694   1.656  17.347 -1.7946  1.9765 -1.2303
 5035SOL     OW26740   0.265   1.823   0.024  0.2837  0.3342 -0.1405
 5035SOL    HW126741   0.185   1.861   0.061  0.0412 -1.0590  0.7474
 5035SOL    HW226742   0.263   1.740   0.071  0.9347 -0.9096 -2.3256
 5036SOL     OW26743   2.665   0.042  13.462  0.0222 -0.0439  0.6849
 5036SOL    HW126744   2.637   4.705  13.512  0.7881 -1.1285 -0.5243
 5036SOL    HW226745   2.634   0.110  13.523 -1.4907 -0.5460  0.4608
 5037SOL     OW26746   0.409   2.328   5.157  0.5603  0.0050 -0.4170
 5037SOL    HW126747   0.480   2.295   5.213 -0.0158 -3.2437 -1.6415
 5037SOL    HW226748   0.449   2.407   5.120  1.6043 -1.2266 -1.9181
 5038SOL     OW26749   3.373   1.017   8.322 -0.1863  0.6885 -0.3993
 5038SOL    HW126750   3.317   0.940   8.337 -0.0526  1.2692  2.9773
 5038SOL    HW226751   3.388   1.013   8.227 -0.5319  2.1592 -0.5115
 5039SOL     OW26752   4.330   3.743  15.350  0.0308 -0.4604  0.1576
 5039SOL    HW126753   4.238   3.767  15.355  0.4243  1.2269 -0.6310
 5039SOL    HW226754   4.333   3.648  15.337 -0.7070 -0.6986  1.7502
 5040SOL     OW26755   4.513   2.630   2.450  0.4448  0.3069 -0.2382
 5040SOL    HW126756   4.497   2.543   2.412  2.6484 -0.5137  0.7300
 5040SOL    HW226757   4.545   2.608   2.537  3.6955  1.3110 -1.1943
 5041SOL     OW26758   3.063   1.189  16.571  0.0000 -0.2814  0.3400
 5041SOL    HW126759   3.070   1.093  16.572 -0.7198 -0.3572 -1.2637
 5041SOL    HW226760   3.101   1.215  16.488 -0.6274 -2.0111 -0.4944
 5042SOL     OW26761   1.532   3.157   8.562  0.4794 -0.2017 -0.3076
 5042SOL    HW126762   1.551   3.153   8.468  1.5019 -0.8108 -0.0665
 5042SOL    HW226763   1.621   3.148   8.596  0.6936  0.1332 -0.7768
 5043SOL     OW26764   2.405   1.866   3.100 -0.6304 -0.1182 -0.3295
 5043SOL    HW126765   2.374   1.938   3.156 -0.5029  0.8623 -1.5159
 5043SOL    HW226766   2.433   1.802   3.164  1.3737 -0.1462 -1.2301
 5044SOL     OW26767   3.237   0.922   6.943  0.0832 -0.4608  0.1972
 5044SOL    HW126768   3.324   0.902   6.909 -0.1107 -0.8920 -0.0477
 5044SOL    HW226769   3.221   0.838   6.986  0.5307  0.2839  1.7896
 5045SOL     OW26770   3.127   3.440   3.662 -0.1056  0.0134  0.3887
 5045SOL    HW126771   3.112   3.441   3.568  0.9747  1.3402  0.2427
 5045SOL    HW226772   3.055   3.497   3.688 -1.1593 -0.7264 -0.9044
 5046SOL     OW26773   3.178   0.740   3.504 -0.4895 -0.2672 -0.1794
 5046SOL    HW126774   3.193   0.675   3.436  0.6388  1.2030 -1.3592
 5046SOL    HW226775   3.185   0.825   3.459 -1.6361  0.0538  0.2534
 5047SOL     OW26776   2.440   0.304   7.223  0.5110  0.2528 -0.1184
 5047SOL    HW126777   2.408   0.297   7.313 -2.5634  1.0613 -1.1658
 5047SOL    HW226778   2.461   0.212   7.205 -0.5204  0.0634 -0.3459
 5048SOL     OW26779   1.321   1.819   3.884  0.5032 -0.0591  0.2721
 5048SOL    HW126780   1.284   1.889   3.831 -0.5027 -1.5019 -0.9187
 5048SOL    HW226781   1.269   1.812   3.964  1.4092  3.6826  1.2145
 5049SOL     OW26782   1.468   3.155   9.848 -0.2707 -0.6502  0.8050
 5049SOL    HW126783   1.410   3.231   9.856  2.2066  1.1249  1.7648
 5049SOL    HW226784   1.532   3.179   9.781  0.4352 -1.1795  1.2874
 5050SOL     OW26785   2.101   2.799   2.900  0.2095 -0.7326 -0.2589
 5050SOL    HW126786   2.163   2.747   2.848  0.6308  0.4177 -0.9164
 5050SOL    HW226787   2.017   2.787   2.856 -0.2063 -0.2234  0.3940
 5051SOL     OW26788   1.507   0.812   2.163  0.1437 -0.1442 -0.1291
 5051SOL    HW126789   1.482   0.787   2.074 -1.7014  2.7238 -0.4092
 5051SOL    HW226790   1.553   0.735   2.196  0.2607  0.4571  1.1030
 5052SOL     OW26791   3.136   1.954  11.948  0.4159  0.5424 -0.3059
 5052SOL    HW126792   3.178   2.026  11.996 -0.4941 -0.7014  2.2987
 5052SOL    HW226793   3.126   1.988  11.858 -2.8710  3.2263  1.0789
 5053SOL     OW26794   3.617   4.239  14.921  0.0387  0.5724 -0.1734
 5053SOL    HW126795   3.708   4.217  14.899  0.2410  1.1957  0.0417
 5053SOL    HW226796   3.563   4.170  14.882 -0.6979  2.1170 -1.8637
 5054SOL     OW26797   2.909   0.592   9.764 -0.0006  0.6995  0.2688
 5054SOL    HW126798   3.005   0.587   9.768  0.1200  1.1555 -1.8395
 5054SOL    HW226799   2.895   0.626   9.852  1.9532 -0.3011  0.9773
 5055SOL     OW26800   0.218   3.616  16.496 -0.7557  0.2122  0.4734
 5055SOL    HW126801   0.206   3.711  16.490 -0.1356  0.1965 -1.1159
 5055SOL    HW226802   0.200   3.610  16.590  2.9210  3.7996  1.4020
 5056SOL     OW26803   4.318   2.683   3.798 -0.1703 -0.2298 -0.2652
 5056SOL    HW126804   4.236   2.731   3.802  0.2373  0.0945  3.6270
 5056SOL    HW226805   4.295   2.604   3.846  1.2946  0.5467  1.7240
 5057SOL     OW26806   1.243   2.359  13.608  0.1508 -0.1738 -0.3889
 5057SOL    HW126807   1.236   2.426  13.675 -1.3350 -0.2795 -0.4284
 5057SOL    HW226808   1.307   2.400  13.551  0.0939  1.3064  0.6259
 5058SOL     OW26809   3.394   2.340   4.573 -0.2027  0.6588 -0.4758
 5058SOL    HW126810   3.486   2.356   4.594 -0.7787  2.2769  0.7719
 5058SOL    HW226811   3.368   2.422   4.531 -0.4398  0.4582 -0.7221
 5059SOL     OW26812   1.479   2.893  12.966  0.1357 -0.1663  0.3485
 5059SOL    HW126813   1.478   2.801  12.994 -5.1230 -0.0803  0.4215
 5059SOL    HW226814   1.498   2.938  13.048  0.3952 -0.5561  0.5034
 5060SOL     OW26815   3.735   4.690  10.001 -0.3743 -0.4454 -0.3407
 5060SOL    HW126816   3.776   0.013  10.060  0.2010 -1.8142  0.6906
 5060SOL    HW226817   3.742   4.609  10.051 -2.7239 -0.3149  0.2362
 5061SOL     OW26818   1.190   0.703   6.857  0.2396  0.2619  0.0616
 5061SOL    HW126819   1.282   0.695   6.884  0.1983 -0.8065 -0.1015
 5061SOL    HW226820   1.158   0.788   6.886  1.2312  1.0607 -1.1642
 5062SOL     OW26821   4.531   1.586   7.973 -0.4498  0.7242 -0.0492
 5062SOL    HW126822   4.538   1.679   7.954 -0.4322  1.2187  2.3414
 5062SOL    HW226823   4.458   1.599   8.034  0.6323  0.9627  1.2118
 5063SOL     OW26824   0.883   1.797   8.185 -0.4150  0.5002  0.0415
 5063SOL    HW126825   0.792   1.791   8.216 -0.7590 -1.6887 -1.4208
 5063SOL    HW226826   0.923   1.715   8.214  0.7042  0.3846 -1.8273
 5064SOL     OW26827   0.175   2.854   6.267  0.5282  0.0620 -0.4622
 5064SOL    HW126828   0.116   2.784   6.296 -1.0045  0.2892 -2.9953
 5064SOL    HW226829   0.129   2.887   6.189 -0.9650  1.5803  1.0472
 5065SOL     OW26830   3.541   1.371   9.421  0.0773 -0.6807 -0.1649
 5065SOL    HW126831   3.526   1.409   9.508  4.1921  0.9353 -0.1519
 5065SOL    HW226832   3.634   1.348   9.427  0.1387 -0.5127 -0.4620
 5066SOL     OW26833   0.920   4.165   4.786 -0.2840 -0.3601  0.3788
 5066SOL    HW126834   0.963   4.251   4.787 -0.8643 -0.0814  0.9424
 5066SOL    HW226835   0.872   4.171   4.704 -0.3526  0.6524  0.4961
 5067SOL     OW26836   3.176   4.169   4.570  0.5918  0.0791  0.0831
 5067SOL    HW126837   3.256   4.185   4.520 -0.2922  0.1559 -1.3143
 5067SOL    HW226838   3.149   4.087   4.528  0.4130  0.8565 -1.3236
 5068SOL     OW26839   4.287   0.404   4.773  0.3672  0.3655  0.7000
 5068SOL    HW126840   4.213   0.462   4.757  0.1015  0.0663  0.8551
 5068SOL    HW226841   4.273   0.323   4.724 -1.1439  0.7303  0.5246
 5069SOL     OW26842   4.607   2.197  14.393 -0.2730  0.3976  0.0093
 5069SOL    HW126843   4.676   2.131  14.391 -2.1787 -1.5359 -2.1663
 5069SOL    HW226844   4.544   2.160  14.332  0.7692  0.0753 -0.8776
 5070SOL     OW26845   1.408   0.233  11.615  0.5185  0.2073  0.4171
 5070SOL    HW126846   1.476   0.206  11.554 -0.1351  1.6023 -0.9253
 5070SOL    HW226847   1.415   0.329  11.617 -1.0623  0.3358  0.0608
 5071SOL     OW26848   1.833   4.368   5.703  0.0130  0.1579 -0.1074
 5071SOL    HW126849   1.914   4.326   5.730  0.4742  0.5980 -0.8275
 5071SOL    HW226850   1.768   4.366   5.774  0.0726 -0.2530 -0.0629
 5072SOL     OW26851   4.309   3.120   9.034 -0.3586  0.3919 -0.0162
 5072SOL    HW126852   4.243   3.184   9.007 -0.7440 -0.2813 -0.6756
 5072SOL    HW226853   4.332   3.151   9.121  1.1986 -0.4666 -0.1150
 5073SOL     OW26854   1.418   1.599   5.425  0.6057  0.7077 -0.0103
 5073SOL    HW126855   1.346   1.536   5.437  0.8236  0.3792 -0.4149
 5073SOL    HW226856   1.484   1.574   5.490  1.1234  0.3106 -0.6970
 5074SOL     OW26857   3.374   0.187  17.570  0.1016  0.1028 -0.2954
 5074SOL    HW126858   3.341   0.268  17.610  2.3444 -0.2203  2.1748
 5074SOL    HW226859   3.446   0.179  17.632 -0.4458 -0.6593  0.2504
 5075SOL     OW26860   1.386   1.033   6.314 -0.0546  0.2340  0.4406
 5075SOL    HW126861   1.409   1.081   6.394 -0.0665 -0.4588  0.8593
 5075SOL    HW226862   1.463   0.983   6.289  0.2795  0.6034  0.7317
 5076SOL     OW26863   1.369   0.194   7.309 -0.3180 -0.4267 -0.1213
 5076SOL    HW126864   1.296   0.178   7.370 -1.6464 -0.0289 -1.6056
 5076SOL    HW226865   1.333   0.243   7.235 -2.6148 -0.0957  1.2022
 5077SOL     OW26866   1.899   1.554   9.490  0.0936  0.1136  0.3645
 5077SOL    HW126867   1.912   1.646   9.468 -1.5094  0.4552  0.8321
 5077SOL    HW226868   1.907   1.515   9.403  0.2302  0.1291  0.3700
 5078SOL     OW26869   0.457   2.335   3.815 -0.1592  0.0353  0.2780
 5078SOL    HW126870   0.364   2.347   3.835 -0.5233 -0.7751 -0.8949
 5078SOL    HW226871   0.445   2.315   3.722 -0.4253 -0.0237  0.3237
 5079SOL     OW26872   4.334   2.913  12.621  0.2531 -0.6552 -0.0843
 5079SOL    HW126873   4.264   2.976  12.606  0.4734 -0.3551  0.1406
 5079SOL    HW226874   4.396   2.967  12.672  2.5057 -0.7643 -2.7076
 5080SOL     OW26875   3.040   2.649  17.657  0.1838  0.0861 -0.0065
 5080SOL    HW126876   3.044   2.572  17.712  2.5495  2.3612  3.0224
 5080SOL    HW226877   3.025   2.610  17.571  0.7616  0.3294 -0.2189
 5081SOL     OW26878   3.935   0.573   8.961  0.3283 -0.0161  0.5408
 5081SOL    HW126879   3.904   0.566   8.870 -0.6324  1.7174  0.7260
 5081SOL    HW226880   3.914   0.662   8.989  0.8170 -0.7516  3.1686
 5082SOL     OW26881   2.342   4.551   5.985 -0.3504  0.4203  0.0399
 5082SOL    HW126882   2.399   4.549   5.908  0.9797 -1.3137  1.0683
 5082SOL    HW226883   2.402   4.516   6.052  1.8883  0.8162 -1.7464
 5083SOL     OW26884   0.510   0.418   4.934  0.1769 -0.6478 -0.2386
 5083SOL    HW126885   0.543   0.474   5.004 -2.8727  1.6373 -0.6007
 5083SOL    HW226886   0.501   0.337   4.985 -2.8791 -0.1917 -0.0487
 5084SOL     OW26887   4.190   1.033   4.550  0.2172 -0.4041  0.2558
 5084SOL    HW126888   4.256   1.096   4.580  1.6032  0.0731 -3.7703
 5084SOL    HW226889   4.134   1.087   4.495 -0.9871 -0.2100  1.6789
 5085SOL     OW26890   0.868   3.262  16.078 -0.6797  0.0409 -0.1136
 5085SOL    HW126891   0.896   3.244  15.988 -2.6268 -1.1233 -0.4921
 5085SOL    HW226892   0.818   3.181  16.093 -0.0740 -1.0576 -3.8602
 5086SOL     OW26893   1.641   2.596   8.906 -0.0638  0.2315  0.2344
 5086SOL    HW126894   1.618   2.521   8.960  0.3829 -1.4039 -1.8484
 5086SOL    HW226895   1.653   2.659   8.977  0.4522  1.5665 -1.0172
 5087SOL     OW26896   3.760   1.650   5.073  0.4158  0.0588 -0.0629
 5087SOL    HW126897   3.705   1.608   5.138  1.6360 -0.3324  0.7164
 5087SOL    HW226898   3.792   1.727   5.121 -2.1064  0.8293  0.4008
 5088SOL     OW26899   2.806   0.159   2.329 -0.3531  0.4518  0.5469
 5088SOL    HW126900   2.891   0.119   2.347 -0.4404 -0.1908 -0.5082
 5088SOL    HW226901   2.820   0.173   2.236  1.9023  1.1068  0.9672
 5089SOL     OW26902   4.513   3.657   4.050  0.0270 -0.3059  0.0370
 5089SOL    HW126903   4.515   3.750   4.029  1.8012 -0.3239  0.1212
 5089SOL    HW226904   4.454   3.653   4.125 -0.1058 -0.4725 -0.0775
 5090SOL     OW26905   3.439   3.030   3.040 -0.7814 -0.0767 -0.0105
 5090SOL    HW126906   3.388   3.099   2.997 -0.2941  0.5471  0.4134
 5090SOL    HW226907   3.468   3.085   3.113 -1.7878 -1.1076  1.1654
 5091SOL     OW26908   3.855   2.939   7.694 -0.4277  0.4497  0.2914
 5091SOL    HW126909   3.912   3.009   7.663  0.0030 -0.7854 -1.7467
 5091SOL    HW226910   3.793   2.934   7.621 -0.0678  1.2967 -0.0679
 5092SOL     OW26911   1.809   0.567   4.700 -0.6206  0.0748  0.4872
 5092SOL    HW126912   1.777   0.490   4.747 -2.0484  0.1164 -0.4146
 5092SOL    HW226913   1.728   0.615   4.688 -0.0437  0.0761 -3.4341
 5093SOL     OW26914   0.847   1.574   9.347 -0.2647  0.3094  0.2607
 5093SOL    HW126915   0.920   1.549   9.290 -0.7063 -1.0846  0.2974
 5093SOL    HW226916   0.806   1.630   9.281  0.6487  0.0559 -0.5330
 5094SOL     OW26917   1.039   2.266   6.341 -0.5346 -0.0603 -0.0768
 5094SOL    HW126918   1.120   2.305   6.307  0.0879 -0.1648  1.2792
 5094SOL    HW226919   1.051   2.171   6.341  0.3138  0.0442  0.6341
 5095SOL     OW26920   1.569   4.356   3.220 -0.4728  0.4319 -0.2735
 5095SOL    HW126921   1.573   4.450   3.200  1.1300 -0.1361 -2.6148
 5095SOL    HW226922   1.644   4.319   3.173 -1.3317 -2.9495  1.0778
 5096SOL     OW26923   0.524   3.655   0.745 -0.2629  0.0545  0.2967
 5096SOL    HW126924   0.507   3.564   0.772  1.9572 -0.1221  1.1410
 5096SOL    HW226925   0.444   3.694   0.779 -0.1364  0.2590  0.3548
 5097SOL     OW26926   3.981   1.007   3.382 -0.4091  0.0153  0.1002
 5097SOL    HW126927   3.900   0.960   3.402  0.1777 -1.4957 -1.0591
 5097SOL    HW226928   4.043   0.939   3.407 -0.0465 -0.2636 -1.5478
 5098SOL     OW26929   4.166   4.492   1.855 -0.2183  0.1872 -0.1235
 5098SOL    HW126930   4.229   4.559   1.827 -1.1500  0.8011 -0.7480
 5098SOL    HW226931   4.096   4.502   1.790 -0.3773  0.6105  0.1103
 5099SOL     OW26932   1.142   3.215   8.856 -0.1671  0.0609 -0.1421
 5099SOL    HW126933   1.068   3.268   8.887 -1.8521 -1.1932 -2.0140
 5099SOL    HW226934   1.097   3.181   8.779  0.0028  0.5473 -0.4542
 5100SOL     OW26935   0.934   0.457   5.586  0.2319  0.0668 -0.1648
 5100SOL    HW126936   0.927   0.384   5.649 -1.5541  1.6667  1.4819
 5100SOL    HW226937   0.991   0.420   5.518 -1.1474 -0.8233 -0.8231
 5101SOL     OW26938   0.993   0.338   8.679  0.1517 -0.3946 -0.3575
 5101SOL    HW126939   1.058   0.339   8.749  0.7506  0.7815 -0.9338
 5101SOL    HW226940   1.048   0.363   8.605  0.8935  1.1541  0.7252
 5102SOL     OW26941   0.042   3.757   9.417  0.4017  0.3625 -0.1820
 5102SOL    HW126942   0.096   3.679   9.431  0.5081  0.7725  1.6539
 5102SOL    HW226943   0.016   3.781   9.506  4.5566 -0.3817  1.2166
 5103SOL     OW26944   3.018   0.734   6.448 -0.2011 -0.3231  0.0062
 5103SOL    HW126945   3.071   0.779   6.515 -0.2259  0.0934 -0.2506
 5103SOL    HW226946   2.944   0.794   6.450 -0.2790 -0.3482 -1.6989
 5104SOL     OW26947   0.732   2.897  17.402 -0.0662 -0.1035  0.2518
 5104SOL    HW126948   0.762   2.966  17.344 -0.3291  0.7636  1.1468
 5104SOL    HW226949   0.693   2.950  17.472 -1.0003  0.4281 -0.6789
 5105SOL     OW26950   2.339   1.489   7.396  0.1005 -0.0120 -0.2223
 5105SOL    HW126951   2.405   1.548   7.433 -0.7427 -0.2371  1.6078
 5105SOL    HW226952   2.391   1.410   7.383 -1.7266 -1.3129  0.4887
 5106SOL     OW26953   1.322   0.471   9.089 -0.0547  0.0104  0.1119
 5106SOL    HW126954   1.249   0.533   9.090 -0.9141 -0.9965  0.2403
 5106SOL    HW226955   1.346   0.464   9.181  0.3144  0.3184  0.0392
 5107SOL     OW26956   3.268   3.208   2.677  0.6445 -0.2644 -0.2109
 5107SOL    HW126957   3.231   3.121   2.660  0.3212 -0.1668 -0.0123
 5107SOL    HW226958   3.246   3.219   2.769  0.2451 -0.8852 -0.2312
 5108SOL     OW26959   2.854   3.522   4.047  0.2074  0.0761  0.3974
 5108SOL    HW126960   2.882   3.593   3.988 -0.4286 -0.5813 -0.7005
 5108SOL    HW226961   2.764   3.524   4.015  0.1032  0.6695  0.7167
 5109SOL     OW26962   3.728   3.530   0.510  0.5978 -0.4775 -0.7596
 5109SOL    HW126963   3.713   3.624   0.517  0.0479 -0.6941  0.9851
 5109SOL    HW226964   3.806   3.528   0.455  1.2402  1.1495  0.0999
 5110SOL     OW26965   1.500   1.264   4.827  0.2353 -0.0775 -0.2166
 5110SOL    HW126966   1.523   1.263   4.920 -0.6743  0.7308  0.0166
 5110SOL    HW226967   1.417   1.312   4.825  2.5378  3.7615 -2.1120
 5111SOL     OW26968   2.870   2.090   4.215  0.0564  0.1174 -0.5475
 5111SOL    HW126969   2.799   2.152   4.198 -2.0279 -2.6870 -1.9478
 5111SOL    HW226970   2.894   2.093   4.308  1.8589  1.2247 -1.0368
 5112SOL     OW26971   3.535   2.722   5.471 -0.5809  0.4272  0.6048
 5112SOL    HW126972   3.480   2.665   5.418  1.3465 -0.6569 -0.2226
 5112SOL    HW226973   3.479   2.721   5.549 -1.4332  1.4187  0.0011
 5113SOL     OW26974   3.317   1.251   7.179  0.2489 -0.1425 -0.5160
 5113SOL    HW126975   3.232   1.267   7.138 -0.2082  2.1448  1.3227
 5113SOL    HW226976   3.377   1.316   7.142  1.4910 -0.4032  1.0629
 5114SOL     OW26977   2.033   2.909   5.696  0.1266  0.0250  0.2233
 5114SOL    HW126978   1.966   2.950   5.642 -0.8655 -2.3591 -0.3823
 5114SOL    HW226979   2.030   2.818   5.666 -0.9794 -0.0232  0.4778
 5115SOL     OW26980   2.490   3.470   7.474  0.1304  0.4351  0.1650
 5115SOL    HW126981   2.489   3.409   7.400  0.5241  0.5721  0.0454
 5115SOL    HW226982   2.585   3.467   7.488  0.3432  4.9274 -0.2667
 5116SOL     OW26983   4.455   4.230   3.952  0.3845 -0.2467 -0.1419
 5116SOL    HW126984   4.372   4.266   3.984  0.9964 -0.2337  1.4226
 5116SOL    HW226985   4.482   4.295   3.887 -1.4430 -0.1445 -0.8201
 5117SOL     OW26986   0.732   3.153   5.414 -0.0366 -0.1492 -0.6528
 5117SOL    HW126987   0.639   3.176   5.405  0.0169  0.0821 -0.6211
 5117SOL    HW226988   0.740   3.093   5.488 -1.4029  1.6233  0.9321
 5118SOL     OW26989   2.415   3.214   6.810  0.3821 -0.6958 -0.0068
 5118SOL    HW126990   2.379   3.192   6.724  0.1592  0.6417 -0.2468
 5118SOL    HW226991   2.393   3.306   6.821  2.0218 -0.3347  0.3738
 5119SOL     OW26992   0.052   1.223   9.552  0.3534 -0.2387 -0.0185
 5119SOL    HW126993   0.027   1.136   9.521 -2.1331  0.6479 -0.4725
 5119SOL    HW226994   0.140   1.232   9.515  0.5587  2.6829  1.2043
 5120SOL     OW26995   3.973   0.206   3.797 -0.4091  0.3668  0.2766
 5120SOL    HW126996   4.025   0.268   3.745 -0.6924 -1.0797 -1.7366
 5120SOL    HW226997   3.975   0.248   3.883 -2.2792  0.5016  0.2612
 5121SOL     OW26998   3.693   4.106  11.940  0.6741 -0.4741 -0.5420
 5121SOL    HW126999   3.776   4.153  11.948  1.0456 -1.5151  1.6783
 5121SOL    HW227000   3.714   4.025  11.986  1.0776 -0.9891 -1.6205
 5122SOL     OW27001   3.477   0.220   5.695  0.2640  0.8409 -0.5655
 5122SOL    HW127002   3.470   0.271   5.614 -3.2009  2.0595  0.4879
 5122SOL    HW227003   3.399   0.165   5.688 -0.0494  1.0971  0.8181
 5123SOL     OW27004   1.566   4.202  16.218 -0.2470  0.1261 -0.1511
 5123SOL    HW127005   1.495   4.189  16.281 -0.0458  1.0512  0.2643
 5123SOL    HW227006   1.539   4.274  16.161 -1.0237 -0.4689 -0.5370
 5124SOL     OW27007   0.664   2.422   5.401 -0.9004 -0.1210 -0.5223
 5124SOL    HW127008   0.713   2.365   5.342  0.0753  0.4164 -0.2272
 5124SOL    HW227009   0.682   2.507   5.361 -0.7885  0.7004  1.2893
 5125SOL     OW27010   0.296   2.864   3.531  0.4339  0.1865 -0.9189
 5125SOL    HW127011   0.351   2.786   3.544  0.7862  1.0811  2.8108
 5125SOL    HW227012   0.349   2.894   3.457  0.6805 -2.4587 -1.8162
 5126SOL     OW27013   1.437   0.806  13.692  0.2601 -0.0367 -0.0117
 5126SOL    HW127014   1.404   0.772  13.609  1.5264  0.5423 -0.7550
 5126SOL    HW227015   1.361   0.807  13.750  0.6917 -1.4242  0.5923
 5127SOL     OW27016   1.010   3.912   9.524  0.6683  0.5744 -0.4422
 5127SOL    HW127017   1.066   3.874   9.592 -1.1513 -1.1308  0.1037
 5127SOL    HW227018   1.068   3.919   9.449  2.9173  1.4432  1.3750
 5128SOL     OW27019   2.807   3.120   7.390  0.1686  0.2107 -0.5212
 5128SOL    HW127020   2.865   3.158   7.456 -1.2662  2.7431 -0.7072
 5128SOL    HW227021   2.816   3.186   7.321 -2.1279  0.1806 -0.8453
 5129SOL     OW27022   1.881   2.295   5.835  0.1132  0.0782 -0.1780
 5129SOL    HW127023   1.792   2.265   5.816 -0.4125 -0.1486  2.6460
 5129SOL    HW227024   1.851   2.341   5.913 -1.1149  1.3434 -1.3863
 5130SOL     OW27025   0.735   3.827   9.597 -0.2304 -0.3611 -0.5218
 5130SOL    HW127026   0.801   3.896   9.590  1.2227 -1.6697  0.1597
 5130SOL    HW227027   0.668   3.884   9.635  0.6916 -0.5290  1.3674
 5131SOL     OW27028   1.784   0.003   3.845 -0.0710  0.2048  0.0156
 5131SOL    HW127029   1.805   4.672   3.782  0.7909  0.4880 -0.0131
 5131SOL    HW227030   1.745   4.687   3.913 -1.0085 -0.9386 -1.4131
 5132SOL     OW27031   3.930   2.730   3.132 -0.0363 -0.0328 -0.2377
 5132SOL    HW127032   3.878   2.809   3.149 -0.0284  0.0760 -0.7065
 5132SOL    HW227033   3.865   2.664   3.107  0.7005 -1.3120  1.2610
 5133SOL     OW27034   1.843   0.880   2.013  0.2167  0.1548  0.5760
 5133SOL    HW127035   1.890   0.948   2.062  0.5002  2.6748 -3.2470
 5133SOL    HW227036   1.805   0.834   2.087  0.2861 -1.3065 -0.3107
 5134SOL     OW27037   1.473   0.350  17.482 -0.1109  0.0748  0.1984
 5134SOL    HW127038   1.567   0.355  17.498 -0.0913  0.4156 -0.0290
 5134SOL    HW227039   1.431   0.434  17.465  1.0816  0.7051  0.3722
 5135SOL     OW27040   3.353   3.523   7.762 -0.3428  0.1214  0.3120
 5135SOL    HW127041   3.287   3.591   7.777 -1.2681 -0.7181  0.0726
 5135SOL    HW227042   3.431   3.546   7.812 -1.2226  2.0173  0.8256
 5136SOL     OW27043   3.483   4.639  17.481 -0.1181 -0.6084  0.2472
 5136SOL    HW127044   3.405   4.661  17.532 -1.2114 -0.7502 -1.3677
 5136SOL    HW227045   3.502   4.553  17.518 -2.8557 -1.6122 -0.6387
 5137SOL     OW27046   3.841   1.852   6.858 -0.2847 -0.0508 -0.0887
 5137SOL    HW127047   3.827   1.787   6.928 -0.3873  0.3789  0.2902
 5137SOL    HW227048   3.929   1.836   6.825 -0.5894  0.0050 -0.9165
 5138SOL     OW27049   2.670   2.711  17.471  0.2014 -0.4790 -0.0761
 5138SOL    HW127050   2.615   2.746  17.542  0.2884  1.2281 -0.8485
 5138SOL    HW227051   2.720   2.649  17.524  0.9231  0.4419  0.3253
 5139SOL     OW27052   1.872   0.776   5.395  0.2264 -0.2716  0.4874
 5139SOL    HW127053   1.947   0.826   5.362 -0.4137  0.6419  0.4309
 5139SOL    HW227054   1.822   0.742   5.321 -0.5469  1.5635  0.1635
 5140SOL     OW27055   3.369   2.608   7.379  0.2557  0.4924 -0.2210
 5140SOL    HW127056   3.448   2.556   7.395 -0.2900 -0.2626  0.0175
 5140SOL    HW227057   3.332   2.564   7.303  0.1975  0.4963 -0.1950
 5141SOL     OW27058   3.378   0.002   6.964  0.7938  0.3516 -0.1051
 5141SOL    HW127059   3.427   0.048   6.895  1.9345 -0.3750  0.2141
 5141SOL    HW227060   3.422   4.656   6.965  1.6794  0.8176  0.7417
 5142SOL     OW27061   1.087   2.351  12.070  0.4274  0.4723 -0.6413
 5142SOL    HW127062   1.135   2.302  12.137 -1.0646  0.2296  0.2268
 5142SOL    HW227063   1.144   2.428  12.063  0.1138  0.7033 -0.6756
 5143SOL     OW27064   2.115   2.101   4.693  0.3761  0.1660  0.1681
 5143SOL    HW127065   2.077   2.185   4.669 -1.4924 -1.0331 -1.0912
 5143SOL    HW227066   2.203   2.135   4.707  0.4409 -0.9435  2.3935
 5144SOL     OW27067   2.573   2.885   5.282 -0.0872  0.3581  0.1002
 5144SOL    HW127068   2.510   2.955   5.300 -1.5601 -0.5218 -1.6864
 5144SOL    HW227069   2.647   2.944   5.267 -0.7091  1.2537  0.5418
 5145SOL     OW27070   0.887   1.797  12.109  0.0865 -0.3577  0.3487
 5145SOL    HW127071   0.836   1.865  12.063 -1.1057 -0.9016  0.8502
 5145SOL    HW227072   0.826   1.758  12.171 -1.2609  0.5216 -0.3984
 5146SOL     OW27073   3.836   3.045  13.441  0.1341  0.2279 -0.6474
 5146SOL    HW127074   3.872   3.123  13.398  2.4344 -0.6087 -0.2380
 5146SOL    HW227075   3.897   3.027  13.513 -1.9519 -0.1748  1.0202
 5147SOL     OW27076   0.067   3.776   2.098 -0.5804 -0.3878  0.7079
 5147SOL    HW127077   0.158   3.797   2.120 -0.5968  0.4439 -0.0451
 5147SOL    HW227078   0.024   3.845   2.148 -1.1667 -0.8653  0.8591
 5148SOL     OW27079   4.289   2.224  14.364  0.7669  0.2088 -0.3618
 5148SOL    HW127080   4.248   2.207  14.449 -0.2071 -2.3945 -1.3508
 5148SOL    HW227081   4.324   2.311  14.380 -1.4730  1.1279 -0.5668
 5149SOL     OW27082   3.443   0.742   3.251 -0.5187 -0.5847 -0.5785
 5149SOL    HW127083   3.473   0.708   3.335 -1.1722  0.3436  0.0302
 5149SOL    HW227084   3.521   0.785   3.216  0.0423 -0.8119  0.4070
 5150SOL     OW27085   0.665   0.316   7.959  0.9335  0.0640 -0.2978
 5150SOL    HW127086   0.701   0.270   8.035  0.8871 -0.9623 -0.9023
 5150SOL    HW227087   0.741   0.299   7.902  1.3534 -4.2602  1.5103
 5151SOL     OW27088   3.124   0.135   2.843 -0.3236  0.5277  0.0203
 5151SOL    HW127089   3.051   0.074   2.855 -0.7643  1.3181  1.2511
 5151SOL    HW227090   3.087   0.214   2.882 -0.7357  0.2836  0.1216
 5152SOL     OW27091   0.769   0.618   7.380  0.5206 -0.1989 -0.1481
 5152SOL    HW127092   0.849   0.567   7.366  0.6915  0.4256 -1.4850
 5152SOL    HW227093   0.814   0.699   7.404  0.7555  0.2197 -1.9756
 5153SOL     OW27094   1.053   3.121  14.083 -0.9150  0.0868  0.2793
 5153SOL    HW127095   1.033   3.104  14.176 -2.9502  0.5165 -0.0739
 5153SOL    HW227096   0.980   3.076  14.041  0.1129 -0.7718 -0.5726
 5154SOL     OW27097   1.312   1.208  12.357  0.4953 -0.3944  0.3737
 5154SOL    HW127098   1.374   1.188  12.286 -1.2219  0.6807 -1.4243
 5154SOL    HW227099   1.324   1.303  12.365  0.6427 -0.6823  3.5037
 5155SOL     OW27100   4.159   4.629   2.939 -0.3561 -0.6010  0.3564
 5155SOL    HW127101   4.147   4.598   2.849  0.1008  3.4392 -1.0665
 5155SOL    HW227102   4.066   4.623   2.963 -0.6398 -0.0887 -0.5861
 5156SOL     OW27103   4.158   0.198  16.178 -0.1718  0.0204 -0.1412
 5156SOL    HW127104   4.206   0.134  16.231  0.2327  0.8288  0.4632
 5156SOL    HW227105   4.221   0.270  16.180  1.0260 -1.1373  2.7800
 5157SOL     OW27106   2.948   4.048   8.546  0.6198 -0.2475  0.5174
 5157SOL    HW127107   2.937   4.131   8.591 -0.8025 -1.0862  1.7273
 5157SOL    HW227108   2.906   4.064   8.462  3.9673  2.4936 -0.6147
 5158SOL     OW27109   4.058   3.987   8.037  0.5005  0.6636  1.1508
 5158SOL    HW127110   4.066   3.899   8.075 -0.5074 -0.0076 -0.2127
 5158SOL    HW227111   3.965   4.001   8.055  0.3417  2.2420 -0.9886
 5159SOL     OW27112   4.663   0.101   5.378  0.3479  0.1980 -0.3255
 5159SOL    HW127113   0.000   0.061   5.336  1.1191  1.2211  0.0850
 5159SOL    HW227114   4.620   0.156   5.313 -0.1457  0.8376  0.5391
 5160SOL     OW27115   3.513   1.554   1.499  0.1588 -0.4387 -0.0018
 5160SOL    HW127116   3.539   1.538   1.590  0.4019  0.1721  0.0377
 5160SOL    HW227117   3.596   1.584   1.462  1.3374 -0.9608  2.2213
 5161SOL     OW27118   4.381   0.964  11.454 -0.1930  0.2713  0.3550
 5161SOL    HW127119   4.454   0.925  11.405  0.0889  0.9373  0.2524
 5161SOL    HW227120   4.384   1.052  11.417 -3.3277  0.4011  0.4054
 5162SOL     OW27121   3.527   1.282   7.980  0.3635  0.4160  0.0674
 5162SOL    HW127122   3.538   1.197   7.937  1.7868  0.0802  1.0961
 5162SOL    HW227123   3.549   1.264   8.072 -1.0706 -0.9556  0.1358
 5163SOL     OW27124   2.458   1.206   5.117  0.2768  0.3181 -0.3638
 5163SOL    HW127125   2.431   1.284   5.068 -1.4199  0.3259  0.5922
 5163SOL    HW227126   2.490   1.257   5.192 -3.4014  1.6784  0.2994
 5164SOL     OW27127   4.253   4.435   1.502  0.3922  0.4506  0.0904
 5164SOL    HW127128   4.167   4.447   1.542  0.0229 -0.8471 -0.3275
 5164SOL    HW227129   4.259   4.510   1.443 -0.3413 -1.4446 -2.3846
 5165SOL     OW27130   3.646   0.476   2.392  0.1721  0.0406 -0.3426
 5165SOL    HW127131   3.681   0.508   2.309 -1.7265 -2.7323 -2.1571
 5165SOL    HW227132   3.571   0.534   2.402 -0.0023 -0.3263  0.4949
 5166SOL     OW27133   0.156   2.532   4.788  0.0206  0.1435  0.4848
 5166SOL    HW127134   0.236   2.486   4.810  0.5859  1.6084  1.4992
 5166SOL    HW227135   0.193   2.588   4.720  0.4091 -0.3956  0.2604
 5167SOL     OW27136   0.037   3.474   8.772  0.2515 -0.2078 -0.0536
 5167SOL    HW127137   0.001   3.429   8.696  2.1443  0.2596 -1.2035
 5167SOL    HW227138   4.731   3.558   8.762  2.4696  1.2117  2.0012
 5168SOL     OW27139   4.302   3.416   3.408  0.1253  1.0139  0.7244
 5168SOL    HW127140   4.355   3.407   3.487  2.4264 -2.2250 -1.1607
 5168SOL    HW227141   4.258   3.331   3.405  0.3908  0.9479 -1.2961
 5169SOL     OW27142   0.971   3.386   8.977  0.8197 -0.1035 -0.0447
 5169SOL    HW127143   1.027   3.457   9.010  1.8191 -1.1187  0.4317
 5169SOL    HW227144   0.911   3.434   8.919  2.3227  0.9752 -0.7101
 5170SOL     OW27145   0.104   2.285   8.760  0.0196 -0.7248  0.1806
 5170SOL    HW127146   0.146   2.345   8.821 -2.7030  3.0672 -1.6995
 5170SOL    HW227147   0.114   2.325   8.674 -2.3572  0.7095  0.5789
 5171SOL     OW27148   3.947   0.339   1.523  0.5086  0.8191 -0.2719
 5171SOL    HW127149   3.864   0.295   1.506  0.7767  0.4142 -0.5581
 5171SOL    HW227150   3.979   0.382   1.443  5.0003 -1.0630  0.4837
 5172SOL     OW27151   4.233   1.302   1.965 -0.4714  0.3737 -0.6851
 5172SOL    HW127152   4.293   1.252   1.909 -0.9116  0.0669 -0.8837
 5172SOL    HW227153   4.163   1.313   1.901 -1.0903  0.5769  0.0264
 5173SOL     OW27154   3.695   3.855   7.388 -0.0968 -0.2326 -0.3747
 5173SOL    HW127155   3.674   3.815   7.473 -1.0859  1.5853  0.2419
 5173SOL    HW227156   3.647   3.937   7.381  2.1229  0.7606 -3.4589
 5174SOL     OW27157   3.586   3.475   9.439 -0.6272  0.3249 -0.6633
 5174SOL    HW127158   3.631   3.403   9.483 -0.3777  0.5443 -0.5573
 5174SOL    HW227159   3.644   3.497   9.366  0.2409 -0.5260 -0.2287
 5175SOL     OW27160   4.108   0.231   7.050  0.2949  0.6343  0.0793
 5175SOL    HW127161   4.161   0.152   7.040  0.0080  0.4478  0.0365
 5175SOL    HW227162   4.178   0.296   7.042  1.8378 -1.0238  0.1199
 5176SOL     OW27163   1.210   2.101   2.235 -0.2478  0.4508  0.7127
 5176SOL    HW127164   1.176   2.042   2.302 -2.0236 -1.1236 -1.6176
 5176SOL    HW227165   1.161   2.064   2.162  1.4298  0.0975 -0.2484
 5177SOL     OW27166   2.770   3.308   6.973  0.2110  0.4549  0.0654
 5177SOL    HW127167   2.803   3.295   7.062  1.0832  0.6845 -0.2269
 5177SOL    HW227168   2.682   3.273   6.987  0.6520 -0.1520  1.3707
 5178SOL     OW27169   1.460   1.623   4.857 -0.3819 -0.3191  0.3636
 5178SOL    HW127170   1.442   1.613   4.950  1.1640 -1.0034  0.5930
 5178SOL    HW227171   1.423   1.711   4.851  0.9253  0.3193  1.5722
 5179SOL     OW27172   2.530   3.871  12.760  0.1239 -0.4313 -0.2754
 5179SOL    HW127173   2.572   3.799  12.807 -0.1101  0.2417  0.9634
 5179SOL    HW227174   2.443   3.880  12.799  0.0714  2.2971 -1.0501
 5180SOL     OW27175   3.847   0.888   2.975  0.1672  0.2054 -0.4291
 5180SOL    HW127176   3.779   0.944   2.938 -0.7920  0.6697  2.0634
 5180SOL    HW227177   3.791   0.837   3.033  0.3871 -0.1047 -0.4848
 5181SOL     OW27178   3.237   0.144   5.172 -0.5119 -0.2757 -0.0746
 5181SOL    HW127179   3.333   0.149   5.174 -0.4425 -1.2077 -1.2715
 5181SOL    HW227180   3.213   0.177   5.259 -0.9655  1.0871 -0.7128
 5182SOL     OW27181   2.683   1.064   7.669 -0.4202 -0.1077  0.0389
 5182SOL    HW127182   2.735   1.063   7.589 -0.9691 -0.1310 -0.3217
 5182SOL    HW227183   2.701   1.147   7.711 -1.5632  0.0082  0.3165
 5183SOL     OW27184   1.473   0.303  10.851 -0.6893 -0.6766 -0.3284
 5183SOL    HW127185   1.401   0.364  10.866 -0.5229 -0.4433 -0.4721
 5183SOL    HW227186   1.429   0.224  10.883 -2.8042  0.8487  0.4757
 5184SOL     OW27187   3.953   4.709   8.511  0.7156  0.0679 -0.2742
 5184SOL    HW127188   3.948   4.635   8.571  1.3366 -1.0038 -1.5302
 5184SOL    HW227189   3.963   0.043   8.573  0.5019  0.0260 -0.1920
 5185SOL     OW27190   3.559   0.637   6.916 -0.2186 -0.1544  0.1079
 5185SOL    HW127191   3.613   0.623   6.993 -0.1624 -1.1082 -0.1052
 5185SOL    HW227192   3.618   0.677   6.851  0.6244 -0.7030  0.5375
 5186SOL     OW27193   3.803   1.559   8.484 -0.0386 -0.2013  0.0631
 5186SOL    HW127194   3.814   1.546   8.579 -1.0383  1.7891  0.4523
 5186SOL    HW227195   3.859   1.635   8.469  1.1123 -0.7691  1.4472
 5187SOL     OW27196   2.229   4.403   9.569  0.7618  0.0983  0.1437
 5187SOL    HW127197   2.314   4.362   9.586  0.6227  0.9824  2.8410
 5187SOL    HW227198   2.245   4.461   9.494  1.2449 -0.3742 -0.1174
 5188SOL     OW27199   2.388   2.356  15.432 -0.4032 -0.3966 -0.1516
 5188SOL    HW127200   2.415   2.380  15.520 -1.2106  0.4501 -0.1350
 5188SOL    HW227201   2.361   2.265  15.447 -0.5625 -0.3992 -0.4540
 5189SOL     OW27202   4.492   4.222   4.903 -0.0477  0.9530 -0.1535
 5189SOL    HW127203   4.500   4.305   4.951  0.2713 -0.0484  1.5336
 5189SOL    HW227204   4.543   4.160   4.956  0.2733  0.7183 -0.7331
 5190SOL     OW27205   0.131   1.509   9.306  0.5008  0.3355 -0.1111
 5190SOL    HW127206   0.075   1.460   9.366  1.6678 -1.2141 -0.2900
 5190SOL    HW227207   0.112   1.600   9.331  0.4088  0.4093 -0.4369
 5191SOL     OW27208   2.945   0.646   3.629  0.0855 -0.1335  0.0050
 5191SOL    HW127209   3.033   0.675   3.608 -0.0244  1.2032  1.4585
 5191SOL    HW227210   2.921   0.682   3.714 -0.2939 -2.0745  0.7369
 5192SOL     OW27211   0.862   3.051   5.908  0.2744 -0.3996  0.0015
 5192SOL    HW127212   0.841   3.141   5.883  2.7356  0.0489 -0.4496
 5192SOL    HW227213   0.784   2.997   5.893  0.5291 -0.2075 -2.0839
 5193SOL     OW27214   2.647   0.928   3.282  0.1308 -0.3830 -0.4873
 5193SOL    HW127215   2.732   0.972   3.295 -0.1976  0.2341 -0.4380
 5193SOL    HW227216   2.639   0.865   3.353 -0.4155 -1.9548 -1.9638
 5194SOL     OW27217   3.059   4.340   9.127  0.0124 -0.6311  0.4791
 5194SOL    HW127218   2.998   4.371   9.060 -2.3204 -0.5190  2.6342
 5194SOL    HW227219   3.039   4.247   9.137  1.5448 -0.8158  1.9056
 5195SOL     OW27220   2.279   4.626   8.133 -0.3977 -0.6861 -0.1096
 5195SOL    HW127221   2.283   4.550   8.192  1.0088 -1.0035 -0.6169
 5195SOL    HW227222   2.245   4.579   8.057 -0.2959 -0.3934 -0.3342
 5196SOL     OW27223   2.340   1.808   2.213 -1.1085  0.2626  0.4237
 5196SOL    HW127224   2.288   1.853   2.147 -0.6267 -0.0677 -0.1776
 5196SOL    HW227225   2.349   1.885   2.268  0.3261 -0.5581  1.3412
 5197SOL     OW27226   3.730   1.119  16.878 -0.2987  0.1846  0.2006
 5197SOL    HW127227   3.805   1.178  16.872  1.2083 -1.8040 -0.7234
 5197SOL    HW227228   3.691   1.132  16.965  0.6862  2.0975  0.3392
 5198SOL     OW27229   2.886   4.141  16.249 -0.0345  0.0827  0.6227
 5198SOL    HW127230   2.910   4.049  16.266 -0.9052 -0.4776 -1.1900
 5198SOL    HW227231   2.866   4.176  16.336  1.2599 -0.4166  1.1372
 5199SOL     OW27232   3.900   4.244   0.392 -0.1843 -0.2662  0.4478
 5199SOL    HW127233   3.903   4.339   0.380 -0.0167 -0.1577  1.3065
 5199SOL    HW227234   3.965   4.236   0.323  0.7886  2.1975  1.0704
 5200SOL     OW27235   4.069   0.141  16.818 -0.6204  0.4083 -0.0040
 5200SOL    HW127236   4.035   0.150  16.907  0.1586  1.4066  0.1971
 5200SOL    HW227237   4.030   0.220  16.780 -1.0559 -0.6341 -1.7340
 5201SOL     OW27238   0.614   2.865   4.912  0.3089  0.1458 -0.5323
 5201SOL    HW127239   0.665   2.902   4.984 -2.3172  0.8542  0.9564
 5201SOL    HW227240   0.636   2.773   4.925  0.4512  0.1687 -0.6124
 5202SOL     OW27241   4.449   0.825   7.776  0.3296 -0.1587 -0.4788
 5202SOL    HW127242   4.412   0.749   7.822 -0.5465  0.1954 -0.5888
 5202SOL    HW227243   4.501   0.868   7.844  2.0822  1.5275 -2.8839
 5203SOL     OW27244   2.406   4.031  16.666 -0.1300 -0.2541  0.8819
 5203SOL    HW127245   2.326   4.059  16.621  1.5845 -0.3322 -2.2259
 5203SOL    HW227246   2.462   4.108  16.653 -0.6092 -0.0197  0.1727
 5204SOL     OW27247   1.211   0.441   1.668  0.4028 -0.7368 -0.1267
 5204SOL    HW127248   1.206   0.533   1.643  0.6220  0.3469  3.8116
 5204SOL    HW227249   1.303   0.449   1.695  0.4573 -0.7165 -0.3169
 5205SOL     OW27250   3.225   1.382  11.453  0.1565 -0.5637 -0.3217
 5205SOL    HW127251   3.278   1.364  11.530 -0.1243 -0.0098 -0.0042
 5205SOL    HW227252   3.247   1.475  11.444 -0.4692 -0.4442 -0.6804
 5206SOL     OW27253   1.629   4.157   1.625  0.5711  0.6339 -0.3222
 5206SOL    HW127254   1.722   4.138   1.637  0.7471  0.2206 -2.3553
 5206SOL    HW227255   1.610   4.217   1.697 -0.9226 -0.3868  0.1318
 5207SOL     OW27256   2.858   2.702   6.418  0.4485 -0.0718  0.4338
 5207SOL    HW127257   2.922   2.694   6.488  1.1175  2.3026  0.1269
 5207SOL    HW227258   2.915   2.671   6.347 -0.0227  1.4405 -0.6234
 5208SOL     OW27259   1.228   3.303   4.702 -0.6320  0.1041 -0.0145
 5208SOL    HW127260   1.171   3.378   4.722  1.9666  2.3040 -0.8837
 5208SOL    HW227261   1.312   3.331   4.738  0.1690 -0.0690 -1.7559
 5209SOL     OW27262   0.063   2.427   4.375  0.8486  0.2915 -0.2090
 5209SOL    HW127263   4.730   2.364   4.367 -0.2104  1.4720  0.0262
 5209SOL    HW227264   0.123   2.391   4.440 -0.8944 -2.2221  0.0274
 5210SOL     OW27265   3.408   1.501   7.881 -0.1008  0.2211  0.7339
 5210SOL    HW127266   3.419   1.463   7.794  0.5119  1.5710  0.2199
 5210SOL    HW227267   3.472   1.442   7.920  1.3106  0.9292 -0.5104
 5211SOL     OW27268   0.727   2.667  17.710 -0.1034  0.3083 -0.0515
 5211SOL    HW127269   0.635   2.691  17.719 -0.4276 -0.3084 -1.8714
 5211SOL    HW227270   0.724   2.594  17.648 -2.1266  0.8142 -0.5367
 5212SOL     OW27271   3.396   0.762  17.718 -0.2438 -0.3550 -0.0533
 5212SOL    HW127272   3.329   0.807  17.666  1.1339  2.9501  1.0551
 5212SOL    HW227273   3.363   0.783   0.053 -1.2362 -0.0243 -0.5015
 5213SOL     OW27274   0.708   1.298   3.939  0.3600  0.5317  0.0324
 5213SOL    HW127275   0.700   1.340   4.024  0.8806  0.1038  0.2934
 5213SOL    HW227276   0.649   1.223   3.948  1.9075 -0.5061  1.5689
 5214SOL     OW27277   3.333   2.041  12.405  0.4504 -0.3438 -0.5632
 5214SOL    HW127278   3.360   2.049  12.313  2.3020 -0.1158 -0.0117
 5214SOL    HW227279   3.366   2.124  12.438 -3.0670  1.4705 -1.6329
 5215SOL     OW27280   0.037   2.761   3.500  0.4683 -0.1766  0.5383
 5215SOL    HW127281   4.737   2.848   3.483 -1.2703 -1.0365  0.0420
 5215SOL    HW227282   0.112   2.785   3.554  0.2826  0.3550  0.5624
 5216SOL     OW27283   4.056   4.690   3.712 -0.1193  0.7969  0.1865
 5216SOL    HW127284   4.042   0.022   3.775  1.9122  2.4761 -1.2675
 5216SOL    HW227285   4.015   4.721   3.631 -1.3475 -0.0091  0.4913
 5217SOL     OW27286   1.296   3.150   2.880 -0.3463 -0.0425 -0.3046
 5217SOL    HW127287   1.380   3.168   2.923  0.0967  1.1495 -1.6453
 5217SOL    HW227288   1.230   3.163   2.948  0.5507  0.4522  0.4724
 5218SOL     OW27289   1.274   2.358   2.334 -0.1324  0.1170 -0.1114
 5218SOL    HW127290   1.256   2.275   2.289  0.7646  0.3707 -0.9480
 5218SOL    HW227291   1.196   2.409   2.312  1.7456  2.1035 -2.1513
 5219SOL     OW27292   1.737   2.690  12.881 -0.1354 -0.6873 -0.0398
 5219SOL    HW127293   1.695   2.697  12.795 -0.0466  0.8383  0.0533
 5219SOL    HW227294   1.830   2.693  12.860 -0.0203  1.8574  0.9125
 5220SOL     OW27295   0.705   2.448   4.396 -0.0101 -0.1918  0.1099
 5220SOL    HW127296   0.754   2.500   4.460 -2.0171  2.1397 -0.2305
 5220SOL    HW227297   0.717   2.498   4.316 -0.7143 -0.5943 -0.2442
 5221SOL     OW27298   0.236   3.028   5.848 -0.2791 -0.1081 -0.5398
 5221SOL    HW127299   0.220   3.024   5.754 -1.1344  0.1494 -0.4133
 5221SOL    HW227300   0.191   3.105   5.885  1.4111  0.6474 -0.0445
 5222SOL     OW27301   3.719   0.493  12.858  0.0205  0.3722  0.4051
 5222SOL    HW127302   3.780   0.432  12.817 -2.0730 -0.5553 -1.3216
 5222SOL    HW227303   3.776   0.538  12.920  1.2418  1.8563 -1.7719
 5223SOL     OW27304   0.628   3.381   5.231 -0.2921 -0.0196 -0.1979
 5223SOL    HW127305   0.633   3.361   5.138 -0.9464 -1.3209  0.0410
 5223SOL    HW227306   0.667   3.303   5.271 -0.6970  1.0546  2.2774
 5224SOL     OW27307   0.673   3.981  16.438  0.1856  0.3059 -0.1301
 5224SOL    HW127308   0.675   4.056  16.498 -1.0340 -0.4788  0.9005
 5224SOL    HW227309   0.765   3.986  16.412  0.7152 -2.7232  1.1723
 5225SOL     OW27310   0.460   4.107   0.949 -0.0192  0.1420  0.7767
 5225SOL    HW127311   0.390   4.156   0.905 -2.3146 -1.1877  2.9388
 5225SOL    HW227312   0.512   4.073   0.875 -0.1592 -1.0047  1.2102
 5226SOL     OW27313   2.689   0.670   4.940  0.5485  0.7808 -0.1783
 5226SOL    HW127314   2.701   0.584   4.900 -2.1469  0.0645  0.5955
 5226SOL    HW227315   2.766   0.672   4.996  0.2225  1.6275  0.2434
 5227SOL     OW27316   0.150   0.243   8.738 -0.1590  0.1119  0.0248
 5227SOL    HW127317   0.177   0.169   8.792  0.1981 -0.3468 -0.7825
 5227SOL    HW227318   0.215   0.306   8.769 -2.4380  2.6827 -0.4466
 5228SOL     OW27319   1.399   1.780  12.520  0.1986 -0.5029  0.0486
 5228SOL    HW127320   1.454   1.846  12.563  2.0446 -2.1000  0.1346
 5228SOL    HW227321   1.330   1.769  12.585 -1.0550  0.3488 -1.1431
 5229SOL     OW27322   3.470   1.405   7.648  0.0789  0.3039  0.4540
 5229SOL    HW127323   3.493   1.313   7.637  1.0197  0.7004 -0.8961
 5229SOL    HW227324   3.432   1.429   7.563 -2.0082  1.8661  1.8398
 5230SOL     OW27325   2.153   3.145   5.290  0.4353 -0.4120 -0.9244
 5230SOL    HW127326   2.138   3.104   5.205 -0.5593  1.0793 -1.4606
 5230SOL    HW227327   2.153   3.239   5.273 -0.7788 -0.6661 -2.3590
 5231SOL     OW27328   2.463   1.377   6.014  0.0565  0.2682  0.2191
 5231SOL    HW127329   2.496   1.423   6.091 -1.0940 -1.1147  1.5291
 5231SOL    HW227330   2.494   1.429   5.940  0.0117  0.8728  0.6276
 5232SOL     OW27331   3.798   4.207   0.847 -0.2826 -0.0185  0.0185
 5232SOL    HW127332   3.777   4.219   0.939 -0.5005  0.0722 -0.0416
 5232SOL    HW227333   3.843   4.290   0.830 -0.6606  0.2215  0.2009
 5233SOL     OW27334   1.572   3.033  12.440 -0.2049  0.3623  0.2313
 5233SOL    HW127335   1.590   3.018  12.533 -1.5268 -1.1936  0.2365
 5233SOL    HW227336   1.477   3.045  12.443  0.1780  3.4695  0.4296
 5234SOL     OW27337   0.789   3.675   2.362 -0.2138  0.0968 -0.3946
 5234SOL    HW127338   0.881   3.689   2.339  0.2364 -1.5763  0.4308
 5234SOL    HW227339   0.795   3.657   2.456 -0.2593 -0.7260 -0.5566
 5235SOL     OW27340   2.006   4.207   3.481  0.1690  0.3995  0.6375
 5235SOL    HW127341   1.911   4.201   3.491  0.0860 -0.9167 -1.0301
 5235SOL    HW227342   2.034   4.121   3.513 -0.4428  0.2078  0.6572
 5236SOL     OW27343   0.330   1.548  17.614  0.0838 -0.7292  0.2496
 5236SOL    HW127344   0.356   1.616  17.551 -1.5529  0.5607  0.9884
 5236SOL    HW227345   0.302   1.602  17.688  0.7190 -0.0430 -0.0102
 5237SOL     OW27346   1.531   1.828   7.340  0.3169 -0.8202  0.0488
 5237SOL    HW127347   1.587   1.902   7.365 -2.3080  0.7287  1.2986
 5237SOL    HW227348   1.445   1.868   7.350 -0.2430 -1.7255 -1.0957
 5238SOL     OW27349   3.313   1.496   3.704 -0.2105  0.4193  0.1138
 5238SOL    HW127350   3.266   1.421   3.668 -1.3180  1.4435 -0.5779
 5238SOL    HW227351   3.384   1.524   3.646 -0.8531  2.1745  0.1932
 5239SOL     OW27352   3.502   2.225   3.074  0.1434  0.1650  0.1312
 5239SOL    HW127353   3.529   2.316   3.078  0.5238  0.0401  0.3624
 5239SOL    HW227354   3.526   2.196   3.161  1.4521  1.9878  0.3599
 5240SOL     OW27355   4.627   1.940  14.098 -0.5922 -0.1592  0.7444
 5240SOL    HW127356   4.595   1.871  14.040 -0.7242 -1.2476  2.1200
 5240SOL    HW227357   4.545   1.976  14.132  0.3237  3.7279 -1.1835
 5241SOL     OW27358   2.210   0.933  11.067 -0.0725 -0.4063  0.5051
 5241SOL    HW127359   2.165   0.987  11.132  3.1083  0.8378  1.6832
 5241SOL    HW227360   2.252   0.863  11.117 -0.4491  0.1118  1.5310
 5242SOL     OW27361   3.252   4.443  16.535 -0.3547 -0.0383 -0.0536
 5242SOL    HW127362   3.222   4.494  16.460  0.3388 -0.4131 -0.5804
 5242SOL    HW227363   3.292   4.365  16.496  2.5096  1.6904 -0.5614
 5243SOL     OW27364   1.639   2.086   3.598  0.5179 -0.2743 -0.5145
 5243SOL    HW127365   1.597   2.121   3.676  2.2121 -0.0957  0.3126
 5243SOL    HW227366   1.662   2.164   3.548 -0.2768  1.4343  1.8109
 5244SOL     OW27367   2.641   0.005   6.800 -0.4102 -0.4708 -1.0197
 5244SOL    HW127368   2.667   0.011   6.707  1.6969  1.5410 -0.3096
 5244SOL    HW227369   2.715   4.698   6.841 -2.0039 -0.2322  2.0753
 5245SOL     OW27370   1.495   1.089  17.566  0.0783 -0.1009  0.3627
 5245SOL    HW127371   1.481   1.176  17.604  0.7261 -0.0974  0.5813
 5245SOL    HW227372   1.525   1.040  17.642  0.2282  0.1106  0.4406
 5246SOL     OW27373   4.729   2.357   7.010  0.1688  0.3829  0.3006
 5246SOL    HW127374   0.027   2.305   6.938 -0.3638  0.5912 -0.1230
 5246SOL    HW227375   4.718   2.445   6.974  0.8472  0.4462  0.2493
 5247SOL     OW27376   3.394   2.682  13.838 -0.3641  0.0207 -0.2093
 5247SOL    HW127377   3.476   2.721  13.869 -0.9549  0.8004  0.3616
 5247SOL    HW227378   3.370   2.732  13.759 -0.7271  1.4722  0.8073
 5248SOL     OW27379   2.542   0.082   2.138 -0.1886 -0.0320 -0.3253
 5248SOL    HW127380   2.549   0.105   2.230 -0.6553  0.1773 -0.3419
 5248SOL    HW227381   2.464   0.133   2.115 -0.7945  0.6810  3.4227
 5249SOL     OW27382   4.126   2.289  16.475 -0.1559  0.5436 -0.2135
 5249SOL    HW127383   4.174   2.363  16.437  2.1732 -0.7525  0.2398
 5249SOL    HW227384   4.067   2.341  16.530  1.5935  0.4728  1.7220
 5250SOL     OW27385   0.285   3.048   3.745  0.0256 -0.2578 -0.0999
 5250SOL    HW127386   0.295   2.994   3.666  2.3470 -1.4907  1.0450
 5250SOL    HW227387   0.370   3.082   3.774  1.2072 -0.2408 -3.5707
 5251SOL     OW27388   4.290   0.306  15.818 -0.4261  0.4993  0.2811
 5251SOL    HW127389   4.236   0.359  15.875 -1.9579 -2.5326  1.6366
 5251SOL    HW227390   4.240   0.312  15.736  1.9476  2.6809 -0.9876
 5252SOL     OW27391   2.635   4.226   3.161  0.1463 -0.1135 -0.2120
 5252SOL    HW127392   2.610   4.284   3.233 -1.0676 -1.1960  0.2453
 5252SOL    HW227393   2.603   4.272   3.084 -0.3331  2.7344  1.6725
 5253SOL     OW27394   3.159   1.202   4.997 -0.4784 -0.2702  0.5093
 5253SOL    HW127395   3.217   1.163   5.063  0.1821 -0.5912 -0.2591
 5253SOL    HW227396   3.219   1.261   4.951 -0.9762  1.1977  1.7496
 5254SOL     OW27397   4.038   4.629  11.366  0.2599  0.3031  0.3146
 5254SOL    HW127398   3.992   4.597  11.288 -0.1779 -1.2809  1.2129
 5254SOL    HW227399   4.072   4.715  11.340  0.6286 -0.0596 -0.3998
 5255SOL     OW27400   2.612   2.880   5.571  0.4552 -0.6644 -0.3413
 5255SOL    HW127401   2.610   2.878   5.476  1.7085 -0.8672 -0.3662
 5255SOL    HW227402   2.518   2.880   5.589  0.0778  1.7481 -2.2538
 5256SOL     OW27403   3.690   0.186   1.741 -0.1497 -0.3210 -0.2984
 5256SOL    HW127404   3.594   0.194   1.735 -0.1846  0.2177  1.1799
 5256SOL    HW227405   3.719   0.275   1.720 -2.7399  1.2723  2.8548
 5257SOL     OW27406   0.126   3.170  17.352  0.5052  0.4723  0.2364
 5257SOL    HW127407   0.192   3.143  17.289 -1.1299  0.3049 -1.3981
 5257SOL    HW227408   0.085   3.248  17.314 -2.6121 -1.5720 -0.6273
 5258SOL     OW27409   0.190   3.655  10.998 -0.4186 -0.5525 -0.1542
 5258SOL    HW127410   0.228   3.721  10.939  1.3221  0.1344  1.7238
 5258SOL    HW227411   0.100   3.687  11.000  0.2054  1.1763  0.5100
 5259SOL     OW27412   4.536   2.234   7.833  0.1877 -0.0797 -0.5092
 5259SOL    HW127413   4.606   2.184   7.876 -0.8505 -0.7213  0.4336
 5259SOL    HW227414   4.510   2.304   7.893 -2.1298 -0.4787 -1.0570
 5260SOL     OW27415   1.825   4.629   8.444  0.1717  0.1868 -0.2238
 5260SOL    HW127416   1.799   4.583   8.524  2.6520 -0.9270 -0.0350
 5260SOL    HW227417   1.865   4.555   8.399  0.9757  1.5183 -1.6978
 5261SOL     OW27418   2.242   3.257   9.481  0.2503  0.0819 -0.7339
 5261SOL    HW127419   2.228   3.297   9.567  0.3192 -2.2574  0.3420
 5261SOL    HW227420   2.168   3.291   9.431  0.4083  2.8767  0.9404
 5262SOL     OW27421   2.489   2.296   0.775 -0.1002 -0.3175 -0.5687
 5262SOL    HW127422   2.455   2.385   0.765 -1.3378 -0.7457 -0.1361
 5262SOL    HW227423   2.408   2.246   0.783 -0.3988  0.3101  0.3728
 5263SOL     OW27424   1.184   0.017  15.496  0.7596  0.0704  0.3835
 5263SOL    HW127425   1.262   0.061  15.461  1.1358  2.2321  3.9025
 5263SOL    HW227426   1.118   0.077  15.462  1.2481 -0.3720 -1.3552
 5264SOL     OW27427   1.552   0.683  11.742 -0.4126  0.3141  0.0838
 5264SOL    HW127428   1.583   0.639  11.821 -0.5766 -0.1871 -0.1326
 5264SOL    HW227429   1.585   0.773  11.753 -0.0202  0.2191 -0.3145
 5265SOL     OW27430   2.296   1.914   3.540  0.0002 -0.2168  0.2182
 5265SOL    HW127431   2.214   1.957   3.563  0.2923  0.3464  0.2157
 5265SOL    HW227432   2.319   1.966   3.463  1.7079 -0.6088  0.4514
 5266SOL     OW27433   4.254   2.402   4.481  0.3977 -0.2830  0.0737
 5266SOL    HW127434   4.333   2.348   4.486 -1.0635 -2.5065 -0.6373
 5266SOL    HW227435   4.201   2.369   4.554 -1.5309  1.1435 -0.7018
 5267SOL     OW27436   4.503   4.620   8.493 -0.3312  0.1606  0.0869
 5267SOL    HW127437   4.569   4.575   8.547  0.5898 -1.9064 -2.7504
 5267SOL    HW227438   4.558   4.691   8.458 -0.2254 -0.7014 -1.5199
 5268SOL     OW27439   1.861   0.856   4.703 -0.1585 -0.3688 -0.3557
 5268SOL    HW127440   1.830   0.918   4.768 -1.0945 -2.3030  1.0606
 5268SOL    HW227441   1.789   0.798   4.675  0.7462 -1.8336  0.3658
 5269SOL     OW27442   4.211   2.671   9.000  0.0049  0.1744  0.0712
 5269SOL    HW127443   4.275   2.602   9.019  0.9709  1.3226  0.9062
 5269SOL    HW227444   4.263   2.750   9.007 -0.3971  0.4623 -0.1715
 5270SOL     OW27445   4.342   1.851   4.772  0.4369 -0.0323  0.2507
 5270SOL    HW127446   4.301   1.810   4.848  0.8346  1.8260  1.4800
 5270SOL    HW227447   4.426   1.806   4.781  0.4963  0.1298  0.5197
 5271SOL     OW27448   0.267   3.517   0.628 -0.2139 -0.0693 -0.1976
 5271SOL    HW127449   0.303   3.603   0.649 -0.7728  0.0463  0.3171
 5271SOL    HW227450   0.302   3.460   0.696  2.1607  0.4568 -0.9874
 5272SOL     OW27451   3.438   1.163  11.329 -0.2411  0.1768 -0.6704
 5272SOL    HW127452   3.359   1.202  11.367  0.1263 -1.4582  1.7659
 5272SOL    HW227453   3.457   1.089  11.388  2.4553 -0.6949 -2.6367
 5273SOL     OW27454   2.031   3.008   7.405 -0.0506 -0.2937  0.9599
 5273SOL    HW127455   2.099   3.007   7.338 -0.3964  1.7169  0.5925
 5273SOL    HW227456   2.087   3.053   7.468 -0.5399 -0.0846  1.2430
 5274SOL     OW27457   2.218   4.665   8.978 -0.1685  0.3348  0.5019
 5274SOL    HW127458   2.311   4.669   9.001  0.6515  0.1051 -2.7605
 5274SOL    HW227459   2.194   4.576   9.003  0.9388 -0.2669 -0.5694
 5275SOL     OW27460   2.946   3.074   3.105 -0.3029 -0.5800  0.4931
 5275SOL    HW127461   2.929   3.132   3.179  1.7787  1.4355 -0.5992
 5275SOL    HW227462   2.859   3.079   3.066 -0.6601  0.1793  1.3937
 5276SOL     OW27463   3.981   2.626   8.836 -0.1273  0.1072 -0.0398
 5276SOL    HW127464   4.062   2.659   8.875 -0.3218 -0.5005  0.8964
 5276SOL    HW227465   4.000   2.532   8.835  2.1034  0.5394  1.3658
 5277SOL     OW27466   0.329   3.200   8.939  0.3584  0.4299 -0.0519
 5277SOL    HW127467   0.314   3.294   8.928 -2.7023  0.0675  1.2000
 5277SOL    HW227468   0.282   3.191   9.022  1.0900 -3.4619 -0.0952
 5278SOL     OW27469   4.304   4.658   3.894 -0.6594  0.4898 -0.3278
 5278SOL    HW127470   4.320   4.581   3.949 -5.1166 -0.5363 -0.4898
 5278SOL    HW227471   4.250   4.611   3.830  1.3943 -1.5503 -0.5596
 5279SOL     OW27472   3.731   1.901   8.034  0.0431  0.1467  0.0552
 5279SOL    HW127473   3.649   1.882   8.080  0.5116 -0.2014  0.7396
 5279SOL    HW227474   3.748   1.991   8.063 -0.9243  0.4085 -0.1833
 5280SOL     OW27475   3.604   0.781   9.624  0.2051 -0.0786 -0.3278
 5280SOL    HW127476   3.536   0.828   9.672  0.6621  0.0906  0.1559
 5280SOL    HW227477   3.655   0.855   9.591 -0.7190  0.7379  0.0797
 5281SOL     OW27478   2.726   3.643   6.514  0.2071  0.5690 -0.1772
 5281SOL    HW127479   2.743   3.585   6.589  1.5951  0.0785 -0.8752
 5281SOL    HW227480   2.800   3.703   6.509  0.5679  0.0760 -0.8184
 5282SOL     OW27481   2.560   4.668   7.753  0.1097  0.0349  0.6679
 5282SOL    HW127482   2.563   4.722   7.832  0.5233  0.7912  0.1363
 5282SOL    HW227483   2.621   4.714   7.696  0.1881 -0.6789  0.1775
 5283SOL     OW27484   1.365   2.347   8.867 -0.5338  0.5347 -0.2922
 5283SOL    HW127485   1.429   2.341   8.797  2.7219  3.1348  2.4851
 5283SOL    HW227486   1.331   2.258   8.865 -1.5307  0.9092 -0.0881
 5284SOL     OW27487   0.882   0.952   5.865  0.7309 -0.3344 -0.5612
 5284SOL    HW127488   0.903   0.915   5.951 -1.4522  2.0597  1.0384
 5284SOL    HW227489   0.851   0.874   5.819 -0.6020 -0.3384  0.3271
 5285SOL     OW27490   2.142   0.716   2.249 -0.4862  0.4399 -0.6926
 5285SOL    HW127491   2.198   0.718   2.327 -2.1781  2.6969  0.4562
 5285SOL    HW227492   2.146   0.803   2.210  1.1374 -0.0007 -1.4842
 5286SOL     OW27493   1.085   2.018   2.624  0.5717 -0.0654 -0.6457
 5286SOL    HW127494   1.050   1.949   2.567 -0.1941 -1.6013  1.6729
 5286SOL    HW227495   1.129   2.075   2.561  0.8221  1.4929  0.9566
 5287SOL     OW27496   4.425   1.930   5.502  0.4770  0.3019  0.4282
 5287SOL    HW127497   4.512   1.895   5.519  0.8241  1.2430  0.5685
 5287SOL    HW227498   4.369   1.853   5.513  2.1207 -1.0389 -0.8148
 5288SOL     OW27499   4.342   4.738   4.889 -0.0381  0.3205 -0.7238
 5288SOL    HW127500   4.356   0.094   4.899  0.2423  0.5187 -2.9660
 5288SOL    HW227501   4.250   4.721   4.912  0.3377 -2.2497 -1.1948
 5289SOL     OW27502   1.832   2.110   7.049  0.2646 -0.6415 -0.0549
 5289SOL    HW127503   1.818   2.179   7.114 -1.0645 -1.6817  0.7665
 5289SOL    HW227504   1.821   2.031   7.103  0.4212 -0.8163 -0.2778
 5290SOL     OW27505   2.153   1.105   9.551  0.7225  0.2193  0.2324
 5290SOL    HW127506   2.200   1.026   9.526 -1.0913 -0.8234  0.1262
 5290SOL    HW227507   2.197   1.156   9.483  1.6484  1.2547  1.6207
 5291SOL     OW27508   1.910   0.617   2.338  0.7560  0.2342  0.8466
 5291SOL    HW127509   1.876   0.693   2.385  1.5413 -0.8845  3.2453
 5291SOL    HW227510   1.980   0.664   2.294  0.0732  1.9032  1.5700
 5292SOL     OW27511   2.854   2.878  14.774 -0.1178 -0.4352  0.2182
 5292SOL    HW127512   2.927   2.908  14.828 -1.0453  0.7907  0.7964
 5292SOL    HW227513   2.879   2.787  14.758 -1.0486 -0.6851  0.2289
 5293SOL     OW27514   3.665   2.287   4.896  0.4645 -0.1948 -0.1736
 5293SOL    HW127515   3.755   2.314   4.913 -0.6699  5.1021 -2.7643
 5293SOL    HW227516   3.619   2.357   4.942  0.3754 -0.5675  0.3099
 5294SOL     OW27517   0.412   1.047  14.019  0.1141 -0.0093 -0.3122
 5294SOL    HW127518   0.379   1.060  13.930 -0.5225  0.2597 -0.0336
 5294SOL    HW227519   0.362   1.105  14.076  0.2667 -0.4882  0.3106
 5295SOL     OW27520   2.084   2.822  17.232 -0.5407 -0.6010 -0.1567
 5295SOL    HW127521   2.064   2.733  17.202  0.7459 -2.0387  3.1892
 5295SOL    HW227522   2.147   2.858  17.170  0.8208 -1.3654  0.7747
 5296SOL     OW27523   2.867   3.319   7.221  0.2578  0.5865  0.0314
 5296SOL    HW127524   2.849   3.386   7.287  2.3676  0.3592  0.8652
 5296SOL    HW227525   2.963   3.318   7.215  0.2865 -1.2565  0.8305
 5297SOL     OW27526   3.370   0.387   2.734 -0.1107  0.3263 -0.6255
 5297SOL    HW127527   3.395   0.296   2.747 -2.0912 -0.2732 -0.9952
 5297SOL    HW227528   3.351   0.379   2.640 -1.1641 -1.2681 -0.2739
 5298SOL     OW27529   3.024   1.550  12.526  0.4453  0.8766 -0.4507
 5298SOL    HW127530   2.968   1.495  12.470  0.3202 -1.3768  1.8934
 5298SOL    HW227531   3.037   1.620  12.462 -0.2842  0.1850 -1.3521
 5299SOL     OW27532   4.576   2.220  13.144 -0.1432 -0.5879 -0.1734
 5299SOL    HW127533   4.535   2.261  13.068  0.2158  0.9381  0.4461
 5299SOL    HW227534   4.624   2.290  13.189  0.0494 -1.6688  1.3235
 5300SOL     OW27535   3.647   0.817   6.326  0.0748  0.0497  0.1979
 5300SOL    HW127536   3.553   0.832   6.320  0.0959  0.0448 -0.1271
 5300SOL    HW227537   3.674   0.823   6.234  0.7674  2.4950  0.5661
 5301SOL     OW27538   0.587   0.399   4.177 -0.0814 -0.0101 -0.3952
 5301SOL    HW127539   0.641   0.322   4.160 -0.1293  0.1649 -1.3336
 5301SOL    HW227540   0.610   0.426   4.266  2.9066 -1.0096 -0.8719
 5302SOL     OW27541   1.248   2.024  10.616  0.2277 -0.5962 -0.4548
 5302SOL    HW127542   1.320   2.035  10.678  0.8416 -0.2288 -1.2352
 5302SOL    HW227543   1.254   2.105  10.565 -0.0647 -1.4252 -1.8338
 5303SOL     OW27544   4.139   0.424   2.200 -0.2043  0.8449 -0.2469
 5303SOL    HW127545   4.153   0.430   2.295  1.6636 -1.4611 -0.3714
 5303SOL    HW227546   4.156   0.514   2.172  2.3796  0.5924  0.4612
 5304SOL     OW27547   2.830   0.161   2.671 -0.2509  0.2493  0.2064
 5304SOL    HW127548   2.908   0.207   2.639 -0.9442  1.5071  0.3196
 5304SOL    HW227549   2.866   0.106   2.740  2.4704  1.3076 -0.3559
 5305SOL     OW27550   3.736   1.102  10.248 -0.0607  0.5176 -0.1496
 5305SOL    HW127551   3.642   1.089  10.256  0.2282 -2.8117 -1.9486
 5305SOL    HW227552   3.765   1.053  10.325  0.6655  0.7398 -0.2791
 5306SOL     OW27553   4.671   1.596   3.761 -0.3013 -0.4569  1.0671
 5306SOL    HW127554   4.682   1.663   3.693 -2.9476 -2.5215 -1.4035
 5306SOL    HW227555   4.659   1.516   3.710 -1.3865 -0.1518  0.8440
 5307SOL     OW27556   2.363   2.548   2.412  0.5475  0.4103  0.1970
 5307SOL    HW127557   2.383   2.621   2.470  0.1914  1.8350 -1.4831
 5307SOL    HW227558   2.430   2.570   2.348  1.8164  1.3362  1.8385
 5308SOL     OW27559   0.089   1.223   4.544 -0.2273  0.4658 -0.6410
 5308SOL    HW127560   0.001   1.189   4.558  0.1877  0.0187  0.8943
 5308SOL    HW227561   0.127   1.230   4.632  0.8145 -2.8437 -0.8145
 5309SOL     OW27562   4.448   1.815  13.857 -0.8209 -0.5449  0.3084
 5309SOL    HW127563   4.523   1.847  13.805 -1.0131 -0.3026  0.1791
 5309SOL    HW227564   4.485   1.730  13.881 -0.8374 -0.2397  1.3837
 5310SOL     OW27565   1.626   3.567   8.608 -0.3423 -0.4932  0.2630
 5310SOL    HW127566   1.693   3.538   8.669 -0.5168 -0.3752  0.5113
 5310SOL    HW227567   1.594   3.650   8.644  1.4234  0.2328  0.1166
 5311SOL     OW27568   1.007   2.286   7.797  0.4137 -0.1159  0.0470
 5311SOL    HW127569   0.917   2.286   7.764  0.7594  0.3819 -0.9002
 5311SOL    HW227570   0.993   2.301   7.891  1.3802  0.3141  0.1245
 5312SOL     OW27571   3.732   4.581   0.115 -0.6172 -0.0171  0.6992
 5312SOL    HW127572   3.813   4.608   0.159 -0.4916  2.6130 -1.1318
 5312SOL    HW227573   3.742   4.607   0.024  0.4270  0.6485  1.0037
 5313SOL     OW27574   4.416   3.361   2.306 -0.3693  0.3551 -0.6480
 5313SOL    HW127575   4.512   3.369   2.301 -0.6114  2.1817 -2.1653
 5313SOL    HW227576   4.391   3.433   2.363 -1.2606  0.2246 -0.8803
 5314SOL     OW27577   4.554   0.267  16.117  0.5735 -0.3554  0.2221
 5314SOL    HW127578   4.610   0.243  16.191  1.0846 -0.4068 -0.1747
 5314SOL    HW227579   4.564   0.200  16.049  0.4877 -0.6563  0.5089
 5315SOL     OW27580   0.721   0.530   6.202  0.2369 -0.3055 -0.2421
 5315SOL    HW127581   0.783   0.522   6.274 -0.2788  0.4392  0.2895
 5315SOL    HW227582   0.692   0.621   6.202  1.8124  0.1928 -0.7341
 5316SOL     OW27583   2.595   4.377  12.874 -0.4018 -1.1533 -1.2162
 5316SOL    HW127584   2.688   4.382  12.895 -1.1028  0.4592  1.5178
 5316SOL    HW227585   2.597   4.423  12.790  0.3748  0.4271 -0.3340
 5317SOL     OW27586   3.694   2.044  10.919 -0.3197 -0.5285 -0.0193
 5317SOL    HW127587   3.787   2.064  10.910 -0.5930  0.9299  0.5042
 5317SOL    HW227588   3.673   1.990  10.842 -1.7860 -2.0130  1.4040
 5318SOL     OW27589   2.848   2.612  10.470  0.4051 -1.0696 -0.7578
 5318SOL    HW127590   2.813   2.563  10.545 -0.0456  0.8096  0.2673
 5318SOL    HW227591   2.890   2.684  10.518  0.3741 -3.2026  2.4939
 5319SOL     OW27592   1.483   0.996   7.620 -0.1820 -0.2538 -0.6237
 5319SOL    HW127593   1.569   0.991   7.577 -1.1154 -0.3251 -2.4597
 5319SOL    HW227594   1.500   0.940   7.696 -4.4480 -1.2592 -0.4451
 5320SOL     OW27595   1.306   3.388   3.273  0.1575  0.0279  0.7296
 5320SOL    HW127596   1.238   3.449   3.302  0.2267  0.1387  0.6590
 5320SOL    HW227597   1.373   3.455   3.256  1.2156 -1.4457 -0.8628
 5321SOL     OW27598   1.857   1.780  16.515  0.0442  0.4643 -0.6015
 5321SOL    HW127599   1.887   1.689  16.514  3.1391  1.4618  1.4584
 5321SOL    HW227600   1.865   1.802  16.422  0.7990 -1.7865 -1.0624
 5322SOL     OW27601   2.582   3.129   4.704 -0.1133  0.3536 -0.4310
 5322SOL    HW127602   2.633   3.128   4.623 -1.8255  1.5558 -1.5121
 5322SOL    HW227603   2.653   3.118   4.768 -0.5444 -2.4375 -0.4316
 5323SOL     OW27604   2.226   4.023   7.103  0.1720 -0.0039  0.6230
 5323SOL    HW127605   2.134   4.051   7.095 -0.7739 -3.3500 -0.0906
 5323SOL    HW227606   2.255   4.114   7.113  0.7853 -0.2136  0.7107
 5324SOL     OW27607   3.131   0.133   9.070 -0.0126  0.4092  0.1728
 5324SOL    HW127608   3.170   0.047   9.087 -0.0807  0.3288 -0.0842
 5324SOL    HW227609   3.184   0.195   9.122 -0.1238  1.0354 -0.4691
 5325SOL     OW27610   3.629   4.408   8.518 -0.3274 -0.0891 -0.0769
 5325SOL    HW127611   3.689   4.457   8.463 -0.1002  0.8820  1.0305
 5325SOL    HW227612   3.696   4.393   8.585 -0.0077 -0.2885 -0.4469
 5326SOL     OW27613   2.250   1.298   8.288 -0.0988 -0.4443  0.0881
 5326SOL    HW127614   2.306   1.239   8.238 -1.0486 -1.1616 -0.1333
 5326SOL    HW227615   2.250   1.374   8.230  0.3417 -0.1423  0.4834
 5327SOL     OW27616   0.755   1.990   4.203 -0.3847 -0.1605  0.0790
 5327SOL    HW127617   0.684   1.927   4.210 -1.7825  1.2273 -1.3618
 5327SOL    HW227618   0.805   1.946   4.134 -0.4867  0.1421 -0.1905
 5328SOL     OW27619   2.816   0.179  10.965 -0.1538  0.2144 -0.3059
 5328SOL    HW127620   2.838   0.228  11.044 -3.8887  0.9428  0.3083
 5328SOL    HW227621   2.774   0.239  10.903 -0.1465  0.7527  0.2105
 5329SOL     OW27622   3.849   0.122  13.362 -0.3261 -0.0824  0.0746
 5329SOL    HW127623   3.898   0.204  13.374  0.6022 -0.6543  0.1404
 5329SOL    HW227624   3.925   0.067  13.344 -0.3983  0.7747 -2.8874
 5330SOL     OW27625   1.196   1.491   6.460  0.5166 -0.3019 -0.6059
 5330SOL    HW127626   1.159   1.538   6.535  0.7104  0.4650 -1.0017
 5330SOL    HW227627   1.268   1.446   6.504  0.1297 -0.6001 -0.2740
 5331SOL     OW27628   2.647   0.950   7.131  0.1102 -0.0366 -0.1999
 5331SOL    HW127629   2.682   0.878   7.080  0.6469  1.5228 -2.0315
 5331SOL    HW227630   2.625   1.007   7.057  1.3889 -1.6620 -1.8120
 5332SOL     OW27631   2.380   2.444   9.149  0.1292 -0.0202 -0.2490
 5332SOL    HW127632   2.423   2.425   9.066 -1.1652 -2.1285 -0.4510
 5332SOL    HW227633   2.431   2.518   9.181  0.8366  0.3138 -2.1562
 5333SOL     OW27634   4.720   2.703  14.738  0.7561 -0.3600 -0.2711
 5333SOL    HW127635   4.720   2.699  14.642  1.1062 -0.1736 -0.2787
 5333SOL    HW227636   4.673   2.622  14.755 -0.0989  0.0604 -0.6582
 5334SOL     OW27637   3.543   4.380   9.519 -0.2193  0.3782 -0.0478
 5334SOL    HW127638   3.613   4.441   9.542 -0.0947  0.7202 -1.2861
 5334SOL    HW227639   3.473   4.445   9.514  0.6148  1.3534  0.8933
 5335SOL     OW27640   2.589   4.007   0.331 -0.5031  0.4175  0.0510
 5335SOL    HW127641   2.541   4.090   0.329  1.6290  1.6153 -1.3291
 5335SOL    HW227642   2.523   3.942   0.356  0.9768 -0.6094  1.2364
 5336SOL     OW27643   2.017   0.973   2.453 -0.2886  0.3081  0.4594
 5336SOL    HW127644   2.043   0.999   2.365 -1.2405 -3.2070 -0.8347
 5336SOL    HW227645   2.105   0.946   2.479 -0.0849  1.0518  0.5370
 5337SOL     OW27646   4.575   0.512  15.503 -0.7741  0.4193  0.5123
 5337SOL    HW127647   4.544   0.572  15.435 -0.0615 -1.8470 -1.8039
 5337SOL    HW227648   4.639   0.468  15.447 -1.8126 -0.8127  0.2891
 5338SOL     OW27649   3.370   0.902   4.460 -0.0970 -0.1290  0.5838
 5338SOL    HW127650   3.303   0.966   4.485  0.8330  0.6522  1.0486
 5338SOL    HW227651   3.355   0.834   4.526 -0.5027  0.7995  1.4297
 5339SOL     OW27652   4.021   0.509   1.018  0.3975 -0.3591  0.1130
 5339SOL    HW127653   4.064   0.594   1.027 -1.4650  0.6084  0.0007
 5339SOL    HW227654   4.023   0.501   0.923 -0.7210  1.3764 -0.0727
 5340SOL     OW27655   0.591   3.352   2.895  0.5536 -0.0531 -0.3010
 5340SOL    HW127656   0.673   3.348   2.846 -0.6145 -0.3035 -2.2072
 5340SOL    HW227657   0.530   3.373   2.825 -1.6455 -1.9621  1.0394
 5341SOL     OW27658   0.814   2.628   7.008  0.0806  0.7881 -0.0985
 5341SOL    HW127659   0.805   2.533   6.995  2.0428  0.6130 -0.2193
 5341SOL    HW227660   0.909   2.640   7.014 -0.1541  1.7465  1.7887
 5342SOL     OW27661   0.654   0.229   1.145 -0.4422 -0.2649  0.3486
 5342SOL    HW127662   0.612   0.260   1.226  0.5462  0.4359  0.5821
 5342SOL    HW227663   0.654   0.135   1.165  1.9654 -0.4497 -0.6513
 5343SOL     OW27664   2.098   3.506  13.401  0.2538 -0.3430  0.8392
 5343SOL    HW127665   2.173   3.560  13.377  0.0280  1.4722  4.1690
 5343SOL    HW227666   2.056   3.565  13.464  0.4695 -1.1867  1.7724
 5344SOL     OW27667   0.932   0.551   6.354  0.0338  0.7940 -0.1064
 5344SOL    HW127668   0.920   0.591   6.439  0.3815  0.8079 -0.0654
 5344SOL    HW227669   1.014   0.588   6.321  0.3020 -0.2517 -0.6303
 5345SOL     OW27670   0.388   0.352   3.362 -0.2297  0.5029  0.0360
 5345SOL    HW127671   0.329   0.298   3.415  0.8836  0.7614  1.5452
 5345SOL    HW227672   0.474   0.321   3.389 -1.2013 -3.3466 -1.2840
 5346SOL     OW27673   3.267   4.496   2.288 -0.6726 -0.3225 -0.2324
 5346SOL    HW127674   3.353   4.519   2.253  0.9619 -1.9701  2.7703
 5346SOL    HW227675   3.213   4.483   2.210  1.2859  0.6211 -1.7602
 5347SOL     OW27676   1.029   2.534   7.584 -0.5868 -0.4263  0.4405
 5347SOL    HW127677   1.089   2.463   7.607  0.3421  0.4137  0.6153
 5347SOL    HW227678   1.056   2.604   7.644 -1.3247  1.4935 -1.4607
 5348SOL     OW27679   1.839   0.365   6.702  0.2627 -0.1258  0.2438
 5348SOL    HW127680   1.797   0.281   6.685  0.2092 -0.1438  0.4635
 5348SOL    HW227681   1.932   0.342   6.709  0.4869  0.4956 -0.7711
 5349SOL     OW27682   0.568   2.048   5.048  0.0054  0.4457 -0.8557
 5349SOL    HW127683   0.662   2.034   5.036  0.3006  2.5919 -0.9263
 5349SOL    HW227684   0.555   2.134   5.008  0.3381 -0.2700 -2.5486
 5350SOL     OW27685   0.400   4.075   3.450  0.2271 -0.0336 -0.0467
 5350SOL    HW127686   0.337   4.123   3.397  0.3250  2.6124  2.2001
 5350SOL    HW227687   0.365   4.107   3.533  1.1687  0.6322  0.0905
 5351SOL     OW27688   4.463   1.880   5.937  0.9098 -0.0763  0.1216
 5351SOL    HW127689   4.545   1.836   5.917  0.4725 -0.6421 -0.4422
 5351SOL    HW227690   4.450   1.940   5.864  1.4107 -1.3163 -0.9916
 5352SOL     OW27691   3.911   0.047   7.897 -0.4271 -0.3766 -0.2432
 5352SOL    HW127692   3.936   4.737   7.819 -2.1072 -0.2447 -0.8494
 5352SOL    HW227693   3.896   0.137   7.867 -1.2490 -0.1184  0.9037
 5353SOL     OW27694   1.321   1.665   8.678 -0.3962  0.2098  0.0073
 5353SOL    HW127695   1.294   1.756   8.672  0.3664  0.4648  0.4525
 5353SOL    HW227696   1.372   1.673   8.759 -0.1168 -0.4867 -0.0964
 5354SOL     OW27697   2.508   2.009  13.216 -0.1079  0.0563  0.0314
 5354SOL    HW127698   2.479   1.918  13.215  0.4686 -0.1503  2.2012
 5354SOL    HW227699   2.569   2.006  13.289 -1.5641  0.6346  1.2729
 5355SOL     OW27700   3.774   4.446   4.234  0.4769  0.0745 -0.2555
 5355SOL    HW127701   3.762   4.412   4.323  1.1291  0.0139 -0.1930
 5355SOL    HW227702   3.759   4.537   4.260 -0.6897  0.4674 -2.3288
 5356SOL     OW27703   0.867   1.591   3.530  0.0593  0.0232  0.4314
 5356SOL    HW127704   0.800   1.636   3.478 -1.2767  0.7353  2.7642
 5356SOL    HW227705   0.812   1.551   3.598 -0.3449 -1.6612 -0.8935
 5357SOL     OW27706   3.794   3.137   4.229  0.1409 -0.7236 -0.0426
 5357SOL    HW127707   3.775   3.076   4.300  1.5029 -1.6400 -0.4616
 5357SOL    HW227708   3.887   3.161   4.234 -0.4543  1.2472  1.8261
 5358SOL     OW27709   3.618   0.307  10.784  0.2836  0.3847 -0.4944
 5358SOL    HW127710   3.687   0.362  10.821  1.1246 -0.3420 -0.9826
 5358SOL    HW227711   3.544   0.364  10.803 -0.7129 -0.9102 -0.4567
 5359SOL     OW27712   2.667   1.593   0.124 -0.6400  0.2357  0.3333
 5359SOL    HW127713   2.647   1.682   0.095  1.1073  0.7806  0.7554
 5359SOL    HW227714   2.600   1.584   0.191  0.0346 -1.2551  0.8096
 5360SOL     OW27715   3.512   2.313   3.675  0.3814 -0.3918 -0.3228
 5360SOL    HW127716   3.445   2.265   3.724 -1.6117  2.0120 -0.6560
 5360SOL    HW227717   3.471   2.305   3.590 -1.2831  2.5249  0.1871
 5361SOL     OW27718   4.528   0.786   8.512  0.0886  0.0904 -0.0681
 5361SOL    HW127719   4.463   0.853   8.489  1.9183  1.7722 -0.3753
 5361SOL    HW227720   4.612   0.824   8.488  0.2169  0.6095  1.2223
 5362SOL     OW27721   3.888   3.296   8.604  0.1350 -0.1944 -0.3015
 5362SOL    HW127722   3.804   3.334   8.630  0.0881 -1.1181  0.8644
 5362SOL    HW227723   3.943   3.370   8.576 -0.4121 -0.2590 -1.5903
 5363SOL     OW27724   3.249   2.963  12.531  0.0411  0.5566 -0.0434
 5363SOL    HW127725   3.319   3.027  12.529  3.2775 -2.8947  1.9049
 5363SOL    HW227726   3.175   3.017  12.503 -0.3856  1.2775  2.4275
 5364SOL     OW27727   1.575   1.241   4.557  0.0613 -0.1322  0.4404
 5364SOL    HW127728   1.582   1.285   4.642 -3.2074  0.4577  0.4404
 5364SOL    HW227729   1.502   1.297   4.530  1.4031  1.0976 -0.6004
 5365SOL     OW27730   1.173   2.308  10.650  0.2200  0.0920 -0.1890
 5365SOL    HW127731   1.227   2.327  10.727 -0.7779  2.0575  0.0145
 5365SOL    HW227732   1.221   2.365  10.588 -1.3959  0.2212 -1.3235
 5366SOL     OW27733   3.733   1.571  14.207 -0.3274 -0.0434  0.3803
 5366SOL    HW127734   3.656   1.516  14.194  0.3429 -0.5316 -1.5381
 5366SOL    HW227735   3.706   1.662  14.195 -0.5365 -0.7277 -4.0768
 5367SOL     OW27736   0.304   1.718  15.453  0.2010 -0.1855 -0.1217
 5367SOL    HW127737   0.320   1.774  15.529  0.4932 -1.5993  0.8440
 5367SOL    HW227738   0.387   1.724  15.406 -1.4157  1.0998 -2.8671
 5368SOL     OW27739   0.177   3.798   2.888  0.7527  0.0017 -0.3828
 5368SOL    HW127740   0.153   3.889   2.872  0.2199  0.0817  0.9017
 5368SOL    HW227741   0.138   3.763   2.808 -1.3824 -1.8416  1.4799
 5369SOL     OW27742   4.298   1.254   9.148  0.2253 -0.3310  0.0566
 5369SOL    HW127743   4.341   1.250   9.063  2.4356 -1.6242  1.2225
 5369SOL    HW227744   4.303   1.162   9.175  1.2479  0.2237  1.8211
 5370SOL     OW27745   2.618   4.193   6.050 -0.1444 -0.7769 -0.1928
 5370SOL    HW127746   2.604   4.221   5.959  2.0245  0.3439 -0.1700
 5370SOL    HW227747   2.671   4.115   6.031  0.9241  0.3156 -1.6906
 5371SOL     OW27748   2.832   1.692   3.892 -0.7956  0.1958 -0.4859
 5371SOL    HW127749   2.771   1.630   3.932  1.0336  0.1140  2.1756
 5371SOL    HW227750   2.867   1.741   3.966  1.0853  0.6406 -1.6634
 5372SOL     OW27751   1.839   0.465   9.118  0.6169 -0.6136  0.5497
 5372SOL    HW127752   1.771   0.448   9.183 -0.4182 -1.8611 -0.8378
 5372SOL    HW227753   1.892   0.536   9.153  0.7166 -0.9335  1.0588
 5373SOL     OW27754   1.687   4.084   6.606  0.3003  0.4838  0.0723
 5373SOL    HW127755   1.620   4.038   6.556  0.0306  0.5656  0.3508
 5373SOL    HW227756   1.723   4.019   6.667  2.1863  1.4644 -0.0102
 5374SOL     OW27757   1.078   0.983   2.800  0.1881 -0.5309 -0.2211
 5374SOL    HW127758   1.030   0.906   2.830  0.6339 -0.6358  0.2137
 5374SOL    HW227759   1.103   0.953   2.713 -0.3909  2.8999 -1.5772
 5375SOL     OW27760   1.643   2.299   9.604  0.1339 -0.1929 -0.0844
 5375SOL    HW127761   1.721   2.281   9.551  0.4041  0.2733  0.1562
 5375SOL    HW227762   1.634   2.394   9.604 -0.0929 -0.2389  3.0429
 5376SOL     OW27763   1.357   3.290  10.179  0.1328  0.1170  0.8159
 5376SOL    HW127764   1.447   3.256  10.177  0.1870  0.3139 -0.6006
 5376SOL    HW227765   1.333   3.282  10.086  3.6047 -1.7567  0.0688
 5377SOL     OW27766   4.514   2.454   3.647  0.4036 -0.5163  0.7488
 5377SOL    HW127767   4.475   2.414   3.725  0.8526 -0.8259  0.8174
 5377SOL    HW227768   4.545   2.375   3.603  0.8816  0.3702 -0.4947
 5378SOL     OW27769   1.675   4.348   5.918  0.0893  0.0585 -0.3585
 5378SOL    HW127770   1.682   4.435   5.958 -0.2855  0.6929 -1.6764
 5378SOL    HW227771   1.703   4.293   5.992 -1.4104 -1.4513 -0.9156
 5379SOL     OW27772   2.445   4.414   2.377 -0.2946 -0.3390 -0.2508
 5379SOL    HW127773   2.496   4.404   2.296 -0.0873 -2.1321  0.1143
 5379SOL    HW227774   2.379   4.478   2.348  1.7199  0.6336 -2.7264
 5380SOL     OW27775   3.589   1.176   7.593 -0.9527 -0.1066 -0.3051
 5380SOL    HW127776   3.675   1.218   7.588 -1.3969  0.8528  0.0673
 5380SOL    HW227777   3.588   1.140   7.505  1.2641 -0.8914 -0.0112
 5381SOL     OW27778   0.677   3.797   0.184 -0.2202  0.0292  0.1205
 5381SOL    HW127779   0.685   3.888   0.213 -1.1239 -0.3451  1.5295
 5381SOL    HW227780   0.615   3.759   0.246 -1.6306  3.1083  0.5916
 5382SOL     OW27781   1.615   1.695   2.164  0.3828 -0.0623 -0.5032
 5382SOL    HW127782   1.637   1.788   2.168 -2.0121  0.5639 -1.5148
 5382SOL    HW227783   1.628   1.674   2.256  1.0657  1.9884 -0.1404
 5383SOL     OW27784   3.899   2.625   8.042 -0.7836 -0.5314  0.3347
 5383SOL    HW127785   3.841   2.661   8.109 -0.3746 -0.1155  0.4714
 5383SOL    HW227786   3.872   2.534   8.037 -1.6172 -0.2226 -0.8226
 5384SOL     OW27787   2.877   2.390  17.240 -0.3956  0.5638  0.1578
 5384SOL    HW127788   2.786   2.373  17.218 -0.5675 -0.8417  2.0469
 5384SOL    HW227789   2.899   2.464  17.183  1.3368  0.7003  1.0070
 5385SOL     OW27790   3.150   2.364   3.245 -0.1433 -0.1953  0.7129
 5385SOL    HW127791   3.178   2.279   3.211  0.3321 -0.4678  1.7875
 5385SOL    HW227792   3.175   2.426   3.176 -0.2787  1.4079  2.1168
 5386SOL     OW27793   0.858   3.372   1.738 -1.0600  0.1648 -0.1042
 5386SOL    HW127794   0.810   3.330   1.667 -3.2837  0.0005  1.5138
 5386SOL    HW227795   0.839   3.466   1.738  0.2644  0.4433  1.7661
 5387SOL     OW27796   1.484   4.362   2.661  0.1616  0.5389  0.0934
 5387SOL    HW127797   1.456   4.448   2.692 -0.1642 -0.3150  2.2305
 5387SOL    HW227798   1.454   4.308   2.735 -0.1886  2.6004  1.4686
 5388SOL     OW27799   0.625   1.468  16.545  0.0125 -0.8982 -0.1587
 5388SOL    HW127800   0.578   1.475  16.628 -0.3392 -0.3452 -0.4041
 5388SOL    HW227801   0.656   1.557  16.527 -1.7357 -0.5951 -1.7577
 5389SOL     OW27802   4.332   2.019  16.211  0.4190 -0.2698 -0.1780
 5389SOL    HW127803   4.264   1.959  16.241 -0.8979  1.8976  1.0977
 5389SOL    HW227804   4.331   2.000  16.117  0.4036 -0.3688 -0.1579
 5390SOL     OW27805   1.880   4.072   9.143 -0.5290  0.6168  0.2949
 5390SOL    HW127806   1.837   4.012   9.082  1.4200  0.4177 -0.8774
 5390SOL    HW227807   1.830   4.056   9.223 -1.1249 -2.5796 -0.7027
 5391SOL     OW27808   2.187   2.182  10.925  0.0122  0.6578 -0.2481
 5391SOL    HW127809   2.126   2.241  10.970 -2.5335  0.4755 -3.4367
 5391SOL    HW227810   2.214   2.235  10.850  1.3288  0.3848  0.0342
 5392SOL     OW27811   2.751   0.512   2.839  0.1121 -0.0898 -0.0992
 5392SOL    HW127812   2.695   0.577   2.797 -1.2690 -0.7394  0.7411
 5392SOL    HW227813   2.692   0.496   2.912 -1.4333 -1.4584 -1.6672
 5393SOL     OW27814   1.538   3.325   5.082  0.2314 -0.0921 -0.6164
 5393SOL    HW127815   1.626   3.346   5.053  2.1352 -0.9457  4.5406
 5393SOL    HW227816   1.495   3.371   5.010 -1.7672 -2.1667 -0.7520
 5394SOL     OW27817   2.508   3.570   1.004 -0.1725  0.0199 -0.0811
 5394SOL    HW127818   2.578   3.635   1.011 -0.2857  0.0879  0.4154
 5394SOL    HW227819   2.547   3.532   0.925 -1.0431  0.6992 -0.8343
 5395SOL     OW27820   0.923   0.632   5.868 -0.5622 -0.3050  0.1141
 5395SOL    HW127821   0.877   0.556   5.833 -1.1144 -0.4852  1.2195
 5395SOL    HW227822   0.873   0.633   5.950  1.2107  1.7534  1.1987
 5396SOL     OW27823   3.179   3.090   1.893 -0.1557 -0.3667  0.0907
 5396SOL    HW127824   3.194   3.155   1.824  0.2795  0.3529  0.8545
 5396SOL    HW227825   3.266   3.060   1.919  0.3486  0.3654 -0.7361
 5397SOL     OW27826   2.392   3.286  12.400  0.0084  0.2168 -0.4168
 5397SOL    HW127827   2.298   3.274  12.391  0.1250 -0.4246 -0.8185
 5397SOL    HW227828   2.413   3.331  12.318  1.6405 -0.1818 -0.2368
 5398SOL     OW27829   2.531   4.301   4.331 -0.2077 -0.4293 -0.2406
 5398SOL    HW127830   2.572   4.387   4.342 -0.9099 -0.3436  1.7606
 5398SOL    HW227831   2.462   4.318   4.267  1.3173 -1.8699 -2.2584
 5399SOL     OW27832   0.483   1.328   7.368 -0.1935  0.6232  0.3586
 5399SOL    HW127833   0.523   1.357   7.450 -0.4077 -1.2114  1.1134
 5399SOL    HW227834   0.561   1.286   7.332  0.6670  1.1497  1.5895
 5400SOL     OW27835   0.737   3.561   3.503 -0.1099  0.3950  0.3934
 5400SOL    HW127836   0.702   3.487   3.552  2.3684 -1.9747 -1.4520
 5400SOL    HW227837   0.664   3.585   3.446 -0.5860  1.0651  1.2881
 5401SOL     OW27838   0.474   3.546   9.766  0.3348  0.7465  0.0361
 5401SOL    HW127839   0.526   3.625   9.782  2.4755 -1.0260  1.9025
 5401SOL    HW227840   0.537   3.484   9.732 -0.8655 -1.2051  1.3580
 5402SOL     OW27841   1.764   0.941   3.826 -0.2323 -0.0195 -0.5944
 5402SOL    HW127842   1.860   0.938   3.822 -0.2999 -2.2602 -0.6503
 5402SOL    HW227843   1.734   0.881   3.757 -0.0964  0.1586 -0.8100
 5403SOL     OW27844   1.740   1.605   8.584  0.0069  0.5068 -0.5168
 5403SOL    HW127845   1.719   1.690   8.545 -0.4057  1.1674  1.1512
 5403SOL    HW227846   1.676   1.558   8.531 -1.1955 -0.5147  1.8898
 5404SOL     OW27847   2.538   3.665   0.062  0.4206  0.1766  0.1969
 5404SOL    HW127848   2.618   3.715   0.076  1.8702 -1.8621 -0.8188
 5404SOL    HW227849   2.584   3.584   0.045 -0.9837 -0.9027  1.5747
 5405SOL     OW27850   2.521   0.420   5.779 -0.3771 -0.2958 -0.1190
 5405SOL    HW127851   2.577   0.380   5.712 -0.4915  1.3672 -1.2268
 5405SOL    HW227852   2.455   0.451   5.718 -1.3907  0.5679  1.4239
 5406SOL     OW27853   2.982   3.383  13.395 -0.4749 -0.5736 -0.2867
 5406SOL    HW127854   2.943   3.295  13.386 -3.8349  0.9400 -0.6360
 5406SOL    HW227855   2.945   3.409  13.479 -0.4734 -2.1899  0.2197
 5407SOL     OW27856   0.751   3.771   5.055  0.4689  0.0904  0.0007
 5407SOL    HW127857   0.686   3.715   5.012 -1.0396  0.3803  1.8738
 5407SOL    HW227858   0.726   3.859   5.027 -0.1529 -0.0931 -0.0181
 5408SOL     OW27859   0.377   2.775   5.298  0.2879  0.6175 -0.0492
 5408SOL    HW127860   0.361   2.784   5.204 -3.0556  0.9700  0.5377
 5408SOL    HW227861   0.471   2.758   5.297  0.1735 -0.1537  1.9214
 5409SOL     OW27862   4.330   0.460   6.220  1.2082  0.5640  0.1548
 5409SOL    HW127863   4.338   0.509   6.138 -2.7785  1.6252  0.4060
 5409SOL    HW227864   4.250   0.407   6.218  1.0842  0.7727 -0.6572
 5410SOL     OW27865   3.800   1.957   9.822  0.2617 -0.1484  0.6205
 5410SOL    HW127866   3.863   1.911   9.878  1.7280  0.4200 -0.5610
 5410SOL    HW227867   3.854   2.019   9.774  2.5962 -2.1993  0.5855
 5411SOL     OW27868   3.192   1.184  12.137  0.1400  0.2059  0.2326
 5411SOL    HW127869   3.187   1.279  12.121  0.1631  0.5198  2.0917
 5411SOL    HW227870   3.186   1.141  12.052  1.9307 -0.7738  0.6115
 5412SOL     OW27871   3.470   3.364  15.190  0.1819 -0.0679  0.1181
 5412SOL    HW127872   3.519   3.441  15.220 -1.2005  2.0880 -3.1364
 5412SOL    HW227873   3.413   3.406  15.125  1.7039  1.2647 -0.3670
 5413SOL     OW27874   1.666   1.801  13.845  0.3240  0.0907  0.0929
 5413SOL    HW127875   1.722   1.872  13.813  0.1481  0.6035  0.9096
 5413SOL    HW227876   1.674   1.805  13.941  4.5451 -0.3753 -0.2558
 5414SOL     OW27877   4.603   0.057   6.883 -0.0331  0.1713  0.5002
 5414SOL    HW127878   4.517   0.046   6.924  0.5288  0.9010  1.8715
 5414SOL    HW227879   4.649   0.072   6.965  0.8942  0.2109 -0.0286
 5415SOL     OW27880   3.541   4.322   5.437  0.1820  0.2141  0.0559
 5415SOL    HW127881   3.490   4.241   5.443 -2.0070  1.6067 -0.0275
 5415SOL    HW227882   3.470   4.384   5.424  0.3787  0.2292 -0.9277
 5416SOL     OW27883   0.520   2.113   6.142 -0.1953  0.2071 -0.3426
 5416SOL    HW127884   0.530   2.115   6.047 -1.1963  0.4060 -0.4362
 5416SOL    HW227885   0.585   2.177   6.171 -1.9550  1.3110  1.1800
 5417SOL     OW27886   2.816   0.858  13.355 -1.1184 -0.1489  0.3062
 5417SOL    HW127887   2.824   0.806  13.274 -1.6096 -0.7478  0.6392
 5417SOL    HW227888   2.781   0.799  13.422 -4.8650  3.3055  1.3842
 5418SOL     OW27889   2.748   0.219   0.596  0.2528 -0.1705 -0.0549
 5418SOL    HW127890   2.733   0.178   0.682 -0.9059  2.6992  1.0941
 5418SOL    HW227891   2.756   0.141   0.541 -0.7985  0.2143 -0.7576
 5419SOL     OW27892   2.611   3.934   2.353 -0.3965  0.2849  0.2364
 5419SOL    HW127893   2.659   3.930   2.436 -0.0325  0.8951  0.0527
 5419SOL    HW227894   2.642   3.850   2.319  0.0944 -0.2486  1.9912
 5420SOL     OW27895   3.987   0.878  10.079  0.0929  0.1664  0.0360
 5420SOL    HW127896   3.898   0.842  10.074  0.2113 -0.0673 -0.3727
 5420SOL    HW227897   4.021   0.804  10.130  1.3664 -0.2492 -1.4090
 5421SOL     OW27898   2.794   2.225  13.228 -0.0710 -0.6592  0.4955
 5421SOL    HW127899   2.728   2.294  13.236  1.5013  0.6705  2.0258
 5421SOL    HW227900   2.748   2.148  13.262  0.4389 -0.7543  0.9687
 5422SOL     OW27901   1.336   1.320  16.960 -0.0564 -0.1160 -0.4961
 5422SOL    HW127902   1.403   1.296  16.896  0.2989  1.5755 -0.7804
 5422SOL    HW227903   1.345   1.255  17.028  1.2484  0.2548 -0.3157
 5423SOL     OW27904   4.732   2.102   2.301  0.1273 -0.8906 -0.1094
 5423SOL    HW127905   4.691   2.020   2.276  1.7372 -1.4508 -0.9310
 5423SOL    HW227906   4.725   2.095   2.396  0.8713  2.0710  0.1781
 5424SOL     OW27907   0.293   4.619   6.630 -0.3530  0.3653  0.0273
 5424SOL    HW127908   0.245   4.543   6.596 -0.9362 -0.4585  2.6570
 5424SOL    HW227909   0.228   4.663   6.684  0.1523  1.4068 -0.2310
 5425SOL     OW27910   3.933   3.535   3.847  0.4636 -0.4377  0.3678
 5425SOL    HW127911   3.886   3.619   3.844  0.1551 -0.6673 -1.2274
 5425SOL    HW227912   4.019   3.561   3.815  2.2046 -3.0951  2.8708
 5426SOL     OW27913   0.433   0.107   6.053 -1.1581  0.5852 -0.0504
 5426SOL    HW127914   0.508   0.159   6.023  0.0795 -0.2388  1.5618
 5426SOL    HW227915   0.478   0.030   6.088 -0.3651 -0.1089 -2.6293
 5427SOL     OW27916   1.526   2.940   3.490  0.5157  0.1931  0.5771
 5427SOL    HW127917   1.479   3.003   3.436  2.0590  0.5247 -0.3718
 5427SOL    HW227918   1.538   2.865   3.432  0.2041  1.0355 -0.5659
 5428SOL     OW27919   4.560   3.553  17.284 -0.0672 -0.1831  0.4717
 5428SOL    HW127920   4.536   3.627  17.227  2.6525 -0.3704 -0.9313
 5428SOL    HW227921   4.472   3.520  17.297  0.1913 -0.7877  0.6853
 5429SOL     OW27922   1.348   1.913   4.810 -0.0496 -0.5625  0.5759
 5429SOL    HW127923   1.340   1.962   4.728 -0.3635  0.0069  0.9468
 5429SOL    HW227924   1.441   1.928   4.825  0.2017 -0.9685 -0.6294
 5430SOL     OW27925   1.730   2.694   3.763 -0.5538 -0.3183 -0.9944
 5430SOL    HW127926   1.820   2.666   3.747 -0.7307 -2.8882  2.4552
 5430SOL    HW227927   1.700   2.687   3.672  1.0563 -2.7457 -1.3409
 5431SOL     OW27928   0.600   1.151  12.098  0.4074 -0.0534  0.1817
 5431SOL    HW127929   0.652   1.082  12.141  0.6068  0.0430  0.0957
 5431SOL    HW227930   0.668   1.217  12.108  0.5801  0.0510 -1.6839
 5432SOL     OW27931   0.338   0.153  10.117 -0.4184 -0.0815  0.6674
 5432SOL    HW127932   0.409   0.217  10.121 -2.0256  1.7323  0.1452
 5432SOL    HW227933   0.330   0.127  10.209  1.7689  0.0605  0.9076
 5433SOL     OW27934   3.397   1.922   7.418  0.6096  0.0689 -0.1054
 5433SOL    HW127935   3.411   1.834   7.384 -2.5160 -0.8150  0.8808
 5433SOL    HW227936   3.374   1.967   7.337 -2.8492  1.2293  1.4964
 5434SOL     OW27937   2.350   3.472   6.898  0.3802 -0.5450 -0.2350
 5434SOL    HW127938   2.391   3.508   6.976  0.9259  1.6306 -1.5333
 5434SOL    HW227939   2.273   3.530   6.898  1.7197  1.2173  0.8332
 5435SOL     OW27940   2.411   4.270   5.165 -0.7252 -0.1044 -0.0708
 5435SOL    HW127941   2.445   4.258   5.254 -1.0018 -0.9833 -0.0789
 5435SOL    HW227942   2.457   4.352   5.151 -1.0793 -0.5913 -3.9851
 5436SOL     OW27943   0.591   1.463   5.517 -0.2863 -0.2084  0.2074
 5436SOL    HW127944   0.534   1.399   5.560 -0.4945  1.5651  2.5677
 5436SOL    HW227945   0.581   1.422   5.431 -0.7745  0.0519  0.1380
 5437SOL     OW27946   0.045   1.328  13.761 -0.0722  0.0216  0.5150
 5437SOL    HW127947   0.098   1.365  13.832  1.4509 -1.4789  0.1630
 5437SOL    HW227948   0.006   1.249  13.800 -0.6144  0.7256  1.4170
 5438SOL     OW27949   0.684   4.069  17.001 -0.3275 -0.3361 -0.8022
 5438SOL    HW127950   0.698   4.095  17.092 -3.0731  1.1484 -0.8241
 5438SOL    HW227951   0.771   4.097  16.970 -0.5972  0.6395 -0.6692
 5439SOL     OW27952   2.090   3.849   4.749 -0.5715 -0.0440  0.0236
 5439SOL    HW127953   2.096   3.904   4.671 -0.9220 -0.2282 -0.1332
 5439SOL    HW227954   2.069   3.766   4.706  1.6252 -0.1177 -0.9071
 5440SOL     OW27955   0.631   0.467   4.439  0.1581 -0.2922 -0.3494
 5440SOL    HW127956   0.710   0.498   4.483 -0.5290  0.9506  0.0089
 5440SOL    HW227957   0.572   0.542   4.442 -0.2786 -0.8014  3.5316
 5441SOL     OW27958   4.472   2.890   2.600 -0.2265 -0.0013  0.3734
 5441SOL    HW127959   4.562   2.859   2.605  0.3214  1.2945 -1.3193
 5441SOL    HW227960   4.440   2.863   2.513 -0.5808 -1.7906  1.0596
 5442SOL     OW27961   2.930   2.135   5.672  0.2553  0.2428  0.0812
 5442SOL    HW127962   2.864   2.119   5.738  0.9293 -2.7375  0.0181
 5442SOL    HW227963   2.880   2.174   5.600  0.5598 -3.0535 -1.9002
 5443SOL     OW27964   4.333   4.184   5.633 -0.8901 -0.3692  0.5932
 5443SOL    HW127965   4.323   4.217   5.722  0.4120 -0.5681  0.8049
 5443SOL    HW227966   4.238   4.171   5.625 -1.0309  0.8012  0.3331
 5444SOL     OW27967   2.264   0.789   2.505  0.1725  0.0162 -0.3771
 5444SOL    HW127968   2.242   0.752   2.590 -2.3914 -0.9418 -1.4440
 5444SOL    HW227969   2.333   0.854   2.516 -0.1109  0.3152 -0.3905
 5445SOL     OW27970   2.635   4.015   9.574 -0.2334 -0.4429 -0.6320
 5445SOL    HW127971   2.558   3.963   9.599 -0.4195 -0.4797 -1.2801
 5445SOL    HW227972   2.588   4.075   9.516 -0.4850  0.3211  0.3584
 5446SOL     OW27973   1.314   0.681   7.310 -0.2768 -0.0856  0.1303
 5446SOL    HW127974   1.363   0.750   7.266 -2.5561  0.8745 -0.9007
 5446SOL    HW227975   1.383   0.626   7.347  1.1719  0.2081 -2.1662
 5447SOL     OW27976   1.223   2.721   1.354  0.0476  0.0182  0.3453
 5447SOL    HW127977   1.178   2.749   1.274  1.4768 -2.9324 -1.5217
 5447SOL    HW227978   1.298   2.781   1.354  0.1318 -0.0861  0.1187
 5448SOL     OW27979   1.853   1.398  11.183  0.2424 -0.2570 -0.1044
 5448SOL    HW127980   1.778   1.457  11.176 -0.7149 -1.1366  2.9937
 5448SOL    HW227981   1.904   1.435  11.255 -1.2243 -0.5082  1.0499
 5449SOL     OW27982   0.348   2.120   4.823  0.6725  0.1629 -0.2697
 5449SOL    HW127983   0.388   2.035   4.808  0.7155  0.3014 -0.9525
 5449SOL    HW227984   0.311   2.118   4.911  2.6887 -0.6748  0.5571
 5450SOL     OW27985   0.193   1.237   4.795 -0.2455  0.5599 -0.2993
 5450SOL    HW127986   0.238   1.152   4.788  0.4005  0.8434  0.4371
 5450SOL    HW227987   0.159   1.229   4.885  1.2804  3.0388  0.4961
 5451SOL     OW27988   3.060   0.220   7.740 -0.2677 -0.1413 -0.4231
 5451SOL    HW127989   3.092   0.259   7.821 -1.7460 -2.6014  1.3355
 5451SOL    HW227990   3.137   0.167   7.716 -1.2930 -1.6555 -0.3762
 5452SOL     OW27991   2.968   4.608  10.416  0.0512  0.3048 -0.6198
 5452SOL    HW127992   2.888   4.659  10.408 -1.2164 -1.6975 -0.7185
 5452SOL    HW227993   3.024   4.671  10.462  1.0998 -0.0495 -1.3985
 5453SOL     OW27994   0.100   4.578   7.684 -0.0467 -0.1035  0.6091
 5453SOL    HW127995   0.061   4.520   7.617 -0.2784  1.9981 -1.0722
 5453SOL    HW227996   0.172   4.521   7.711  0.1412 -1.0710 -1.9015
 5454SOL     OW27997   2.533   1.191   6.629 -0.4920 -0.0783  0.1302
 5454SOL    HW127998   2.621   1.196   6.591  0.3193 -2.3124  1.6992
 5454SOL    HW227999   2.506   1.281   6.613  1.1417  0.4773  0.4769
 5455SOL     OW28000   1.447   2.247   6.868 -0.4671 -0.1462  0.1337
 5455SOL    HW128001   1.438   2.315   6.801 -0.7357  0.6575  0.9859
 5455SOL    HW228002   1.420   2.295   6.946 -1.1352  1.1629 -0.9062
 5456SOL     OW28003   3.171   4.655   3.419 -0.0832  0.4417  0.3047
 5456SOL    HW128004   3.159   4.733   3.474 -2.7346  0.3904 -0.1799
 5456SOL    HW228005   3.181   4.581   3.478  1.5133  0.3168 -0.1246
 5457SOL     OW28006   0.017   2.112   5.362 -0.1172 -0.3191 -0.0367
 5457SOL    HW128007   4.680   2.110   5.304  0.4870  1.5285 -0.8637
 5457SOL    HW228008   0.040   2.200   5.334  0.9363 -0.6843 -0.3446
 5458SOL     OW28009   4.520   2.117   5.772 -0.2836  0.5765 -0.7512
 5458SOL    HW128010   4.556   2.147   5.689 -2.1371 -0.4308 -1.9191
 5458SOL    HW228011   4.594   2.100   5.831 -1.9316 -2.5871  0.4242
 5459SOL     OW28012   1.522   1.679   6.721 -0.5784 -0.0896 -0.0113
 5459SOL    HW128013   1.579   1.676   6.798 -0.6841  2.7329  0.1626
 5459SOL    HW228014   1.443   1.691   6.775  0.8137  0.7380  1.8572
 5460SOL     OW28015   2.706   2.645   8.060 -0.4415 -0.2347  0.7921
 5460SOL    HW128016   2.653   2.645   7.980 -0.2767  1.2675  0.6929
 5460SOL    HW228017   2.717   2.739   8.065  0.4909 -0.4554  2.7691
 5461SOL     OW28018   2.880   1.156   4.283 -0.0862 -0.1325 -0.4659
 5461SOL    HW128019   2.972   1.134   4.270 -0.0111 -0.5399  0.7713
 5461SOL    HW228020   2.833   1.092   4.229  1.0732 -1.7664  0.4704
 5462SOL     OW28021   1.871   1.011   9.647 -0.4527 -0.1538 -0.1351
 5462SOL    HW128022   1.877   1.071   9.573  2.6963 -2.6860 -1.9193
 5462SOL    HW228023   1.921   1.055   9.715 -1.6902  0.6687  0.2459
 5463SOL     OW28024   4.595   2.786   8.831  0.5973 -0.6155  0.3271
 5463SOL    HW128025   4.589   2.860   8.891  0.0159 -0.8126  0.5223
 5463SOL    HW228026   4.542   2.818   8.758  1.3714 -2.1460 -0.9178
 5464SOL     OW28027   0.198   1.073   9.234  0.4419 -0.2241 -0.2622
 5464SOL    HW128028   0.270   1.053   9.174 -0.1427 -2.0115 -0.3684
 5464SOL    HW228029   0.242   1.125   9.301 -0.0411  0.8097 -0.7434
 5465SOL     OW28030   4.273   4.273   8.565 -0.2084  0.3866  0.1889
 5465SOL    HW128031   4.310   4.275   8.477 -1.8909  2.3735 -0.4736
 5465SOL    HW228032   4.352   4.297   8.613 -1.9661  2.5682  1.9908
 5466SOL     OW28033   1.916   2.510   6.129 -0.4983  0.1192  0.1276
 5466SOL    HW128034   1.831   2.518   6.086  0.0866 -0.0613 -1.0840
 5466SOL    HW228035   1.884   2.511   6.219  1.2139 -1.1377  0.7418
 5467SOL     OW28036   2.262   2.416   7.652  0.0962  0.6506  0.0190
 5467SOL    HW128037   2.233   2.503   7.680  0.4307  0.5296  0.7417
 5467SOL    HW228038   2.349   2.434   7.615  1.0246 -0.5825  1.5990
 5468SOL     OW28039   2.610   2.805   0.592 -0.2858  0.1818  0.0814
 5468SOL    HW128040   2.600   2.886   0.643 -1.5378  0.5509 -0.7617
 5468SOL    HW228041   2.704   2.803   0.572  0.1393  1.4749  1.9165
 5469SOL     OW28042   4.417   4.185   9.256 -0.1679  0.1956 -0.0276
 5469SOL    HW128043   4.442   4.136   9.178 -0.0386 -0.1104  0.2094
 5469SOL    HW228044   4.443   4.123   9.324  0.2715  2.1926  1.6236
 5470SOL     OW28045   1.535   1.124   6.526  0.2301  0.3304  0.4696
 5470SOL    HW128046   1.630   1.134   6.527 -0.0278  2.5625  2.5756
 5470SOL    HW228047   1.526   1.033   6.553 -0.3565  0.1795 -0.2377
 5471SOL     OW28048   3.180   2.552   3.042 -0.5711 -0.3520  0.4088
 5471SOL    HW128049   3.129   2.574   2.963 -0.8728 -0.5979  0.5344
 5471SOL    HW228050   3.265   2.588   3.019 -1.1015  1.4058  1.2649
 5472SOL     OW28051   3.987   2.619  10.703  0.1964  0.2153  0.0346
 5472SOL    HW128052   3.967   2.527  10.687  1.4790 -0.2065  0.8670
 5472SOL    HW228053   4.024   2.615  10.791  2.7981 -1.3712 -1.1309
 5473SOL     OW28054   0.471   4.160  16.850 -0.2700 -0.0181 -0.2326
 5473SOL    HW128055   0.526   4.236  16.870  0.2493  0.3697 -3.1353
 5473SOL    HW228056   0.510   4.105  16.918 -2.7698 -0.9417  0.4543
 5474SOL     OW28057   1.108   1.969   1.438 -0.0147 -0.7754  0.0468
 5474SOL    HW128058   1.185   1.927   1.476 -0.2300 -1.0096  0.2306
 5474SOL    HW228059   1.044   1.897   1.441  0.6400 -1.4396 -1.6931
 5475SOL     OW28060   0.613   4.477   4.943 -0.2504 -0.0115 -0.0010
 5475SOL    HW128061   0.586   4.420   4.871 -0.0076 -0.3552  0.1852
 5475SOL    HW228062   0.565   4.554   4.912  0.7738  1.0312  0.9997
 5476SOL     OW28063   3.388   4.162   3.401 -0.2989 -0.1958 -0.5087
 5476SOL    HW128064   3.355   4.170   3.491  0.8847 -0.0924 -0.0878
 5476SOL    HW228065   3.481   4.139   3.404 -0.1790 -0.0167 -2.8561
 5477SOL     OW28066   4.324   0.261   0.613  0.3294  0.0241 -0.2428
 5477SOL    HW128067   4.244   0.210   0.622 -0.4526  1.3627  0.3399
 5477SOL    HW228068   4.389   0.199   0.580  0.5519  0.2633 -0.2596
 5478SOL     OW28069   2.206   1.470   8.008 -0.4825  0.7706  0.0550
 5478SOL    HW128070   2.238   1.507   7.926  1.3607  1.1188  0.9273
 5478SOL    HW228071   2.249   1.531   8.069 -1.9433  1.3814  0.4977
 5479SOL     OW28072   4.628   2.261  14.649 -0.2391  0.2593 -0.0184
 5479SOL    HW128073   4.618   2.234  14.558  1.0491  0.7303 -0.2998
 5479SOL    HW228074   4.709   2.313  14.650 -0.3051  0.3456  1.3165
 5480SOL     OW28075   4.005   2.015   3.137 -0.1214 -0.0367 -0.0017
 5480SOL    HW128076   3.916   1.992   3.163  0.0329 -0.3076  0.2874
 5480SOL    HW228077   4.023   2.087   3.198  0.8912 -0.5103  0.2611
 5481SOL     OW28078   3.943   0.971   7.721 -0.1502 -0.3466 -0.5970
 5481SOL    HW128079   3.874   0.923   7.675  0.6723 -1.0331 -1.0971
 5481SOL    HW228080   3.961   0.901   7.784 -1.3246 -2.3876 -2.5285
 5482SOL     OW28081   3.475   4.657   9.236 -0.2259  0.1283  0.3805
 5482SOL    HW128082   3.491   0.001   9.281 -0.2852  0.3318  0.0247
 5482SOL    HW228083   3.544   4.657   9.170  0.5825  0.4351  1.2159
 5483SOL     OW28084   0.342   1.242  12.059  0.0688  0.0576 -0.0844
 5483SOL    HW128085   0.429   1.216  12.089 -0.6060  0.4232  2.1385
 5483SOL    HW228086   0.283   1.191  12.113  1.5025 -1.5795 -0.0579
 5484SOL     OW28087   2.814   0.885   9.591  0.4473 -0.2745 -0.4953
 5484SOL    HW128088   2.874   0.906   9.662 -1.7880 -3.8436  2.4515
 5484SOL    HW228089   2.848   0.941   9.522 -1.0626  2.6442  1.1515
 5485SOL     OW28090   2.596   1.369   7.557  0.2679 -0.6872 -0.0576
 5485SOL    HW128091   2.633   1.427   7.624  2.3863  0.6837 -2.3688
 5485SOL    HW228092   2.517   1.341   7.602 -0.5585  0.5785 -0.7252
 5486SOL     OW28093   3.562   1.964   6.958  0.2315  0.6066  0.3280
 5486SOL    HW128094   3.471   1.956   6.985  0.3344  0.1913  0.5570
 5486SOL    HW228095   3.571   1.903   6.884  1.1860  2.0921 -0.7923
 5487SOL     OW28096   3.841   1.071   2.263 -0.4909  0.0625 -0.4989
 5487SOL    HW128097   3.883   1.027   2.337 -1.5015 -3.0687 -1.8324
 5487SOL    HW228098   3.896   1.150   2.269 -1.4082  0.5620  1.2916
 5488SOL     OW28099   3.819   4.057   8.790 -0.3017  0.0019  0.2906
 5488SOL    HW128100   3.851   4.108   8.865  0.6002 -0.5595  0.2800
 5488SOL    HW228101   3.862   3.973   8.805  0.9197  0.8709  1.6390
 5489SOL     OW28102   3.671   0.235   0.242  0.0295  0.1943 -0.1806
 5489SOL    HW128103   3.587   0.264   0.277 -0.3241 -2.3860  1.1144
 5489SOL    HW228104   3.736   0.294   0.281 -1.3127  1.2215  0.5202
 5490SOL     OW28105   0.901   1.521   2.976 -0.1086  0.5457  0.4751
 5490SOL    HW128106   0.882   1.613   2.996  0.3254  0.2795  2.1325
 5490SOL    HW228107   0.813   1.485   2.965  0.0376 -0.2740  1.8808
 5491SOL     OW28108   1.341   3.562   0.312 -0.2388  0.0853  0.6372
 5491SOL    HW128109   1.256   3.533   0.344 -0.3585  0.3921  0.5994
 5491SOL    HW228110   1.329   3.578   0.218 -1.1268 -3.4099  0.1848
 5492SOL     OW28111   4.264   3.291   4.115  0.0434  0.4532 -0.4628
 5492SOL    HW128112   4.240   3.234   4.042  3.9220 -0.9390 -0.6254
 5492SOL    HW228113   4.203   3.277   4.187  1.2558 -2.7199 -0.0921
 5493SOL     OW28114   4.155   3.899   0.959  0.0531  0.3604  0.2709
 5493SOL    HW128115   4.239   3.944   0.969  0.6520 -0.5208 -0.7680
 5493SOL    HW228116   4.185   3.822   0.911 -2.8940 -0.5744 -0.0619
 5494SOL     OW28117   2.984   2.603   5.477  0.1514  0.0816 -0.2084
 5494SOL    HW128118   2.958   2.676   5.533  0.9329  0.0411  0.2091
 5494SOL    HW228119   3.032   2.542   5.534 -1.4696 -2.6209 -1.7420
 5495SOL     OW28120   4.417   0.731   9.073 -0.1212  0.1090  0.5097
 5495SOL    HW128121   4.459   0.738   8.987 -0.0505 -0.1010  0.5262
 5495SOL    HW228122   4.332   0.695   9.048  1.0149 -1.2504 -1.3907
 5496SOL     OW28123   3.129   4.254   7.653 -0.2573  0.1128  0.0782
 5496SOL    HW128124   3.073   4.292   7.585 -0.9754  3.5177  2.5494
 5496SOL    HW228125   3.064   4.200   7.699 -0.3367 -0.6293 -0.9021
 5497SOL     OW28126   4.326   2.002   6.164 -0.1886  0.5473 -0.4954
 5497SOL    HW128127   4.395   1.971   6.105  0.9889  0.8397  0.7150
 5497SOL    HW228128   4.291   2.080   6.121 -1.5183  1.0589  1.4712
 5498SOL     OW28129   2.477   0.906  15.736  0.2934  0.3738  0.1667
 5498SOL    HW128130   2.404   0.952  15.777 -1.3180 -1.9599 -0.0590
 5498SOL    HW228131   2.547   0.925  15.798  1.0900 -0.8976 -0.3461
 5499SOL     OW28132   3.136   1.610   2.592 -0.4371 -0.0868 -0.2188
 5499SOL    HW128133   3.177   1.694   2.570  0.0840  0.1835  1.7883
 5499SOL    HW228134   3.080   1.591   2.517 -0.8848 -0.0650  0.1041
 5500SOL     OW28135   0.356   3.685   7.508  0.2960 -0.0031  0.0918
 5500SOL    HW128136   0.333   3.592   7.520  0.2976  0.3145  2.5481
 5500SOL    HW228137   0.281   3.727   7.550 -0.4505  0.6457 -1.9224
 5501SOL     OW28138   2.900   3.706   5.038 -0.0238  0.2427  0.2309
 5501SOL    HW128139   2.940   3.792   5.026  3.1091 -1.6148 -2.7096
 5501SOL    HW228140   2.914   3.692   5.131 -0.9191 -0.7921  0.2139
 5502SOL     OW28141   0.256   2.640   7.551  0.0443  0.1460  0.4734
 5502SOL    HW128142   0.171   2.658   7.592 -1.5416 -1.6580 -2.0513
 5502SOL    HW228143   0.317   2.624   7.624  0.0394 -1.0636  0.2056
 5503SOL     OW28144   0.864   4.347   3.985  0.0206  0.3838 -0.6631
 5503SOL    HW128145   0.848   4.257   4.014 -1.4336  0.8291 -0.1260
 5503SOL    HW228146   0.885   4.384   4.070 -1.2549  0.6552 -0.4699
 5504SOL     OW28147   3.407   4.516   5.173  0.1308  0.8578  0.2708
 5504SOL    HW128148   3.321   4.557   5.181 -0.7910 -0.4540 -2.7893
 5504SOL    HW228149   3.384   4.426   5.147  1.9185  0.9554 -1.6246
 5505SOL     OW28150   2.193   4.252   6.801  0.7984 -0.3878 -0.0580
 5505SOL    HW128151   2.255   4.302   6.854  0.0934  1.1356 -0.6518
 5505SOL    HW228152   2.248   4.182   6.769  0.8174 -1.0938  1.5183
 5506SOL     OW28153   0.268   2.326   0.838 -0.3012 -0.1201  0.3700
 5506SOL    HW128154   0.290   2.258   0.774 -2.6663  0.4642 -1.0742
 5506SOL    HW228155   0.239   2.391   0.775  0.9232  0.9344  0.9042
 5507SOL     OW28156   1.967   4.336  16.131 -0.0854  0.1308 -0.0656
 5507SOL    HW128157   1.884   4.378  16.107 -0.4221  1.0700  2.6771
 5507SOL    HW228158   1.929   4.289  16.205 -2.6069 -0.3607 -1.6732
 5508SOL     OW28159   3.713   0.294  15.269  0.1889  0.1411  0.1162
 5508SOL    HW128160   3.799   0.253  15.264  0.3659  0.6697 -1.2358
 5508SOL    HW228161   3.721   0.332  15.357  1.7644  2.4062 -1.0072
 5509SOL     OW28162   4.105   2.519   6.912 -0.3154 -0.1053  0.2805
 5509SOL    HW128163   4.158   2.466   6.971  0.0426 -0.6600 -0.5389
 5509SOL    HW228164   4.020   2.484   6.936 -0.1502  0.3540  1.5249
 5510SOL     OW28165   0.232   1.590   6.989 -0.0862  0.1491  0.4468
 5510SOL    HW128166   0.245   1.576   7.083 -1.2088 -1.4128  0.3649
 5510SOL    HW228167   0.244   1.498   6.967  1.9009  0.5199  0.0120
 5511SOL     OW28168   1.433   0.240  15.660 -0.0185  0.0445 -0.0534
 5511SOL    HW128169   1.375   0.267  15.589 -2.1504 -0.0756  1.6632
 5511SOL    HW228170   1.471   0.327  15.678  2.8461 -0.7588 -2.2051
 5512SOL     OW28171   0.126   0.641   2.225 -0.1150 -0.7256 -0.7006
 5512SOL    HW128172   0.102   0.600   2.307  2.8107 -1.5502 -0.2463
 5512SOL    HW228173   0.200   0.690   2.261 -0.1095  0.1292 -1.8796
 5513SOL     OW28174   1.061   1.786   3.179  0.1973 -0.4885  0.2008
 5513SOL    HW128175   0.979   1.753   3.142 -0.5296 -1.6961  2.9433
 5513SOL    HW228176   1.064   1.875   3.143 -0.1597 -0.9699 -1.0470
 5514SOL     OW28177   2.511   0.766   9.238  0.1474  0.1950 -0.0034
 5514SOL    HW128178   2.508   0.677   9.271 -2.5984  1.0221  1.9746
 5514SOL    HW228179   2.562   0.811   9.306  2.7964  0.9164 -2.4680
 5515SOL     OW28180   1.693   2.378  13.830  0.2668  0.5086  0.2806
 5515SOL    HW128181   1.765   2.436  13.854 -0.6803  1.5337  0.6270
 5515SOL    HW228182   1.730   2.290  13.831  0.0111  0.4036  0.4164
 5516SOL     OW28183   2.911   4.212   2.237  0.2881 -0.4672 -0.4346
 5516SOL    HW128184   2.824   4.180   2.212  0.5653 -2.2570  0.9041
 5516SOL    HW228185   2.879   4.283   2.292  0.4864 -1.7900  1.3789
 5517SOL     OW28186   2.095   2.579   8.450  0.0481 -0.5860  0.7263
 5517SOL    HW128187   2.112   2.602   8.542 -1.5362  0.7459  0.6889
 5517SOL    HW228188   2.081   2.664   8.410  0.7620 -1.3428 -1.1083
 5518SOL     OW28189   3.168   3.298   2.108  0.4583  0.7520 -0.0642
 5518SOL    HW128190   3.191   3.219   2.058 -0.6816  0.8368 -0.7208
 5518SOL    HW228191   3.086   3.322   2.065  0.2519  2.3132  1.2080
 5519SOL     OW28192   3.885   2.483   5.510  0.0366  0.0553  0.2237
 5519SOL    HW128193   3.807   2.513   5.556  1.5096  1.8353  1.5382
 5519SOL    HW228194   3.953   2.473   5.577  2.5534  2.1238 -1.9932
 5520SOL     OW28195   4.548   2.288   8.781  0.5191 -0.1712  0.3519
 5520SOL    HW128196   4.640   2.275   8.760  0.4147 -0.3573  0.0045
 5520SOL    HW228197   4.534   2.381   8.764 -1.6296 -0.7756 -1.2010
 5521SOL     OW28198   4.257   0.104  16.629  0.9215  0.2475  0.7335
 5521SOL    HW128199   4.202   0.138  16.699  1.6724 -0.2772  1.5747
 5521SOL    HW228200   4.313   0.182  16.619 -0.0901  1.0992  1.7369
 5522SOL     OW28201   2.560   1.421   5.321 -0.1309 -0.0098 -0.1581
 5522SOL    HW128202   2.480   1.473   5.323 -1.5778 -2.2198  0.2892
 5522SOL    HW228203   2.534   1.358   5.388 -0.9789 -0.1009 -0.5776
 5523SOL     OW28204   0.936   3.241   8.114 -0.2725  0.1155 -0.0655
 5523SOL    HW128205   0.847   3.211   8.096  0.0845 -0.2488 -1.2292
 5523SOL    HW228206   0.982   3.157   8.104  0.9055  0.7112  0.3079
 5524SOL     OW28207   1.353   2.876   4.852  0.3235 -0.2892  0.3530
 5524SOL    HW128208   1.289   2.912   4.792  0.1414  0.0175  0.7350
 5524SOL    HW228209   1.384   2.956   4.895  0.9920  0.1496 -0.9699
 5525SOL     OW28210   1.700   1.348  16.791 -0.0829  0.5166  0.8376
 5525SOL    HW128211   1.639   1.277  16.767  1.1857  0.3718 -1.9461
 5525SOL    HW228212   1.760   1.307  16.853 -1.6575 -2.6958  0.2855
 5526SOL     OW28213   1.377   4.585   7.869  0.0253  0.3094  0.1138
 5526SOL    HW128214   1.286   4.600   7.894  0.4460 -0.1413  1.9421
 5526SOL    HW228215   1.401   4.527   7.942  2.3418  2.0063  0.6776
 5527SOL     OW28216   4.557   1.326   3.411  0.5854  0.1027 -0.1845
 5527SOL    HW128217   4.578   1.356   3.322 -1.1635 -0.8320 -0.9083
 5527SOL    HW228218   4.463   1.314   3.405  0.7065 -1.0734  0.3175
 5528SOL     OW28219   2.555   3.987   4.709 -0.0452 -0.1349  0.4283
 5528SOL    HW128220   2.505   3.962   4.787  1.9831  0.4413  1.9071
 5528SOL    HW228221   2.519   4.073   4.684 -2.2208 -1.0754  0.3160
 5529SOL     OW28222   0.963   2.739  11.186  0.2309 -0.3787  0.5769
 5529SOL    HW128223   0.936   2.814  11.239 -3.2374 -1.4144  0.2944
 5529SOL    HW228224   0.927   2.661  11.230 -1.4615  1.5218  2.5688
 5530SOL     OW28225   1.321   0.064   8.592 -0.3525  0.3645  0.0056
 5530SOL    HW128226   1.289   0.149   8.562  1.2015  0.8222 -0.3553
 5530SOL    HW228227   1.243   0.029   8.636 -1.2357  0.2254 -1.6605
 5531SOL     OW28228   2.785   2.948  17.347 -0.2335 -0.5754  0.4982
 5531SOL    HW128229   2.831   2.971  17.427  2.5124  0.0190 -1.2380
 5531SOL    HW228230   2.753   2.862  17.374  0.1319 -0.4975  1.1694
 5532SOL     OW28231   1.983   1.204   4.841  0.7003  0.0917 -0.1813
 5532SOL    HW128232   1.971   1.278   4.782 -0.2627 -1.2948 -1.7185
 5532SOL    HW228233   1.908   1.154   4.810  0.9250 -0.7738  0.6819
 5533SOL     OW28234   1.097   3.456   1.197 -0.7663 -0.3600  0.1461
 5533SOL    HW128235   1.174   3.416   1.239  1.4199  3.7598  0.0353
 5533SOL    HW228236   1.140   3.493   1.119 -1.1701  1.2716  0.7032
 5534SOL     OW28237   4.004   2.664   7.476 -0.3805 -0.3683 -0.4600
 5534SOL    HW128238   4.078   2.602   7.478 -0.2119 -0.1224  0.9285
 5534SOL    HW228239   4.043   2.738   7.429 -0.7484  0.4274  0.5012
 5535SOL     OW28240   3.853   4.594   8.953  0.3339 -0.2345  0.1924
 5535SOL    HW128241   3.885   4.555   8.871  1.3394 -0.7007  0.7969
 5535SOL    HW228242   3.767   4.620   8.920  1.1496 -0.0987 -1.8166
 5536SOL     OW28243   0.230   1.576   3.318 -0.0067 -0.1633 -0.4684
 5536SOL    HW128244   0.192   1.500   3.274 -0.0852 -0.1470 -0.4280
 5536SOL    HW228245   0.283   1.612   3.246 -1.1094  0.7944 -0.8055
 5537SOL     OW28246   4.394   1.065   2.419  0.4712 -0.1215 -0.4798
 5537SOL    HW128247   4.463   1.017   2.373 -1.3983 -2.6030 -0.6385
 5537SOL    HW228248   4.337   0.992   2.442  0.2229  0.8242  1.8750
 5538SOL     OW28249   3.290   2.455   9.249  0.4174 -0.1287 -0.0108
 5538SOL    HW128250   3.206   2.413   9.230  0.7385  0.6147 -3.0030
 5538SOL    HW228251   3.311   2.420   9.336 -1.3028  0.2972  0.5698
 5539SOL     OW28252   3.316   1.660   7.306 -0.3986  0.1079  0.2572
 5539SOL    HW128253   3.329   1.636   7.214  0.0390 -0.3552  0.4382
 5539SOL    HW228254   3.309   1.573   7.345  0.3173  0.5313  1.3298
 5540SOL     OW28255   1.524   0.885   3.968  0.0001 -0.7496 -0.3207
 5540SOL    HW128256   1.585   0.879   3.895 -0.0082 -0.6991 -0.3316
 5540SOL    HW228257   1.578   0.924   4.036 -0.6980  0.3368 -0.3965
 5541SOL     OW28258   1.741   1.303   5.270  0.8594  0.3402 -0.1245
 5541SOL    HW128259   1.652   1.296   5.236  0.0178  3.5337  1.4452
 5541SOL    HW228260   1.784   1.231   5.225  0.6983  0.3686 -0.3237
 5542SOL     OW28261   4.486   3.774   4.459 -0.6049  0.3124  0.3432
 5542SOL    HW128262   4.500   3.680   4.460  1.5206  0.6522  1.6694
 5542SOL    HW228263   4.447   3.792   4.544  3.1087 -1.4208  2.3563
 5543SOL     OW28264   0.249   3.796   1.688 -0.3209 -0.1994  0.2871
 5543SOL    HW128265   0.175   3.846   1.723 -0.3318  0.5039 -0.7323
 5543SOL    HW228266   0.244   3.796   1.593 -0.5037  0.7340  0.2936
 5544SOL     OW28267   2.200   2.884  14.162 -0.8075 -0.3235 -0.5220
 5544SOL    HW128268   2.135   2.938  14.207  1.9665  1.6002  1.2091
 5544SOL    HW228269   2.228   2.939  14.089  2.6043 -1.1259  0.1654
 5545SOL     OW28270   0.263   1.863   4.513  0.3424 -0.2527 -0.1258
 5545SOL    HW128271   0.329   1.846   4.580  2.0908  1.4739 -1.3876
 5545SOL    HW228272   0.188   1.848   4.571 -0.2303  0.9101 -0.5633
 5546SOL     OW28273   3.786   2.304   7.289  0.5540 -0.3120 -0.6452
 5546SOL    HW128274   3.767   2.256   7.369 -0.2052 -1.7581 -1.7114
 5546SOL    HW228275   3.881   2.289   7.282  0.8810  1.2568  0.3355
 5547SOL     OW28276   4.596   3.121   8.704  0.2913  0.3591  0.0657
 5547SOL    HW128277   4.512   3.163   8.724 -0.3175 -1.3603  1.0484
 5547SOL    HW228278   4.619   3.074   8.784  1.0920 -2.6462 -1.9660
 5548SOL     OW28279   1.628   1.513  16.446  0.7293 -0.0794  0.7505
 5548SOL    HW128280   1.605   1.518  16.353  2.6428  0.2488  0.2972
 5548SOL    HW228281   1.710   1.465  16.451  0.7203 -0.1823 -0.1481
 5549SOL     OW28282   3.539   1.671   8.080 -0.2144  0.6083  0.1013
 5549SOL    HW128283   3.472   1.623   8.030 -2.1640  2.4956  0.9010
 5549SOL    HW228284   3.611   1.609   8.085  0.5678  1.6046  1.2571
 5550SOL     OW28285   1.503   4.136   3.998 -0.1180 -0.1209  0.0294
 5550SOL    HW128286   1.540   4.224   3.992 -0.9265  0.1562 -0.9656
 5550SOL    HW228287   1.424   4.152   4.050 -0.0178 -0.7049  0.3627
 5551SOL     OW28288   0.136   3.743  11.418  0.0645 -0.7963  0.7334
 5551SOL    HW128289   0.054   3.772  11.377  1.6791  1.7809 -0.6218
 5551SOL    HW228290   0.116   3.650  11.433  0.1253 -1.2318 -1.8523
 5552SOL     OW28291   4.092   4.626  16.695 -0.6780  0.0776  0.1115
 5552SOL    HW128292   4.101   4.718  16.721  1.7654 -0.1969  0.3131
 5552SOL    HW228293   4.164   4.618  16.632 -0.3645  0.2205  0.4524
 5553SOL     OW28294   4.371   2.667  12.697 -0.1702  0.1067 -0.1787
 5553SOL    HW128295   4.442   2.681  12.760 -1.7501 -1.4752  1.9285
 5553SOL    HW228296   4.357   2.758  12.671 -0.1331  0.3429  0.6434
 5554SOL     OW28297   2.774   2.741  15.533 -0.3274 -0.4510  0.3180
 5554SOL    HW128298   2.695   2.731  15.480 -0.8798  0.1795  1.0381
 5554SOL    HW228299   2.743   2.704  15.615 -1.7460  2.3477  1.0200
 5555SOL     OW28300   4.731   1.643   3.485  0.0693  0.6167 -0.3924
 5555SOL    HW128301   0.064   1.604   3.434 -0.9805 -1.5704 -0.1705
 5555SOL    HW228302   4.655   1.603   3.443 -3.0087  5.2326  0.7647
 5556SOL     OW28303   3.705   4.681   1.569  0.5067  0.1533 -0.2266
 5556SOL    HW128304   3.787   4.691   1.618 -0.8143  1.2154  1.7659
 5556SOL    HW228305   3.657   0.017   1.604  0.2194 -0.3978  0.5493
 5557SOL     OW28306   4.230   0.834   0.335 -0.4543 -0.1492  0.3939
 5557SOL    HW128307   4.300   0.873   0.387  0.7173 -2.7561  0.7533
 5557SOL    HW228308   4.183   0.915   0.316  0.8278  0.6873  0.7604
 5558SOL     OW28309   1.614   0.202  10.610 -0.3472 -0.3327 -0.2193
 5558SOL    HW128310   1.601   0.249  10.693 -0.8049 -0.6673 -0.0975
 5558SOL    HW228311   1.546   0.237  10.552  0.9471 -0.5613 -1.8618
 5559SOL     OW28312   1.808   0.233  17.185 -0.2582 -0.0244  0.0810
 5559SOL    HW128313   1.850   0.170  17.244 -0.8692 -1.3372 -0.8922
 5559SOL    HW228314   1.757   0.170  17.135 -2.2508  1.3458  0.4030
 5560SOL     OW28315   0.075   3.484  10.822  0.5182  0.3340  0.4596
 5560SOL    HW128316   0.132   3.512  10.893  0.2906  0.0351  0.7616
 5560SOL    HW228317   0.003   3.547  10.819 -0.7583 -1.1014  1.0538
 5561SOL     OW28318   1.564   2.954   7.600 -0.0854 -0.4115 -0.1505
 5561SOL    HW128319   1.509   2.885   7.636  0.9679 -2.3173 -2.2368
 5561SOL    HW228320   1.531   3.021   7.660  2.2820  1.2163 -0.6532
 5562SOL     OW28321   3.266   1.103   5.661 -0.0110  0.2927 -0.1014
 5562SOL    HW128322   3.173   1.107   5.636 -0.4491  2.0927  1.8360
 5562SOL    HW228323   3.244   1.078   5.750  1.6606  1.7780  0.7166
 5563SOL     OW28324   3.904   0.449  11.812 -0.0617 -0.1384  0.6760
 5563SOL    HW128325   3.986   0.456  11.861 -0.5482 -0.2586  1.5075
 5563SOL    HW228326   3.874   0.362  11.840 -0.3562  0.3473  1.8534
 5564SOL     OW28327   0.439   3.980   9.544 -0.0527  0.3556  0.0140
 5564SOL    HW128328   0.410   4.025   9.464 -1.9012  1.6949  1.4038
 5564SOL    HW228329   0.371   4.000   9.609 -1.1149  2.2360 -1.6666
 5565SOL     OW28330   3.325   1.803   1.658 -0.2235  0.0369  0.1330
 5565SOL    HW128331   3.345   1.877   1.601 -0.8586  1.2105  1.4469
 5565SOL    HW228332   3.248   1.766   1.614  0.5007  0.5282 -1.5788
 5566SOL     OW28333   2.651   3.375   6.722  0.7063  0.4179  0.0433
 5566SOL    HW128334   2.565   3.374   6.765  1.0671 -2.3131  0.7342
 5566SOL    HW228335   2.703   3.358   6.801 -2.5576 -2.0020  1.6513
 5567SOL     OW28336   3.806   3.132  12.421 -0.2082  0.4576 -0.2643
 5567SOL    HW128337   3.762   3.192  12.481 -0.2699 -1.5640  1.7296
 5567SOL    HW228338   3.824   3.062  12.485  2.4488 -0.9932 -2.5988
 5568SOL     OW28339   3.230   2.473   7.192  0.4344 -0.7480  0.0685
 5568SOL    HW128340   3.222   2.409   7.122 -2.7710 -1.9311  1.5284
 5568SOL    HW228341   3.231   2.554   7.140  0.6554 -0.9234 -0.1984
 5569SOL     OW28342   2.597   0.199   0.305  0.0237 -0.1038  0.1075
 5569SOL    HW128343   2.519   0.152   0.335  0.9641  0.4961  3.4040
 5569SOL    HW228344   2.652   0.137   0.257 -2.4452 -2.3719  0.1990
 5570SOL     OW28345   4.233   2.901   8.711 -0.2891 -0.4206  0.1815
 5570SOL    HW128346   4.240   2.843   8.636 -1.6937  1.4332 -1.3735
 5570SOL    HW228347   4.318   2.946   8.708  0.3648 -1.5764  1.3951
 5571SOL     OW28348   0.519   0.976  13.030 -0.3191  0.2399  0.0159
 5571SOL    HW128349   0.531   1.028  12.950 -2.4125 -2.2434 -1.9443
 5571SOL    HW228350   0.468   0.901  12.999  0.6783 -0.6153  0.4428
 5572SOL     OW28351   2.994   0.024   9.708 -0.2368  0.3866  0.2939
 5572SOL    HW128352   3.086   0.050   9.697 -0.4292  1.9465  2.2109
 5572SOL    HW228353   2.952   0.107   9.686  0.7446  0.4068 -1.4473
 5573SOL     OW28354   3.685   2.969   1.187  0.3680 -0.0941  0.1925
 5573SOL    HW128355   3.709   2.973   1.279  1.5243 -0.5676 -0.0849
 5573SOL    HW228356   3.677   3.063   1.168 -1.8910  0.5652  4.3952
 5574SOL     OW28357   0.265   4.545   6.975  0.7328 -0.1447  0.3270
 5574SOL    HW128358   0.346   4.595   6.983  0.6519  0.0277  0.0522
 5574SOL    HW228359   0.206   4.616   6.951  0.1845 -0.3277  1.0984
 5575SOL     OW28360   0.332   1.379   2.614 -0.3465 -0.1962 -0.1355
 5575SOL    HW128361   0.255   1.435   2.619  0.5985  1.0431  0.4381
 5575SOL    HW228362   0.307   1.342   2.529  2.9138  0.6613 -1.4988
 5576SOL     OW28363   3.086   3.773   9.512  0.7357 -0.9056 -0.1994
 5576SOL    HW128364   3.146   3.836   9.472  1.3286 -0.6764  1.0700
 5576SOL    HW228365   3.008   3.828   9.516  0.7109 -1.2271  3.8232
 5577SOL     OW28366   3.064   1.879   5.657  0.7601 -0.2763  0.0547
 5577SOL    HW128367   3.038   1.971   5.650 -1.0890 -0.8782 -0.7856
 5577SOL    HW228368   3.041   1.856   5.748  0.1312 -0.1024 -0.0572
 5578SOL     OW28369   1.183   3.286   0.577  0.0627  0.2375  0.1573
 5578SOL    HW128370   1.162   3.376   0.553 -1.8395 -0.0601  0.7266
 5578SOL    HW228371   1.122   3.238   0.521 -0.4100  1.5677 -0.4667
 5579SOL     OW28372   1.876   4.195   0.110 -0.6040 -0.2206  0.0443
 5579SOL    HW128373   1.892   4.275   0.060 -1.0891  0.0414  0.3081
 5579SOL    HW228374   1.807   4.151   0.060  1.7044 -0.5492 -2.8578
 5580SOL     OW28375   0.074   3.610  14.000 -0.0562  0.4404  0.5630
 5580SOL    HW128376   0.159   3.576  14.029 -0.1397  0.1933  0.5228
 5580SOL    HW228377   0.011   3.540  14.017  1.1444 -0.7748 -0.0237
 5581SOL     OW28378   1.053   1.445   9.212  0.0229 -0.1368  0.1927
 5581SOL    HW128379   1.100   1.527   9.197  0.5964 -0.5698 -0.3451
 5581SOL    HW228380   1.112   1.418   9.282 -0.0814 -0.8136  0.0174
 5582SOL     OW28381   1.744   1.310   9.361 -0.1929  0.3808 -0.5502
 5582SOL    HW128382   1.810   1.345   9.300  0.9470  1.0942  1.0864
 5582SOL    HW228383   1.783   1.225   9.379  0.4513  0.5760 -1.0174
 5583SOL     OW28384   4.220   0.701   2.124  0.0052 -0.4699  0.0090
 5583SOL    HW128385   4.158   0.774   2.129 -0.9999 -1.2404 -1.1411
 5583SOL    HW228386   4.289   0.740   2.071  0.2080  3.8178  3.4441
 5584SOL     OW28387   2.150   3.250  13.443  0.9887  0.4649 -0.3566
 5584SOL    HW128388   2.137   3.343  13.425 -2.1742  0.0512 -0.2101
 5584SOL    HW228389   2.154   3.225  13.351  3.1410 -0.7359  0.0538
 5585SOL     OW28390   2.134   3.242  11.682  0.6109  0.2750 -0.2507
 5585SOL    HW128391   2.155   3.163  11.733  0.8691  1.2354  1.1496
 5585SOL    HW228392   2.055   3.272  11.727 -1.4895 -1.3455 -2.8884
 5586SOL     OW28393   1.223   3.621   1.014 -0.6129  0.4045  0.0687
 5586SOL    HW128394   1.317   3.640   1.019 -0.6936  1.3657 -2.2766
 5586SOL    HW228395   1.222   3.592   0.923 -4.8634  1.4281 -0.2005
 5587SOL     OW28396   2.120   0.050   9.439  0.0752 -0.1185 -0.6975
 5587SOL    HW128397   2.100   0.081   9.350 -0.4709  1.2035 -0.1307
 5587SOL    HW228398   2.092   0.130   9.485  1.0744 -1.9208  3.0165
 5588SOL     OW28399   0.198   2.252   2.443 -0.0422 -0.2891 -0.1590
 5588SOL    HW128400   0.276   2.237   2.389 -0.0544  1.4073 -0.6288
 5588SOL    HW228401   0.127   2.203   2.400 -0.6055 -0.5820  1.1131
 5589SOL     OW28402   0.933   0.402   1.664  0.2336  0.1902 -0.2079
 5589SOL    HW128403   0.908   0.475   1.606 -0.9131  0.1866  0.2867
 5589SOL    HW228404   1.028   0.419   1.660  0.5931 -2.0398 -0.8848
 5590SOL     OW28405   1.923   3.158   3.608  0.6061 -0.0166  0.1285
 5590SOL    HW128406   1.884   3.106   3.539 -0.7720  0.9642  0.1726
 5590SOL    HW228407   1.848   3.158   3.668  0.2308  1.6412 -0.3472
 5591SOL     OW28408   1.278   2.085  15.519 -0.1450  0.0407 -0.1974
 5591SOL    HW128409   1.209   2.141  15.555 -0.5180 -0.5907  0.0532
 5591SOL    HW228410   1.241   2.057  15.436 -0.8407  2.2752 -0.6329
 5592SOL     OW28411   3.808   1.967   7.596 -0.4115  0.2716  0.3405
 5592SOL    HW128412   3.789   1.992   7.506  1.2689  1.5680  0.3323
 5592SOL    HW228413   3.896   2.006   7.600 -0.4722  0.4661 -0.3761
 5593SOL     OW28414   1.560   1.163   0.764 -0.3022  0.1735 -0.0577
 5593SOL    HW128415   1.470   1.168   0.733 -0.0390 -0.3756 -0.9168
 5593SOL    HW228416   1.571   1.068   0.751  2.8583  0.5378 -0.1548
 5594SOL     OW28417   2.542   1.002   8.417  0.1457 -0.0919  0.0608
 5594SOL    HW128418   2.551   1.056   8.338 -1.1230  0.0213 -0.0147
 5594SOL    HW228419   2.604   1.046   8.475 -0.4046  1.6768 -0.6888
 5595SOL     OW28420   2.246   3.132  16.405 -0.5681 -0.5068  0.2430
 5595SOL    HW128421   2.217   3.075  16.334 -1.9467  1.1834 -0.5625
 5595SOL    HW228422   2.243   3.068  16.476 -2.0231  0.5610  1.1338
 5596SOL     OW28423   2.243   1.118   7.203 -0.3542 -0.0709  0.0206
 5596SOL    HW128424   2.319   1.065   7.230  0.8340  1.2679 -0.6828
 5596SOL    HW228425   2.256   1.107   7.109 -3.1832  0.4672 -0.4166
 5597SOL     OW28426   1.297   1.146   0.662 -0.3787 -0.4200  0.5848
 5597SOL    HW128427   1.261   1.147   0.750  1.1053 -0.6973  1.1789
 5597SOL    HW228428   1.219   1.144   0.606  1.1008 -0.1928 -1.4876
 5598SOL     OW28429   0.735   1.559  14.794 -0.2748  0.1914 -0.6525
 5598SOL    HW128430   0.821   1.542  14.833 -0.8287  0.6237  0.7619
 5598SOL    HW228431   0.723   1.651  14.815 -1.1466 -0.5462  2.1294
 5599SOL     OW28432   3.323   0.634   9.054  0.7508 -0.4686  0.0954
 5599SOL    HW128433   3.267   0.626   8.977 -1.3599  1.5773  1.4246
 5599SOL    HW228434   3.300   0.724   9.078 -1.9265 -0.7983 -1.2972
 5600SOL     OW28435   0.809   4.500   7.078  0.1124 -0.1753  0.1037
 5600SOL    HW128436   0.871   4.438   7.040  0.0120 -0.8171  0.9956
 5600SOL    HW228437   0.725   4.485   7.034 -0.3716  0.9870  0.6473
 5601SOL     OW28438   0.925   4.427   0.056  0.1141  0.0397 -0.3000
 5601SOL    HW128439   0.889   4.382   0.132 -1.1999  3.0864  0.9034
 5601SOL    HW228440   1.018   4.408   0.066  0.0672 -1.0649 -1.9201
 5602SOL     OW28441   1.424   3.331   8.819 -0.5259  0.4771  0.0037
 5602SOL    HW128442   1.330   3.317   8.811 -0.5110 -0.6557  2.1106
 5602SOL    HW228443   1.460   3.289   8.741 -0.1308  2.0727 -0.6906
 5603SOL     OW28444   2.233   2.495  12.934 -0.2373  0.6087  0.5182
 5603SOL    HW128445   2.176   2.484  13.010 -0.1357  0.6993  0.6094
 5603SOL    HW228446   2.320   2.472  12.968  0.9369  1.1104 -2.1458
 5604SOL     OW28447   4.547   1.025   2.768  0.2573  0.4308 -0.3424
 5604SOL    HW128448   4.619   0.982   2.813 -0.6687  0.0168  0.7360
 5604SOL    HW228449   4.579   1.008   2.679  2.9474 -0.1294  0.7242
 5605SOL     OW28450   1.230   2.472   3.124  0.7152  0.0561  0.0288
 5605SOL    HW128451   1.163   2.500   3.061 -0.1776 -0.6242  0.6672
 5605SOL    HW228452   1.201   2.384   3.149 -0.0951  0.3554  0.1438
 5606SOL     OW28453   0.490   3.973   6.942 -0.2302 -0.4687 -0.5157
 5606SOL    HW128454   0.450   4.055   6.913  0.2389  0.0775  0.3971
 5606SOL    HW228455   0.516   3.990   7.032  1.4594 -0.7232 -0.9413
 5607SOL     OW28456   1.949   0.170   0.684 -0.2845  0.2623 -0.2034
 5607SOL    HW128457   1.858   0.147   0.668  0.1723 -1.1019 -0.8262
 5607SOL    HW228458   1.986   0.179   0.596 -0.3784  0.7821 -0.1898
 5608SOL     OW28459   3.404   1.682   4.655  0.3070 -0.0205  0.1574
 5608SOL    HW128460   3.365   1.697   4.568 -0.3877  0.1831  0.5034
 5608SOL    HW228461   3.444   1.768   4.668  0.1703  0.2467 -1.0930
 5609SOL     OW28462   0.395   4.623   5.439 -0.3590 -0.1156 -0.6438
 5609SOL    HW128463   0.464   4.577   5.390 -0.0977  1.4855 -1.7828
 5609SOL    HW228464   0.346   4.665   5.368  0.4105  1.2602 -0.3608
 5610SOL     OW28465   2.229   1.779  13.501  0.2657 -0.0805  0.7260
 5610SOL    HW128466   2.309   1.806  13.546 -0.0797 -0.9837  1.8779
 5610SOL    HW228467   2.261   1.695  13.466  2.3070  1.9317 -2.3022
 5611SOL     OW28468   2.109   2.280   2.770  0.4100 -0.0430  0.1787
 5611SOL    HW128469   2.157   2.202   2.745  1.3200  0.5721  0.0110
 5611SOL    HW228470   2.022   2.239   2.773 -0.2709  1.4020  0.2650
 5612SOL     OW28471   2.777   1.154   0.854 -0.1311  0.6036 -0.1121
 5612SOL    HW128472   2.851   1.139   0.795 -0.7940  4.2233 -1.9254
 5612SOL    HW228473   2.801   1.239   0.891  1.1615 -0.0561  0.5221
 5613SOL     OW28474   4.267   4.165   3.152  0.1081 -0.4562 -0.4040
 5613SOL    HW128475   4.262   4.260   3.137  0.7193 -0.7227 -2.3663
 5613SOL    HW228476   4.219   4.138   3.073 -1.9876  1.3502  0.2473
 5614SOL     OW28477   3.863   2.857   0.109 -0.1504  0.5120 -0.1434
 5614SOL    HW128478   3.835   2.939   0.149 -3.1836 -0.5228 -0.1810
 5614SOL    HW228479   3.798   2.791   0.134  0.4892  0.3834  1.1677
 5615SOL     OW28480   3.914   4.460  12.302 -0.3885 -0.5760  0.5048
 5615SOL    HW128481   3.927   4.428  12.391  1.1553  1.3923  0.9924
 5615SOL    HW228482   3.848   4.528  12.318 -0.4924 -0.5343 -0.0690
 5616SOL     OW28483   0.550   3.745   1.960  0.8435 -0.3444  0.3906
 5616SOL    HW128484   0.636   3.775   1.992  1.3168 -1.7857  0.4695
 5616SOL    HW228485   0.570   3.676   1.898 -0.9151 -0.0168 -0.5335
 5617SOL     OW28486   2.348   3.183   5.679 -0.2262 -0.3530 -0.0516
 5617SOL    HW128487   2.386   3.121   5.616 -0.2273 -1.3910  0.9639
 5617SOL    HW228488   2.338   3.264   5.629  2.2419 -0.2831 -0.4775
 5618SOL     OW28489   0.982   3.132  10.014 -0.0413 -0.2504  0.2515
 5618SOL    HW128490   1.007   3.091   9.932  1.4912  2.3488 -0.5858
 5618SOL    HW228491   0.897   3.090  10.025 -0.2645  0.3673  0.9199
 5619SOL     OW28492   0.464   2.985   6.117 -0.1204  0.5204 -0.3032
 5619SOL    HW128493   0.424   2.914   6.167  2.7393 -1.4808 -0.8405
 5619SOL    HW228494   0.434   3.054   6.176 -0.3063 -0.4491  0.7299
 5620SOL     OW28495   2.693   3.929   6.221  0.5171 -0.0654  0.0368
 5620SOL    HW128496   2.649   3.865   6.165  0.5183  1.1164 -1.3273
 5620SOL    HW228497   2.741   3.974   6.151  1.5110 -1.7542 -0.3518
 5621SOL     OW28498   1.327   4.730  14.989  0.2109  0.4933  0.3431
 5621SOL    HW128499   1.408   4.698  15.027  0.9290  0.6501 -1.0293
 5621SOL    HW228500   1.366   0.043  14.918 -0.9505  0.5462 -0.2655
 5622SOL     OW28501   4.007   3.421  16.062  0.1635  0.3403 -0.4113
 5622SOL    HW128502   4.088   3.465  16.037 -0.7015  2.2565  0.1329
 5622SOL    HW228503   4.027   3.328  16.058 -1.7341 -0.1419  1.0916
 5623SOL     OW28504   3.952   0.396   0.522 -0.0177  0.3304  1.0130
 5623SOL    HW128505   3.860   0.374   0.533 -0.0761  0.5077  0.8696
 5623SOL    HW228506   3.950   0.434   0.434  0.1908  0.3593  1.0198
 5624SOL     OW28507   4.456   4.418   1.733  0.2859  0.8533 -0.0022
 5624SOL    HW128508   4.444   4.323   1.744  1.8094  0.5869 -0.6225
 5624SOL    HW228509   4.415   4.427   1.647  0.5833  2.5324  0.0480
 5625SOL     OW28510   3.112   3.135   9.096  0.1478  0.7148  0.0020
 5625SOL    HW128511   3.200   3.151   9.129  0.3488 -0.0504 -0.1562
 5625SOL    HW228512   3.075   3.222   9.081 -1.9029 -0.1076  0.2164
 5626SOL     OW28513   4.257   1.462  15.689 -0.4922 -0.2605 -0.0155
 5626SOL    HW128514   4.285   1.380  15.731 -0.6719  0.0441  0.7037
 5626SOL    HW228515   4.315   1.529  15.726 -0.0647 -0.6588  0.0354
 5627SOL     OW28516   3.620   2.837   9.014  0.8649 -0.5422 -0.4936
 5627SOL    HW128517   3.700   2.784   9.021 -0.2400 -1.9758  1.5272
 5627SOL    HW228518   3.595   2.836   9.107 -1.2099 -0.0078 -1.0344
 5628SOL     OW28519   4.462   0.654   5.053  0.5168  0.3014  0.6990
 5628SOL    HW128520   4.529   0.711   5.016  0.9254  0.3503  1.4974
 5628SOL    HW228521   4.389   0.674   4.995  2.0463 -2.0513 -2.0622
 5629SOL     OW28522   2.704   2.272   4.146  0.8535 -0.0612  0.3470
 5629SOL    HW128523   2.667   2.361   4.150  1.7976  0.1379  3.7246
 5629SOL    HW228524   2.622   2.223   4.149  0.9322 -0.1955  0.2755
 5630SOL     OW28525   0.442   2.549   8.147  0.3254 -0.0365 -0.7380
 5630SOL    HW128526   0.526   2.583   8.179 -0.7940  0.6554  1.4596
 5630SOL    HW228527   0.392   2.565   8.227  1.2371  1.9174 -0.5598
 5631SOL     OW28528   2.083   3.036  12.099  0.7820 -0.4283 -0.0717
 5631SOL    HW128529   2.151   2.985  12.143  1.4166  1.6741  1.3662
 5631SOL    HW228530   2.004   3.024  12.151  0.1814 -1.3823 -1.2082
 5632SOL     OW28531   3.036   4.499   8.261 -0.3979 -0.6688 -0.1056
 5632SOL    HW128532   2.986   4.433   8.213 -2.7094  0.3983  0.7800
 5632SOL    HW228533   3.113   4.451   8.291  0.7954  0.7751 -0.8997
 5633SOL     OW28534   0.572   2.563  11.117  0.1515  0.0480  0.5555
 5633SOL    HW128535   0.587   2.641  11.064  0.8569  0.9191  2.0545
 5633SOL    HW228536   0.484   2.542  11.086  0.8031 -0.3186 -1.0444
 5634SOL     OW28537   1.593   1.087   4.154  0.9875  0.0706  0.3419
 5634SOL    HW128538   1.582   1.181   4.140  0.9923 -0.0746 -0.6153
 5634SOL    HW228539   1.676   1.093   4.202  1.3042 -1.5351 -0.0099
 5635SOL     OW28540   0.431   0.691   8.596 -0.2107 -0.8780  0.1986
 5635SOL    HW128541   0.478   0.618   8.635  0.6548 -0.1848  0.4490
 5635SOL    HW228542   0.471   0.705   8.510  0.3372  2.0736  0.9471
 5636SOL     OW28543   2.517   2.428   7.078  0.4113  0.1017  0.3526
 5636SOL    HW128544   2.555   2.488   7.142 -1.3663  0.2967  1.2195
 5636SOL    HW228545   2.434   2.403   7.119  0.8568 -0.9941  0.5780
 5637SOL     OW28546   0.299   1.585   1.691  0.4306 -0.2550  0.2623
 5637SOL    HW128547   0.245   1.659   1.664 -1.6687 -1.6591  0.6583
 5637SOL    HW228548   0.315   1.605   1.783 -0.3580 -1.6201  0.6942
 5638SOL     OW28549   2.878   1.742   7.722 -0.0089 -0.5700 -0.1120
 5638SOL    HW128550   2.821   1.811   7.756 -0.8579 -1.7572  0.9035
 5638SOL    HW228551   2.969   1.759   7.746  0.1242 -1.0594 -0.2615
 5639SOL     OW28552   3.912   0.377   6.296  0.3903  0.4823  0.3040
 5639SOL    HW128553   3.855   0.352   6.223  0.6052 -0.3232  0.4111
 5639SOL    HW228554   3.850   0.437   6.337 -1.0323 -1.6910  1.2847
 5640SOL     OW28555   1.185   0.694  10.462  0.4983 -0.2581  0.2896
 5640SOL    HW128556   1.129   0.618  10.476 -1.6849  1.3407  0.2953
 5640SOL    HW228557   1.162   0.718  10.373 -0.4384 -0.8391  0.3817
 5641SOL     OW28558   4.067   3.251   3.598  0.1642 -0.1314  0.4557
 5641SOL    HW128559   4.063   3.160   3.627  2.5373 -0.3345  0.1442
 5641SOL    HW228560   4.082   3.245   3.504  0.9438 -4.7961  0.9112
 5642SOL     OW28561   1.431   1.395  17.613 -0.2216 -0.2325 -0.3333
 5642SOL    HW128562   1.499   1.390  17.546  0.1663  1.9559 -0.1058
 5642SOL    HW228563   1.481   1.444  17.678  0.6287  1.8309 -2.5523
 5643SOL     OW28564   4.230   0.632   0.167  0.7909  0.0603 -0.2257
 5643SOL    HW128565   4.209   0.583   0.246 -0.9820  2.9645  1.1210
 5643SOL    HW228566   4.226   0.722   0.200  0.6793 -0.1994  0.4699
 5644SOL     OW28567   1.184   1.189   8.182 -0.3208  0.0773  0.0449
 5644SOL    HW128568   1.188   1.233   8.097 -2.6373 -2.0673 -1.1947
 5644SOL    HW228569   1.131   1.112   8.162  0.3514 -0.5432  0.6354
 5645SOL     OW28570   2.924   3.541   6.993 -0.4552 -0.4847 -0.3251
 5645SOL    HW128571   2.893   3.451   6.986 -3.5273  0.5811 -0.2128
 5645SOL    HW228572   3.020   3.537   6.994 -0.4149  0.7135  1.2622
 5646SOL     OW28573   3.472   1.561   5.968  0.5804 -0.2953  0.1926
 5646SOL    HW128574   3.396   1.504   5.958 -0.2605  0.8416  0.2007
 5646SOL    HW228575   3.526   1.518   6.034  1.1906  1.4734  0.8514
 5647SOL     OW28576   4.724   3.970   4.899  0.2056 -0.1256 -0.4300
 5647SOL    HW128577   0.077   3.999   4.899  0.8720 -2.2482  2.1477
 5647SOL    HW228578   4.693   3.993   4.987 -2.6450 -2.4767 -0.8114
 5648SOL     OW28579   4.105   1.558   6.919 -0.8085 -0.4497  0.1191
 5648SOL    HW128580   4.099   1.573   6.825 -1.3157 -1.2754  0.0241
 5648SOL    HW228581   4.180   1.499   6.915  0.7039  1.4566  0.2939
 5649SOL     OW28582   4.648   3.441   2.611 -0.2316 -0.0859 -0.3428
 5649SOL    HW128583   4.655   3.483   2.526  2.1575 -0.1787 -0.1933
 5649SOL    HW228584   4.600   3.360   2.597  5.2788 -2.8675 -3.0523
 5650SOL     OW28585   0.744   1.845   6.606  0.0973 -0.4334 -0.1681
 5650SOL    HW128586   0.729   1.753   6.588  4.8229 -1.3914  0.6623
 5650SOL    HW228587   0.731   1.887   6.521 -0.6280  0.0730  0.1957
 5651SOL     OW28588   3.959   4.220  15.620  0.2370 -0.3554 -0.1387
 5651SOL    HW128589   4.002   4.298  15.587 -1.0967  0.8700  1.0466
 5651SOL    HW228590   3.872   4.230  15.582 -0.3807 -1.6300  0.9103
 5652SOL     OW28591   3.698   3.946   5.814 -0.3223  0.0003  0.0027
 5652SOL    HW128592   3.645   3.956   5.736  0.9236 -1.9207 -1.1114
 5652SOL    HW228593   3.679   3.855   5.838 -1.0166  0.0602 -0.3501
 5653SOL     OW28594   3.805   2.778   5.156  0.6108 -0.1867  0.0873
 5653SOL    HW128595   3.855   2.772   5.238 -1.7400  1.6959  1.6221
 5653SOL    HW228596   3.811   2.687   5.126 -0.0398  1.0260 -3.6612
 5654SOL     OW28597   3.320   3.626   5.543 -0.0570  0.6517 -0.1119
 5654SOL    HW128598   3.285   3.542   5.516 -0.9565  0.1258  2.6955
 5654SOL    HW228599   3.243   3.680   5.523  0.9445  2.2368  0.2512
 5655SOL     OW28600   2.960   4.615   2.537  0.0685  0.1207  0.1809
 5655SOL    HW128601   3.024   4.683   2.559 -0.1886  0.5486 -0.4169
 5655SOL    HW228602   2.984   4.555   2.608 -0.3472  0.7159  0.8260
 5656SOL     OW28603   0.275   1.242   2.865 -0.0543  0.0573 -0.0061
 5656SOL    HW128604   0.336   1.187   2.913  0.2229 -0.3461 -0.8206
 5656SOL    HW228605   0.322   1.282   2.792 -0.3711 -0.1978 -0.3528
 5657SOL     OW28606   1.856   2.868   4.559  0.2130 -0.0212 -0.9508
 5657SOL    HW128607   1.904   2.803   4.612 -0.4585 -0.7967 -1.2950
 5657SOL    HW228608   1.900   2.865   4.474  0.7017 -1.2266 -0.6616
 5658SOL     OW28609   1.974   3.865   9.709  0.1013  0.0608  0.1248
 5658SOL    HW128610   2.019   3.826   9.784 -0.2043  3.8601  2.2861
 5658SOL    HW228611   1.884   3.860   9.743 -0.1606 -0.0328 -0.5812
 5659SOL     OW28612   2.189   1.180   3.804 -0.3293 -0.5140 -0.2906
 5659SOL    HW128613   2.227   1.197   3.717 -0.6560  3.8164  0.4528
 5659SOL    HW228614   2.144   1.263   3.817 -1.2744 -1.0418 -0.1440
 5660SOL     OW28615   0.311   3.072  10.336 -0.4653 -0.4814  0.1126
 5660SOL    HW128616   0.322   3.138  10.405  2.2293 -0.5635 -0.2509
 5660SOL    HW228617   0.266   3.002  10.382 -0.7044 -1.1066 -1.0778
 5661SOL     OW28618   3.953   2.065  14.919 -0.1703  0.0701 -0.0123
 5661SOL    HW128619   3.931   2.062  14.826 -0.9011  0.1844  0.1634
 5661SOL    HW228620   3.980   1.973  14.918 -0.6235 -0.0716  0.4848
 5662SOL     OW28621   4.607   1.097  13.429  0.5332 -0.1258  0.3420
 5662SOL    HW128622   4.621   1.093  13.334  0.0010  3.2159  0.1267
 5662SOL    HW228623   4.632   1.183  13.463 -2.6900  1.4314 -1.2411
 5663SOL     OW28624   0.159   1.871  13.923 -0.2359 -0.0952 -0.0634
 5663SOL    HW128625   0.076   1.913  13.901 -1.3110 -1.4404  1.3651
 5663SOL    HW228626   0.199   1.945  13.969  0.8890 -2.1213  2.2590
 5664SOL     OW28627   4.138   0.826  14.658  0.4720  0.5361  0.5338
 5664SOL    HW128628   4.068   0.815  14.593  0.8828  0.1084  0.1629
 5664SOL    HW228629   4.199   0.881  14.609  1.1167 -0.0399  0.6965
 5665SOL     OW28630   3.123   3.396   8.561 -0.5703  0.2053 -0.3633
 5665SOL    HW128631   3.104   3.326   8.498  0.4562 -1.5491  1.2768
 5665SOL    HW228632   3.176   3.352   8.628 -0.2419  0.8149 -0.2283
 5666SOL     OW28633   2.871   3.884  12.116 -0.3452  0.4867 -0.1223
 5666SOL    HW128634   2.783   3.866  12.085  0.1570 -1.0489 -0.6648
 5666SOL    HW228635   2.859   3.913  12.207 -0.3574  0.8119 -0.2284
 5667SOL     OW28636   1.024   1.502  14.856  0.8448  0.1893  0.3200
 5667SOL    HW128637   1.063   1.415  14.851 -2.4589 -1.2407 -0.2052
 5667SOL    HW228638   1.082   1.557  14.802  0.2195  1.3374  0.8186
 5668SOL     OW28639   4.254   0.664   3.140 -0.1247 -0.2630 -0.0887
 5668SOL    HW128640   4.309   0.613   3.080 -0.3728 -1.3718  0.6332
 5668SOL    HW228641   4.182   0.683   3.080 -1.6214 -0.5983  1.5914
 5669SOL     OW28642   1.977   0.023   5.029 -0.2704  0.1817  0.3839
 5669SOL    HW128643   1.971   4.668   5.011  0.3294  0.0984  0.6102
 5669SOL    HW228644   2.018   0.049   4.947 -1.9147  2.5144  0.3083
 5670SOL     OW28645   3.412   3.883  17.573  0.3624 -0.4347  0.2594
 5670SOL    HW128646   3.444   3.912  17.487 -3.7102  0.0110 -1.1374
 5670SOL    HW228647   3.331   3.934  17.579  0.0216 -1.0777  1.1300
 5671SOL     OW28648   0.138   4.335   6.081  0.2035  0.3532  0.1445
 5671SOL    HW128649   0.054   4.350   6.039  0.8572  0.4853 -1.1395
 5671SOL    HW228650   0.194   4.373   6.012  0.1540 -1.5763 -0.9584
 5672SOL     OW28651   2.116   4.683   0.391 -0.0738  0.4719  0.7296
 5672SOL    HW128652   2.033   4.639   0.412 -1.3723  2.3630 -0.4743
 5672SOL    HW228653   2.097   0.037   0.404 -0.4481  0.4744  0.1418
 5673SOL     OW28654   3.744   2.345  13.794 -0.4567 -0.4460 -0.1460
 5673SOL    HW128655   3.767   2.254  13.778  1.5733 -0.0867  0.8285
 5673SOL    HW228656   3.670   2.323  13.851  0.1183  0.5825  0.9962
 5674SOL     OW28657   0.683   3.082  14.613 -0.6621  0.1477  0.4377
 5674SOL    HW128658   0.643   3.006  14.571 -1.9230 -0.1087  2.1076
 5674SOL    HW228659   0.707   3.049  14.700  0.3093 -1.1038 -0.2966
 5675SOL     OW28660   3.348   3.662   7.509 -0.7860 -0.3494  0.2355
 5675SOL    HW128661   3.302   3.743   7.487  0.4775 -0.0603 -1.3877
 5675SOL    HW228662   3.408   3.689   7.578  0.1382 -0.3505 -0.5513
 5676SOL     OW28663   1.123   1.204   1.888 -0.4162  0.3169  0.1885
 5676SOL    HW128664   1.192   1.156   1.933  1.1449 -0.2303 -2.8190
 5676SOL    HW228665   1.142   1.285   1.937  1.5516 -1.6505  2.6607
 5677SOL     OW28666   2.218   3.030   4.248 -0.2631  0.4600 -0.0805
 5677SOL    HW128667   2.239   2.978   4.171 -0.9746 -0.5645  0.4096
 5677SOL    HW228668   2.296   3.028   4.303 -1.9172  2.9217  2.3797
 5678SOL     OW28669   0.013   4.124   8.640 -0.6882 -0.6342  0.4749
 5678SOL    HW128670   0.105   4.102   8.625  0.2169  3.5054  0.0093
 5678SOL    HW228671   4.730   4.165   8.556 -0.6804  2.8485  2.2013
 5679SOL     OW28672   2.352   1.733  14.195 -0.1586 -0.1848  0.1301
 5679SOL    HW128673   2.367   1.821  14.229  0.2902  0.3872 -1.5974
 5679SOL    HW228674   2.259   1.727  14.216 -0.4444  0.4159 -0.9687
 5680SOL     OW28675   0.170   1.509   4.472  0.1941 -0.6589  0.2245
 5680SOL    HW128676   0.208   1.422   4.482  0.8168 -0.6489 -2.1137
 5680SOL    HW228677   0.184   1.527   4.379 -1.2894 -1.8914 -0.2365
 5681SOL     OW28678   3.459   3.541   6.881 -0.2850 -0.0093 -0.0339
 5681SOL    HW128679   3.467   3.603   6.953  0.4191 -0.6926  0.4726
 5681SOL    HW228680   3.385   3.577   6.832 -0.6243 -0.2333  0.3089
 5682SOL     OW28681   2.033   2.257   2.034  0.3096  0.8588  0.1628
 5682SOL    HW128682   2.110   2.312   2.047  2.0831 -0.9416 -2.7248
 5682SOL    HW228683   2.018   2.230   2.124 -1.1012 -1.6988 -0.8456
 5683SOL     OW28684   3.598   2.721   6.368 -0.0854 -0.4010  0.5902
 5683SOL    HW128685   3.516   2.722   6.418 -1.3256  1.6610 -1.5043
 5683SOL    HW228686   3.644   2.655   6.420  0.3924 -0.9475 -0.5316
 5684SOL     OW28687   3.114   4.637  12.249  0.1695 -0.1093  0.5007
 5684SOL    HW128688   3.030   4.618  12.291  0.9151 -0.7839  1.6604
 5684SOL    HW228689   3.161   4.556  12.267  0.7087  0.0700 -0.0915
 5685SOL     OW28690   1.088   3.443   8.217 -0.2450 -0.7003 -0.1647
 5685SOL    HW128691   1.096   3.510   8.149 -0.0452  0.7467  1.2741
 5685SOL    HW228692   1.042   3.368   8.181 -1.2076 -0.6809  1.0022
 5686SOL     OW28693   2.204   3.497   7.870 -0.2442 -0.0306  0.1226
 5686SOL    HW128694   2.238   3.582   7.900 -2.0615  0.1626  1.6673
 5686SOL    HW228695   2.239   3.500   7.781  0.8161  1.3994  0.5737
 5687SOL     OW28696   1.395   2.642   2.692 -0.1261 -0.0609  0.0469
 5687SOL    HW128697   1.342   2.715   2.725 -0.7561 -0.6134  0.2421
 5687SOL    HW228698   1.419   2.674   2.605  1.3940 -2.9078 -0.5757
 5688SOL     OW28699   4.723   4.211   8.348  0.4599 -0.0212 -0.5593
 5688SOL    HW128700   4.671   4.257   8.283  1.2381  1.2779 -0.2668
 5688SOL    HW228701   0.038   4.153   8.294  0.9298 -0.1569  0.0449
 5689SOL     OW28702   2.722   0.712   7.345  0.0175  0.4310 -0.5548
 5689SOL    HW128703   2.679   0.636   7.306  0.9327 -1.0282  1.2861
 5689SOL    HW228704   2.809   0.702   7.306  1.0206 -0.3452  1.8732
 5690SOL     OW28705   1.837   3.949   0.302  0.3604 -0.3170 -0.0078
 5690SOL    HW128706   1.862   4.030   0.257 -0.0263 -0.4390 -0.4403
 5690SOL    HW228707   1.883   3.892   0.240 -0.2646 -0.7022 -0.1207
 5691SOL     OW28708   4.123   3.753  12.111  0.2599  0.0990 -0.0713
 5691SOL    HW128709   4.190   3.689  12.088 -0.5710 -1.2042  1.0685
 5691SOL    HW228710   4.133   3.810  12.035  0.2675 -0.8625 -0.7915
 5692SOL     OW28711   3.997   1.654  14.260  0.4617  0.1252 -0.3578
 5692SOL    HW128712   3.992   1.664  14.165  0.3272  0.2213 -0.3408
 5692SOL    HW228713   3.903   1.652  14.279 -0.1140 -3.5897 -3.4454
 5693SOL     OW28714   4.520   1.010  13.156  0.4764  0.1681  0.2382
 5693SOL    HW128715   4.538   0.916  13.168 -0.1434 -0.0648 -0.6404
 5693SOL    HW228716   4.509   1.018  13.061  1.0279 -0.6673  0.1033
 5694SOL     OW28717   4.570   0.787  10.026 -0.2869 -0.9584  0.5624
 5694SOL    HW128718   4.645   0.761   9.972  0.4036 -0.1556  1.1241
 5694SOL    HW228719   4.506   0.777   9.956 -1.4609  1.7322  1.2327
 5695SOL     OW28720   0.393   3.534   6.682 -0.1302 -0.1416 -0.0641
 5695SOL    HW128721   0.472   3.543   6.735  0.3199 -1.2146 -0.5466
 5695SOL    HW228722   0.373   3.627   6.672 -1.2636 -0.4910 -0.9691
 5696SOL     OW28723   2.792   1.093   8.080 -0.0653 -0.0067 -0.2850
 5696SOL    HW128724   2.712   1.088   8.133 -0.5639 -2.7978 -1.3338
 5696SOL    HW228725   2.856   1.075   8.149 -0.2445  1.4012  0.2664
 5697SOL     OW28726   4.057   2.296   1.644 -1.0338  0.0787 -0.3294
 5697SOL    HW128727   4.128   2.342   1.688  0.3072 -1.0334 -1.3458
 5697SOL    HW228728   3.998   2.370   1.629  0.7841  1.7251  0.5949
 5698SOL     OW28729   4.704   0.516   8.245 -0.4580 -0.0577  0.6128
 5698SOL    HW128730   0.018   0.578   8.297  2.1090 -0.9489 -0.9096
 5698SOL    HW228731   4.625   0.507   8.298  1.5865 -1.0480  3.4591
 5699SOL     OW28732   3.622   3.231   7.226 -0.4268 -0.2992 -0.0603
 5699SOL    HW128733   3.579   3.183   7.156  0.8235  2.2159 -2.5591
 5699SOL    HW228734   3.684   3.285   7.177 -1.2407 -0.8098 -1.6320
 5700SOL     OW28735   2.898   3.884   6.417 -0.2877  0.0409 -0.0745
 5700SOL    HW128736   2.955   3.814   6.386  0.3491  0.1841  0.7668
 5700SOL    HW228737   2.854   3.906   6.335  0.2405 -1.8105 -0.8586
 5701SOL     OW28738   2.619   1.209   2.853  0.6635 -0.0890  0.3944
 5701SOL    HW128739   2.642   1.246   2.939  2.9215  1.3750 -0.8570
 5701SOL    HW228740   2.697   1.237   2.807  0.8034  1.1289  1.3593
 5702SOL     OW28741   2.684   3.197  11.054 -0.1769 -0.1650  0.1182
 5702SOL    HW128742   2.630   3.267  11.018  0.5683 -0.7387 -2.1184
 5702SOL    HW228743   2.695   3.234  11.142 -0.7236  1.6812 -0.5900
 5703SOL     OW28744   4.478   0.997   5.891 -0.2440  0.6921  0.2669
 5703SOL    HW128745   4.437   0.911   5.877 -0.5655  0.9987 -0.7009
 5703SOL    HW228746   4.519   1.017   5.807  1.6226  0.0937  1.0531
 5704SOL     OW28747   3.786   2.418  11.143 -0.1575  0.1183  0.1886
 5704SOL    HW128748   3.821   2.419  11.054 -1.4980 -0.4553 -0.3505
 5704SOL    HW228749   3.840   2.345  11.175  2.4943  1.4948 -1.1358
 5705SOL     OW28750   3.355   1.907   9.685  0.2959  0.0612  0.2686
 5705SOL    HW128751   3.333   1.962   9.610  0.0037 -0.3275  0.0721
 5705SOL    HW228752   3.393   1.973   9.743 -0.1892 -0.5295  1.2562
 5706SOL     OW28753   2.770   0.383   7.592  0.1792  0.3819  0.2236
 5706SOL    HW128754   2.859   0.389   7.627  0.0480 -0.9280  0.7820
 5706SOL    HW228755   2.719   0.378   7.673 -0.7368  1.9275 -0.2510
 5707SOL     OW28756   3.408   1.485  11.885  0.9418  0.0259 -0.4822
 5707SOL    HW128757   3.339   1.491  11.951  0.0871  0.8405 -1.4307
 5707SOL    HW228758   3.482   1.507  11.940  0.1419  1.1636  0.1561
 5708SOL     OW28759   1.377   3.811  10.092 -0.2095 -0.4012 -0.0534
 5708SOL    HW128760   1.318   3.801  10.017  2.4584 -0.2680 -2.1770
 5708SOL    HW228761   1.346   3.740  10.147 -0.2280 -0.3695 -0.0232
 5709SOL     OW28762   2.393   2.092  12.103  0.3781 -0.1343  0.6197
 5709SOL    HW128763   2.453   2.028  12.143  0.6778 -0.8717 -1.0037
 5709SOL    HW228764   2.353   2.122  12.185 -0.0863 -3.0773  1.4768
 5710SOL     OW28765   3.072   0.139   6.973 -0.1048 -0.2215 -0.2087
 5710SOL    HW128766   2.992   0.165   7.019  0.1709 -1.3569  0.9238
 5710SOL    HW228767   3.129   0.106   7.042 -0.6659 -0.8368 -0.0328
 5711SOL     OW28768   0.250   4.491  15.478 -0.0007  0.3908 -0.4208
 5711SOL    HW128769   0.286   4.402  15.482 -0.4804  0.1551 -1.3599
 5711SOL    HW228770   0.244   4.507  15.572 -0.1416  1.4303 -0.6089
 5712SOL     OW28771   0.611   1.789   6.067 -0.4016  0.4905  0.1237
 5712SOL    HW128772   0.675   1.860   6.079  1.7364 -1.6408  1.3273
 5712SOL    HW228773   0.550   1.825   6.132 -1.2352 -0.0440 -0.3715
 5713SOL     OW28774   1.634   3.142   3.083  0.0458  0.0506 -0.1882
 5713SOL    HW128775   1.678   3.203   3.025  0.7938 -1.1916 -0.9139
 5713SOL    HW228776   1.681   3.061   3.067  3.3786  1.7727  0.9800
 5714SOL     OW28777   0.334   3.666   3.067  0.4123 -0.2737 -0.3395
 5714SOL    HW128778   0.354   3.752   3.104 -1.8222  0.5305 -1.0164
 5714SOL    HW228779   0.289   3.689   2.986 -0.3599 -0.1134  0.1414
 5715SOL     OW28780   3.930   3.681   6.072 -0.4234 -0.8916 -0.3198
 5715SOL    HW128781   3.837   3.679   6.048 -0.2096  0.2656 -1.2589
 5715SOL    HW228782   3.979   3.603   6.045  0.8017  0.0772 -0.9030
 5716SOL     OW28783   0.004   2.898   7.276  0.4912 -1.0775  0.5875
 5716SOL    HW128784   0.036   2.943   7.355 -0.1523  1.4210 -0.5812
 5716SOL    HW228785   4.679   2.841   7.320 -2.2134  1.5957  0.1287
 5717SOL     OW28786   2.036   3.763   3.329 -0.9795  0.4119  0.4132
 5717SOL    HW128787   2.095   3.688   3.343  2.0636  2.6654 -0.3189
 5717SOL    HW228788   1.964   3.716   3.287 -0.9341 -0.6260  1.4966
 5718SOL     OW28789   2.125   0.626   6.824 -0.1505  0.1444 -0.0467
 5718SOL    HW128790   2.191   0.660   6.764  0.8555  2.2005  2.2247
 5718SOL    HW228791   2.155   0.539   6.849 -3.0232 -0.6253  0.7003
 5719SOL     OW28792   0.692   3.398   9.616 -0.0147 -0.6471  0.5586
 5719SOL    HW128793   0.776   3.430   9.584 -0.5280  0.7801  0.6372
 5719SOL    HW228794   0.685   3.310   9.578  1.2571 -0.7460  0.5528
 5720SOL     OW28795   0.087   3.953  16.570  0.1286 -0.5560  0.3427
 5720SOL    HW128796   0.000   3.939  16.533  0.8018 -1.7061 -0.8335
 5720SOL    HW228797   0.143   3.894  16.518  1.2381 -2.8953  4.1590
 5721SOL     OW28798   0.285   3.659   8.322  0.4458 -0.1269 -0.4447
 5721SOL    HW128799   0.353   3.717   8.288 -0.0164 -0.4670 -1.9262
 5721SOL    HW228800   0.333   3.575   8.320 -0.0247 -0.4694  2.4963
 5722SOL     OW28801   3.256   3.893  12.122  0.4009  0.1957 -0.5622
 5722SOL    HW128802   3.304   3.967  12.083 -0.0288  1.2854  0.9532
 5722SOL    HW228803   3.223   3.931  12.204 -0.0711  2.4548 -1.7848
 5723SOL     OW28804   2.657   4.000   3.299  0.8238 -0.3672  0.0766
 5723SOL    HW128805   2.576   3.994   3.248 -0.0461  1.5974  1.2123
 5723SOL    HW228806   2.678   4.088   3.267  0.6944 -0.6961 -0.9100
 5724SOL     OW28807   3.185   3.864   2.969 -0.9697 -0.5220  0.5686
 5724SOL    HW128808   3.219   3.953   2.975  0.7834 -1.0932 -1.0156
 5724SOL    HW228809   3.259   3.809   2.996  1.2999  1.1662 -2.2880
 5725SOL     OW28810   2.596   2.975  16.238  0.7308  0.5905  0.1100
 5725SOL    HW128811   2.687   3.000  16.219  0.3852 -0.1208 -2.4169
 5725SOL    HW228812   2.551   3.059  16.236 -2.3772 -1.0165  2.4472
 5726SOL     OW28813   2.973   3.857   2.804  0.3583 -0.1826  0.5383
 5726SOL    HW128814   2.908   3.889   2.866 -0.1402  0.0164 -0.0910
 5726SOL    HW228815   3.045   3.851   2.868  0.6124  0.5832  0.3300
 5727SOL     OW28816   2.794   4.354   8.184  0.2599  0.1501  0.1783
 5727SOL    HW128817   2.715   4.348   8.129  0.7194 -2.6291 -0.1862
 5727SOL    HW228818   2.764   4.404   8.260 -0.4410 -0.4715  0.3129
 5728SOL     OW28819   1.397   1.754  11.414 -0.3508 -0.4502  0.1964
 5728SOL    HW128820   1.349   1.676  11.443 -0.8104 -0.3809 -0.3878
 5728SOL    HW228821   1.409   1.800  11.497  1.4305  0.7046 -0.7069
 5729SOL     OW28822   3.044   2.629   9.024 -0.5557 -0.1394  0.2167
 5729SOL    HW128823   3.037   2.621   8.929  0.6389  2.1105 -0.0764
 5729SOL    HW228824   3.115   2.692   9.039 -0.3366 -1.2469  3.8245
 5730SOL     OW28825   1.483   2.791   4.505 -0.3277 -0.9314  0.1910
 5730SOL    HW128826   1.516   2.856   4.442 -1.5099  1.0718  1.6248
 5730SOL    HW228827   1.512   2.706   4.473 -3.0611 -2.0962  0.7778
 5731SOL     OW28828   1.268   2.372  13.076 -0.1034  0.9001 -0.5074
 5731SOL    HW128829   1.346   2.357  13.130 -2.6222 -2.0276  2.3465
 5731SOL    HW228830   1.239   2.282  13.061  1.1022  0.4934 -0.4320
 5732SOL     OW28831   0.715   1.707  16.438  0.2635 -1.0776 -0.4571
 5732SOL    HW128832   0.684   1.796  16.452 -2.1649 -2.0683  0.4012
 5732SOL    HW228833   0.654   1.677  16.371  1.2574 -1.8000 -1.0381
 5733SOL     OW28834   0.534   3.678   3.335  0.2340  0.1603 -0.5779
 5733SOL    HW128835   0.449   3.648   3.368  0.7224 -1.4455 -0.7678
 5733SOL    HW228836   0.532   3.623   3.257 -0.5455  1.0011 -1.1528
 5734SOL     OW28837   1.538   0.692   6.974 -0.1759  0.4329  0.4042
 5734SOL    HW128838   1.537   0.657   6.885 -0.2880  1.3869  0.0383
 5734SOL    HW228839   1.589   0.627   7.024  0.2100 -0.1632 -0.7620
 5735SOL     OW28840   3.666   0.131  17.452 -0.3129 -0.0174 -0.4651
 5735SOL    HW128841   3.624   0.209  17.488  0.3949 -0.1450  0.6554
 5735SOL    HW228842   3.603   0.062  17.473  0.7646 -0.3196  1.7908
 5736SOL     OW28843   4.514   3.296   8.265  0.2380 -0.2329  0.2879
 5736SOL    HW128844   4.532   3.319   8.174 -1.2503  1.5859  0.4447
 5736SOL    HW228845   4.536   3.373   8.317 -2.5847  0.0893  1.0010
 5737SOL     OW28846   1.753   0.692   3.139 -0.1767  0.2876 -0.2850
 5737SOL    HW128847   1.738   0.739   3.058 -1.2297  1.6453  0.7066
 5737SOL    HW228848   1.823   0.744   3.178  0.0477  1.5544 -2.4141
 5738SOL     OW28849   2.078   2.059   3.591  0.2335 -0.3174 -0.0354
 5738SOL    HW128850   2.033   2.054   3.676  0.6352 -1.4775  0.1056
 5738SOL    HW228851   2.012   2.014   3.538 -0.7255 -0.8263  1.5817
 5739SOL     OW28852   0.850   1.556  13.009 -0.0378  0.2574  0.3823
 5739SOL    HW128853   0.790   1.562  13.083 -0.5490  0.5213 -0.0561
 5739SOL    HW228854   0.796   1.605  12.947  1.3732  0.6953 -0.4954
 5740SOL     OW28855   3.018   1.164   8.588  0.1788  0.1710 -0.1646
 5740SOL    HW128856   3.110   1.160   8.560  0.3923 -1.3085  0.7516
 5740SOL    HW228857   3.014   1.260   8.593 -1.2523  0.0673  0.7506
 5741SOL     OW28858   4.586   2.715   6.023 -0.4716 -0.0213 -0.2653
 5741SOL    HW128859   4.573   2.695   6.116 -1.0620 -1.9362 -0.7689
 5741SOL    HW228860   4.663   2.771   6.030  1.7962 -3.1407 -0.2370
 5742SOL     OW28861   3.263   3.171   4.797  0.1639 -0.0474  0.5548
 5742SOL    HW128862   3.355   3.180   4.823  0.1609  1.9769 -0.1430
 5742SOL    HW228863   3.271   3.130   4.710  1.9319  2.6294 -0.5718
 5743SOL     OW28864   0.486   3.036   9.285 -0.0245  0.2757 -0.3272
 5743SOL    HW128865   0.402   3.037   9.240 -0.9308 -1.2344  1.3019
 5743SOL    HW228866   0.498   2.941   9.278  1.5521  0.3619  1.2015
 5744SOL     OW28867   1.072   1.740  10.205  0.1527  0.2522 -0.0697
 5744SOL    HW128868   1.059   1.793  10.283  1.1335  0.7854 -0.2754
 5744SOL    HW228869   0.987   1.743  10.162  0.2692  0.8626 -0.2567
 5745SOL     OW28870   4.555   1.629   2.994  0.4306 -0.1688 -0.1904
 5745SOL    HW128871   4.590   1.628   2.905  2.1092  0.5857  0.4544
 5745SOL    HW228872   4.619   1.686   3.036 -0.8466  1.9942 -1.2255
 5746SOL     OW28873   3.813   2.152   7.002  0.0204 -0.6364  0.6563
 5746SOL    HW128874   3.737   2.111   7.044 -0.6560 -0.0205  0.0253
 5746SOL    HW228875   3.821   2.083   6.936 -0.9441 -2.2729  2.2574
 5747SOL     OW28876   4.444   0.013   0.601 -0.1613 -0.2679  0.2649
 5747SOL    HW128877   4.531   0.043   0.577 -0.8451  2.5733  1.2880
 5747SOL    HW228878   4.439   4.666   0.558  0.0189 -0.8656  1.4308
 5748SOL     OW28879   4.664   3.616  13.005  1.1801 -0.0930 -0.3981
 5748SOL    HW128880   4.668   3.712  13.006 -0.0721 -0.0455 -0.6250
 5748SOL    HW228881   4.594   3.604  13.070  1.9522 -0.9629  0.2745
 5749SOL     OW28882   2.806   0.400  10.792  0.6317  0.0198  0.0267
 5749SOL    HW128883   2.897   0.370  10.786  1.4715  2.7418 -1.0657
 5749SOL    HW228884   2.815   0.459  10.867 -0.9867  0.6651 -0.2810
 5750SOL     OW28885   0.277   4.456   8.580  0.0581  0.1443 -0.4757
 5750SOL    HW128886   0.289   4.550   8.584  0.3727  0.0256  1.6558
 5750SOL    HW228887   0.263   4.420   8.668  2.2373  2.4837  0.8225
 5751SOL     OW28888   2.445   3.154  13.180 -0.3340  0.0425 -0.1682
 5751SOL    HW128889   2.450   3.216  13.253 -1.7720  0.4353 -0.3992
 5751SOL    HW228890   2.422   3.075  13.230  1.3796  0.7980  1.8593
 5752SOL     OW28891   3.840   1.147   7.425  0.1831  0.1584  0.5317
 5752SOL    HW128892   3.844   1.240   7.446 -0.6552  0.7007 -1.6722
 5752SOL    HW228893   3.935   1.137   7.411 -0.1533 -2.3818  0.1240
 5753SOL     OW28894   3.810   2.786   8.245  0.2469  0.5105 -0.5563
 5753SOL    HW128895   3.892   2.818   8.282 -0.6511  0.8241  1.1898
 5753SOL    HW228896   3.803   2.859   8.184  4.7701  1.7023  0.3759
 5754SOL     OW28897   3.534   0.982  16.029 -0.1441 -0.1201 -0.2646
 5754SOL    HW128898   3.582   1.023  16.101 -0.9337 -0.6988  0.5941
 5754SOL    HW228899   3.554   0.888  16.031  1.3480  0.2022  0.0634
 5755SOL     OW28900   3.684   2.718  11.029  0.3290  0.1149  0.0881
 5755SOL    HW128901   3.741   2.690  11.100 -1.7301 -2.1216  0.8529
 5755SOL    HW228902   3.645   2.640  10.990 -1.3519  2.1421 -2.3265
 5756SOL     OW28903   3.039   0.424   8.664 -0.4313 -0.2463 -0.3821
 5756SOL    HW128904   2.978   0.363   8.623 -0.0602 -1.0776  0.2750
 5756SOL    HW228905   3.096   0.363   8.712 -0.6437  0.5703  0.9155
 5757SOL     OW28906   0.604   3.081  12.677  0.1906  0.0744  0.1433
 5757SOL    HW128907   0.687   3.070  12.630 -0.0479 -4.0938  0.7097
 5757SOL    HW228908   0.626   3.149  12.741 -0.9565 -0.2530  0.8763
 5758SOL     OW28909   1.459   3.233   0.554 -0.0313 -0.1216  0.3966
 5758SOL    HW128910   1.368   3.214   0.575  0.0634 -1.2510 -0.2015
 5758SOL    HW228911   1.472   3.301   0.620 -1.3304 -0.4100  0.9507
 5759SOL     OW28912   2.163   2.321   9.001  0.1717 -0.2505  0.4818
 5759SOL    HW128913   2.099   2.378   8.959  0.2961 -1.2861 -1.0942
 5759SOL    HW228914   2.217   2.386   9.047  2.7328 -3.6101  2.2826
 5760SOL     OW28915   0.152   0.058   3.241 -0.1110 -0.2677 -0.0815
 5760SOL    HW128916   0.067   0.024   3.265  1.9305 -4.2157  1.5333
 5760SOL    HW228917   0.151   0.150   3.213 -1.2604 -0.2264  0.1120
 5761SOL     OW28918   4.212   1.184   3.328  0.1928  0.4056  0.4229
 5761SOL    HW128919   4.127   1.155   3.361  0.6302 -0.6970  0.5934
 5761SOL    HW228920   4.246   1.115   3.270  1.7528  1.2884  0.2937
 5762SOL     OW28921   0.475   1.372   7.852  0.0510 -0.1026 -0.3887
 5762SOL    HW128922   0.437   1.459   7.851 -0.5680 -0.3768 -0.3140
 5762SOL    HW228923   0.411   1.326   7.906  0.9691  1.0107  1.6367
 5763SOL     OW28924   1.298   3.659  16.820  0.2383  0.4908  0.1767
 5763SOL    HW128925   1.332   3.622  16.739 -0.6659 -0.2250  0.1305
 5763SOL    HW228926   1.379   3.680  16.866  0.2020 -2.3944  1.5658
 5764SOL     OW28927   4.283   4.711   7.026 -0.7297 -0.0148  0.0674
 5764SOL    HW128928   4.315   4.660   7.101 -1.6227 -0.6659  0.0006
 5764SOL    HW228929   4.222   4.651   6.983 -1.4747  0.6991  0.1330
 5765SOL     OW28930   2.249   3.331   9.131 -0.4197  0.2280 -0.2149
 5765SOL    HW128931   2.281   3.304   9.045 -0.0604 -2.3014  0.7281
 5765SOL    HW228932   2.309   3.287   9.191 -0.3940  0.9176  0.2616
 5766SOL     OW28933   1.669   1.826   5.369 -0.3410 -0.3337 -0.2909
 5766SOL    HW128934   1.756   1.866   5.379 -0.0654 -0.8509 -0.6818
 5766SOL    HW228935   1.691   1.735   5.350  0.5547 -0.0733 -0.5399
 5767SOL     OW28936   4.421   2.116   2.435  0.1532 -0.3091 -0.0082
 5767SOL    HW128937   4.489   2.128   2.502 -1.1230 -0.7928  1.3985
 5767SOL    HW228938   4.433   2.026   2.406  2.0334  0.5732 -1.9672
 5768SOL     OW28939   0.253   3.396   0.007  0.8024  0.0940 -0.4013
 5768SOL    HW128940   0.180   3.416   0.065  1.2032  0.3560  0.0116
 5768SOL    HW228941   0.209   3.331  17.705  1.6964 -1.2629  0.5120
 5769SOL     OW28942   1.896   2.151  16.928  0.2520 -1.1694  0.3268
 5769SOL    HW128943   1.897   2.079  16.864  2.5643  0.3030 -1.2703
 5769SOL    HW228944   1.814   2.188  16.895 -0.1354 -0.6162  1.9388
 5770SOL     OW28945   2.227   2.030   2.747  0.2121 -0.2630  0.0283
 5770SOL    HW128946   2.288   2.025   2.821  1.3475 -1.5294 -1.0103
 5770SOL    HW228947   2.273   1.968   2.691 -0.5694  1.5051 -2.5765
 5771SOL     OW28948   2.486   3.414  11.019  0.3417  0.5653  0.4183
 5771SOL    HW128949   2.400   3.445  10.991  0.2665  0.1182  0.1466
 5771SOL    HW228950   2.488   3.434  11.112  0.0801  1.8008  0.1542
 5772SOL     OW28951   1.598   3.657  11.175 -0.3686 -0.0616 -0.3170
 5772SOL    HW128952   1.545   3.612  11.241  0.8693 -1.9576 -0.6218
 5772SOL    HW228953   1.633   3.577  11.138 -1.5486 -0.1717 -1.2085
 5773SOL     OW28954   0.608   1.371  10.122 -0.0230 -0.0647 -0.3328
 5773SOL    HW128955   0.546   1.353  10.052  0.1150 -2.7621  0.2633
 5773SOL    HW228956   0.629   1.281  10.145  2.2959  0.5341 -0.0554
 5774SOL     OW28957   2.252   1.890  12.955 -0.0580  0.8221  0.2003
 5774SOL    HW128958   2.238   1.891  13.049  0.6964 -3.1283  0.3511
 5774SOL    HW228959   2.347   1.886  12.948  0.0393 -1.5998  3.5600
 5775SOL     OW28960   2.003   2.127  13.629  0.2699  0.0808 -0.2755
 5775SOL    HW128961   2.097   2.109  13.624  0.0504 -1.5767  1.8299
 5775SOL    HW228962   2.008   2.223  13.628 -0.8490  0.1606  1.5379
 5776SOL     OW28963   1.106   3.490  17.591  1.0667 -0.2855  0.1019
 5776SOL    HW128964   1.113   3.511  17.498 -3.0765  2.6682  0.4717
 5776SOL    HW228965   1.190   3.531  17.613  1.7418 -1.4401 -0.2815
 5777SOL     OW28966   3.267   3.005   7.240 -0.0624 -0.3291  0.0009
 5777SOL    HW128967   3.343   3.044   7.282 -0.5458 -2.4373  2.8710
 5777SOL    HW228968   3.229   2.942   7.302  2.7973  0.1565  2.2214
 5778SOL     OW28969   0.036   4.451   1.690 -0.1759 -0.2574 -0.1117
 5778SOL    HW128970   4.717   4.504   1.635 -0.1695 -0.0841  0.0498
 5778SOL    HW228971   4.708   4.411   1.746 -1.4610  1.7218 -0.2399
 5779SOL     OW28972   0.381   0.774   2.932 -0.0070 -0.1398  0.4805
 5779SOL    HW128973   0.373   0.864   2.902  0.6786 -0.1688  0.2054
 5779SOL    HW228974   0.415   0.723   2.857 -2.1326 -2.0609  0.8259
 5780SOL     OW28975   4.619   4.185  14.735  0.0107  0.1162 -0.1983
 5780SOL    HW128976   4.604   4.171  14.829  1.7638  0.1592  0.1010
 5780SOL    HW228977   4.657   4.273  14.734  1.2247 -0.3980  0.1384
 5781SOL     OW28978   2.482   1.061  11.096 -0.6121 -0.3696  0.3436
 5781SOL    HW128979   2.407   1.001  11.096  1.6997 -3.2940 -0.1567
 5781SOL    HW228980   2.440   1.145  11.113  2.3122  1.3639 -0.9364
 5782SOL     OW28981   0.372   4.418   7.785 -0.2595 -0.3609  0.1853
 5782SOL    HW128982   0.457   4.448   7.751 -1.2717 -0.0442 -2.0799
 5782SOL    HW228983   0.350   4.488   7.846  1.3374  0.6186 -0.3357
 5783SOL     OW28984   0.656   3.812   7.820 -0.1332 -0.2776 -0.0053
 5783SOL    HW128985   0.643   3.802   7.726  2.6710  1.0967 -0.5327
 5783SOL    HW228986   0.699   3.897   7.825 -2.1806  0.7806 -0.8600
 5784SOL     OW28987   3.058   4.459   9.400 -0.4176 -0.1558 -0.3565
 5784SOL    HW128988   3.052   4.373   9.442  0.9417  0.2853  0.7214
 5784SOL    HW228989   3.044   4.433   9.309  0.7216  0.9016 -0.8269
 5785SOL     OW28990   4.256   4.413   4.048 -0.0636 -0.6593 -0.2444
 5785SOL    HW128991   4.165   4.421   4.075  0.0095  0.9102 -0.4697
 5785SOL    HW228992   4.310   4.427   4.126 -0.5147  2.5559 -0.5126
 5786SOL     OW28993   1.103   1.891   2.380  0.1532  0.0849 -0.5225
 5786SOL    HW128994   1.037   1.828   2.410 -0.3219  1.3223  1.0250
 5786SOL    HW228995   1.171   1.825   2.375  0.2930  0.1337  1.0166
 5787SOL     OW28996   1.321   3.110  17.266 -0.1540 -0.1098  0.1146
 5787SOL    HW128997   1.325   3.037  17.328 -1.3788 -1.3375 -1.2583
 5787SOL    HW228998   1.362   3.084  17.184 -0.9803  2.3000 -1.0590
 5788SOL     OW28999   1.928   0.741  13.659 -0.2569  0.3707  0.6687
 5788SOL    HW129000   1.891   0.753  13.746 -2.2381 -0.8919 -0.0066
 5788SOL    HW229001   2.017   0.718  13.686 -0.9024 -0.9242  1.6732
 5789SOL     OW29002   0.994   2.705   7.802 -0.0447  1.0520  0.3586
 5789SOL    HW129003   1.028   2.762   7.871  4.7974 -0.8759 -0.4589
 5789SOL    HW229004   0.928   2.668   7.861 -0.7959  1.6747 -0.1074
 5790SOL     OW29005   4.034   2.980   6.179 -0.2692  0.7092 -0.2382
 5790SOL    HW129006   4.010   2.890   6.158 -2.8950  1.2850  0.3271
 5790SOL    HW229007   4.011   2.990   6.271 -1.2385  1.1722 -0.5362
 5791SOL     OW29008   4.705   3.526   4.217 -0.6680 -0.2969  0.4360
 5791SOL    HW129009   4.626   3.502   4.169 -0.1388  0.2833 -0.7297
 5791SOL    HW229010   0.028   3.453   4.208  0.0478  0.4238 -0.5165
 5792SOL     OW29011   3.460   3.680  16.359 -0.0636  0.0260  0.2238
 5792SOL    HW129012   3.544   3.640  16.380 -0.1838 -0.3381  0.0117
 5792SOL    HW229013   3.432   3.737  16.431  1.3736  1.0636 -0.0472
 5793SOL     OW29014   1.826   1.660  11.440  0.5028 -0.8128 -0.1611
 5793SOL    HW129015   1.911   1.624  11.415  0.9964 -0.5751  1.1434
 5793SOL    HW229016   1.797   1.686  11.353  0.5087  0.1262  0.1169
 5794SOL     OW29017   3.679   3.435   8.692  0.9455  0.6336 -0.1580
 5794SOL    HW129018   3.599   3.384   8.706 -1.4470  3.5829 -2.6762
 5794SOL    HW229019   3.643   3.505   8.636  2.5768 -0.6279 -2.7737
 5795SOL     OW29020   0.413   3.315   4.380 -0.5207  0.2046  0.2001
 5795SOL    HW129021   0.412   3.219   4.373  0.5905  0.0384  2.2384
 5795SOL    HW229022   0.327   3.334   4.343 -0.8632 -0.2318  0.7783
 5796SOL     OW29023   0.844   0.152  16.110 -0.1284  0.6251 -0.4449
 5796SOL    HW129024   0.860   0.068  16.067 -4.5090  0.3868 -1.6499
 5796SOL    HW229025   0.878   0.211  16.043  2.6008 -0.6923 -0.2009
 5797SOL     OW29026   4.470   1.221   9.553 -0.4756 -0.5067  0.2106
 5797SOL    HW129027   4.444   1.273   9.476  1.1704  0.7833  0.5276
 5797SOL    HW229028   4.541   1.275   9.588  0.1567 -1.7340  0.8033
 5798SOL     OW29029   4.628   3.275   7.536 -0.0829  0.0345  0.0654
 5798SOL    HW129030   4.548   3.327   7.547 -0.2381 -0.5746  1.9036
 5798SOL    HW229031   4.631   3.294   7.442 -2.3603 -0.7127 -0.1845
 5799SOL     OW29032   0.300   3.199   3.023 -0.1825  0.1625 -0.1594
 5799SOL    HW129033   0.313   3.279   3.073 -0.7797  0.3251 -0.2635
 5799SOL    HW229034   0.211   3.184   3.055  0.3908 -0.4064  1.1643
 5800SOL     OW29035   1.769   4.040   9.498 -0.4351 -0.1976 -0.3811
 5800SOL    HW129036   1.720   4.012   9.575 -0.0390 -1.7507 -0.7040
 5800SOL    HW229037   1.835   4.093   9.544  0.7984  1.6988 -4.3140
 5801SOL     OW29038   1.014   4.729   7.532  0.5332 -0.5469 -0.3386
 5801SOL    HW129039   1.025   4.677   7.453  1.7927 -0.7272 -0.0359
 5801SOL    HW229040   0.921   0.013   7.528  0.4131 -0.9464  0.1229
 5802SOL     OW29041   1.234   2.803   2.841 -0.2926  0.3376  0.1476
 5802SOL    HW129042   1.234   2.815   2.936 -3.0481  0.8274  0.0892
 5802SOL    HW229043   1.145   2.833   2.824 -0.6840  0.6278  2.6959
 5803SOL     OW29044   0.761   3.481  17.333 -0.2605  0.5799  0.4771
 5803SOL    HW129045   0.805   3.421  17.393 -1.0537 -0.3479  0.1345
 5803SOL    HW229046   0.705   3.423  17.282  1.0933 -0.7813  0.5393
 5804SOL     OW29047   1.979   0.541   8.658 -0.5991 -0.2065 -0.0700
 5804SOL    HW129048   1.935   0.475   8.604 -0.2828 -0.2646 -0.2603
 5804SOL    HW229049   2.060   0.561   8.611 -1.3968  3.2107  0.0348
 5805SOL     OW29050   3.280   1.774   5.867  0.1258  0.3387 -0.4123
 5805SOL    HW129051   3.243   1.716   5.800 -1.9490 -0.3582  1.3510
 5805SOL    HW229052   3.340   1.714   5.913 -1.4451 -2.1374 -1.5675
 5806SOL     OW29053   3.711   3.404   6.146 -0.2560  0.0043  0.1305
 5806SOL    HW129054   3.805   3.386   6.148  0.3873  3.0899 -3.1356
 5806SOL    HW229055   3.696   3.399   6.052 -2.4576 -1.3792  0.5744
 5807SOL     OW29056   3.353   0.320   4.555  0.0103  0.6229 -0.3071
 5807SOL    HW129057   3.316   0.248   4.607  3.1466 -1.0063 -0.2801
 5807SOL    HW229058   3.415   0.360   4.617 -1.3248  1.7709  0.2803
 5808SOL     OW29059   1.852   1.825   7.222  0.0594  0.1293  0.1557
 5808SOL    HW129060   1.796   1.747   7.218  2.4228 -1.3754 -3.9673
 5808SOL    HW229061   1.932   1.793   7.179 -0.9678 -1.2995 -0.7200
 5809SOL     OW29062   2.829   3.866   9.802  0.3765  0.1960 -0.0866
 5809SOL    HW129063   2.857   3.922   9.874 -0.2456 -0.5947  0.7710
 5809SOL    HW229064   2.775   3.910   9.736  0.7598 -0.5350 -0.8899
 5810SOL     OW29065   1.599   3.892   5.030 -0.2758 -0.2947 -0.0966
 5810SOL    HW129066   1.661   3.853   5.092 -0.1194 -2.9100 -1.9018
 5810SOL    HW229067   1.516   3.866   5.070 -0.4361 -3.7980 -2.6711
 5811SOL     OW29068   4.714   2.351   0.851 -0.4185 -0.4649  0.0805
 5811SOL    HW129069   4.686   2.262   0.870 -1.0531 -0.5541 -1.2587
 5811SOL    HW229070   0.069   2.347   0.830 -0.4056 -0.2416  0.0889
 5812SOL     OW29071   1.175   4.346   5.018 -0.1144  0.1344  0.3930
 5812SOL    HW129072   1.131   4.410   4.962 -1.6920 -0.6269  0.7624
 5812SOL    HW229073   1.167   4.387   5.104  0.3936  1.1763 -0.0586
 5813SOL     OW29074   3.810   2.186   6.254 -0.4336 -0.2755 -0.1715
 5813SOL    HW129075   3.831   2.265   6.204 -1.0717  0.3562  0.5755
 5813SOL    HW229076   3.790   2.226   6.338  1.6894 -2.3972  1.3580
 5814SOL     OW29077   2.186   0.948  16.136  0.2584  0.3450  0.5231
 5814SOL    HW129078   2.273   0.953  16.176  0.5400 -3.1654  0.3263
 5814SOL    HW229079   2.209   0.987  16.052 -2.0688 -1.5468 -0.9871
 5815SOL     OW29080   4.113   0.982   8.295 -0.0157  0.6486  0.6235
 5815SOL    HW129081   4.027   0.953   8.326  0.4227 -1.0399  0.2231
 5815SOL    HW229082   4.083   1.057   8.244 -0.3851  0.2979  0.3255
 5816SOL     OW29083   4.597   3.812   3.540 -0.2390  0.3254  0.7594
 5816SOL    HW129084   4.656   3.887   3.551 -0.0918  0.5721 -1.6773
 5816SOL    HW229085   4.547   3.824   3.621  0.9346  0.0619  1.5323
 5817SOL     OW29086   1.327   3.887   4.901 -0.6907 -0.4663  0.1938
 5817SOL    HW129087   1.309   3.971   4.944  0.2203 -0.2148  0.0864
 5817SOL    HW229088   1.420   3.882   4.880 -0.9246 -0.0346 -0.9516
 5818SOL     OW29089   3.177   1.269   2.321 -0.0240  0.1737  0.2008
 5818SOL    HW129090   3.174   1.182   2.280 -1.0308 -0.3822  1.4440
 5818SOL    HW229091   3.101   1.317   2.289 -1.1997 -0.0684  2.5922
 5819SOL     OW29092   4.635   1.137   7.184 -0.3040  0.3421  0.5973
 5819SOL    HW129093   4.719   1.099   7.160  0.5499  0.3463  3.6573
 5819SOL    HW229094   4.661   1.167   7.271 -0.6044 -1.4083  1.2920
 5820SOL     OW29095   2.826   2.399   1.825  0.3905 -0.2385 -0.0329
 5820SOL    HW129096   2.796   2.332   1.764  0.7337 -0.6788  0.2802
 5820SOL    HW229097   2.919   2.403   1.805  0.4663 -2.1502 -0.0828
 5821SOL     OW29098   1.697   1.965   9.510 -0.7198  0.1324  0.4378
 5821SOL    HW129099   1.649   1.897   9.462  0.8210 -1.1185  0.6646
 5821SOL    HW229100   1.679   1.937   9.600  1.7934  0.8691  1.1938
 5822SOL     OW29101   3.815   2.326  16.986 -0.3571  0.1424  0.1077
 5822SOL    HW129102   3.885   2.376  17.029 -0.8224 -0.3511  1.4517
 5822SOL    HW229103   3.867   2.270  16.929  1.8016  1.3686  0.8500
 5823SOL     OW29104   4.069   3.529   8.461  0.4213  0.7058 -0.0718
 5823SOL    HW129105   4.101   3.443   8.432 -0.0289 -0.0488  1.6630
 5823SOL    HW229106   4.146   3.585   8.466  1.6111 -0.7608 -1.8946
 5824SOL     OW29107   3.455   4.601   3.521 -0.2707 -0.4728  0.3008
 5824SOL    HW129108   3.397   4.526   3.527 -0.4714 -0.2064  1.8139
 5824SOL    HW229109   3.408   4.667   3.471 -1.6634 -2.6359 -1.1839
 5825SOL     OW29110   0.819   0.548   6.947 -0.3258 -0.0013  0.2836
 5825SOL    HW129111   0.832   0.579   7.037 -1.5866  0.4804  0.2927
 5825SOL    HW229112   0.903   0.504   6.930  0.4617  1.2525  0.9080
 5826SOL     OW29113   0.527   0.122  11.589 -0.2836 -0.2407 -0.2206
 5826SOL    HW129114   0.506   0.151  11.678  0.8295  0.1263 -0.0751
 5826SOL    HW229115   0.482   0.038  11.590  0.6506 -0.6985  1.5758
 5827SOL     OW29116   3.702   0.679   8.230 -0.0448  0.1548  0.3774
 5827SOL    HW129117   3.618   0.691   8.186  0.0954  1.3837  0.4516
 5827SOL    HW229118   3.671   0.690   8.320  0.4507  2.3204  0.2723
 5828SOL     OW29119   3.706   0.270   8.822  0.0745  0.0331  0.0060
 5828SOL    HW129120   3.690   0.194   8.766 -0.7571  0.6784 -0.6476
 5828SOL    HW229121   3.614   0.281   8.849 -0.2189 -2.4144 -0.0093
 5829SOL     OW29122   2.399   3.575   8.945  0.1250 -0.5243  0.1666
 5829SOL    HW129123   2.424   3.532   9.027  1.5676 -1.8863 -1.0064
 5829SOL    HW229124   2.337   3.644   8.972 -0.5157 -1.6036  1.4367
 5830SOL     OW29125   1.256   3.205  14.461  0.0869 -0.4441  0.1993
 5830SOL    HW129126   1.323   3.137  14.468  2.8854  2.3716  0.7652
 5830SOL    HW229127   1.300   3.259  14.395  0.1310 -0.7672 -0.0376
 5831SOL     OW29128   2.931   0.357   0.861 -0.1000 -0.4611  0.1197
 5831SOL    HW129129   2.947   0.355   0.767  0.2514  3.0067  0.1325
 5831SOL    HW229130   2.950   0.448   0.885 -0.8665 -0.0916 -0.7014
 5832SOL     OW29131   2.286   4.294   2.570  0.1069  0.0884  0.0031
 5832SOL    HW129132   2.262   4.274   2.480  1.1866  0.3856 -0.3604
 5832SOL    HW229133   2.347   4.367   2.555 -0.6529  0.5803 -0.7363
 5833SOL     OW29134   0.669   2.995   7.670  0.4320  0.0213 -0.0650
 5833SOL    HW129135   0.644   3.074   7.622  1.7134 -1.0412 -2.5306
 5833SOL    HW229136   0.583   2.958   7.687  1.1954 -1.0182  1.5268
 5834SOL     OW29137   1.449   1.241   9.394 -0.4645  0.1392 -0.5564
 5834SOL    HW129138   1.527   1.294   9.384  1.0049 -1.9084  0.1018
 5834SOL    HW229139   1.458   1.191   9.475  1.8055 -0.8576 -1.4295
 5835SOL     OW29140   1.035   2.909  17.355  0.5708 -0.2811  0.0811
 5835SOL    HW129141   1.076   2.932  17.438  0.0007 -4.1929  1.4616
 5835SOL    HW229142   0.992   2.994  17.343 -0.8706 -0.9538  0.4158
 5836SOL     OW29143   3.831   3.663  11.241  0.0179 -0.3631 -0.5936
 5836SOL    HW129144   3.772   3.717  11.188  0.2340 -0.4222 -0.8971
 5836SOL    HW229145   3.866   3.592  11.188 -0.3322 -0.9252 -0.0735
 5837SOL     OW29146   4.480   4.651   5.637  0.1126 -0.0146  0.0949
 5837SOL    HW129147   4.461   4.629   5.546 -1.6037  0.7419  0.2730
 5837SOL    HW229148   4.471   0.008   5.640 -0.8540 -0.0360 -3.2489
 5838SOL     OW29149   1.048   4.209   4.435  0.5445  0.1457  0.0996
 5838SOL    HW129150   1.114   4.156   4.481 -0.3476 -0.3864  0.7604
 5838SOL    HW229151   1.065   4.168   4.351  0.8617 -1.2727  0.8469
 5839SOL     OW29152   2.136   4.399   7.565 -0.4271 -0.5042 -0.2296
 5839SOL    HW129153   2.158   4.311   7.534 -0.8762 -0.5843 -0.3140
 5839SOL    HW229154   2.219   4.447   7.568 -0.3784 -0.6611  1.1393
 5840SOL     OW29155   4.611   3.581   7.573  0.7863  0.6192  0.5541
 5840SOL    HW129156   4.535   3.523   7.583  0.6805  1.2647  3.3110
 5840SOL    HW229157   4.590   3.651   7.634  1.7210  0.6020  0.8911
 5841SOL     OW29158   3.865   4.031   2.375 -0.0708  0.2597 -0.6020
 5841SOL    HW129159   3.803   4.005   2.443 -1.9294 -0.9190 -2.7482
 5841SOL    HW229160   3.816   4.087   2.314 -2.6868 -0.2910  0.9641
 5842SOL     OW29161   1.472   0.854   7.172  0.0922 -0.2652  0.3579
 5842SOL    HW129162   1.562   0.846   7.204 -0.3139 -1.8125  1.1217
 5842SOL    HW229163   1.477   0.824   7.081  0.0339 -1.2948  0.6941
 5843SOL     OW29164   4.106   4.710   6.426 -0.3217  0.5258 -0.0576
 5843SOL    HW129165   4.073   0.060   6.440 -2.0932 -0.1073 -0.1196
 5843SOL    HW229166   4.097   4.666   6.511 -0.0429 -1.3832 -1.0024
 5844SOL     OW29167   3.437   2.492   6.683  0.6189 -0.1897 -0.1034
 5844SOL    HW129168   3.511   2.549   6.666  0.9788 -0.4748  0.5176
 5844SOL    HW229169   3.431   2.433   6.608  0.1596 -0.7754  0.3859
 5845SOL     OW29170   2.720   3.218   0.875  0.0819  0.1665 -0.0366
 5845SOL    HW129171   2.672   3.147   0.834 -1.1946  1.9559 -1.6275
 5845SOL    HW229172   2.656   3.259   0.932  0.5869  0.7864  0.0901
 5846SOL     OW29173   2.648   1.267   9.188  0.3045 -0.5213  0.5935
 5846SOL    HW129174   2.669   1.287   9.097 -1.0107  2.2678  0.9046
 5846SOL    HW229175   2.553   1.256   9.182  0.3054 -1.0986  1.6251
 5847SOL     OW29176   4.585   4.053   5.146  0.3901  0.0889 -0.7404
 5847SOL    HW129177   4.592   4.010   5.232 -1.2172  0.7374 -0.2937
 5847SOL    HW229178   4.506   4.101   5.173 -0.3328 -0.6695 -1.5311
 5848SOL     OW29179   4.737   0.996  15.921  0.7198  0.2219 -0.1105
 5848SOL    HW129180   4.679   1.045  15.862 -0.8206 -2.0077 -0.4538
 5848SOL    HW229181   0.024   0.913  15.882 -0.6388 -0.6715  0.8971
 5849SOL     OW29182   2.914   0.463   6.252  0.1561 -0.0735  0.2117
 5849SOL    HW129183   2.836   0.519   6.246 -0.3310 -0.5649  1.9722
 5849SOL    HW229184   2.981   0.528   6.270  0.0736  0.0634  0.0317
 5850SOL     OW29185   3.331   2.144  16.670  0.0263  0.2445  0.3251
 5850SOL    HW129186   3.268   2.073  16.681 -0.6270  0.3921 -2.4846
 5850SOL    HW229187   3.276   2.218  16.696 -0.6003  0.1623 -0.7695
 5851SOL     OW29188   4.540   3.060   6.830  0.0057  0.2498 -0.1396
 5851SOL    HW129189   4.582   3.138   6.795 -1.7746  1.1707 -0.2364
 5851SOL    HW229190   4.620   3.009   6.839  1.3757  2.2309 -1.0646
 5852SOL     OW29191   1.160   0.599   8.555 -0.0420 -0.4983 -0.5094
 5852SOL    HW129192   1.201   0.633   8.634  1.4154 -2.2035 -0.5297
 5852SOL    HW229193   1.239   0.578   8.506 -0.5303  0.4170 -1.6958
 5853SOL     OW29194   2.710   2.538   5.415  0.6698 -0.7325 -0.0238
 5853SOL    HW129195   2.699   2.513   5.323 -0.6564  1.2788 -0.4114
 5853SOL    HW229196   2.805   2.556   5.411  0.3807  1.4062  2.9279
 5854SOL     OW29197   2.217   2.741   0.495  0.4229  0.6691  0.2239
 5854SOL    HW129198   2.161   2.810   0.530  1.0588  1.7028 -0.8038
 5854SOL    HW229199   2.157   2.667   0.503 -1.0137  1.5664 -2.5357
 5855SOL     OW29200   3.558   4.314  14.332 -0.7658 -0.2950 -0.3637
 5855SOL    HW129201   3.483   4.371  14.316  1.7987  2.9111 -0.8030
 5855SOL    HW229202   3.522   4.230  14.301 -0.0622 -1.7614  2.7643
 5856SOL     OW29203   1.445   0.312   6.602  0.3957 -0.2402 -0.2927
 5856SOL    HW129204   1.529   0.273   6.579  0.2151 -0.7117 -0.1425
 5856SOL    HW229205   1.390   0.247   6.559  0.6365  0.1876 -1.2538
 5857SOL     OW29206   1.057   4.425   4.652  0.7998 -0.2951  0.1857
 5857SOL    HW129207   1.010   4.462   4.577  2.3628  0.8660 -0.2368
 5857SOL    HW229208   1.077   4.341   4.612  2.6801 -0.1912  0.9088
 5858SOL     OW29209   0.067   2.660   8.251 -0.3559  0.4777  0.3600
 5858SOL    HW129210   4.719   2.682   8.216 -1.0217 -1.7780  0.5616
 5858SOL    HW229211   0.047   2.645   8.344  1.6811  0.5754  0.8155
 5859SOL     OW29212   4.731   2.896   0.441 -0.2591  0.5998  0.1136
 5859SOL    HW129213   0.041   2.959   0.389 -0.7762  0.1994 -0.8634
 5859SOL    HW229214   4.641   2.922   0.422 -0.2618  1.1480  0.8720
 5860SOL     OW29215   4.426   3.726  15.659  0.0360  0.0793 -0.3417
 5860SOL    HW129216   4.506   3.755  15.616  0.6361 -0.0633  0.7017
 5860SOL    HW229217   4.360   3.785  15.622  0.3219  1.0575  0.7201
 5861SOL     OW29218   0.006   3.613   0.778  0.2037 -0.6095  0.0649
 5861SOL    HW129219   0.099   3.611   0.754  0.4331  1.5096  0.7802
 5861SOL    HW229220   4.703   3.628   0.693  1.3057  1.8208 -0.0420
 5862SOL     OW29221   2.858   2.938   7.115  0.5082  0.1245 -0.7471
 5862SOL    HW129222   2.769   2.959   7.086  0.6751  2.9336  0.7790
 5862SOL    HW229223   2.910   2.977   7.044  0.6476  1.0458 -0.1420
 5863SOL     OW29224   2.482   2.379  13.003 -0.2007  0.4862 -0.4512
 5863SOL    HW129225   2.514   2.320  12.935 -0.0825  2.5818 -2.2039
 5863SOL    HW229226   2.557   2.439  13.010 -0.6126  0.9552 -0.0552
 5864SOL     OW29227   3.512   0.760  15.107 -0.1727  0.5909  0.0194
 5864SOL    HW129228   3.496   0.843  15.063 -0.5361  1.1436  1.1688
 5864SOL    HW229229   3.422   0.729  15.121  0.0198 -0.1449 -0.4021
 5865SOL     OW29230   3.645   0.113   0.918 -0.7536 -0.0031  0.2211
 5865SOL    HW129231   3.607   0.058   0.987 -1.1072 -0.2580 -0.1793
 5865SOL    HW229232   3.575   0.169   0.885 -2.9695 -1.6311  2.1122
 5866SOL     OW29233   3.386   3.334   5.764  0.1111  0.0578  0.3474
 5866SOL    HW129234   3.347   3.406   5.813  1.0085  0.0142  1.1133
 5866SOL    HW229235   3.383   3.259   5.823  0.4217 -0.1433  0.1062
 5867SOL     OW29236   2.761   0.123   1.679  0.0357 -0.7116 -0.1969
 5867SOL    HW129237   2.667   0.126   1.697  0.3239 -0.2331  1.1783
 5867SOL    HW229238   2.780   0.212   1.649 -3.6963 -0.7054 -2.5890
 5868SOL     OW29239   4.123   2.430  11.180  0.2742  0.6007  0.2007
 5868SOL    HW129240   4.128   2.520  11.146  1.7460  0.0597 -0.9902
 5868SOL    HW229241   4.094   2.382  11.102 -1.9977 -2.4102  2.9161
 5869SOL     OW29242   2.499   1.657   9.528  0.2508 -0.2613 -0.1633
 5869SOL    HW129243   2.501   1.751   9.512  0.4593  0.0813  1.8611
 5869SOL    HW229244   2.476   1.657   9.621  0.0379  1.3020 -0.2174
 5870SOL     OW29245   0.629   0.388   5.672  0.5026 -0.4439 -0.1130
 5870SOL    HW129246   0.607   0.361   5.761  0.0509  0.5989  0.0851
 5870SOL    HW229247   0.724   0.392   5.685  0.8830  0.8331 -3.4489
 5871SOL     OW29248   2.555   1.685   7.440  0.5888 -0.1169 -0.4185
 5871SOL    HW129249   2.548   1.777   7.414 -1.5145  0.1032  0.9421
 5871SOL    HW229250   2.570   1.689   7.535  0.2013  1.6726 -0.4414
 5872SOL     OW29251   4.521   3.746   7.765 -0.2478 -0.4217 -0.1104
 5872SOL    HW129252   4.457   3.814   7.781 -1.4255 -1.7894  0.9833
 5872SOL    HW229253   4.535   3.723   7.857 -3.0296  3.7059  1.3310
 5873SOL     OW29254   3.097   3.545  14.576 -0.4907  0.0783 -0.4195
 5873SOL    HW129255   3.192   3.552  14.582 -0.4593 -0.4808 -0.2541
 5873SOL    HW229256   3.089   3.521  14.484  1.2799 -2.8850  0.1870
 5874SOL     OW29257   0.010   3.489   5.666  0.4210  1.0487 -0.0710
 5874SOL    HW129258   4.679   3.553   5.651  0.2798  0.5201 -1.7146
 5874SOL    HW229259   0.054   3.490   5.581  1.4460 -2.3614  0.3875
 5875SOL     OW29260   3.766   3.105   5.893 -0.3784  0.2363  0.1250
 5875SOL    HW129261   3.861   3.111   5.906 -0.6675  0.1998  2.2894
 5875SOL    HW229262   3.742   3.171   5.958  0.6008  0.3755  0.3520
 5876SOL     OW29263   0.108   0.760  12.181 -0.0829 -0.3304 -0.6527
 5876SOL    HW129264   0.024   0.733  12.145 -0.4476 -1.7430  1.2611
 5876SOL    HW229265   0.151   0.678  12.205  1.8386  0.8871  0.0612
 5877SOL     OW29266   1.687   2.034   1.142  0.2018  0.0781 -0.0658
 5877SOL    HW129267   1.674   2.117   1.094 -1.6433  0.7135  1.5118
 5877SOL    HW229268   1.663   2.065   1.229  1.6791 -0.5401  0.5605
 5878SOL     OW29269   1.947   4.718   4.284 -0.2598 -0.1744  0.1514
 5878SOL    HW129270   1.959   4.629   4.251  1.6205 -0.4941  1.7260
 5878SOL    HW229271   1.924   4.701   4.375 -0.3230  1.2496  0.4025
 5879SOL     OW29272   3.320   3.388   3.336  0.2938  0.2246 -0.0176
 5879SOL    HW129273   3.241   3.371   3.388 -0.7628 -2.7532 -2.5696
 5879SOL    HW229274   3.396   3.361   3.387 -0.3564  0.3849  1.0256
 5880SOL     OW29275   1.824   2.030  13.835 -0.1428 -0.1140  0.5017
 5880SOL    HW129276   1.863   2.057  13.751  0.1756  4.9636  2.2975
 5880SOL    HW229277   1.907   2.022  13.883  0.1965 -1.7963 -0.3514
 5881SOL     OW29278   1.593   0.601  17.269 -0.7040  0.6546 -0.4972
 5881SOL    HW129279   1.606   0.658  17.344 -2.3851  0.3597  0.0250
 5881SOL    HW229280   1.681   0.563  17.268 -0.4238  1.2762  0.7132
 5882SOL     OW29281   1.342   2.100   5.298 -0.1016  0.7255 -0.5323
 5882SOL    HW129282   1.335   2.029   5.362 -1.5025  0.1202 -1.3710
 5882SOL    HW229283   1.283   2.068   5.230 -1.3362 -0.1834  0.9694
 5883SOL     OW29284   4.710   1.771   9.100 -0.2463 -0.5630  0.0083
 5883SOL    HW129285   0.051   1.747   9.148  0.9838  0.8084 -1.3528
 5883SOL    HW229286   0.010   1.847   9.056 -1.4730  0.3618  0.5373
 5884SOL     OW29287   0.201   1.191   4.301  0.2634 -0.2745  0.0749
 5884SOL    HW129288   0.152   1.188   4.383 -0.2189  0.7301 -0.1733
 5884SOL    HW229289   0.133   1.163   4.240 -0.5238 -0.2348  0.9290
 5885SOL     OW29290   0.956   0.940  10.175 -0.0531 -0.0197 -0.6820
 5885SOL    HW129291   0.930   1.015  10.228 -0.5896  0.5265 -1.7282
 5885SOL    HW229292   0.895   0.877  10.214 -0.8662  2.4163  1.9882
 5886SOL     OW29293   2.806   2.983  11.280 -0.2305 -0.0209  0.3753
 5886SOL    HW129294   2.883   2.993  11.336  0.3864  1.2856 -0.7078
 5886SOL    HW229295   2.751   3.048  11.324 -1.2084  1.0023 -2.3467
 5887SOL     OW29296   4.272   4.502  16.458  0.0467 -0.4624  0.5903
 5887SOL    HW129297   4.313   4.444  16.394  0.3270  1.5704 -1.0530
 5887SOL    HW229298   4.300   4.477  16.545 -1.5839  0.6669  1.4445
 5888SOL     OW29299   1.017   0.243   6.243 -0.7317 -0.6371  0.2623
 5888SOL    HW129300   0.989   0.203   6.160  3.9359 -1.6104 -0.8498
 5888SOL    HW229301   1.044   0.332   6.223 -1.6387 -0.4310 -0.0212
 5889SOL     OW29302   1.291   1.424   2.468  0.6196  0.4400  0.2028
 5889SOL    HW129303   1.257   1.507   2.434 -1.5537 -1.1484 -1.4761
 5889SOL    HW229304   1.219   1.363   2.454  0.6006  0.2533  1.1330
 5890SOL     OW29305   0.570   0.351   6.375 -0.8508  0.3649  0.4490
 5890SOL    HW129306   0.494   0.408   6.374 -1.5200 -0.4860  1.8019
 5890SOL    HW229307   0.626   0.400   6.315  2.3328 -1.3241  1.9959
 5891SOL     OW29308   0.194   0.492  17.290 -0.5194 -0.2277  0.2960
 5891SOL    HW129309   0.275   0.495  17.238  0.1208  0.4351  1.3164
 5891SOL    HW229310   0.134   0.530  17.225 -0.2355 -2.6957 -1.4089
 5892SOL     OW29311   2.356   2.203   4.714  0.0256  0.1060  0.3464
 5892SOL    HW129312   2.411   2.209   4.636 -0.6562 -2.0819 -0.3044
 5892SOL    HW229313   2.403   2.271   4.763  0.6033  0.6124 -0.9014
 5893SOL     OW29314   3.404   3.055  10.442  0.5404 -0.3315 -0.0545
 5893SOL    HW129315   3.488   3.018  10.413  0.8494  0.1217  0.2701
 5893SOL    HW229316   3.431   3.146  10.441  0.6519 -0.3648 -0.0760
 5894SOL     OW29317   4.244   3.847   4.633 -0.1911 -0.6426 -0.2009
 5894SOL    HW129318   4.171   3.818   4.578 -1.2910 -2.6254  2.3363
 5894SOL    HW229319   4.207   3.888   4.711  1.4262 -2.3851  1.5002
 5895SOL     OW29320   1.054   0.889   3.777  0.1586 -0.1792  0.4777
 5895SOL    HW129321   0.960   0.899   3.795  0.0438 -0.8453  0.2436
 5895SOL    HW229322   1.067   0.943   3.699 -0.3136 -0.2569  0.3444
 5896SOL     OW29323   3.407   0.076   4.064 -0.2746  0.6752 -0.8004
 5896SOL    HW129324   3.312   0.083   4.071 -0.0802  1.9674  0.6740
 5896SOL    HW229325   3.426   0.122   4.146  0.5408  0.2108 -0.7294
 5897SOL     OW29326   4.513   2.776  11.688  0.3259 -0.2911 -0.0696
 5897SOL    HW129327   4.606   2.792  11.673  0.1660 -0.1214 -0.9123
 5897SOL    HW229328   4.478   2.824  11.613 -0.8436 -1.7887 -0.4750
 5898SOL     OW29329   2.692   1.067   4.817 -0.5512  0.1395 -0.0555
 5898SOL    HW129330   2.611   1.102   4.781 -1.1037  0.2823  1.3127
 5898SOL    HW229331   2.719   1.129   4.885 -0.0549 -0.0139 -0.1128
 5899SOL     OW29332   4.311   3.418   2.626  0.1554 -0.1762 -0.4864
 5899SOL    HW129333   4.345   3.505   2.604  0.6306  0.0978  1.2819
 5899SOL    HW229334   4.347   3.405   2.714 -1.2248  1.4614  0.3352
 5900SOL     OW29335   2.663   4.577  12.679 -0.3428 -0.0322  0.0865
 5900SOL    HW129336   2.639   4.628  12.601  0.4105  0.3606  0.1050
 5900SOL    HW229337   2.742   4.619  12.714  0.0123  0.3475 -1.1458
 5901SOL     OW29338   2.264   4.533   2.875 -0.2828 -0.0149 -0.0021
 5901SOL    HW129339   2.273   4.438   2.876 -2.0355 -0.1861 -1.5200
 5901SOL    HW229340   2.329   4.558   2.809  0.3196  1.8819  1.3209
 5902SOL     OW29341   4.363   4.053   5.332 -0.2730  0.1904 -0.1158
 5902SOL    HW129342   4.384   4.107   5.408  2.1994 -0.5844 -0.2476
 5902SOL    HW229343   4.308   3.983   5.368 -1.2154  0.9856 -0.0030
 5903SOL     OW29344   0.736   0.243   8.695  0.2433  0.1151  0.1034
 5903SOL    HW129345   0.709   0.276   8.609  0.1878  1.3587  0.5996
 5903SOL    HW229346   0.830   0.257   8.691  0.5400 -2.2760 -1.5712
 5904SOL     OW29347   0.675   2.020   7.725  0.3225 -0.1084  0.1005
 5904SOL    HW129348   0.685   1.976   7.809 -1.0739 -2.0999 -0.7697
 5904SOL    HW229349   0.693   2.112   7.743 -2.6554  0.5650 -0.4046
 5905SOL     OW29350   2.975   0.413   8.237 -0.2602 -0.3596  0.1422
 5905SOL    HW129351   3.010   0.497   8.266  1.5852 -1.1348  0.1345
 5905SOL    HW229352   2.981   0.367   8.320  3.5961 -1.6549 -0.8562
 5906SOL     OW29353   3.341   3.260   3.742  0.3430  0.0105  0.2819
 5906SOL    HW129354   3.274   3.323   3.713  0.6108 -0.5246 -1.5195
 5906SOL    HW229355   3.345   3.204   3.664 -0.7810  0.8186 -0.3693
 5907SOL     OW29356   1.112   3.738   4.951 -0.2389  0.0634  0.1153
 5907SOL    HW129357   1.192   3.783   4.925 -0.1264 -0.0707  0.2258
 5907SOL    HW229358   1.042   3.790   4.911 -0.2347  0.0184  0.0492
 5908SOL     OW29359   0.181   1.632   8.660  0.3584 -0.2810  0.9504
 5908SOL    HW129360   0.240   1.586   8.600  1.3963 -1.7831  3.1087
 5908SOL    HW229361   0.158   1.555   8.712 -2.0990  0.4583  0.9572
 5909SOL     OW29362   2.223   4.585   2.509 -0.1156 -0.0556 -0.4036
 5909SOL    HW129363   2.229   4.651   2.440 -0.9943 -0.1975 -0.6081
 5909SOL    HW229364   2.140   4.540   2.493 -0.0288  0.3649 -2.0301
 5910SOL     OW29365   1.419   3.565   4.193  0.3098 -0.0171  0.3141
 5910SOL    HW129366   1.376   3.620   4.128 -0.2071  0.4774  1.0750
 5910SOL    HW229367   1.382   3.597   4.275  2.7085 -0.2757  1.4785
 5911SOL     OW29368   1.252   3.122   6.218  0.4292 -0.2097  0.2482
 5911SOL    HW129369   1.245   3.039   6.170 -0.6085  1.1321 -1.8795
 5911SOL    HW229370   1.199   3.182   6.166  0.5243 -1.1829 -0.9793
 5912SOL     OW29371   4.489   4.290   7.363  0.8693 -0.2426  0.7420
 5912SOL    HW129372   4.521   4.271   7.452  2.1770  1.7571  0.7029
 5912SOL    HW229373   4.458   4.379   7.379  2.0138  0.1421  0.8227
 5913SOL     OW29374   1.172   2.021   6.413 -0.0322  0.4521 -0.9658
 5913SOL    HW129375   1.250   1.965   6.409 -1.3409 -1.6022  2.6769
 5913SOL    HW229376   1.178   2.049   6.504  2.8502 -0.0600 -1.0048
 5914SOL     OW29377   1.020   2.050   8.215  0.5003 -0.3430 -0.7951
 5914SOL    HW129378   0.980   2.091   8.292  1.5767 -3.2879  1.2997
 5914SOL    HW229379   0.960   1.976   8.210 -0.0786  0.0144  0.8871
 5915SOL     OW29380   3.512   4.124   8.750  0.1383  0.1313 -0.2194
 5915SOL    HW129381   3.492   4.035   8.780 -0.1213  0.3922  0.3679
 5915SOL    HW229382   3.607   4.120   8.763  0.0264  0.7327  0.7884
 5916SOL     OW29383   2.293   3.002   7.322 -0.3132 -0.5985 -0.0252
 5916SOL    HW129384   2.318   2.910   7.327  1.1623 -0.0784  2.1051
 5916SOL    HW229385   2.367   3.049   7.360  0.7821 -1.3535 -1.2401
 5917SOL     OW29386   3.523   0.906   5.817  0.0993 -0.2171 -0.0658
 5917SOL    HW129387   3.611   0.874   5.836 -0.6591 -0.4692  2.9435
 5917SOL    HW229388   3.515   0.964   5.893  1.7812 -2.0752  1.5165
 5918SOL     OW29389   2.223   0.616   3.247  0.2291  0.3357  0.2673
 5918SOL    HW129390   2.227   0.569   3.164 -2.8868  3.8562 -1.8793
 5918SOL    HW229391   2.295   0.676   3.228 -0.0016  1.0329  1.5691
 5919SOL     OW29392   0.316   4.055   7.396 -0.5456 -0.5339  0.3974
 5919SOL    HW129393   0.388   4.110   7.430  0.9715 -2.9457  1.0555
 5919SOL    HW229394   0.291   3.998   7.469  0.6251 -0.2963  0.9892
 5920SOL     OW29395   0.179   1.418  13.967 -0.4251 -0.0354  0.6385
 5920SOL    HW129396   0.144   1.498  14.007 -0.8746  0.2562 -0.3359
 5920SOL    HW229397   0.203   1.361  14.040 -2.0570 -0.4854  0.8202
 5921SOL     OW29398   3.714   3.864   0.856 -0.1200  0.8426 -0.2946
 5921SOL    HW129399   3.793   3.827   0.817 -1.1290  0.3072 -1.8368
 5921SOL    HW229400   3.759   3.920   0.919  1.3368 -0.3519 -0.2510
 5922SOL     OW29401   1.159   3.339   2.007  0.3286 -0.5648  0.3455
 5922SOL    HW129402   1.225   3.277   1.975  0.1406 -0.8040  0.4162
 5922SOL    HW229403   1.190   3.405   1.945 -2.6817  0.9198  0.4609
 5923SOL     OW29404   0.114   0.864   6.194 -0.1696 -0.6351 -0.0472
 5923SOL    HW129405   0.055   0.923   6.147 -0.4223  0.6197  1.8594
 5923SOL    HW229406   0.130   0.795   6.129  1.4931  0.2577 -0.5978
 5924SOL     OW29407   1.386   2.944   3.737  0.3298 -0.4989 -0.0349
 5924SOL    HW129408   1.440   2.918   3.663  0.0775  0.9142 -0.7048
 5924SOL    HW229409   1.320   2.992   3.687  0.1391 -1.9301 -1.1356
 5925SOL     OW29410   0.840   0.525  12.124 -0.1821 -0.2358 -0.4456
 5925SOL    HW129411   0.906   0.467  12.086 -1.4388 -1.5429 -0.6867
 5925SOL    HW229412   0.804   0.565  12.045 -2.4637 -0.3417  0.5240
 5926SOL     OW29413   3.551   0.700   1.938 -0.3795 -0.3059  0.4193
 5926SOL    HW129414   3.590   0.729   1.855 -2.9112  2.0583  0.0356
 5926SOL    HW229415   3.502   0.771   1.979  0.7863  0.5546  0.2961
 5927SOL     OW29416   2.721   0.485   1.608  0.4107  0.5868 -0.4444
 5927SOL    HW129417   2.801   0.518   1.648  0.4135  1.5028 -1.1870
 5927SOL    HW229418   2.756   0.409   1.561  1.3239  0.4461  0.4761
 5928SOL     OW29419   1.609   0.345   2.472  1.0220  0.5769  0.3352
 5928SOL    HW129420   1.618   0.252   2.491 -0.9320  0.4278  0.4618
 5928SOL    HW229421   1.691   0.382   2.506  1.2125  2.0276 -1.6721
 5929SOL     OW29422   2.210   1.578   4.687  0.1040 -0.0255 -0.0770
 5929SOL    HW129423   2.181   1.669   4.691  0.6278  0.1242  0.2355
 5929SOL    HW229424   2.144   1.552   4.752  0.0933 -1.0887 -0.5001
 5930SOL     OW29425   2.220   0.115   4.508  0.2788  0.4328 -0.0059
 5930SOL    HW129426   2.225   0.207   4.482 -0.6184  1.2926  2.8671
 5930SOL    HW229427   2.126   0.117   4.524  0.3030  1.4708  0.0180
 5931SOL     OW29428   1.033   4.291   7.034  0.2826 -0.1566 -0.0560
 5931SOL    HW129429   0.948   4.247   7.029  0.3954 -0.1810 -1.8993
 5931SOL    HW229430   1.079   4.226   7.086  0.3775 -0.5963 -0.6948
 5932SOL     OW29431   3.658   0.072  10.674 -0.2083 -0.3975  0.1608
 5932SOL    HW129432   3.715   0.051  10.748 -2.1731 -1.3849  1.3723
 5932SOL    HW229433   3.615   0.150  10.708 -2.5351 -1.8906  0.5908
 5933SOL     OW29434   0.933   4.733   3.140 -0.7082  0.3955 -0.3151
 5933SOL    HW129435   0.848   0.010   3.182 -0.2673 -1.3684  1.1973
 5933SOL    HW229436   0.915   4.656   3.086 -0.9042  0.4403 -0.3152
 5934SOL     OW29437   0.985   1.013   1.298 -0.1225  0.2004  0.2915
 5934SOL    HW129438   0.938   1.038   1.377 -0.0906  3.0263 -0.5895
 5934SOL    HW229439   0.962   0.924   1.273 -2.8046  0.4332  2.0034
 5935SOL     OW29440   3.608   0.169   7.107 -0.1127  0.0619 -0.2931
 5935SOL    HW129441   3.671   0.238   7.128  1.1223 -1.5741  1.4423
 5935SOL    HW229442   3.576   0.193   7.020  1.6747 -1.2406 -1.3148
 5936SOL     OW29443   0.859   2.945  14.007 -0.0210  0.2121 -0.9324
 5936SOL    HW129444   0.836   2.989  13.925 -1.0312  1.9189  0.2624
 5936SOL    HW229445   0.791   2.878  14.007  1.5280 -1.3906  2.9246
 5937SOL     OW29446   0.913   3.251   6.801 -0.1395  0.4906  0.3182
 5937SOL    HW129447   0.995   3.238   6.847  1.1556  1.9003 -1.5789
 5937SOL    HW229448   0.937   3.311   6.730  0.1235 -1.1440 -0.9752
 5938SOL     OW29449   3.083   3.610   6.504 -0.1861 -0.1715 -0.5104
 5938SOL    HW129450   3.110   3.671   6.436  2.4575 -1.1193 -0.2921
 5938SOL    HW229451   3.041   3.541   6.452  3.0248 -1.3151 -1.5682
 5939SOL     OW29452   2.182   3.436  15.091  0.0216 -0.3360 -0.5868
 5939SOL    HW129453   2.201   3.529  15.103 -0.4899 -0.4266  0.9187
 5939SOL    HW229454   2.215   3.399  15.173  1.2971 -2.2154 -1.9364
 5940SOL     OW29455   4.305   0.839  15.218 -0.1994  0.0260 -0.2407
 5940SOL    HW129456   4.277   0.852  15.127  0.1732 -0.8098 -0.4759
 5940SOL    HW229457   4.222   0.820  15.260 -0.7346  1.2724 -0.7267
 5941SOL     OW29458   3.390   2.918  13.684  0.5659 -0.3005 -0.2918
 5941SOL    HW129459   3.453   2.970  13.634 -0.7713  1.5727 -0.0001
 5941SOL    HW229460   3.312   2.974  13.677  0.1273 -0.7601  0.9392
 5942SOL     OW29461   0.540   0.214   7.640  0.1609  0.3824  0.0865
 5942SOL    HW129462   0.484   0.138   7.623  1.8414 -0.5339 -1.3033
 5942SOL    HW229463   0.499   0.274   7.703  0.2567 -1.0399  1.5004
 5943SOL     OW29464   3.102   4.736   0.007  0.0368  0.2028 -0.6215
 5943SOL    HW129465   3.195   4.732  17.737  0.6561  1.2825  1.7478
 5943SOL    HW229466   3.061   4.701  17.681 -0.3603 -2.9881  1.0313
 5944SOL     OW29467   0.359   3.550   1.786  0.5481  0.1726  0.5361
 5944SOL    HW129468   0.333   3.640   1.763 -0.3364  0.2766  1.9490
 5944SOL    HW229469   0.349   3.503   1.703  0.8622  1.0628 -0.0138
 5945SOL     OW29470   4.323   4.361   3.555  0.7081  0.4689  0.2216
 5945SOL    HW129471   4.337   4.275   3.516  0.5404  1.0298 -1.0856
 5945SOL    HW229472   4.227   4.361   3.557  0.6453 -0.3941 -2.7605
 5946SOL     OW29473   2.274   2.386   8.397 -0.1787 -0.1475  0.0007
 5946SOL    HW129474   2.243   2.335   8.321 -0.5012 -0.5030  0.3669
 5946SOL    HW229475   2.204   2.449   8.411  0.2703 -0.1251  2.1226
 5947SOL     OW29476   4.378   4.427   4.328 -0.1063 -0.1203  0.3496
 5947SOL    HW129477   4.466   4.442   4.362  1.1369  2.6375 -4.2436
 5947SOL    HW229478   4.336   4.512   4.314 -1.1212 -0.8106 -0.8318
 5948SOL     OW29479   3.107   3.787   7.169  0.3415  0.0249 -0.7591
 5948SOL    HW129480   3.118   3.880   7.148 -2.1574  0.3697 -0.5794
 5948SOL    HW229481   3.181   3.767   7.227  0.1753  0.2426 -0.4688
 5949SOL     OW29482   0.168   4.416   0.521  0.3390  0.2571 -0.6000
 5949SOL    HW129483   0.184   4.414   0.426  1.0582 -4.1570 -0.3938
 5949SOL    HW229484   0.181   4.509   0.533  1.2549  0.0458 -0.0060
 5950SOL     OW29485   3.023   3.369   6.337 -0.5377 -0.1389  0.5884
 5950SOL    HW129486   3.112   3.371   6.374 -0.2657 -0.4453 -0.0600
 5950SOL    HW229487   2.999   3.280   6.361  0.4964 -0.6789 -0.3776
 5951SOL     OW29488   1.861   1.529   2.179 -0.4967 -0.0915 -0.0276
 5951SOL    HW129489   1.790   1.555   2.120 -0.5108  0.4800  0.2363
 5951SOL    HW229490   1.900   1.613   2.204  2.0822 -1.2338 -0.2386
 5952SOL     OW29491   2.056   2.405   3.032  0.2775  0.1211 -0.4942
 5952SOL    HW129492   1.962   2.387   3.030  0.1857  0.4677  0.6592
 5952SOL    HW229493   2.081   2.364   2.949  0.0806  0.7436 -0.8578
 5953SOL     OW29494   2.207   0.595   8.512  0.8623 -0.0941  0.5840
 5953SOL    HW129495   2.180   0.657   8.445 -0.9397 -3.2071 -1.5814
 5953SOL    HW229496   2.286   0.639   8.544 -0.9473  2.0440  2.1362
 5954SOL     OW29497   1.481   1.141   3.096  0.4664 -0.7281  0.1422
 5954SOL    HW129498   1.481   1.159   3.002  0.2933  1.9037  0.6599
 5954SOL    HW229499   1.556   1.081   3.105 -1.0990 -2.9089 -1.4122
 5955SOL     OW29500   3.548   3.948   9.550  0.1821 -0.5490 -0.3151
 5955SOL    HW129501   3.493   3.870   9.558  0.6073 -0.5748  2.3651
 5955SOL    HW229502   3.480   4.014   9.565  0.4683 -0.2274 -0.4238
 5956SOL     OW29503   2.858   2.496   4.264 -0.1729 -0.1699 -0.2002
 5956SOL    HW129504   2.841   2.582   4.225 -2.4782 -0.4697  0.1437
 5956SOL    HW229505   2.928   2.455   4.212  2.7116  1.5745  2.3250
 5957SOL     OW29506   1.101   4.475   6.308 -0.4600 -0.6636  0.2156
 5957SOL    HW129507   1.032   4.484   6.242  1.2293  0.8914 -1.3255
 5957SOL    HW229508   1.054   4.528   6.372 -0.5676 -0.4822 -0.0144
 5958SOL     OW29509   1.625   1.433   5.980  0.1723  0.4081 -0.2629
 5958SOL    HW129510   1.706   1.405   5.936 -0.4031 -1.3062 -0.2400
 5958SOL    HW229511   1.581   1.349   5.992 -2.4637  1.9209  0.5064
 5959SOL     OW29512   1.896   1.210   7.027 -0.5796  0.5640  0.1907
 5959SOL    HW129513   1.820   1.231   7.081 -2.7083  0.2755 -2.6334
 5959SOL    HW229514   1.909   1.119   7.051  1.1469  0.6525 -0.4440
 5960SOL     OW29515   2.510   4.532   5.782 -0.5669  0.3238 -0.0265
 5960SOL    HW129516   2.566   4.586   5.726 -3.8711 -1.0793 -4.6345
 5960SOL    HW229517   2.513   4.452   5.730  1.8291  0.1700  0.3351
 5961SOL     OW29518   2.476   2.730   5.952  0.3670 -0.0768 -0.2148
 5961SOL    HW129519   2.537   2.698   5.886 -0.8322  0.8065 -1.7734
 5961SOL    HW229520   2.531   2.780   6.013  1.4298  1.0054 -2.0575
 5962SOL     OW29521   0.930   3.620   9.562 -0.3545 -0.5143  0.5791
 5962SOL    HW129522   0.889   3.703   9.542 -0.5096 -1.0427 -1.2948
 5962SOL    HW229523   0.892   3.574   9.488 -1.9447  3.4299 -1.0396
 5963SOL     OW29524   3.060   4.147   5.471 -0.1982  0.2760 -0.2206
 5963SOL    HW129525   3.016   4.100   5.401 -3.0045 -0.3098  1.9419
 5963SOL    HW229526   3.097   4.209   5.408  1.7056 -0.3494  0.2792
 5964SOL     OW29527   3.743   4.719   6.413 -0.3211 -0.1355  0.2214
 5964SOL    HW129528   3.698   0.021   6.338 -2.1886 -0.4700  1.1670
 5964SOL    HW229529   3.831   4.698   6.381 -0.2653  1.3622 -0.6006
 5965SOL     OW29530   1.341   0.611   1.239  0.0597  0.0217  0.0032
 5965SOL    HW129531   1.389   0.530   1.223 -0.8120 -0.4121 -0.4108
 5965SOL    HW229532   1.250   0.583   1.234  0.7449 -2.2320  0.0046
 5966SOL     OW29533   3.430   1.515  10.563 -0.0869  0.9019 -0.1715
 5966SOL    HW129534   3.445   1.424  10.539 -4.4389  0.5592 -1.5380
 5966SOL    HW229535   3.426   1.563  10.481  1.6309 -0.5108 -1.0663
 5967SOL     OW29536   0.062   2.867   7.006 -0.1266 -0.1341 -0.1531
 5967SOL    HW129537   0.149   2.833   7.028  0.5903  0.7720 -1.5314
 5967SOL    HW229538   0.029   2.876   7.095  1.1490  1.1035  0.2026
 5968SOL     OW29539   3.735   0.403  15.530 -0.1233  0.2964  0.2948
 5968SOL    HW129540   3.690   0.453  15.598 -1.5150 -0.9601  0.2905
 5968SOL    HW229541   3.822   0.444  15.531 -0.3392  0.7559  0.2886
 5969SOL     OW29542   2.450   3.661  14.058  0.0341  0.6897  0.5918
 5969SOL    HW129543   2.516   3.592  14.067 -1.2266 -0.3616  1.6303
 5969SOL    HW229544   2.455   3.697  14.147  0.3865 -2.2911  1.7556
 5970SOL     OW29545   3.141   3.327   7.323 -0.5713  0.0916  0.2642
 5970SOL    HW129546   3.162   3.236   7.305 -2.8269 -0.5459  0.9429
 5970SOL    HW229547   3.192   3.375   7.257  1.1604 -0.6636  1.0339
 5971SOL     OW29548   4.016   0.009   4.187  0.1762  0.2262  0.6785
 5971SOL    HW129549   4.004   4.659   4.153  0.6775  0.0884  0.8513
 5971SOL    HW229550   4.102   0.002   4.228 -1.2898  0.1456  3.7408
 5972SOL     OW29551   2.784   3.854  13.131 -0.2225 -0.0264  0.2276
 5972SOL    HW129552   2.821   3.774  13.167  0.4136  0.1466 -0.0497
 5972SOL    HW229553   2.691   3.835  13.145  0.1778 -3.5108 -1.8050
 5973SOL     OW29554   2.169   3.908  17.503  0.5885  0.4641  0.1231
 5973SOL    HW129555   2.196   3.863  17.582 -0.2066 -0.2082  0.0059
 5973SOL    HW229556   2.217   3.863  17.433  0.4549 -0.7511  0.8187
 5974SOL     OW29557   1.953   1.144   2.993  0.3600  0.1373  0.0653
 5974SOL    HW129558   1.972   1.082   2.923  0.0169 -1.5760  1.4878
 5974SOL    HW229559   1.915   1.219   2.948 -0.3394  0.0983  0.5839
 5975SOL     OW29560   1.442   2.884   6.999 -0.0114 -0.0463  0.5802
 5975SOL    HW129561   1.371   2.944   7.024 -2.8382 -2.7444 -1.1011
 5975SOL    HW229562   1.448   2.837   7.082  2.8432 -0.1716  0.2943
 5976SOL     OW29563   2.182   3.243   7.956  0.3441  0.7256 -0.2082
 5976SOL    HW129564   2.201   3.192   7.877  0.3494 -1.6636  1.3601
 5976SOL    HW229565   2.188   3.333   7.922  2.4159  0.6238 -0.1515
 5977SOL     OW29566   4.663   3.505   3.768  0.2675 -0.0015  0.1156
 5977SOL    HW129567   4.569   3.524   3.770 -0.2015 -2.4690  1.6094
 5977SOL    HW229568   4.675   3.445   3.841  2.7893 -1.1704 -1.2622
 5978SOL     OW29569   2.959   0.916  12.586 -0.0478 -0.1838 -0.2291
 5978SOL    HW129570   3.002   0.977  12.526 -3.2040  0.2728 -2.0503
 5978SOL    HW229571   3.037   0.876  12.625 -0.3077 -1.7311 -1.3248
 5979SOL     OW29572   4.672   1.487   1.918  0.0838  0.2497  0.4579
 5979SOL    HW129573   0.020   1.498   1.956 -0.0489  0.9456  0.5524
 5979SOL    HW229574   4.640   1.403   1.949  2.3529 -0.6675  0.2985
 5980SOL     OW29575   3.665   0.807   6.658  0.2009 -0.6365  0.3189
 5980SOL    HW129576   3.756   0.791   6.631  0.3816  0.1762  0.4662
 5980SOL    HW229577   3.636   0.866   6.588  1.6606 -1.7436 -1.2341
 5981SOL     OW29578   0.798   0.796  17.628 -0.1478 -0.1870 -0.0502
 5981SOL    HW129579   0.807   0.881  17.585  1.3051 -1.6247 -2.6036
 5981SOL    HW229580   0.887   0.776  17.656 -0.6102 -4.1999 -1.3912
 5982SOL     OW29581   1.229   4.288   8.191  0.6035 -0.5841 -0.3989
 5982SOL    HW129582   1.223   4.287   8.095 -1.4217 -2.4843 -0.2334
 5982SOL    HW229583   1.324   4.300   8.189  0.2119  2.6202 -0.8250
 5983SOL     OW29584   1.029   4.526   2.838  0.1625  0.4453 -0.4677
 5983SOL    HW129585   1.102   4.581   2.866  1.7406 -1.9059  0.0753
 5983SOL    HW229586   0.982   4.502   2.918 -0.4261 -1.4735 -1.3949
 5984SOL     OW29587   4.691   1.960   8.362 -0.2999  0.8937 -0.1603
 5984SOL    HW129588   4.698   1.865   8.369  0.0306  0.8774 -0.7300
 5984SOL    HW229589   4.617   1.986   8.417  2.1932  3.5407  1.9377
 5985SOL     OW29590   0.137   1.957   4.259 -0.3510 -0.1717  0.1618
 5985SOL    HW129591   0.088   1.878   4.283 -1.3247  0.4113  0.0936
 5985SOL    HW229592   0.191   1.969   4.336  2.2298 -1.2400 -1.4840
 5986SOL     OW29593   3.773   2.347   9.926  0.2992  0.9596  0.3548
 5986SOL    HW129594   3.740   2.366  10.014 -2.1145 -1.0783 -0.0737
 5986SOL    HW229595   3.829   2.424   9.924 -0.9661  1.9390  1.9812
 5987SOL     OW29596   3.524   4.543   6.959  0.1488 -0.1798 -0.4069
 5987SOL    HW129597   3.545   4.464   7.009  0.4179  0.4434  0.4797
 5987SOL    HW229598   3.604   4.562   6.911  1.3065 -3.7449  0.1108
 5988SOL     OW29599   3.965   3.819   8.806  0.0024  0.3996 -0.3700
 5988SOL    HW129600   4.052   3.819   8.767  0.6056  0.0681  0.9557
 5988SOL    HW229601   3.949   3.725   8.820 -0.4095  0.5711  0.3153
 5989SOL     OW29602   3.813   0.325   9.068  0.0988 -0.6739  0.1420
 5989SOL    HW129603   3.788   0.276   8.989  0.3352 -1.6802  0.6993
 5989SOL    HW229604   3.859   0.402   9.035 -1.5166 -0.0125 -0.5505
 5990SOL     OW29605   0.394   0.614  10.622  0.0417  0.0658 -0.9726
 5990SOL    HW129606   0.330   0.546  10.643 -0.6108  0.1980 -2.5944
 5990SOL    HW229607   0.347   0.689  10.587  1.1560  0.5675 -1.3836
 5991SOL     OW29608   2.659   0.240  15.654 -0.4348  0.0214 -0.8240
 5991SOL    HW129609   2.658   0.317  15.597 -0.4599  1.4700  1.1573
 5991SOL    HW229610   2.622   0.276  15.734  2.9113  1.2598  0.1605
 5992SOL     OW29611   3.184   1.120   4.261  0.0329  0.6016  0.8217
 5992SOL    HW129612   3.206   1.086   4.347 -0.0135 -1.0156  0.2103
 5992SOL    HW229613   3.267   1.121   4.212  0.3733  1.8391  1.4446
 5993SOL     OW29614   4.581   3.760   4.807 -0.1863 -0.1401 -0.0640
 5993SOL    HW129615   4.579   3.704   4.885 -1.8090  0.2146  0.1660
 5993SOL    HW229616   4.632   3.837   4.830 -0.3465  0.4295 -1.6272
 5994SOL     OW29617   3.614   0.433   3.655  0.6752 -0.5609 -0.3439
 5994SOL    HW129618   3.706   0.457   3.659  0.6776 -0.5911 -0.2324
 5994SOL    HW229619   3.593   0.403   3.743 -0.7549  0.8657 -0.1963
 5995SOL     OW29620   2.948   2.514   6.234  0.6690  0.0090  0.5866
 5995SOL    HW129621   2.942   2.544   6.144 -0.5447 -0.0374  0.6569
 5995SOL    HW229622   2.870   2.458   6.232  1.6437 -1.2953 -0.9949
 5996SOL     OW29623   4.650   1.702   5.826  0.5545 -0.0509 -0.0911
 5996SOL    HW129624   4.726   1.653   5.856 -0.7054 -0.9097  1.6922
 5996SOL    HW229625   4.581   1.636   5.833 -0.8601  1.4408  0.0368
 5997SOL     OW29626   0.788   1.444  15.196 -0.1880  0.3941  0.3377
 5997SOL    HW129627   0.879   1.416  15.190  0.1991  1.8285 -0.4546
 5997SOL    HW229628   0.753   1.365  15.238  0.8098  0.0585  0.5373
 5998SOL     OW29629   0.412   1.529  12.923 -0.3949  0.3425  0.2847
 5998SOL    HW129630   0.477   1.591  12.891 -0.5897 -0.8443 -2.4099
 5998SOL    HW229631   0.349   1.553  12.855 -1.4777 -1.5805  0.5981
 5999SOL     OW29632   3.849   3.344   5.674  0.5003 -0.4519 -0.0707
 5999SOL    HW129633   3.917   3.398   5.714 -0.8394  0.3977  1.0917
 5999SOL    HW229634   3.872   3.353   5.582 -1.2697  0.7271 -0.4019
 6000SOL     OW29635   2.879   1.244  16.763 -0.5364 -0.0154  0.0668
 6000SOL    HW129636   2.806   1.277  16.711 -1.2530 -1.7642 -0.0450
 6000SOL    HW229637   2.949   1.237  16.698 -1.7786  0.1005 -1.2892
 6001SOL     OW29638   0.307   4.442   6.278  0.5321  0.3305  0.1563
 6001SOL    HW129639   0.293   4.534   6.254 -1.7834  0.0485  0.3901
 6001SOL    HW229640   0.246   4.397   6.220  1.8731  1.3432 -2.0294
 6002SOL     OW29641   3.086   0.770   3.888  0.3303 -0.1540  0.1206
 6002SOL    HW129642   3.017   0.829   3.916  0.5412 -0.6525  1.7045
 6002SOL    HW229643   3.148   0.815   3.945  1.2097  0.2732 -1.1661
 6003SOL     OW29644   0.282   2.745   6.738 -0.1517  0.2684  0.0281
 6003SOL    HW129645   0.282   2.671   6.797 -0.4186  0.2516  0.0071
 6003SOL    HW229646   0.191   2.775   6.746  0.6406  1.8124  3.1111
 6004SOL     OW29647   3.028   2.755   2.116  0.4085 -0.3729 -0.2203
 6004SOL    HW129648   3.091   2.695   2.076 -0.8381 -0.7585 -1.5840
 6004SOL    HW229649   2.976   2.681   2.148  0.5076 -0.0052  0.8198
 6005SOL     OW29650   2.859   0.886   9.157  0.1403 -0.1771 -0.2534
 6005SOL    HW129651   2.823   0.931   9.081 -1.4815  0.0534  0.6405
 6005SOL    HW229652   2.873   0.960   9.216 -0.0787 -1.2502  1.1477
 6006SOL     OW29653   1.797   3.029   3.409  0.2161  0.3604 -0.0269
 6006SOL    HW129654   1.722   2.975   3.384  0.0617  1.0578 -1.1220
 6006SOL    HW229655   1.807   3.083   3.330 -2.8143  0.6837 -0.2010
 6007SOL     OW29656   2.399   2.910   0.414  0.2453  0.2927  0.7433
 6007SOL    HW129657   2.478   2.867   0.448 -1.0014 -3.7168 -1.4934
 6007SOL    HW229658   2.328   2.858   0.450  0.2536 -1.5392 -1.9450
 6008SOL     OW29659   4.477   2.978   3.830  0.8718 -0.8322 -0.3132
 6008SOL    HW129660   4.570   2.973   3.806  0.7671  2.0953 -1.2303
 6008SOL    HW229661   4.443   2.963   3.742 -0.4599 -0.4592  0.1387
 6009SOL     OW29662   1.765   4.238   9.967 -0.1706  0.2526  0.0686
 6009SOL    HW129663   1.760   4.306   9.900  1.5478  0.4468  0.1381
 6009SOL    HW229664   1.675   4.226   9.998  0.8935 -4.0012  1.5341
 6010SOL     OW29665   1.551   0.431   5.249 -0.3780  0.4792 -0.5804
 6010SOL    HW129666   1.587   0.468   5.168  1.7099  0.9371  0.5661
 6010SOL    HW229667   1.464   0.416   5.211  0.2553  0.9699 -2.2064
 6011SOL     OW29668   3.566   2.772   3.109 -0.2858  0.4047  0.1693
 6011SOL    HW129669   3.517   2.850   3.082 -2.0541 -0.6556  0.2600
 6011SOL    HW229670   3.657   2.798   3.124  0.1630 -0.9072 -0.3294
 6012SOL     OW29671   2.303   4.343   6.338  0.0270  0.0506  0.0123
 6012SOL    HW129672   2.378   4.315   6.286  0.8240 -1.6222  2.0255
 6012SOL    HW229673   2.349   4.407   6.392  0.7686 -1.4585  1.1643
 6013SOL     OW29674   2.064   3.098   9.303  0.4643 -0.7678  0.0757
 6013SOL    HW129675   2.086   3.030   9.366 -0.6154 -0.9694  0.2355
 6013SOL    HW229676   2.058   3.177   9.357 -1.2714 -0.5098 -0.4971
 6014SOL     OW29677   0.542   0.289  13.151  0.4368  0.0967  0.3799
 6014SOL    HW129678   0.551   0.229  13.077  0.6123 -1.0284  1.3329
 6014SOL    HW229679   0.523   0.236  13.228  0.2715  0.7837  0.8110
 6015SOL     OW29680   2.501   2.298   3.249  0.4801 -0.1514 -0.6041
 6015SOL    HW129681   2.453   2.359   3.193  1.2540  0.4533 -0.5997
 6015SOL    HW229682   2.530   2.360   3.315  0.6369  0.0882 -0.8971
 6016SOL     OW29683   3.732   2.878   0.399 -0.1349  0.1704  0.1765
 6016SOL    HW129684   3.807   2.927   0.433  0.8937 -0.4540 -1.1835
 6016SOL    HW229685   3.695   2.839   0.478 -1.1377  1.3580  0.3025
 6017SOL     OW29686   0.386   2.782   5.851 -0.2796 -0.0204 -0.1635
 6017SOL    HW129687   0.304   2.752   5.812  0.3182 -0.1875 -1.2752
 6017SOL    HW229688   0.350   2.863   5.888  0.6594  0.5059 -0.3789
 6018SOL     OW29689   1.187   3.631   3.611 -0.5499 -0.0211  0.2723
 6018SOL    HW129690   1.166   3.562   3.674  0.8667 -1.0910 -0.4106
 6018SOL    HW229691   1.278   3.629   3.643 -1.3175  0.7076  2.5072
 6019SOL     OW29692   0.349   3.588   8.632  0.0646  0.1192  0.7450
 6019SOL    HW129693   0.321   3.527   8.564 -1.7854  0.2549  1.3675
 6019SOL    HW229694   0.300   3.668   8.612  1.3300 -0.0409 -3.0054
 6020SOL     OW29695   1.092   4.458   3.766 -0.3646 -0.4131 -0.8022
 6020SOL    HW129696   1.088   4.553   3.757 -0.7699 -0.3721 -0.2398
 6020SOL    HW229697   1.039   4.447   3.845 -2.3478 -1.4577 -2.2537
 6021SOL     OW29698   0.080   1.650  14.076  0.4230 -0.8297  0.1007
 6021SOL    HW129699   0.079   1.739  14.040  2.5909 -1.0422 -0.4590
 6021SOL    HW229700   0.058   1.653  14.169  1.8487 -2.9245  0.5049
 6022SOL     OW29701   1.308   4.591   9.806  0.2528 -0.4734  0.8166
 6022SOL    HW129702   1.307   4.544   9.889  2.8613 -2.1902 -0.1335
 6022SOL    HW229703   1.401   4.593   9.785  0.2224 -1.6239  0.5395
 6023SOL     OW29704   0.273   0.730  13.495  0.0158  0.6637  0.0173
 6023SOL    HW129705   0.288   0.772  13.580  0.0567  0.8866 -0.1017
 6023SOL    HW229706   0.177   0.736  13.490 -0.1059 -0.0705  1.3049
 6024SOL     OW29707   3.482   2.019  14.416  0.6412  0.5359  0.5867
 6024SOL    HW129708   3.421   2.030  14.343  0.5525  1.9812  0.8805
 6024SOL    HW229709   3.461   1.931  14.447  1.6630 -0.4342 -1.5290
 6025SOL     OW29710   0.711   4.340   3.448 -0.3277 -0.8022  0.1409
 6025SOL    HW129711   0.716   4.433   3.427 -2.8691 -0.3446  1.5280
 6025SOL    HW229712   0.727   4.339   3.542  0.2586 -1.9637  0.0229
 6026SOL     OW29713   3.689   1.147   1.645 -0.1687  0.4153 -0.1033
 6026SOL    HW129714   3.653   1.080   1.587 -0.0710 -0.8892  1.3422
 6026SOL    HW229715   3.677   1.112   1.734 -3.4362 -0.2189 -0.7682
 6027SOL     OW29716   4.033   0.494   6.611  1.0835 -0.2245  0.2186
 6027SOL    HW129717   4.084   0.530   6.539  0.3746 -3.5095 -1.8835
 6027SOL    HW229718   4.038   0.571   6.668 -0.8568 -1.9286  2.6910
 6028SOL     OW29719   4.280   4.620  12.692 -0.1141  0.1383 -0.0003
 6028SOL    HW129720   4.317   4.552  12.636 -1.2464 -0.0833 -0.4683
 6028SOL    HW229721   4.288   4.587  12.782 -0.7906  2.3367  0.8721
 6029SOL     OW29722   2.342   4.266  12.918  0.4374 -0.1686 -0.3421
 6029SOL    HW129723   2.417   4.325  12.925  0.8702 -0.4867 -2.3169
 6029SOL    HW229724   2.389   4.185  12.935 -0.4566 -0.9678 -1.7104
 6030SOL     OW29725   0.559   2.062   5.805 -0.0480  0.6433  0.3317
 6030SOL    HW129726   0.616   2.108   5.866  1.3420 -0.1033 -0.4264
 6030SOL    HW229727   0.609   2.061   5.724 -0.3161 -2.0871  0.2015
 6031SOL     OW29728   3.990   4.506   6.259 -0.1906  0.3370 -0.7096
 6031SOL    HW129729   4.015   4.580   6.314 -1.9594 -0.6502  1.4261
 6031SOL    HW229730   4.061   4.503   6.195  0.1437  0.9179 -0.3649
 6032SOL     OW29731   3.651   4.711   3.136 -0.6973  0.0443  0.0119
 6032SOL    HW129732   3.706   0.027   3.192  0.9241 -1.4259 -0.1402
 6032SOL    HW229733   3.583   0.026   3.095 -0.5699 -0.3103 -0.6571
 6033SOL     OW29734   2.963   3.906   8.881 -0.4022 -0.0975 -0.3232
 6033SOL    HW129735   2.882   3.855   8.884 -0.3077 -0.2012  0.6292
 6033SOL    HW229736   3.008   3.868   8.806  1.6248 -0.2268  0.9613
 6034SOL     OW29737   4.534   3.618   6.477  0.7064  0.2837 -0.4192
 6034SOL    HW129738   4.617   3.629   6.524  0.8726  0.4155 -0.7431
 6034SOL    HW229739   4.472   3.663   6.534  2.3056  2.7104 -0.6040
 6035SOL     OW29740   0.394   4.037  16.575 -0.3899  0.1005  0.3546
 6035SOL    HW129741   0.301   4.043  16.599 -0.2625 -1.4201  1.2349
 6035SOL    HW229742   0.417   3.950  16.608  0.3964  0.0791 -0.2631
 6036SOL     OW29743   0.595   3.194   8.850 -0.0913 -0.2428  0.3803
 6036SOL    HW129744   0.644   3.256   8.903  1.6227 -3.0092  2.0840
 6036SOL    HW229745   0.504   3.205   8.879 -0.9995 -1.6803 -1.9100
 6037SOL     OW29746   1.599   2.549   4.702  0.1133  0.3037  0.0272
 6037SOL    HW129747   1.669   2.514   4.647 -0.2829  0.3510 -0.5062
 6037SOL    HW229748   1.627   2.640   4.699  1.7285 -0.1630  0.7229
 6038SOL     OW29749   1.756   0.941   8.820 -0.0262 -0.4212  0.2786
 6038SOL    HW129750   1.686   0.883   8.788 -0.1846 -1.6013  2.7194
 6038SOL    HW229751   1.820   0.873   8.841  1.1853  1.3853  2.3919
 6039SOL     OW29752   1.909   1.899  12.932  0.2789  0.0468 -0.3035
 6039SOL    HW129753   1.967   1.943  12.869 -0.1468  1.9312  0.6468
 6039SOL    HW229754   1.876   1.818  12.892 -0.4878 -0.2634  0.9672
 6040SOL     OW29755   3.857   1.358  15.363 -0.4804  0.1781  0.3297
 6040SOL    HW129756   3.793   1.362  15.435 -1.8294  0.6266 -0.8882
 6040SOL    HW229757   3.934   1.362  15.419 -0.6847  0.5326  0.5829
 6041SOL     OW29758   2.443   4.277   0.383  0.3715  0.0164 -0.2043
 6041SOL    HW129759   2.519   4.335   0.385  0.3129  0.0465  0.7151
 6041SOL    HW229760   2.380   4.335   0.425 -1.1191 -0.9000 -1.1539
 6042SOL     OW29761   3.158   2.557   6.529 -0.3268 -0.2624  0.5768
 6042SOL    HW129762   3.075   2.512   6.517 -0.7976  0.7543  0.0495
 6042SOL    HW229763   3.202   2.496   6.589  0.2390 -1.2681 -0.8480
 6043SOL     OW29764   1.991   4.491   4.954  0.1942 -0.1775  0.0514
 6043SOL    HW129765   1.940   4.444   4.887  1.2319  0.5218 -1.2278
 6043SOL    HW229766   2.048   4.417   4.975  0.4177 -0.4177 -1.3954
 6044SOL     OW29767   1.370   2.453   8.362 -0.5896 -0.6997  0.1041
 6044SOL    HW129768   1.446   2.499   8.326 -1.1027 -0.9276 -1.2538
 6044SOL    HW229769   1.321   2.527   8.399  0.1494  0.2623 -0.8303
 6045SOL     OW29770   3.255   2.909  15.109 -0.1712  0.5482  0.0051
 6045SOL    HW129771   3.323   2.842  15.105 -1.9269 -1.2781  0.8280
 6045SOL    HW229772   3.299   2.983  15.151  0.2814 -0.0285  0.5241
 6046SOL     OW29773   2.323   1.784   8.934 -0.3655 -0.1043 -0.3309
 6046SOL    HW129774   2.396   1.845   8.933 -1.1204  0.8083  1.6139
 6046SOL    HW229775   2.247   1.835   8.906  1.1175  1.0057 -2.3371
 6047SOL     OW29776   3.794   2.296  15.524 -0.5305 -0.3432  0.1657
 6047SOL    HW129777   3.738   2.373  15.509 -0.1873  0.1601  1.4676
 6047SOL    HW229778   3.727   2.229  15.538 -2.5480  1.4713 -0.6499
 6048SOL     OW29779   2.870   1.094  17.257  0.1949  0.1355  0.0707
 6048SOL    HW129780   2.862   1.163  17.323  2.9831 -1.1738  1.8351
 6048SOL    HW229781   2.941   1.131  17.204  0.8899 -1.4901 -0.1470
 6049SOL     OW29782   0.469   1.696   5.543 -0.1959  0.1405  0.6326
 6049SOL    HW129783   0.511   1.610   5.551 -0.3719  0.1944  1.9907
 6049SOL    HW229784   0.507   1.744   5.616  0.1752 -1.9970  1.8266
 6050SOL     OW29785   2.795   2.729   0.067  0.1678  0.5739  0.3367
 6050SOL    HW129786   2.793   2.681  17.737 -1.1004 -1.4086  1.5353
 6050SOL    HW229787   2.863   2.680   0.115 -0.8763 -2.3503 -1.1908
 6051SOL     OW29788   3.144   0.713   8.829 -0.0109 -0.3383  1.2428
 6051SOL    HW129789   3.093   0.778   8.781  0.1002 -0.8186  0.4707
 6051SOL    HW229790   3.093   0.636   8.804 -0.8675  0.5216  0.3123
 6052SOL     OW29791   1.372   0.945   8.679  0.0277 -0.3564  0.6544
 6052SOL    HW129792   1.301   0.967   8.740 -1.5237  0.1121 -1.3461
 6052SOL    HW229793   1.418   0.872   8.721  1.3135 -0.1716 -0.4506
 6053SOL     OW29794   0.277   4.385   5.861 -0.1569 -0.9381 -0.1056
 6053SOL    HW129795   0.273   4.474   5.825 -2.9918 -0.2926  1.7849
 6053SOL    HW229796   0.259   4.329   5.786 -1.6854  1.3978 -1.4682
 6054SOL     OW29797   1.617   1.794  11.264 -0.1862  0.5974 -0.2170
 6054SOL    HW129798   1.632   1.887  11.281 -0.2333  1.1847 -3.2845
 6054SOL    HW229799   1.530   1.786  11.304  0.7142 -1.3050  1.3113
 6055SOL     OW29800   2.019   4.182  17.525  0.0852  0.3202 -0.2381
 6055SOL    HW129801   1.939   4.233  17.511  0.0045  0.0158 -0.8580
 6055SOL    HW229802   2.006   4.096  17.486  1.9768  0.5170 -1.3176
 6056SOL     OW29803   0.604   3.735   7.074  0.1612 -0.4279 -0.5797
 6056SOL    HW129804   0.557   3.801   7.023 -0.7220  2.2132  3.6608
 6056SOL    HW229805   0.646   3.787   7.143 -0.2212  0.0852 -0.7400
 6057SOL     OW29806   1.285   0.923   1.567  0.6070 -0.4224  0.4487
 6057SOL    HW129807   1.303   0.950   1.477 -1.0324  1.7381  0.7661
 6057SOL    HW229808   1.345   0.978   1.618  2.8002 -2.5685  0.1657
 6058SOL     OW29809   1.488   2.152   3.822 -0.1035 -0.1975  0.1662
 6058SOL    HW129810   1.508   2.245   3.813 -1.3876 -0.1125 -1.8371
 6058SOL    HW229811   1.419   2.157   3.887  1.0467  0.7485  1.3148
 6059SOL     OW29812   2.537   1.492   3.627 -0.9747 -0.2894 -0.2499
 6059SOL    HW129813   2.505   1.582   3.617 -1.0011 -0.2989 -0.2508
 6059SOL    HW229814   2.543   1.481   3.722  0.5584  0.5509 -0.2599
 6060SOL     OW29815   1.221   0.621   6.589 -0.1529 -0.1729 -0.0513
 6060SOL    HW129816   1.222   0.653   6.679 -0.5836  0.0334 -0.1220
 6060SOL    HW229817   1.128   0.630   6.570 -0.1635 -0.6184 -0.2096
 6061SOL     OW29818   0.314   0.600   6.535 -0.3386 -0.4000 -0.6120
 6061SOL    HW129819   0.231   0.597   6.488  0.1582 -3.2554 -1.2861
 6061SOL    HW229820   0.278   0.568   6.618  1.1895  1.3174  0.7276
 6062SOL     OW29821   2.142   0.385   1.894  0.3964 -0.8929  0.0468
 6062SOL    HW129822   2.196   0.456   1.930 -1.1337  0.8182 -1.0148
 6062SOL    HW229823   2.158   0.404   1.801 -1.7033  1.8860  0.2437
 6063SOL     OW29824   2.945   4.723   7.689  0.1630 -0.0912  0.2539
 6063SOL    HW129825   2.961   0.071   7.726 -2.8404 -0.0783  1.4888
 6063SOL    HW229826   2.942   4.737   7.594 -1.6047  0.5177  0.4007
 6064SOL     OW29827   4.009   2.520   3.899 -0.2642 -0.0193 -0.5083
 6064SOL    HW129828   4.059   2.441   3.875  2.2928  0.5649  2.8500
 6064SOL    HW229829   3.965   2.536   3.816 -0.2643  0.5652 -0.3905
 6065SOL     OW29830   4.139   0.856  15.000 -0.3977 -0.4274 -0.1981
 6065SOL    HW129831   4.060   0.803  15.003 -0.2628 -0.6022  0.1958
 6065SOL    HW229832   4.177   0.840  14.914  1.3108  0.6042  0.3688
 6066SOL     OW29833   0.054   0.477   5.753 -0.0429 -0.3408 -0.3235
 6066SOL    HW129834   0.149   0.471   5.759 -0.0285  0.8772  0.8942
 6066SOL    HW229835   0.030   0.415   5.685 -0.1716  0.6551 -1.1874
 6067SOL     OW29836   3.969   2.821   9.666 -0.2325  0.3775 -0.6540
 6067SOL    HW129837   4.038   2.850   9.726  0.8630 -0.2132 -1.6046
 6067SOL    HW229838   3.972   2.725   9.673  0.9065  0.5665  1.3513
 6068SOL     OW29839   4.734   3.036  12.718  0.2315 -0.2776 -0.2467
 6068SOL    HW129840   0.045   2.988  12.784 -0.6183 -0.3975  0.3083
 6068SOL    HW229841   4.640   3.019  12.730 -0.2079  1.6355 -0.9763
 6069SOL     OW29842   3.280   2.280   2.024  0.6448 -0.0643  0.2836
 6069SOL    HW129843   3.298   2.291   1.931 -5.0083 -0.8867 -0.9011
 6069SOL    HW229844   3.214   2.211   2.022  0.2887  0.3121 -0.6203
 6070SOL     OW29845   3.979   0.719   9.270 -0.1139 -0.1526 -0.0041
 6070SOL    HW129846   4.027   0.636   9.260  1.5530  0.9296 -0.9673
 6070SOL    HW229847   4.042   0.781   9.233 -1.2200  1.4060  0.7295
 6071SOL     OW29848   1.901   1.061   9.371  0.4545  0.3024 -0.3754
 6071SOL    HW129849   1.864   0.976   9.350  0.5497  0.0539  0.4711
 6071SOL    HW229850   1.996   1.052   9.374  0.1632 -1.8373  2.6622
 6072SOL     OW29851   3.833   0.080   1.956  0.3738 -0.1790 -0.4370
 6072SOL    HW129852   3.852   0.169   1.987 -0.9078 -0.4198  1.0161
 6072SOL    HW229853   3.782   0.094   1.876  0.4572 -0.9365 -0.6241
 6073SOL     OW29854   1.097   2.127   3.667 -0.2680 -0.1307  0.0588
 6073SOL    HW129855   1.109   2.082   3.751 -0.1727  1.2962  0.8210
 6073SOL    HW229856   1.175   2.092   3.624  1.1394  1.2641  1.4462
 6074SOL     OW29857   1.281   3.566  17.083  0.6903 -0.0648 -0.0883
 6074SOL    HW129858   1.245   3.588  16.997 -0.3513  1.9133  0.8691
 6074SOL    HW229859   1.332   3.492  17.049  0.4836  0.8746 -2.4836
 6075SOL     OW29860   0.953   1.664   2.474  0.1383 -0.4832 -0.0764
 6075SOL    HW129861   0.973   1.575   2.503  0.5724 -0.8714 -1.6003
 6075SOL    HW229862   0.951   1.644   2.381 -0.6787 -0.4599 -0.0650
 6076SOL     OW29863   2.010   3.097   0.828  0.2821 -0.2714  0.2224
 6076SOL    HW129864   2.092   3.139   0.799  1.0604 -2.1401 -0.3082
 6076SOL    HW229865   1.994   3.029   0.763  0.1642  0.0136 -0.0457
 6077SOL     OW29866   0.042   2.124   3.324  0.5501  0.1217  0.2362
 6077SOL    HW129867   0.059   2.031   3.340  0.1102  0.1431  0.8116
 6077SOL    HW229868   0.087   2.149   3.243  0.3531  0.2596  0.1681
 6078SOL     OW29869   1.153   2.703   6.939 -0.1572 -0.2359  0.1800
 6078SOL    HW129870   1.087   2.651   6.895 -0.0249  0.5306 -0.9325
 6078SOL    HW229871   1.176   2.764   6.868 -0.0957 -1.1016 -0.5365
 6079SOL     OW29872   3.304   1.053   3.490 -0.0543  0.7215  0.9332
 6079SOL    HW129873   3.265   1.140   3.498 -2.2364 -0.0784 -1.1609
 6079SOL    HW229874   3.284   1.030   3.399  0.4069  0.6322  0.8516
 6080SOL     OW29875   3.490   1.171   9.992 -0.5125 -0.4092 -0.0576
 6080SOL    HW129876   3.427   1.127  10.050 -1.8406  0.0541 -1.1509
 6080SOL    HW229877   3.517   1.090   9.949 -0.8885 -0.7507  0.3454
 6081SOL     OW29878   1.516   2.095   8.478  0.2895  0.2323  0.3269
 6081SOL    HW129879   1.450   2.101   8.409  1.0216  0.4916 -0.3477
 6081SOL    HW229880   1.576   2.163   8.446 -2.0522  1.5517 -1.2333
 6082SOL     OW29881   0.850   3.304   4.651  0.5713 -0.0393 -0.1927
 6082SOL    HW129882   0.877   3.219   4.686  1.1776 -0.0109 -0.5888
 6082SOL    HW229883   0.922   3.362   4.674  0.3297  0.7999 -1.5643
 6083SOL     OW29884   1.466   0.590   6.468  0.2666 -0.1185 -0.1069
 6083SOL    HW129885   1.378   0.573   6.501  1.3629 -0.2935  2.7131
 6083SOL    HW229886   1.451   0.643   6.390 -2.1718  2.3803  2.0080
 6084SOL     OW29887   4.435   3.534   8.760  0.3860  0.5940  0.4764
 6084SOL    HW129888   4.380   3.548   8.837  1.2362 -1.1242  1.4098
 6084SOL    HW229889   4.482   3.616   8.745 -0.2417  1.0271  0.8554
 6085SOL     OW29890   2.325   0.871   9.535  0.2120  0.1120  0.2294
 6085SOL    HW129891   2.388   0.923   9.584  0.3193 -0.6988  0.9443
 6085SOL    HW229892   2.353   0.780   9.545  1.2471  0.2573 -1.3621
 6086SOL     OW29893   2.926   4.442  10.124  0.6805  0.5560  0.0628
 6086SOL    HW129894   2.955   4.527  10.157  2.0954  1.2686 -3.0045
 6086SOL    HW229895   2.897   4.401  10.206  1.3669 -0.5166 -0.2444
 6087SOL     OW29896   0.810   1.723   2.722  0.2192 -0.4106 -0.7160
 6087SOL    HW129897   0.896   1.722   2.766 -0.9897 -0.7586  1.6371
 6087SOL    HW229898   0.829   1.677   2.640 -1.8560 -1.4175 -0.6343
 6088SOL     OW29899   0.489   1.025   2.837 -0.3324  0.0533  0.5924
 6088SOL    HW129900   0.540   0.944   2.837  0.1058  0.3325  0.0849
 6088SOL    HW229901   0.546   1.095   2.805 -2.0814  1.0127 -0.4848
 6089SOL     OW29902   2.096   4.323  12.840  0.0354 -0.0375 -0.6997
 6089SOL    HW129903   2.182   4.313  12.880 -0.3801  2.6107  0.8989
 6089SOL    HW229904   2.118   4.305  12.749 -0.1456  0.2650 -0.8052
 6090SOL     OW29905   1.105   4.312   0.293  0.7529 -0.1157  0.1918
 6090SOL    HW129906   1.192   4.271   0.295  1.2373  0.9981  1.8375
 6090SOL    HW229907   1.050   4.234   0.302  0.8213 -0.0068  1.5730
 6091SOL     OW29908   0.536   4.560   3.645 -0.3425  0.6541 -0.4349
 6091SOL    HW129909   0.606   4.573   3.709 -0.5718 -0.5747  0.0682
 6091SOL    HW229910   0.462   4.520   3.690 -1.9730  1.6600 -2.2308
 6092SOL     OW29911   0.132   2.160   2.081 -0.4921  0.0091 -0.0343
 6092SOL    HW129912   0.090   2.146   2.166 -3.3309 -0.9306 -1.5732
 6092SOL    HW229913   0.115   2.251   2.059 -1.0551  0.2106  1.2037
 6093SOL     OW29914   3.235   2.791   3.582 -0.6008 -0.3980  0.4470
 6093SOL    HW129915   3.232   2.792   3.487  0.6180  1.8348  0.4231
 6093SOL    HW229916   3.321   2.751   3.598 -0.5182 -0.5789 -0.4832
 6094SOL     OW29917   4.462   3.394   1.770 -0.2639  0.1601 -0.0970
 6094SOL    HW129918   4.450   3.403   1.864 -2.1607 -0.8400 -0.2428
 6094SOL    HW229919   4.425   3.308   1.749  0.9695 -0.1456 -0.9932
 6095SOL     OW29920   3.622   2.735   7.923  0.2899  0.3091 -0.1205
 6095SOL    HW129921   3.693   2.679   7.891  1.6891  2.8586 -1.4669
 6095SOL    HW229922   3.663   2.812   7.964  2.2189 -0.8369  0.1355
 6096SOL     OW29923   1.155   2.162   1.799  0.0784  0.3819  0.0767
 6096SOL    HW129924   1.186   2.205   1.719 -2.1359  0.8250 -0.5693
 6096SOL    HW229925   1.212   2.201   1.864 -1.0927  2.0672  0.0980
 6097SOL     OW29926   3.852   0.620   1.634  0.4771 -0.2206  0.0930
 6097SOL    HW129927   3.917   0.597   1.567 -1.8346  0.1891 -2.3190
 6097SOL    HW229928   3.906   0.631   1.712 -0.7712  2.0236  0.6246
 6098SOL     OW29929   3.791   1.580   5.696 -0.5731  0.0098 -0.0097
 6098SOL    HW129930   3.836   1.627   5.626 -0.6438  1.0347  0.6434
 6098SOL    HW229931   3.789   1.647   5.763  0.4591  0.5418 -0.5088
 6099SOL     OW29932   0.941   4.118  17.714  0.1069 -0.4318  0.0360
 6099SOL    HW129933   0.955   4.035  17.668 -0.3478 -1.1822  1.2466
 6099SOL    HW229934   0.848   4.125  17.694  0.9196  1.7617 -2.8601
 6100SOL     OW29935   4.444   1.634  15.805  0.1542  0.1585 -0.0097
 6100SOL    HW129936   4.522   1.619  15.859 -0.5505 -1.4038  0.5587
 6100SOL    HW229937   4.373   1.662  15.863  1.2184 -0.5972  1.6524
 6101SOL     OW29938   1.450   0.932   2.553 -0.0876  0.3217  0.0995
 6101SOL    HW129939   1.482   0.853   2.596 -0.4666 -0.3624 -0.8803
 6101SOL    HW229940   1.358   0.908   2.540 -1.1902  3.7068  1.4069
 6102SOL     OW29941   1.755   1.700   8.844 -0.1943  0.2797  0.0048
 6102SOL    HW129942   1.664   1.690   8.872 -0.7073  2.1043 -0.9833
 6102SOL    HW229943   1.747   1.663   8.757 -1.0006  0.9499 -0.2134
 6103SOL     OW29944   1.723   0.587   7.136  0.0211  0.0489 -0.2267
 6103SOL    HW129945   1.746   0.514   7.195 -1.4553  0.0144  0.3182
 6103SOL    HW229946   1.784   0.574   7.063 -0.2173 -2.6734  0.0530
 6104SOL     OW29947   1.141   4.002   5.858 -0.0236  0.2712  0.1610
 6104SOL    HW129948   1.140   4.038   5.770  3.3550 -0.9972 -0.3819
 6104SOL    HW229949   1.191   3.921   5.857  0.6873  0.7133 -0.4492
 6105SOL     OW29950   3.881   0.499   3.608  0.3374  0.9245  0.0442
 6105SOL    HW129951   3.882   0.490   3.513 -0.9992  1.6374 -0.0273
 6105SOL    HW229952   3.963   0.544   3.629 -1.1623  4.3831 -1.5466
 6106SOL     OW29953   1.131   1.826   7.644  0.4519 -0.0005  0.2534
 6106SOL    HW129954   1.137   1.914   7.682 -0.5115  0.5115 -0.7913
 6106SOL    HW229955   1.105   1.777   7.722  0.4927 -1.7068 -0.8103
 6107SOL     OW29956   4.406   2.458   9.012  0.3669  0.1232  0.1592
 6107SOL    HW129957   4.351   2.382   8.996  2.3321 -1.1454 -0.5499
 6107SOL    HW229958   4.417   2.480   8.920  0.7001 -1.4183 -0.1666
 6108SOL     OW29959   0.817   1.482   8.961 -0.1951 -0.0967 -0.5645
 6108SOL    HW129960   0.773   1.563   8.987 -0.3153 -0.6535  0.9320
 6108SOL    HW229961   0.793   1.426   9.034  0.1171 -1.0535 -1.2007
 6109SOL     OW29962   1.117   3.026   6.443 -0.1185  0.0356 -0.5665
 6109SOL    HW129963   1.155   3.072   6.368  3.2789 -2.0554 -0.1067
 6109SOL    HW229964   1.139   2.933   6.436  1.5200  0.6019 -2.8634
 6110SOL     OW29965   2.814   3.209   3.299 -0.4538 -0.3727  0.1617
 6110SOL    HW129966   2.754   3.150   3.344 -0.5404  0.2261  0.8424
 6110SOL    HW229967   2.800   3.293   3.345  0.1715 -0.9517  1.4214
 6111SOL     OW29968   0.007   0.851  11.390  0.3453  0.2144 -0.3256
 6111SOL    HW129969   4.703   0.934  11.412  0.4050 -0.0722  0.8694
 6111SOL    HW229970   4.705   0.801  11.461  0.2674  1.5526  0.5724
 6112SOL     OW29971   2.248   0.382   4.459  0.1466 -0.3037  0.4728
 6112SOL    HW129972   2.186   0.401   4.389  1.3253  2.1181  0.0953
 6112SOL    HW229973   2.262   0.472   4.487 -2.6287 -0.5003  2.4893
 6113SOL     OW29974   0.289   2.326   8.005  0.8378  0.2064 -0.3437
 6113SOL    HW129975   0.194   2.333   8.017  0.8371  0.7862 -0.6460
 6113SOL    HW229976   0.324   2.413   8.026  0.1727 -0.4893  3.5957
 6114SOL     OW29977   4.355   4.728   1.231  0.3122  0.2205 -0.5138
 6114SOL    HW129978   4.279   4.669   1.235 -0.9970  1.9832  1.0746
 6114SOL    HW229979   4.368   0.000   1.137 -2.9584 -2.6290 -1.3210
 6115SOL     OW29980   2.315   0.641  14.159  0.1144  0.0380 -0.4920
 6115SOL    HW129981   2.305   0.636  14.254  2.4619 -0.1603 -0.2573
 6115SOL    HW229982   2.411   0.644  14.154  0.2120 -0.4575  1.3015
 6116SOL     OW29983   3.507   0.056   4.860  0.3876  0.4216  0.8548
 6116SOL    HW129984   3.500   0.151   4.855 -0.2848  0.3501  0.4637
 6116SOL    HW229985   3.418   0.024   4.872  0.3768  0.5590  1.1332
 6117SOL     OW29986   2.489   3.986   8.984 -0.1712  0.5486  0.0417
 6117SOL    HW129987   2.422   3.933   9.028  1.2849 -1.1361  0.2122
 6117SOL    HW229988   2.439   4.044   8.926 -1.9192 -1.1490 -0.1541
 6118SOL     OW29989   0.755   3.088  13.786 -0.4106 -0.1235  0.0019
 6118SOL    HW129990   0.664   3.097  13.815 -0.2702  0.3063  0.3098
 6118SOL    HW229991   0.740   3.110  13.694  0.1160 -0.2540 -0.1173
 6119SOL     OW29992   0.492   1.561   9.270  0.9568  0.0860  0.5061
 6119SOL    HW129993   0.509   1.543   9.362 -0.9162 -0.7996  0.6739
 6119SOL    HW229994   0.573   1.603   9.240  1.4594 -0.4151  1.1770
 6120SOL     OW29995   3.386   2.665   9.525  1.0477  0.1319  0.1207
 6120SOL    HW129996   3.365   2.573   9.506  0.0813  0.5828 -1.0160
 6120SOL    HW229997   3.334   2.680   9.604  1.1671  0.3689  0.1532
 6121SOL     OW29998   3.340   2.296   7.394  0.7383  0.5127  0.3339
 6121SOL    HW129999   3.291   2.215   7.379 -0.4378  1.6140 -1.7632
 6121SOL    HW230000   3.302   2.350   7.326  3.0543  1.4644 -0.1978
 6122SOL     OW30001   2.688   0.316   5.540  0.4587  1.2681 -0.1726
 6122SOL    HW130002   2.743   0.394   5.546  1.2853  0.7567 -1.1625
 6122SOL    HW230003   2.670   0.303   5.446 -0.8075  1.4495  0.0386
 6123SOL     OW30004   3.535   2.471  13.293  0.1731 -0.4093  0.3580
 6123SOL    HW130005   3.473   2.407  13.328 -0.2226  1.1007  2.4066
 6123SOL    HW230006   3.579   2.439  13.215  0.0544  0.2921  0.0100
 6124SOL     OW30007   1.747   1.102   1.721  0.1759  0.2581  0.2800
 6124SOL    HW130008   1.813   1.036   1.702  0.9339  1.3666 -0.9829
 6124SOL    HW230009   1.792   1.184   1.699 -0.4395  0.4299 -0.3721
 6125SOL     OW30010   1.453   4.491  10.061 -0.3289 -0.0520  0.8031
 6125SOL    HW130011   1.466   4.585  10.068  1.3924 -0.1478 -1.0626
 6125SOL    HW230012   1.541   4.463  10.087  0.2057  1.4071  0.5409
 6126SOL     OW30013   0.197   3.981   9.701  0.0724 -0.1222  0.2194
 6126SOL    HW130014   0.154   3.908   9.657  1.7203 -0.9398 -0.0323
 6126SOL    HW230015   0.123   4.041   9.718 -0.6418 -0.0548 -3.2648
 6127SOL     OW30016   4.471   3.115   0.852 -0.2286  0.5687  0.3096
 6127SOL    HW130017   4.436   3.032   0.883 -1.6000  0.3713 -1.7829
 6127SOL    HW230018   4.508   3.159   0.929  1.5921  3.3938 -2.1508
 6128SOL     OW30019   4.547   2.086   5.154 -0.0564  0.1590  0.1066
 6128SOL    HW130020   4.557   1.997   5.122 -2.0307  0.9628 -2.7656
 6128SOL    HW230021   4.556   2.143   5.077  1.1275  1.1596  0.9951
 6129SOL     OW30022   4.300   2.731   8.076 -0.3354  0.1884 -0.7231
 6129SOL    HW130023   4.228   2.776   8.119 -1.2984 -2.3181  0.3230
 6129SOL    HW230024   4.272   2.717   7.986  0.3963 -0.8452 -0.8006
 6130SOL     OW30025   4.394   4.633   5.893  0.3562  0.2214 -0.4364
 6130SOL    HW130026   4.409   4.721   5.927 -0.7145 -0.0855  0.8690
 6130SOL    HW230027   4.444   4.636   5.812 -1.2274  0.1508 -1.4153
 6131SOL     OW30028   3.463   1.425   9.799 -0.2825  0.1286  1.0943
 6131SOL    HW130029   3.528   1.494   9.809  0.4045 -0.4593  0.7553
 6131SOL    HW230030   3.477   1.366   9.873  0.2491 -2.0381 -0.7224
 6132SOL     OW30031   4.693   3.549   1.959  0.2185 -0.4753  0.2063
 6132SOL    HW130032   4.729   3.465   1.988 -2.3549 -0.2796  3.8916
 6132SOL    HW230033   0.025   3.611   1.977 -0.1973 -0.4687  1.8160
 6133SOL     OW30034   1.920   4.603   6.630  0.9576 -0.2907 -0.2281
 6133SOL    HW130035   1.963   4.519   6.618  0.8428 -0.7889  2.8145
 6133SOL    HW230036   1.838   4.584   6.584  0.1982  1.0941  0.5248
 6134SOL     OW30037   3.091   3.423  16.568  0.3188 -0.5409 -0.3953
 6134SOL    HW130038   3.126   3.398  16.654 -1.2580 -0.0897  0.3725
 6134SOL    HW230039   3.170   3.453  16.523 -0.7712  2.3886 -0.3388
 6135SOL     OW30040   1.491   3.708   1.034 -0.4330 -0.4456  0.2499
 6135SOL    HW130041   1.563   3.695   1.095 -0.0203 -1.5097 -0.4713
 6135SOL    HW230042   1.538   3.729   0.953 -3.1423  2.0574 -0.6771
 6136SOL     OW30043   3.744   2.104   2.919  0.5354 -0.1390  0.0322
 6136SOL    HW130044   3.784   2.036   2.973 -2.2339 -3.0119 -1.5919
 6136SOL    HW230045   3.668   2.122   2.975  1.5023  3.1356  0.3152
 6137SOL     OW30046   2.708   2.011  10.589 -0.1344  0.1167  1.3009
 6137SOL    HW130047   2.786   2.066  10.599 -1.6783  2.5403  0.1040
 6137SOL    HW230048   2.739   1.924  10.566  0.8602  0.6931  0.4628
 6138SOL     OW30049   3.934   2.667   6.711 -0.1976 -0.3616  0.1544
 6138SOL    HW130050   3.906   2.712   6.791  0.1786 -0.1698  0.1794
 6138SOL    HW230051   3.971   2.587   6.748 -0.7729 -0.5314  0.3619
 6139SOL     OW30052   1.541   2.622  13.082  0.0612  0.1436  0.4790
 6139SOL    HW130053   1.604   2.645  13.013 -0.7209 -0.6014 -0.4716
 6139SOL    HW230054   1.597   2.645  13.157 -1.4378  2.2862  0.9401
 6140SOL     OW30055   3.757   3.539   3.187 -0.0791  0.1168  0.1314
 6140SOL    HW130056   3.695   3.600   3.148  1.4748 -1.4805 -4.8594
 6140SOL    HW230057   3.766   3.569   3.277  2.4303 -0.7189  0.1797
 6141SOL     OW30058   3.558   1.497   6.767  0.7532  1.1307 -0.9048
 6141SOL    HW130059   3.554   1.404   6.787  2.2319  1.0974 -0.7803
 6141SOL    HW230060   3.470   1.518   6.735  1.0434 -1.7896 -3.5705
 6142SOL     OW30061   3.610   1.821  14.124  0.4869 -0.5083 -0.1176
 6142SOL    HW130062   3.611   1.786  14.035  0.1640  0.8482 -0.6590
 6142SOL    HW230063   3.524   1.863  14.128 -1.2613 -3.8200 -2.9868
 6143SOL     OW30064   4.149   4.303   4.413 -0.2757  0.2006  0.4634
 6143SOL    HW130065   4.220   4.261   4.462 -1.8273 -2.2111  0.6749
 6143SOL    HW230066   4.194   4.329   4.333 -0.2763  1.7620  0.9714
 6144SOL     OW30067   3.712   2.210   7.776 -0.3442  0.2722  1.0163
 6144SOL    HW130068   3.792   2.226   7.726 -1.5097 -0.1506 -0.9693
 6144SOL    HW230069   3.655   2.231   7.703  2.7819  0.8482 -1.2610
 6145SOL     OW30070   1.772   3.655   7.225 -0.0188 -0.0399  0.0426
 6145SOL    HW130071   1.851   3.609   7.254  1.1221  1.9498  0.0591
 6145SOL    HW230072   1.764   3.613   7.139 -0.6246 -0.3009  0.2307
 6146SOL     OW30073   1.251   0.259   7.065 -0.4733  0.3057  0.5938
 6146SOL    HW130074   1.269   0.165   7.054 -0.1703  0.2264  1.7657
 6146SOL    HW230075   1.322   0.300   7.016 -0.7086  1.3482  1.1333
 6147SOL     OW30076   0.048   3.496   0.239  0.5969  0.6433 -0.3699
 6147SOL    HW130077   4.706   3.491   0.187  0.5016 -1.1207 -0.0390
 6147SOL    HW230078   0.021   3.443   0.314 -0.8600  2.7302  0.5654
 6148SOL     OW30079   4.406   4.260   6.854 -0.3682 -0.0458 -0.1044
 6148SOL    HW130080   4.318   4.241   6.888  0.3709 -0.4952  1.5407
 6148SOL    HW230081   4.389   4.344   6.810  1.3808  0.4660  0.2035
 6149SOL     OW30082   4.693   2.177   4.254  0.3184 -0.0304 -0.3127
 6149SOL    HW130083   0.029   2.118   4.242  2.0948  1.6160  2.7384
 6149SOL    HW230084   4.650   2.122   4.320  2.3320 -0.7117  0.4223
 6150SOL     OW30085   0.299   0.501   4.287  0.7854 -0.2344 -0.3278
 6150SOL    HW130086   0.357   0.577   4.280  0.0099  0.5427  1.8176
 6150SOL    HW230087   0.232   0.534   4.346 -0.2877 -0.5874 -1.3606
 6151SOL     OW30088   0.193   3.920   6.988 -0.2039 -0.2025 -0.5043
 6151SOL    HW130089   0.251   3.852   7.021 -0.0686  0.0714 -0.1814
 6151SOL    HW230090   0.184   3.983   7.059 -0.4475 -1.8535  0.9195
 6152SOL     OW30091   3.429   2.399   4.164  0.1283  0.4847 -0.0071
 6152SOL    HW130092   3.482   2.476   4.185  0.3740  0.0768  0.8902
 6152SOL    HW230093   3.477   2.326   4.203  0.7367  1.6141  1.3606
 6153SOL     OW30094   1.589   4.559   2.011 -0.3669 -0.1267  0.2315
 6153SOL    HW130095   1.584   4.619   1.936  1.4322  0.0823  0.2970
 6153SOL    HW230096   1.612   4.480   1.962  4.0481  0.8835  0.7277
 6154SOL     OW30097   1.577   4.066   8.231  0.0638  0.6089  0.1112
 6154SOL    HW130098   1.585   4.155   8.266  0.7156  0.2516  0.8344
 6154SOL    HW230099   1.527   4.019   8.298 -1.9250  2.5735  0.0239
 6155SOL     OW30100   1.901   3.603   5.861 -0.6584 -0.7862 -0.5990
 6155SOL    HW130101   1.814   3.566   5.849 -2.2407  2.0050  2.2891
 6155SOL    HW230102   1.914   3.656   5.783  0.9433 -1.7342 -0.9795
 6156SOL     OW30103   0.650   3.143  14.201 -0.2061 -0.0024  0.4401
 6156SOL    HW130104   0.710   3.074  14.174 -2.3152 -1.9498  0.7400
 6156SOL    HW230105   0.568   3.095  14.211 -0.3149 -0.0395 -0.6295
 6157SOL     OW30106   1.213   3.167   7.911 -0.3314 -0.2695 -0.1811
 6157SOL    HW130107   1.182   3.121   7.989  1.0482 -0.1976  0.4060
 6157SOL    HW230108   1.148   3.146   7.844  1.9127 -0.7676 -2.2270
 6158SOL     OW30109   1.645   0.182   4.654  0.9482  0.1923  0.0736
 6158SOL    HW130110   1.682   0.146   4.735 -2.7047 -0.2312  1.5625
 6158SOL    HW230111   1.551   0.179   4.675  0.4768  1.0679 -1.9888
 6159SOL     OW30112   2.972   3.600   1.409 -0.4119 -0.3134  0.4522
 6159SOL    HW130113   2.943   3.590   1.318  0.9817  0.8409 -0.1141
 6159SOL    HW230114   2.925   3.529   1.453 -0.4089  1.2870  3.0118
 6160SOL     OW30115   4.575   1.003   7.436  0.2609 -0.1111  0.3160
 6160SOL    HW130116   4.656   1.053   7.433  0.0600  0.2682  1.1440
 6160SOL    HW230117   4.511   1.066   7.469 -1.2576 -0.5368 -1.7801
 6161SOL     OW30118   4.002   2.714   4.444  0.2041 -0.4683  0.6244
 6161SOL    HW130119   4.083   2.696   4.396 -0.7874  3.6132 -2.6204
 6161SOL    HW230120   3.949   2.642   4.409  0.0227 -0.4277  0.8233
 6162SOL     OW30121   0.050   3.411  17.247 -0.0589  0.0735  0.0094
 6162SOL    HW130122   0.081   3.478  17.186 -1.6095 -0.1046 -0.9878
 6162SOL    HW230123   4.704   3.449  17.271 -0.1023 -0.1431  0.2004
 6163SOL     OW30124   1.503   0.746   1.390 -0.3952 -0.1691  0.0525
 6163SOL    HW130125   1.453   0.828   1.395 -0.8296 -0.3144 -1.6718
 6163SOL    HW230126   1.439   0.700   1.335 -0.0304 -1.5217  0.7577
 6164SOL     OW30127   2.956   3.645   3.714 -0.3279 -0.3503 -0.0194
 6164SOL    HW130128   2.930   3.686   3.796 -0.7427 -3.4727  1.4046
 6164SOL    HW230129   2.879   3.589   3.698  1.0631 -2.1510 -0.4483
 6165SOL     OW30130   0.274   2.264   7.560 -0.0815 -0.8233 -0.0823
 6165SOL    HW130131   0.299   2.193   7.619 -1.3758  1.0788  2.7952
 6165SOL    HW230132   0.345   2.283   7.500 -0.1247 -1.8944 -0.4698
 6166SOL     OW30133   3.441   3.662   0.557  0.0200 -0.2011 -0.2904
 6166SOL    HW130134   3.432   3.727   0.626  0.2756 -0.8753  0.3826
 6166SOL    HW230135   3.528   3.690   0.531 -0.6091 -0.1935 -2.4267
 6167SOL     OW30136   0.348   1.668   6.536  1.0592  0.1654 -0.2576
 6167SOL    HW130137   0.378   1.580   6.559  0.1483 -0.0017  0.2578
 6167SOL    HW230138   0.280   1.679   6.602 -0.2552 -0.9276 -1.4392
 6168SOL     OW30139   1.996   0.835   3.111 -0.7185  0.3291 -0.1868
 6168SOL    HW130140   2.055   0.759   3.115 -0.7149  0.3940  0.7945
 6168SOL    HW230141   2.029   0.868   3.194 -1.8820 -2.1270  1.2462
 6169SOL     OW30142   1.493   2.310   0.053  0.0221  0.3693 -0.6089
 6169SOL    HW130143   1.467   2.229   0.009  0.2104  0.2098 -0.4321
 6169SOL    HW230144   1.556   2.346  17.742  2.0027 -1.1429  0.4796
 6170SOL     OW30145   2.188   1.095   1.698 -0.6460  0.2782 -0.6264
 6170SOL    HW130146   2.178   1.003   1.725  1.5120 -0.3928 -2.1329
 6170SOL    HW230147   2.259   1.123   1.755 -2.4734 -0.4693  2.0227
 6171SOL     OW30148   2.021   1.192   6.776  0.3500 -0.6761  0.3197
 6171SOL    HW130149   2.114   1.175   6.762  0.2903 -1.2518  0.6113
 6171SOL    HW230150   2.020   1.243   6.856  0.9307  0.3714 -0.3471
 6172SOL     OW30151   4.587   3.347   7.171 -0.2770 -0.1651  0.2326
 6172SOL    HW130152   4.580   3.442   7.176  0.4728 -0.1785  1.7040
 6172SOL    HW230153   4.672   3.347   7.128 -0.7623 -2.7139 -0.7232
 6173SOL     OW30154   1.805   2.286   6.618  0.3545  0.3094  0.5029
 6173SOL    HW130155   1.899   2.273   6.612  0.7591  3.6968 -0.4614
 6173SOL    HW230156   1.799   2.244   6.703 -3.2153 -0.1349  0.0441
 6174SOL     OW30157   3.340   4.077  12.650  0.0047  0.3144 -0.1548
 6174SOL    HW130158   3.426   4.117  12.656  0.5213 -0.4783 -2.1798
 6174SOL    HW230159   3.311   4.107  12.564 -1.4164 -1.2852 -0.2284
 6175SOL     OW30160   1.588   2.228   8.735 -0.0448  0.3787 -0.1743
 6175SOL    HW130161   1.618   2.161   8.796 -2.3083 -1.2170 -0.8269
 6175SOL    HW230162   1.589   2.168   8.660 -1.0776 -0.4739  0.4903
 6176SOL     OW30163   3.341   3.171   9.249 -0.0803 -0.1255 -0.2323
 6176SOL    HW130164   3.330   3.265   9.261 -3.9876 -0.5654 -0.2923
 6176SOL    HW230165   3.429   3.153   9.281 -1.6333 -3.7581  2.0652
 6177SOL     OW30166   1.086   2.344   7.369  0.0610 -0.4849  0.1514
 6177SOL    HW130167   1.072   2.439   7.365  1.8922 -0.1577  1.2439
 6177SOL    HW230168   1.007   2.323   7.320 -0.6441  0.0167  1.0795
 6178SOL     OW30169   0.856   0.540  10.329  0.1225  0.3550  0.5160
 6178SOL    HW130170   0.861   0.447  10.306 -1.8270  0.0772  1.2241
 6178SOL    HW230171   0.783   0.530  10.390  0.1398 -0.5540  0.3891
 6179SOL     OW30172   2.276   0.142   3.080  0.1981 -0.0102 -0.0772
 6179SOL    HW130173   2.194   0.099   3.054  1.0267 -1.6785  0.0649
 6179SOL    HW230174   2.243   0.190   3.156 -1.3134 -0.8866 -0.1905
 6180SOL     OW30175   1.077   0.272   3.334  0.0171 -0.7793  0.4040
 6180SOL    HW130176   1.162   0.315   3.322 -0.0747 -0.9978 -0.9653
 6180SOL    HW230177   1.024   0.348   3.312  0.0226 -0.8722  0.0667
 6181SOL     OW30178   0.494   4.447   9.956 -0.2646 -0.1691 -0.1890
 6181SOL    HW130179   0.498   4.395  10.037  0.6361 -1.0420 -0.7854
 6181SOL    HW230180   0.498   4.371   9.897 -2.3631 -0.4088 -0.0548
 6182SOL     OW30181   0.758   1.436   3.714  0.5280  0.1634 -0.3774
 6182SOL    HW130182   0.734   1.390   3.794 -0.9189 -0.5568 -1.2376
 6182SOL    HW230183   0.767   1.367   3.648 -1.7773  0.0562 -0.5729
 6183SOL     OW30184   1.110   3.010   7.642 -0.1677 -0.3325 -0.8629
 6183SOL    HW130185   1.026   3.006   7.686  0.7870 -1.5385  0.8490
 6183SOL    HW230186   1.087   3.086   7.589 -1.1527 -0.3242 -0.4193
 6184SOL     OW30187   1.553   3.913  16.804  0.6665 -0.0655 -0.6430
 6184SOL    HW130188   1.517   3.942  16.889 -0.3895  1.5014 -1.6241
 6184SOL    HW230189   1.605   3.836  16.825  1.3166  0.7335  0.6874
 6185SOL     OW30190   2.500   2.963   9.156  0.3175  0.3116 -0.0554
 6185SOL    HW130191   2.479   3.009   9.237 -0.9001 -4.2205  2.2033
 6185SOL    HW230192   2.539   3.037   9.109 -0.0515  0.8486  0.4878
 6186SOL     OW30193   4.485   3.383   6.758  0.3615 -0.2826  0.3170
 6186SOL    HW130194   4.460   3.470   6.790  1.0484  0.2186 -0.5183
 6186SOL    HW230195   4.576   3.393   6.784  0.9078  0.2351 -1.8227
 6187SOL     OW30196   4.724   0.774   1.602 -0.5334 -0.4592 -0.6407
 6187SOL    HW130197   0.027   0.839   1.659  0.0217 -0.8070 -0.6446
 6187SOL    HW230198   4.730   0.691   1.649 -2.2306 -1.4878 -2.2583
 6188SOL     OW30199   1.813   1.663   5.621 -0.2689  0.6311 -0.1790
 6188SOL    HW130200   1.795   1.578   5.582 -2.4996  0.8977  0.2582
 6188SOL    HW230201   1.726   1.702   5.629 -0.2424  0.7367 -0.4238
 6189SOL     OW30202   1.767   0.113   2.529 -0.0737  0.2380  0.2619
 6189SOL    HW130203   1.855   0.130   2.564 -0.7477  2.1258  0.9833
 6189SOL    HW230204   1.748   0.040   2.588 -0.1145 -1.9271 -2.4142
 6190SOL     OW30205   2.989   1.433   8.561  0.0411  0.3376 -0.0900
 6190SOL    HW130206   3.018   1.477   8.481 -0.3321  1.2084  0.2521
 6190SOL    HW230207   2.898   1.413   8.539  0.0742 -0.6439  0.6860
 6191SOL     OW30208   4.196   4.150   5.129  0.1360 -0.2020  0.2400
 6191SOL    HW130209   4.153   4.064   5.128 -0.9296  0.3402 -0.2469
 6191SOL    HW230210   4.271   4.130   5.184 -0.6861 -1.4722  0.9244
 6192SOL     OW30211   4.341   1.700   8.151  0.2456  0.5205 -0.2792
 6192SOL    HW130212   4.280   1.748   8.095 -0.3394 -3.1472 -2.7745
 6192SOL    HW230213   4.326   1.750   8.231 -2.5741 -2.3702  1.0111
 6193SOL     OW30214   4.557   0.135   7.829 -0.4221 -0.2763  0.0096
 6193SOL    HW130215   4.492   0.204   7.844  0.5451  0.9794 -1.6406
 6193SOL    HW230216   4.639   0.182   7.819 -1.5404  1.7626  0.4996
 6194SOL     OW30217   1.092   1.846   4.893 -0.6277 -0.1408  0.0413
 6194SOL    HW130218   1.174   1.877   4.854 -1.1586 -0.5681 -1.4325
 6194SOL    HW230219   1.109   1.752   4.896 -2.5323 -0.6006 -3.6028
 6195SOL     OW30220   3.257   1.344   5.962 -0.1426 -0.0324 -0.0734
 6195SOL    HW130221   3.244   1.344   6.057 -1.4521  0.8230 -0.2536
 6195SOL    HW230222   3.278   1.251   5.952 -1.9557 -0.1815 -2.5277
 6196SOL     OW30223   0.863   3.438   2.752  0.5920 -0.1980  0.0066
 6196SOL    HW130224   0.866   3.423   2.658  0.8059 -1.0166  0.1452
 6196SOL    HW230225   0.836   3.530   2.760  1.6288  0.3122 -2.4216
 6197SOL     OW30226   0.055   0.934   1.813 -0.2840  0.0164 -0.4597
 6197SOL    HW130227   0.073   0.901   1.901  0.2246 -1.3343 -1.0743
 6197SOL    HW230228   0.086   1.023   1.830  1.7837 -0.5572 -1.2259
 6198SOL     OW30229   0.814   1.882  10.748  0.2720  0.4982 -0.6484
 6198SOL    HW130230   0.834   1.899  10.840 -2.6965  2.5285 -0.3898
 6198SOL    HW230231   0.842   1.964  10.708  0.2018  0.7130 -0.2505
 6199SOL     OW30232   1.037   1.780   7.075  0.8740  0.2928 -0.0399
 6199SOL    HW130233   0.973   1.782   7.147  1.0775 -0.5256  0.1611
 6199SOL    HW230234   0.990   1.737   7.004  1.3299  0.2241 -0.2933
 6200SOL     OW30235   0.329   2.690   7.937  0.2805  0.3280  0.7594
 6200SOL    HW130236   0.338   2.612   7.882 -0.0092 -0.0594  1.2636
 6200SOL    HW230237   0.352   2.665   8.027 -0.6563 -1.9182  0.3836
 6201SOL     OW30238   1.892   4.141  14.139 -0.4762  0.5894 -0.5444
 6201SOL    HW130239   1.983   4.164  14.121  0.2439 -0.3438  1.9013
 6201SOL    HW230240   1.848   4.184  14.066  0.5204 -0.2293 -1.6161
 6202SOL     OW30241   4.228   0.874  17.244  0.7837 -0.2866 -0.4121
 6202SOL    HW130242   4.288   0.812  17.286  1.8858  0.2289 -1.2338
 6202SOL    HW230243   4.171   0.819  17.190  0.0810  0.3791 -0.3634
 6203SOL     OW30244   4.210   2.780   6.777 -0.0019 -0.6333  0.4294
 6203SOL    HW130245   4.157   2.856   6.753 -0.5704 -0.9627  0.6529
 6203SOL    HW230246   4.154   2.721   6.827 -0.7267  0.3828  0.8170
 6204SOL     OW30247   0.940   2.379  16.360 -0.1799  0.1011  0.6271
 6204SOL    HW130248   0.875   2.417  16.419 -0.8940 -0.9294  0.5193
 6204SOL    HW230249   0.955   2.293  16.401 -1.5642 -0.0926  0.7026
 6205SOL     OW30250   2.901   0.478   4.712 -0.4555  0.1785 -0.7904
 6205SOL    HW130251   2.829   0.443   4.764 -1.5243 -1.1375 -3.1706
 6205SOL    HW230252   2.909   0.414   4.642  1.9669 -0.7103  0.2919
 6206SOL     OW30253   0.825   4.661   4.800 -0.1940 -0.0772  0.0117
 6206SOL    HW130254   0.736   4.651   4.766  0.0740  1.3167 -1.0934
 6206SOL    HW230255   0.825   0.012   4.834  2.2630 -0.1693  0.2097
 6207SOL     OW30256   3.745   0.885   5.078 -0.0954  0.1533  0.2993
 6207SOL    HW130257   3.835   0.883   5.047 -0.2189 -0.6142 -0.0163
 6207SOL    HW230258   3.726   0.962   5.025 -0.5313  0.0908  0.3669
 6208SOL     OW30259   2.275   2.355  15.013  0.2229  0.1020  0.7319
 6208SOL    HW130260   2.280   2.260  15.020 -0.0278  0.0921  0.7734
 6208SOL    HW230261   2.190   2.365  14.970  0.5208  1.9737  0.5574
 6209SOL     OW30262   3.166   2.317  16.804 -0.0043 -0.3085  0.0011
 6209SOL    HW130263   3.100   2.384  16.783 -0.4841 -1.2230 -1.3735
 6209SOL    HW230264   3.121   2.249  16.853 -1.1866  0.3293 -0.1885
 6210SOL     OW30265   0.493   2.271   4.124  0.5882 -0.0306 -0.4498
 6210SOL    HW130266   0.484   2.214   4.200  0.6186  1.1006  0.4083
 6210SOL    HW230267   0.420   2.239   4.072  0.5931  3.8581 -2.8248
 6211SOL     OW30268   3.213   2.200   5.555 -1.0473 -0.2267 -0.0909
 6211SOL    HW130269   3.164   2.174   5.477 -1.4469  0.7451 -0.1600
 6211SOL    HW230270   3.289   2.141   5.555  0.9448  2.3599 -0.8746
 6212SOL     OW30271   2.227   3.696   1.526 -0.2543  0.2397 -0.0972
 6212SOL    HW130272   2.195   3.610   1.499  1.3296 -0.2474 -0.4201
 6212SOL    HW230273   2.174   3.748   1.465 -2.2142 -0.0088  1.3911
 6213SOL     OW30274   2.705   3.584   8.065  0.3402 -0.3530  1.1728
 6213SOL    HW130275   2.776   3.614   8.121  1.1264 -1.7390  0.9012
 6213SOL    HW230276   2.689   3.502   8.112 -0.5124 -1.0501 -0.3253
 6214SOL     OW30277   1.307   1.690   6.919 -0.1904  0.0180 -0.4887
 6214SOL    HW130278   1.300   1.684   7.014  2.5999 -1.9066 -0.3865
 6214SOL    HW230279   1.315   1.785   6.909 -0.6299  0.4008  2.9352
 6215SOL     OW30280   2.761   0.220   2.040 -0.3051 -0.0593 -0.4079
 6215SOL    HW130281   2.804   0.152   1.988  0.5004  0.3716 -0.3103
 6215SOL    HW230282   2.683   0.172   2.067 -0.7353 -0.1316 -1.7353
 6216SOL     OW30283   3.998   1.820   8.961 -0.4864 -0.8547  0.1322
 6216SOL    HW130284   3.920   1.826   8.906 -0.4320 -2.1465 -0.0712
 6216SOL    HW230285   4.021   1.727   8.961 -1.3333 -1.0564  1.4875
 6217SOL     OW30286   1.369   0.132  17.614  0.0818  0.1686  0.8029
 6217SOL    HW130287   1.307   0.177  17.672 -2.0426 -0.5745 -0.8996
 6217SOL    HW230288   1.412   0.213  17.586 -0.7304  0.2402 -0.2301
 6218SOL     OW30289   0.753   3.637  13.254 -1.0135 -0.4871  0.1628
 6218SOL    HW130290   0.746   3.640  13.158  0.0293  1.0391  0.1333
 6218SOL    HW230291   0.843   3.607  13.246 -0.0807  1.1059  4.8141
 6219SOL     OW30292   4.460   2.124   9.524 -0.6034  0.2662  0.4320
 6219SOL    HW130293   4.421   2.052   9.574 -0.0925 -0.0551  0.3690
 6219SOL    HW230294   4.414   2.113   9.441  0.7521 -0.9844 -0.1583
 6220SOL     OW30295   3.953   1.651   5.484  0.0995 -0.1920 -0.0414
 6220SOL    HW130296   3.931   1.609   5.401 -1.1420 -1.1335  0.7461
 6220SOL    HW230297   3.973   1.743   5.470 -3.4189  0.4961 -0.6185
 6221SOL     OW30298   4.453   3.739   8.997 -0.1335 -0.0162  0.5097
 6221SOL    HW130299   4.531   3.778   8.958 -0.4818  0.3605  0.1851
 6221SOL    HW230300   4.491   3.716   9.082 -0.0520 -1.7100  0.0145
 6222SOL     OW30301   3.294   1.880   3.336  0.7291 -0.4782  0.2666
 6222SOL    HW130302   3.358   1.909   3.400  0.2804  1.9192 -0.3714
 6222SOL    HW230303   3.235   1.839   3.399 -0.1232 -1.2687 -1.0153
 6223SOL     OW30304   1.579   3.446   7.476 -0.3379 -0.2316 -0.3540
 6223SOL    HW130305   1.608   3.366   7.520 -2.3333 -0.0455  1.2936
 6223SOL    HW230306   1.597   3.499   7.554  1.1816 -1.7639  0.3347
 6224SOL     OW30307   3.580   0.133  17.749 -0.2919  0.1261  0.1312
 6224SOL    HW130308   3.642   0.153   0.068  0.3951 -1.7346  0.0556
 6224SOL    HW230309   3.613   0.051  17.713  0.8728  0.3094  0.7845
 6225SOL     OW30310   2.470   4.106   1.993 -0.0026  0.0483  0.7482
 6225SOL    HW130311   2.508   4.148   1.915 -0.8912  1.0808  0.8851
 6225SOL    HW230312   2.509   4.019   1.989 -1.7952 -0.7582  1.1525
 6226SOL     OW30313   3.418   4.117  11.372 -0.0717 -0.2427 -0.1796
 6226SOL    HW130314   3.356   4.153  11.309  0.1574 -0.7454 -0.6886
 6226SOL    HW230315   3.453   4.192  11.420  0.8289 -1.8672  1.7176
 6227SOL     OW30316   2.235   2.915   6.903 -0.3058 -0.4401 -0.0266
 6227SOL    HW130317   2.198   2.827   6.912  1.1590 -1.1077 -0.4458
 6227SOL    HW230318   2.216   2.940   6.813  1.0427  1.5384  0.2248
 6228SOL     OW30319   2.317   4.541   2.096 -0.3754 -0.0765 -0.4578
 6228SOL    HW130320   2.407   4.571   2.104 -1.0191  2.0254 -1.0547
 6228SOL    HW230321   2.269   4.609   2.144 -0.6780  0.0781 -0.9876
 6229SOL     OW30322   0.788   4.479   8.948 -0.6594 -0.1811  0.5332
 6229SOL    HW130323   0.765   4.388   8.961 -0.5502 -0.6257 -2.3914
 6229SOL    HW230324   0.877   4.485   8.983 -0.7015 -1.1613  0.7917
 6230SOL     OW30325   2.696   2.121   2.580 -0.0532 -0.9016 -0.5798
 6230SOL    HW130326   2.693   2.080   2.494 -3.1069  0.2774 -1.0392
 6230SOL    HW230327   2.791   2.119   2.590  0.1051  2.1160 -1.4538
 6231SOL     OW30328   4.419   0.145   4.462 -0.1013 -0.7901  0.1914
 6231SOL    HW130329   4.452   0.233   4.448  1.0226 -1.3848 -0.9601
 6231SOL    HW230330   4.346   0.158   4.523 -1.4413  2.6318 -2.1857
 6232SOL     OW30331   1.101   4.353  17.169 -0.0820 -0.1583  0.3500
 6232SOL    HW130332   1.099   4.267  17.127  2.6240 -1.2087  2.4175
 6232SOL    HW230333   1.177   4.346  17.227 -0.9255 -1.3682  1.3231
 6233SOL     OW30334   3.816   3.766   6.703  0.1850  0.0760  0.0783
 6233SOL    HW130335   3.838   3.829   6.772  1.8295 -1.6125  1.1015
 6233SOL    HW230336   3.777   3.827   6.641  0.9420  0.4113 -0.0729
 6234SOL     OW30337   3.351   0.434  11.530 -0.0024 -0.0977  0.4494
 6234SOL    HW130338   3.409   0.444  11.606  0.7386  3.3241 -0.5459
 6234SOL    HW230339   3.402   0.386  11.465  0.8923  0.9547  0.3581
 6235SOL     OW30340   3.686   1.514   3.488 -0.2132  0.4015  0.7475
 6235SOL    HW130341   3.658   1.463   3.412  1.2991  2.4943 -1.2001
 6235SOL    HW230342   3.718   1.444   3.545  4.5957  2.2912  0.3685
 6236SOL     OW30343   0.182   4.014   5.207 -0.8167 -0.0908  0.5941
 6236SOL    HW130344   0.135   3.933   5.225 -0.5035 -0.4220 -0.0601
 6236SOL    HW230345   0.252   3.992   5.146  0.0725  0.2893  1.4842
 6237SOL     OW30346   1.790   1.195   7.372  0.3017  0.3218  0.1367
 6237SOL    HW130347   1.735   1.201   7.294 -0.3355  0.5089  0.5945
 6237SOL    HW230348   1.758   1.112   7.407  0.3862  1.1707  2.2647
 6238SOL     OW30349   0.985   1.905   4.486 -0.0967  0.0471 -0.2429
 6238SOL    HW130350   0.896   1.884   4.458 -1.0944  0.5848  2.5274
 6238SOL    HW230351   0.994   1.842   4.558  0.9666  1.3869  0.7931
 6239SOL     OW30352   0.652   4.088   9.719 -0.4391 -0.2264 -0.2621
 6239SOL    HW130353   0.564   4.083   9.682 -1.0364  1.6464  0.9156
 6239SOL    HW230354   0.661   4.182   9.734  1.5649 -0.0960 -2.3024
 6240SOL     OW30355   1.710   1.152  11.568 -0.7472  0.2173 -0.2083
 6240SOL    HW130356   1.688   1.149  11.475 -0.2889 -0.6153 -0.2918
 6240SOL    HW230357   1.805   1.164  11.572 -0.6734 -0.4173 -0.0049
 6241SOL     OW30358   2.078   3.397   9.317 -0.4287 -0.9283  0.3672
 6241SOL    HW130359   2.033   3.478   9.292  2.0753 -0.1384 -1.5317
 6241SOL    HW230360   2.112   3.382   9.230 -0.1593 -0.1418  0.3321
 6242SOL     OW30361   4.090   4.524  12.090  0.2593 -0.1748 -0.0872
 6242SOL    HW130362   4.031   4.522  12.165 -0.3411  1.4316 -0.5051
 6242SOL    HW230363   4.075   4.617  12.071 -1.3999 -0.2546  0.7865
 6243SOL     OW30364   3.700   0.302   8.507  0.6157 -0.0249  0.0128
 6243SOL    HW130365   3.679   0.209   8.495 -1.4836  0.9112 -3.4668
 6243SOL    HW230366   3.637   0.356   8.460  0.3503 -1.2637 -1.0578
 6244SOL     OW30367   0.752   0.900   0.720  0.0414  0.2523 -0.3692
 6244SOL    HW130368   0.784   0.896   0.630  0.6503  2.7799 -0.2638
 6244SOL    HW230369   0.661   0.875   0.703 -0.4821  0.9197  1.4782
 6245SOL     OW30370   0.251   0.484   5.467  0.6519 -0.2021 -0.3446
 6245SOL    HW130371   0.269   0.481   5.561 -1.4329 -0.5414  0.0382
 6245SOL    HW230372   0.334   0.525   5.440 -0.0345  0.6017 -1.2354
 6246SOL     OW30373   4.051   2.067   1.004 -0.0356 -0.0074  0.6557
 6246SOL    HW130374   4.051   2.072   1.100 -0.7002 -1.1209  0.7062
 6246SOL    HW230375   4.036   2.158   0.976  0.8076 -0.0756  0.0008
 6247SOL     OW30376   3.865   0.316  10.298  0.5192  0.1034  0.4160
 6247SOL    HW130377   3.946   0.323  10.349  0.8980  0.8866 -0.3005
 6247SOL    HW230378   3.899   0.338  10.211  0.7610 -1.2790  0.1656
 6248SOL     OW30379   0.497   4.332   0.351 -0.3345 -1.0988 -0.0889
 6248SOL    HW130380   0.425   4.393   0.331  0.3572  1.2193  4.6098
 6248SOL    HW230381   0.526   4.319   0.260 -0.8557  1.8197 -0.6733
 6249SOL     OW30382   1.790   1.836  14.089  0.0193 -0.5333  0.0385
 6249SOL    HW130383   1.865   1.830  14.148  0.8738  0.5215 -0.9535
 6249SOL    HW230384   1.730   1.768  14.120  1.1176 -1.4847  0.0621
 6250SOL     OW30385   2.576   4.162   6.373 -0.3549  0.2608 -0.0326
 6250SOL    HW130386   2.628   4.101   6.321 -2.1320 -1.6227  0.3830
 6250SOL    HW230387   2.634   4.237   6.367  1.1634 -0.8111  1.3239
 6251SOL     OW30388   1.759   1.259   3.933  0.8430 -0.0177 -0.6928
 6251SOL    HW130389   1.808   1.252   4.015  2.4793 -0.9262 -1.7408
 6251SOL    HW230390   1.750   1.170   3.898 -1.5563 -0.0883  0.1489
 6252SOL     OW30391   3.152   3.906   6.633  0.3076 -0.0925  0.0787
 6252SOL    HW130392   3.105   3.849   6.694 -1.6549  1.1024 -0.3053
 6252SOL    HW230393   3.114   3.993   6.646 -0.2224 -0.8288  3.5678
 6253SOL     OW30394   4.297   0.436  15.156  0.0762 -0.1363 -0.4049
 6253SOL    HW130395   4.347   0.494  15.099 -0.2365  2.6161  2.1660
 6253SOL    HW230396   4.370   0.383  15.189 -0.3272 -1.6034 -1.8567
 6254SOL     OW30397   0.619   3.510   8.931 -0.2695 -0.4999 -0.1028
 6254SOL    HW130398   0.528   3.483   8.928 -0.8394  1.1965  1.9068
 6254SOL    HW230399   0.645   3.548   9.015 -1.5241 -1.1489  0.5763
 6255SOL     OW30400   2.475   1.619   0.330 -0.5172  0.1303  0.6470
 6255SOL    HW130401   2.395   1.576   0.359  0.2678  0.7815  3.8486
 6255SOL    HW230402   2.512   1.640   0.416 -1.3509  0.8927  0.8154
 6256SOL     OW30403   1.147   1.027  12.492 -0.1714  0.2398  0.5582
 6256SOL    HW130404   1.091   1.090  12.538 -2.1353  0.4846 -2.2013
 6256SOL    HW230405   1.199   1.085  12.437  0.0790 -0.2594  0.2687
 6257SOL     OW30406   1.232   3.764   5.825  0.0289 -0.1751  0.0203
 6257SOL    HW130407   1.284   3.793   5.751  0.9272 -3.5780 -0.6622
 6257SOL    HW230408   1.243   3.670   5.811  0.1192 -0.0506 -0.7248
 6258SOL     OW30409   1.658   3.918   1.435  0.5419 -0.2105  0.0451
 6258SOL    HW130410   1.745   3.916   1.473  0.2923 -1.4073  0.5195
 6258SOL    HW230411   1.632   4.006   1.462 -0.3106  0.0966 -1.7324
 6259SOL     OW30412   1.647   2.573   0.706 -1.3307 -0.3939 -0.2254
 6259SOL    HW130413   1.580   2.509   0.731 -0.1078 -1.1647  1.0951
 6259SOL    HW230414   1.595   2.653   0.716  3.1122  2.6892 -2.0308
 6260SOL     OW30415   4.671   4.523   3.901 -0.1910 -0.0518 -0.3276
 6260SOL    HW130416   4.695   4.523   3.808  1.6278 -0.6120  0.1319
 6260SOL    HW230417   4.601   4.459   3.903 -1.0015  0.8506  0.0116
 6261SOL     OW30418   2.142   3.917  15.009  0.1222 -0.2479 -0.3031
 6261SOL    HW130419   2.062   3.961  15.036 -0.8806 -1.8653 -0.6077
 6261SOL    HW230420   2.175   3.974  14.940  0.2305  1.6777  1.3766
 6262SOL     OW30421   3.748   0.083   6.678 -0.1931 -0.8571  0.8963
 6262SOL    HW130422   3.719   0.069   6.587  0.4879  0.9464  0.4079
 6262SOL    HW230423   3.721   0.003   6.723  0.8509 -0.7529  1.6867
 6263SOL     OW30424   0.515   1.158  10.007  0.0616  0.0568  0.1000
 6263SOL    HW130425   0.564   1.076   9.999  1.1178  0.6697  0.2995
 6263SOL    HW230426   0.445   1.127  10.064  0.2671 -0.6856 -0.0423
 6264SOL     OW30427   3.786   3.805   5.074 -0.0859  0.8216 -0.5774
 6264SOL    HW130428   3.803   3.893   5.107  1.5536  0.2945  0.0119
 6264SOL    HW230429   3.720   3.822   5.007 -1.2400 -0.2666  0.2731
 6265SOL     OW30430   2.231   4.515   3.972 -0.4102  0.2526  0.9614
 6265SOL    HW130431   2.224   4.474   3.885 -0.7367  1.0338  0.6203
 6265SOL    HW230432   2.150   4.566   3.970 -1.2634 -1.1449 -1.0591
 6266SOL     OW30433   2.568   3.836   3.986 -0.0146  0.0193 -0.3062
 6266SOL    HW130434   2.560   3.742   4.005 -0.8109  0.2900  0.7137
 6266SOL    HW230435   2.617   3.866   4.063 -1.5066  1.7703 -0.0571
 6267SOL     OW30436   3.023   1.174   1.204 -0.0741 -0.3962  0.7578
 6267SOL    HW130437   3.045   1.196   1.113 -2.3528  3.3088  1.0877
 6267SOL    HW230438   2.966   1.099   1.191  1.5312 -1.6749  1.0400
 6268SOL     OW30439   0.768   4.198   5.801 -0.6468  0.0037 -0.6738
 6268SOL    HW130440   0.845   4.207   5.859  1.0872  0.7170 -3.0823
 6268SOL    HW230441   0.740   4.107   5.808 -1.6096  0.4151  0.8772
 6269SOL     OW30442   0.928   0.925   7.231 -0.1557  0.2170  0.7868
 6269SOL    HW130443   1.000   0.969   7.187 -1.6688  1.7783 -0.1389
 6269SOL    HW230444   0.867   0.994   7.258  0.5571  0.2491  2.3090
 6270SOL     OW30445   3.067   3.715  12.159  0.3786  0.1127 -0.2123
 6270SOL    HW130446   2.994   3.774  12.137 -1.7599 -1.3882  2.8372
 6270SOL    HW230447   3.141   3.770  12.137  1.8205 -1.7400  0.0058
 6271SOL     OW30448   2.911   2.811  16.330  0.2316  0.0305 -0.2220
 6271SOL    HW130449   2.949   2.882  16.382  3.2508 -2.5524  1.0719
 6271SOL    HW230450   2.993   2.773  16.298  1.2499  0.4931  1.8270
 6272SOL     OW30451   2.531   2.235   4.508 -0.3900  0.1193  0.1860
 6272SOL    HW130452   2.585   2.171   4.462  0.5162  2.0708 -1.4509
 6272SOL    HW230453   2.569   2.321   4.494 -0.5838  0.6101  2.6113
 6273SOL     OW30454   4.567   3.509   0.977 -0.6868  0.3094 -0.0098
 6273SOL    HW130455   4.512   3.585   0.997  1.1559  1.1225  1.9727
 6273SOL    HW230456   4.613   3.546   0.902  0.1642 -1.9670 -0.5934
 6274SOL     OW30457   3.069   1.777   2.303  0.6029 -0.7769 -0.3221
 6274SOL    HW130458   3.148   1.782   2.250  0.0328  0.4281 -1.0424
 6274SOL    HW230459   3.059   1.682   2.291 -0.1851 -0.7540  0.1413
 6275SOL     OW30460   0.549   2.150   4.634  0.8350 -0.0803  0.0773
 6275SOL    HW130461   0.467   2.149   4.683 -0.2620  1.6159 -1.6944
 6275SOL    HW230462   0.569   2.059   4.656 -3.8069 -1.1944 -0.2086
 6276SOL     OW30463   2.025   0.938   4.018  0.1076 -0.1868 -0.4826
 6276SOL    HW130464   1.986   0.873   4.076 -0.3901  0.1644 -0.4199
 6276SOL    HW230465   1.954   1.003   4.012 -0.8866 -1.1893  0.2654
 6277SOL     OW30466   1.833   0.283   3.932  0.1007 -0.0481 -0.2638
 6277SOL    HW130467   1.816   0.287   4.027  0.3083  3.7853 -0.3774
 6277SOL    HW230468   1.885   0.363   3.918 -0.3783 -0.1472 -2.5368
 6278SOL     OW30469   0.824   2.205  12.125 -0.2733  0.4964 -0.5134
 6278SOL    HW130470   0.847   2.279  12.181  1.0922  0.5548 -1.1412
 6278SOL    HW230471   0.913   2.177  12.103 -1.4336 -2.9845 -0.8316
 6279SOL     OW30472   1.607   4.699   4.088  0.2579 -0.5625 -0.0572
 6279SOL    HW130473   1.516   4.727   4.090  0.7052  0.9233 -0.6734
 6279SOL    HW230474   1.650   0.046   4.088 -1.0987  0.1213  1.9400
 6280SOL     OW30475   3.839   4.562   1.368  0.6073  0.4048 -0.2587
 6280SOL    HW130476   3.780   4.584   1.440  0.8684  0.0574  0.0641
 6280SOL    HW230477   3.815   4.470   1.366 -0.8749  0.7539  1.3880
 6281SOL     OW30478   2.434   0.201   6.798  0.1864 -0.3325  0.0637
 6281SOL    HW130479   2.440   0.219   6.704  0.0432 -0.5135  0.0197
 6281SOL    HW230480   2.522   0.165   6.807 -0.4815 -1.4406  2.0720
 6282SOL     OW30481   0.779   0.422  10.705  0.0444 -0.2411 -0.3007
 6282SOL    HW130482   0.739   0.336  10.695 -1.4292  0.7564 -2.9564
 6282SOL    HW230483   0.749   0.458  10.622 -0.1267  0.0364 -0.1190
 6283SOL     OW30484   0.901   1.900   7.506 -0.1997 -0.6338 -0.6044
 6283SOL    HW130485   0.964   1.877   7.575 -3.0813 -0.3409  2.1662
 6283SOL    HW230486   0.949   1.974   7.469  0.5944 -0.2558  1.1360
 6284SOL     OW30487   0.827   4.142  16.622  0.0490  0.0456 -0.0518
 6284SOL    HW130488   0.842   4.050  16.597 -1.4683  0.2197 -1.6702
 6284SOL    HW230489   0.883   4.146  16.699 -1.8615  0.6000  1.3288
 6285SOL     OW30490   3.744   2.148   3.733  0.4270 -0.2821 -0.1243
 6285SOL    HW130491   3.732   2.145   3.828  0.5932 -0.9922 -0.1270
 6285SOL    HW230492   3.668   2.205   3.722  1.9220  1.4905 -1.3955
 6286SOL     OW30493   1.772   4.215  13.911  0.6625 -0.2506 -0.3478
 6286SOL    HW130494   1.808   4.236  13.825  0.5064 -2.4478 -0.9400
 6286SOL    HW230495   1.709   4.147  13.889  1.7142  0.0383 -4.1498
 6287SOL     OW30496   4.162   1.946  12.439 -0.7239 -0.5125  0.0045
 6287SOL    HW130497   4.233   1.887  12.414 -0.0094  0.3773 -0.0915
 6287SOL    HW230498   4.185   2.037  12.420 -1.9298 -0.2054  0.0126
 6288SOL     OW30499   4.655   2.337   9.733  1.0689 -0.1083 -0.2249
 6288SOL    HW130500   4.574   2.369   9.693 -0.1524  0.2529  2.4701
 6288SOL    HW230501   4.717   2.346   9.661 -2.1173 -2.0698 -3.2372
 6289SOL     OW30502   2.480   4.727   8.302 -0.2925  0.3514 -0.0737
 6289SOL    HW130503   2.427   0.030   8.370  0.1368  1.4866 -0.4206
 6289SOL    HW230504   2.419   4.717   8.230  1.9390  0.4664 -1.9833
 6290SOL     OW30505   2.408   4.665   5.230  0.0509  0.1798  0.5253
 6290SOL    HW130506   2.358   4.674   5.149  0.0209 -1.4183  0.3666
 6290SOL    HW230507   2.406   0.021   5.246 -1.1388  0.3107 -0.3697
 6291SOL     OW30508   0.740   0.839   3.208  0.5832  0.5084  0.1755
 6291SOL    HW130509   0.748   0.829   3.303  0.9672  0.1321  0.1046
 6291SOL    HW230510   0.826   0.809   3.179 -0.1456 -0.2128 -1.2254
 6292SOL     OW30511   3.346   1.666   3.160  0.3017  0.1316 -0.4323
 6292SOL    HW130512   3.286   1.627   3.222  1.3445  0.0960  0.5654
 6292SOL    HW230513   3.344   1.756   3.192  0.6754 -0.4943  1.3229
 6293SOL     OW30514   4.598   4.224   4.640  0.3354 -0.4486  0.3998
 6293SOL    HW130515   4.677   4.171   4.637 -1.0097 -2.4521 -0.1876
 6293SOL    HW230516   4.577   4.209   4.732  1.1423  0.2585  0.6997
 6294SOL     OW30517   0.700   4.496  17.424 -1.0682  0.6034 -0.2336
 6294SOL    HW130518   0.744   4.461  17.346  0.0891 -1.2123  1.2445
 6294SOL    HW230519   0.722   4.589  17.416  0.4281  0.2712 -0.0926
 6295SOL     OW30520   4.677   1.344  13.235 -0.0634 -1.0926 -0.3496
 6295SOL    HW130521   4.585   1.356  13.257  0.4889 -2.1347  2.5773
 6295SOL    HW230522   4.714   1.359  13.322 -2.1609 -0.5671  0.4415
 6296SOL     OW30523   1.893   4.293   3.813 -0.4454 -0.2065  0.0925
 6296SOL    HW130524   1.829   4.303   3.883 -0.0919  3.2672 -0.0623
 6296SOL    HW230525   1.848   4.232   3.753  0.6532 -0.3576 -0.5733
 6297SOL     OW30526   4.228   3.615   0.811  0.2345  0.6009 -0.1736
 6297SOL    HW130527   4.262   3.529   0.786  2.9208  1.9721 -1.3086
 6297SOL    HW230528   4.259   3.670   0.739 -1.3469  0.2706 -1.1058
 6298SOL     OW30529   3.654   4.376  12.131  0.1511  0.2878 -0.1616
 6298SOL    HW130530   3.703   4.302  12.168 -0.3867 -0.4925 -1.0326
 6298SOL    HW230531   3.718   4.425  12.080  1.1522 -3.1147 -2.1752
 6299SOL     OW30532   1.563   3.200  15.289  0.2462 -0.3113  0.2798
 6299SOL    HW130533   1.589   3.222  15.200  1.4119 -0.3293  0.6066
 6299SOL    HW230534   1.478   3.156  15.287  0.9014 -1.5423 -0.8221
 6300SOL     OW30535   1.147   2.550  17.454 -0.3349  0.7534 -0.7921
 6300SOL    HW130536   1.071   2.600  17.423 -1.3711 -0.4568 -0.1812
 6300SOL    HW230537   1.180   2.526  17.367  0.5579  1.5887 -0.6884
 6301SOL     OW30538   1.553   0.777   0.275 -0.6102  0.1962 -1.0017
 6301SOL    HW130539   1.515   0.820   0.198  2.9500  2.0950 -1.6962
 6301SOL    HW230540   1.535   0.844   0.341  2.0027  1.3786 -1.4684
 6302SOL     OW30541   2.672   2.342   9.435 -0.6297 -0.6871  0.4204
 6302SOL    HW130542   2.614   2.309   9.366 -0.4078 -2.6634  1.1765
 6302SOL    HW230543   2.753   2.314   9.393 -1.4548  0.3786 -1.8637
 6303SOL     OW30544   1.394   2.669   8.836  0.1480 -0.4145  0.6071
 6303SOL    HW130545   1.415   2.751   8.791 -0.9962 -0.9575 -0.9314
 6303SOL    HW230546   1.480   2.627   8.840  0.5870  0.1919 -2.3387
 6304SOL     OW30547   1.182   2.987   7.081 -0.5097 -0.1949 -0.2142
 6304SOL    HW130548   1.145   2.900   7.070  0.1329 -0.4520 -0.3791
 6304SOL    HW230549   1.143   3.037   7.153 -0.9265 -0.6450 -0.1252
 6305SOL     OW30550   0.289   1.833  14.567 -0.3472 -0.7058  0.7147
 6305SOL    HW130551   0.342   1.778  14.510 -0.5751  0.2028 -0.3496
 6305SOL    HW230552   0.213   1.776  14.580 -2.4721  2.3899  1.7158
 6306SOL     OW30553   0.589   4.335   1.532  0.5534 -0.4926  0.6978
 6306SOL    HW130554   0.568   4.243   1.544  1.5500 -0.8698 -0.4169
 6306SOL    HW230555   0.596   4.367   1.622  2.0380 -0.4406  0.5638
 6307SOL     OW30556   3.575   2.509   2.766 -0.1170  0.0151 -0.3418
 6307SOL    HW130557   3.496   2.525   2.714 -1.3306 -0.5360  1.3307
 6307SOL    HW230558   3.638   2.489   2.697 -0.1944  0.6695 -0.6030
 6308SOL     OW30559   1.147   0.583  12.839 -0.2308 -0.1749 -0.3290
 6308SOL    HW130560   1.180   0.539  12.761 -3.3029 -0.8332 -1.2412
 6308SOL    HW230561   1.106   0.663  12.808  1.5840  0.9928  0.3136
 6309SOL     OW30562   0.002   2.625   2.871 -0.6236  0.4294 -0.3646
 6309SOL    HW130563   4.694   2.690   2.923  1.1973  2.6412 -1.4594
 6309SOL    HW230564   0.067   2.604   2.938  0.3102  0.1267 -1.3502
 6310SOL     OW30565   0.770   4.327  16.440  0.1386  0.2419  0.3756
 6310SOL    HW130566   0.678   4.329  16.466  0.7499 -0.7236  2.6174
 6310SOL    HW230567   0.795   4.260  16.504 -1.3148  0.8378  1.5703
 6311SOL     OW30568   1.780   3.386   9.096  0.7166  0.1752  0.0623
 6311SOL    HW130569   1.816   3.299   9.075  0.1436 -0.1237  0.3306
 6311SOL    HW230570   1.688   3.377   9.072 -0.4892  3.5500  3.5802
 6312SOL     OW30571   0.527   0.034   8.730  0.4565  0.0217  0.2539
 6312SOL    HW130572   0.472   0.052   8.806 -2.5017 -0.1802 -1.8463
 6312SOL    HW230573   0.572   0.119   8.730 -2.3586  1.5042 -1.6664
 6313SOL     OW30574   3.364   0.188  10.191  0.0122  0.3144 -0.8331
 6313SOL    HW130575   3.460   0.190  10.198 -0.1047 -0.6223  0.9463
 6313SOL    HW230576   3.357   0.157  10.101 -3.2557 -0.0962 -0.4247
 6314SOL     OW30577   2.780   3.311   7.953  0.2576 -0.0052  0.2239
 6314SOL    HW130578   2.874   3.331   7.944  0.2003  0.7437  1.3933
 6314SOL    HW230579   2.769   3.319   8.047  0.9411  0.5332  0.2595
 6315SOL     OW30580   3.673   4.645  11.394 -0.5843 -0.5267 -0.5738
 6315SOL    HW130581   3.718   4.586  11.334 -1.9582  0.2140 -2.3118
 6315SOL    HW230582   3.702   4.728  11.356 -0.2099 -0.4339 -0.0873
 6316SOL     OW30583   0.756   0.935  16.112 -0.0275 -0.1132 -0.5891
 6316SOL    HW130584   0.709   0.989  16.047 -0.6861 -1.0309 -0.8795
 6316SOL    HW230585   0.770   1.008  16.173  1.7386 -1.4911  0.6415
 6317SOL     OW30586   0.761   3.055   7.205 -0.1710 -0.0558 -0.0700
 6317SOL    HW130587   0.785   2.981   7.150  1.0022  0.1509  0.1640
 6317SOL    HW230588   0.840   3.110   7.207  0.1373 -0.4855 -0.3370
 6318SOL     OW30589   1.472   1.655   1.915  0.7837  0.1689  0.0586
 6318SOL    HW130590   1.532   1.681   1.985  0.4941 -0.2091  0.4561
 6318SOL    HW230591   1.462   1.560   1.930 -0.1277  0.0777 -1.1512
 6319SOL     OW30592   0.337   4.676  17.132  0.0407 -0.4092 -0.1132
 6319SOL    HW130593   0.247   4.654  17.158 -0.1718 -0.3399 -0.7951
 6319SOL    HW230594   0.328   4.705  17.041  1.4388 -2.3478 -0.8635
 6320SOL     OW30595   1.188   3.273  15.972 -0.4502  0.1254 -0.6187
 6320SOL    HW130596   1.093   3.278  15.969 -0.6102 -1.7745  0.8996
 6320SOL    HW230597   1.190   3.300  15.880  0.1809 -0.7839 -0.8756
 6321SOL     OW30598   4.302   0.841  14.016  0.3432 -0.7269 -0.2027
 6321SOL    HW130599   4.304   0.934  13.991 -0.3324 -0.8895 -0.8433
 6321SOL    HW230600   4.301   0.806  13.927  0.1749  0.7238 -0.7733
 6322SOL     OW30601   3.002   2.534  16.787 -0.5444 -0.5203 -0.3537
 6322SOL    HW130602   2.963   2.615  16.820  2.0736  0.0258  1.3773
 6322SOL    HW230603   2.982   2.549  16.694  1.7546  0.4112 -0.6998
 6323SOL     OW30604   4.545   2.436   0.610  0.0497  0.5254 -0.0801
 6323SOL    HW130605   4.562   2.434   0.515  1.8498  1.0375  0.2276
 6323SOL    HW230606   4.610   2.382   0.656  0.5667  1.0205 -0.2264
 6324SOL     OW30607   1.784   2.425   5.034  0.6718  0.3209 -0.3061
 6324SOL    HW130608   1.824   2.377   4.962  1.3933  0.2877  0.1268
 6324SOL    HW230609   1.702   2.376   5.039  1.0780 -0.2999  0.1032
 6325SOL     OW30610   1.990   2.118   7.933 -0.2070  0.5270 -0.2420
 6325SOL    HW130611   1.957   2.185   7.874  0.8155  0.5442 -0.7863
 6325SOL    HW230612   1.976   2.164   8.016 -0.9435 -2.4165  1.2542
 6326SOL     OW30613   0.027   0.523   2.460  0.1350  0.1398  0.0306
 6326SOL    HW130614   4.717   0.603   2.481 -0.7694 -0.8105  1.4676
 6326SOL    HW230615   4.691   0.469   2.485  0.5508 -0.6226 -0.3809
 6327SOL     OW30616   3.097   1.110  13.428  0.1631 -0.1147 -0.0750
 6327SOL    HW130617   3.103   1.073  13.339 -1.5833 -0.6733  0.0496
 6327SOL    HW230618   3.187   1.144  13.421  0.7083 -1.4942  0.2302
 6328SOL     OW30619   3.946   2.713  11.999  0.0842  0.2663  0.2622
 6328SOL    HW130620   3.978   2.636  12.044  2.3473  1.7859  1.2171
 6328SOL    HW230621   4.006   2.722  11.925  1.5738  0.7375  1.5435
 6329SOL     OW30622   1.322   3.766  12.028 -0.3089 -0.4088 -0.4773
 6329SOL    HW130623   1.313   3.676  12.060 -0.6338 -0.8317 -1.7452
 6329SOL    HW230624   1.237   3.802  12.052  0.0649 -0.7268  1.2661
 6330SOL     OW30625   0.581   3.785   1.611  0.0448  0.1683 -0.4193
 6330SOL    HW130626   0.549   3.788   1.521  1.4427  0.8835 -0.9006
 6330SOL    HW230627   0.505   3.782   1.669  1.2926  2.4728  1.3258
 6331SOL     OW30628   4.516   0.967   3.720 -0.3186  0.3941 -0.0332
 6331SOL    HW130629   4.510   0.872   3.723  1.2473  0.2499 -1.2715
 6331SOL    HW230630   4.606   0.973   3.688 -0.1261 -0.2788  0.3824
 6332SOL     OW30631   0.260   2.972  13.331  0.6831  0.1975 -0.1579
 6332SOL    HW130632   0.181   3.010  13.294  1.0175  1.4275  0.3819
 6332SOL    HW230633   0.307   2.940  13.255  0.0275 -0.5213 -0.2549
 6333SOL     OW30634   0.694   2.690   2.464 -0.0926  0.2776  0.5370
 6333SOL    HW130635   0.659   2.777   2.445 -2.4235 -0.3752  1.8392
 6333SOL    HW230636   0.778   2.715   2.504 -1.1360  1.0620  2.2410
 6334SOL     OW30637   2.052   2.307   4.496 -0.3763  0.0083 -0.4817
 6334SOL    HW130638   1.966   2.338   4.469 -0.8972 -1.2967 -0.2988
 6334SOL    HW230639   2.121   2.370   4.476  0.8111 -1.4826 -1.0746
 6335SOL     OW30640   1.895   4.037   2.750 -0.1699  0.3888 -0.5695
 6335SOL    HW130641   1.924   3.964   2.804  0.3821  0.9369 -0.1302
 6335SOL    HW230642   1.840   4.081   2.814  1.3341 -1.4335  1.9849
 6336SOL     OW30643   1.785   0.388   4.899 -0.0997 -0.2000 -0.1052
 6336SOL    HW130644   1.831   0.362   4.980 -0.2568 -0.2616 -0.0364
 6336SOL    HW230645   1.778   0.303   4.857  2.2563  0.2273 -1.3987
 6337SOL     OW30646   3.092   4.505   1.535 -0.2321 -0.4610 -0.0829
 6337SOL    HW130647   3.081   4.425   1.483  0.1261  0.5491 -1.7189
 6337SOL    HW230648   3.005   4.545   1.527 -0.2128 -0.6971 -1.5149
 6338SOL     OW30649   0.207   4.667   9.982 -0.0328  0.2098 -0.3300
 6338SOL    HW130650   0.285   4.653   9.928 -0.1405 -0.9113 -0.1839
 6338SOL    HW230651   0.239   0.010  10.021 -2.7652  1.5060 -0.7539
 6339SOL     OW30652   1.678   4.689  13.887  0.1321 -0.2856  0.1626
 6339SOL    HW130653   1.627   4.612  13.915  1.4947 -1.0090  0.6744
 6339SOL    HW230654   1.675   4.738  13.969  0.6780  0.6207 -0.3632
 6340SOL     OW30655   0.654   4.241   9.038 -0.0886 -0.1890  0.2615
 6340SOL    HW130656   0.668   4.154   9.000  0.0078 -0.5288  1.0782
 6340SOL    HW230657   0.629   4.227   9.129  1.0829  0.1524  0.6400
 6341SOL     OW30658   3.051   4.151   6.722  0.5032  0.0707  0.4605
 6341SOL    HW130659   3.046   4.244   6.699 -0.8619 -0.1689 -0.2441
 6341SOL    HW230660   2.962   4.127   6.694  0.1988  0.2153  1.3189
 6342SOL     OW30661   0.266   4.715   6.228  0.5072 -0.3944 -0.0038
 6342SOL    HW130662   0.194   0.027   6.267 -0.1221 -0.2967 -1.3107
 6342SOL    HW230663   0.287   0.014   6.143  0.6707  0.0690  0.2409
 6343SOL     OW30664   2.344   2.070   1.751 -0.3055 -0.5553 -0.1167
 6343SOL    HW130665   2.311   1.981   1.761  0.0854 -0.4320  2.2371
 6343SOL    HW230666   2.427   2.070   1.703  0.0232 -1.7213  0.4524
 6344SOL     OW30667   3.860   2.891   6.456  0.1318  0.1135 -0.1884
 6344SOL    HW130668   3.781   2.840   6.437 -0.2688  1.1821 -1.4208
 6344SOL    HW230669   3.926   2.823   6.442 -1.3980 -0.9512 -2.2269
 6345SOL     OW30670   1.672   1.269   9.739 -0.5030 -0.2655  0.3341
 6345SOL    HW130671   1.743   1.231   9.790 -0.7050 -1.7046 -0.4713
 6345SOL    HW230672   1.635   1.204   9.680  0.0814 -0.9944  0.7729
 6346SOL     OW30673   3.928   0.448  10.064  0.0690  0.1255 -0.3472
 6346SOL    HW130674   3.992   0.491  10.006  0.9502 -1.9783 -0.9458
 6346SOL    HW230675   3.865   0.519  10.071  1.1167  0.9213  0.8893
 6347SOL     OW30676   1.164   2.548   8.092 -0.1374  0.6949  0.3267
 6347SOL    HW130677   1.175   2.585   8.180 -2.0943 -0.9189  1.2567
 6347SOL    HW230678   1.223   2.606   8.044  1.2301 -1.3614 -0.4563
 6348SOL     OW30679   3.048   0.151   4.938  0.3327  0.4770  0.1825
 6348SOL    HW130680   2.974   0.197   4.979 -0.9757  1.4757 -3.2891
 6348SOL    HW230681   3.116   0.160   5.005  1.7197 -2.1273 -0.9127
 6349SOL     OW30682   4.357   3.178   7.983 -0.6163  0.7572  0.0518
 6349SOL    HW130683   4.306   3.123   7.923  0.4030 -3.7520  3.2960
 6349SOL    HW230684   4.354   3.131   8.066 -1.1484 -0.6998 -0.7858
 6350SOL     OW30685   0.887   1.001   8.437 -0.1367  0.4282 -0.3329
 6350SOL    HW130686   0.980   1.005   8.461 -0.2431  1.0087 -0.0349
 6350SOL    HW230687   0.852   1.088   8.420 -1.4476 -0.1961 -0.7711
 6351SOL     OW30688   2.695   4.702   1.267 -0.4093  0.5876 -0.1483
 6351SOL    HW130689   2.767   4.717   1.206  0.4193 -1.1356  0.4146
 6351SOL    HW230690   2.677   4.611   1.244  2.6467 -0.4129  1.4227
 6352SOL     OW30691   3.236   1.569   3.382 -0.1413 -0.4587  0.3318
 6352SOL    HW130692   3.182   1.643   3.409 -0.1551 -0.0261 -0.8822
 6352SOL    HW230693   3.316   1.599   3.426  0.2518  1.2561 -1.5721
 6353SOL     OW30694   2.118   1.294   1.287  0.3068 -0.3107  0.0988
 6353SOL    HW130695   2.119   1.342   1.370  2.2706  1.4348 -0.9416
 6353SOL    HW230696   2.159   1.213   1.318 -1.7006 -1.2426  0.3267
 6354SOL     OW30697   4.667   4.376  14.358 -0.2537  0.0187  0.4867
 6354SOL    HW130698   0.019   4.345  14.364 -1.6055 -4.3101 -1.7530
 6354SOL    HW230699   4.667   4.471  14.351 -1.1651  0.0601  0.9973
 6355SOL     OW30700   1.172   1.095  15.365 -0.4577  0.4490  0.6121
 6355SOL    HW130701   1.099   1.035  15.383  1.6693 -2.3261 -0.0781
 6355SOL    HW230702   1.232   1.038  15.318 -1.7197  0.6174 -1.2053
 6356SOL     OW30703   1.095   1.930   6.129  0.3698  0.4959  0.7871
 6356SOL    HW130704   1.112   1.946   6.221 -0.6020  1.1541  0.8526
 6356SOL    HW230705   1.089   1.834   6.132 -1.5347  0.5085 -1.7614
 6357SOL     OW30706   1.530   2.093  13.911 -0.9312  0.0183 -0.5149
 6357SOL    HW130707   1.625   2.091  13.902 -1.1275 -0.9884 -2.3137
 6357SOL    HW230708   1.513   2.049  13.828 -1.2378 -0.2234 -0.3251
 6358SOL     OW30709   1.430   3.047   5.417  0.0463 -0.4186 -0.1434
 6358SOL    HW130710   1.430   3.141   5.398  0.8075 -0.5295 -0.6793
 6358SOL    HW230711   1.341   3.016   5.404 -0.8215  1.9259  0.1666
 6359SOL     OW30712   4.068   3.911   5.136  0.6393  0.0709 -0.0793
 6359SOL    HW130713   4.046   3.842   5.199  2.4314  0.0302  0.4872
 6359SOL    HW230714   4.037   3.877   5.052  2.5121  1.5410 -1.3671
 6360SOL     OW30715   2.699   1.895   8.969 -0.5727  0.3933  0.7907
 6360SOL    HW130716   2.621   1.922   9.017 -0.6283  2.9632 -0.7380
 6360SOL    HW230717   2.660   1.871   8.885  1.0345 -1.1279  0.4694
 6361SOL     OW30718   3.537   0.171   2.973 -0.2143  0.5158  0.2941
 6361SOL    HW130719   3.530   0.130   2.887  0.4048 -0.0641  0.5174
 6361SOL    HW230720   3.587   0.250   2.955  1.4889 -0.3406  1.2731
 6362SOL     OW30721   0.907   2.045   4.949  0.0173  0.4560 -0.3021
 6362SOL    HW130722   0.973   1.978   4.931  0.5535  0.4581  1.5958
 6362SOL    HW230723   0.911   2.081   4.861 -2.4161  1.3815 -0.0209
 6363SOL     OW30724   2.605   3.409  12.536 -0.2386 -0.3497  0.4746
 6363SOL    HW130725   2.524   3.386  12.490  0.2337 -1.3133  0.1212
 6363SOL    HW230726   2.567   3.435  12.620  1.6906  2.3651  0.4976
 6364SOL     OW30727   0.177   0.737   7.638 -0.5320 -0.0569  0.2127
 6364SOL    HW130728   0.197   0.817   7.687 -0.2222  0.3317 -0.5542
 6364SOL    HW230729   0.091   0.759   7.603  0.3397  0.3978 -1.6134
 6365SOL     OW30730   1.033   2.449   8.549 -0.1595 -0.7443 -0.1860
 6365SOL    HW130731   1.078   2.527   8.516 -2.0276  0.7060  0.6996
 6365SOL    HW230732   0.966   2.488   8.605  0.2682 -0.4164  0.0999
 6366SOL     OW30733   3.363   1.348   4.879  0.3690 -0.3313  0.4645
 6366SOL    HW130734   3.417   1.415   4.920 -0.1201 -0.3678  1.1671
 6366SOL    HW230735   3.298   1.397   4.830 -1.3552 -0.7589  2.2968
 6367SOL     OW30736   0.271   4.418   0.832 -0.0870  0.3436  0.6941
 6367SOL    HW130737   0.343   4.450   0.777 -0.8809  0.1803 -0.4461
 6367SOL    HW230738   0.203   4.480   0.807  1.0657  0.4612 -2.2122
 6368SOL     OW30739   0.377   2.889   6.453  0.2016 -0.4082  0.6414
 6368SOL    HW130740   0.300   2.873   6.400  1.4562 -0.2973 -1.1981
 6368SOL    HW230741   0.392   2.983   6.444  3.1963 -0.8265  1.2709
 6369SOL     OW30742   0.427   3.125   8.463  0.8681 -0.0816  0.2178
 6369SOL    HW130743   0.451   3.078   8.543 -1.8541  1.8108  2.1439
 6369SOL    HW230744   0.504   3.112   8.407  0.5639  0.8707 -0.4256
 6370SOL     OW30745   1.535   2.196   5.478  0.2042  0.1421  0.4951
 6370SOL    HW130746   1.506   2.283   5.451 -2.4919 -1.0902 -0.5628
 6370SOL    HW230747   1.537   2.152   5.394  0.7763 -1.1479  1.1795
 6371SOL     OW30748   1.731   4.434   3.979  0.0583 -0.1564  0.2779
 6371SOL    HW130749   1.680   4.420   4.059 -0.2636 -0.0043  0.0969
 6371SOL    HW230750   1.660   4.460   3.921  1.4084  1.4894 -0.6484
 6372SOL     OW30751   4.588   1.392   2.650 -0.2377 -0.5174  0.5258
 6372SOL    HW130752   4.504   1.350   2.630 -0.6514  1.6406 -2.2299
 6372SOL    HW230753   4.646   1.318   2.669  0.6703  0.6740  2.4381
 6373SOL     OW30754   2.426   3.746   4.296  0.2856  0.1744 -0.4968
 6373SOL    HW130755   2.476   3.787   4.367  1.2539  0.4871 -1.3549
 6373SOL    HW230756   2.468   3.660   4.291 -1.0163 -0.5089  0.3891
 6374SOL     OW30757   4.337   0.985   8.441  0.5944 -0.2637  0.2268
 6374SOL    HW130758   4.247   0.966   8.413  1.1733  0.6113 -2.1527
 6374SOL    HW230759   4.326   1.078   8.457  1.5784 -0.1021 -0.0369
 6375SOL     OW30760   2.307   1.661   8.187 -0.1229 -0.2043 -0.3695
 6375SOL    HW130761   2.348   1.667   8.273 -2.5742 -1.2899  0.8767
 6375SOL    HW230762   2.247   1.735   8.187 -0.3326 -0.3813  1.3312
 6376SOL     OW30763   2.148   2.590  10.561  0.6051  0.2834  0.3904
 6376SOL    HW130764   2.157   2.598  10.466 -0.5001  0.4811  0.3002
 6376SOL    HW230765   2.233   2.625  10.585  1.1687 -1.8664  1.5369
 6377SOL     OW30766   3.100   2.425   5.646  0.6877  0.5404  0.2275
 6377SOL    HW130767   3.179   2.377   5.622  0.4502 -0.5947  1.7383
 6377SOL    HW230768   3.040   2.352   5.657 -1.0265  1.6683 -1.5857
 6378SOL     OW30769   0.570   3.374   2.012 -0.1070  0.2632  0.0268
 6378SOL    HW130770   0.664   3.376   1.996 -0.0181 -2.5321  0.2009
 6378SOL    HW230771   0.564   3.422   2.094  0.2548  0.9272 -0.3401
 6379SOL     OW30772   3.328   1.802   2.197  0.1504  0.4475 -0.2006
 6379SOL    HW130773   3.389   1.730   2.181 -1.3157 -0.8046 -0.1400
 6379SOL    HW230774   3.370   1.869   2.143  1.1692 -0.4234 -0.5043
 6380SOL     OW30775   1.373   4.551   5.499 -0.2393 -0.0692 -0.0562
 6380SOL    HW130776   1.403   4.642   5.496 -0.8833  0.2260  2.4752
 6380SOL    HW230777   1.371   4.525   5.591 -1.0826  1.6485  0.4170
 6381SOL     OW30778   2.887   4.719   1.058 -0.0543  0.1144 -0.1160
 6381SOL    HW130779   2.874   4.712   0.963  1.0713  1.2740 -0.3504
 6381SOL    HW230780   2.957   0.045   1.064 -0.4304  0.7159 -2.2709
 6382SOL     OW30781   3.858   2.823   6.945 -0.4625 -0.6800 -0.1216
 6382SOL    HW130782   3.923   2.893   6.947  0.4082 -1.5443  2.1379
 6382SOL    HW230783   3.849   2.806   7.039  1.8018 -1.8765 -0.0960
 6383SOL     OW30784   4.606   0.682   9.719 -0.2098  0.3325  0.0826
 6383SOL    HW130785   4.560   0.762   9.747 -0.7101  1.0301 -2.7636
 6383SOL    HW230786   4.535   0.635   9.676 -0.6139  0.3947  0.6716
 6384SOL     OW30787   4.044   2.060   7.646  0.4626  0.2681 -0.1852
 6384SOL    HW130788   4.116   2.060   7.582  0.8939 -0.8200  0.2913
 6384SOL    HW230789   4.091   2.073   7.728  0.1435 -0.6574  0.1529
 6385SOL     OW30790   3.378   3.722  15.088 -0.2395 -0.1088  0.8386
 6385SOL    HW130791   3.381   3.690  15.178  1.3073 -1.2720  0.3722
 6385SOL    HW230792   3.455   3.779  15.082 -1.8734  2.6020  5.2045
 6386SOL     OW30793   0.746   3.278  10.199  0.1986 -0.4815  0.1370
 6386SOL    HW130794   0.759   3.185  10.183 -1.1023 -0.5103 -0.7624
 6386SOL    HW230795   0.736   3.309  10.108  4.3698 -0.2022 -0.2099
 6387SOL     OW30796   3.170   0.772  14.497  0.0975  0.2617  0.3233
 6387SOL    HW130797   3.243   0.750  14.554 -1.3592 -2.7544  1.0129
 6387SOL    HW230798   3.120   0.691  14.504  1.5491 -0.6039  0.5659
 6388SOL     OW30799   0.597   4.695   4.623  0.4113  0.3084  0.1986
 6388SOL    HW130800   0.536   4.625   4.601  1.2222 -0.2682 -0.2560
 6388SOL    HW230801   0.538   0.008   4.678  0.8127  0.7925  0.1808
 6389SOL     OW30802   2.847   0.796   8.315  0.1279  0.0961 -0.2839
 6389SOL    HW130803   2.914   0.770   8.252 -0.6781  1.3750 -1.6457
 6389SOL    HW230804   2.880   0.879   8.351  0.1909 -0.3554  0.6994
 6390SOL     OW30805   1.005   3.825   8.739 -0.0777 -0.1986 -0.1515
 6390SOL    HW130806   0.967   3.764   8.676  0.4112  0.8851 -1.5126
 6390SOL    HW230807   0.950   3.901   8.720  1.0673  0.8781  0.8380
 6391SOL     OW30808   2.815   1.424   4.330  0.0429 -0.2224  0.2100
 6391SOL    HW130809   2.724   1.407   4.306 -0.4564  0.1120  1.8526
 6391SOL    HW230810   2.856   1.337   4.333 -0.5957 -0.6137 -2.3852
 6392SOL     OW30811   3.502   0.358  11.083 -0.5376 -0.1279 -0.2414
 6392SOL    HW130812   3.502   0.264  11.102 -0.0315  0.0408  0.5641
 6392SOL    HW230813   3.439   0.378  11.153  0.2582 -0.7188  0.6455
 6393SOL     OW30814   0.299   0.151  12.967  0.3900  0.2742  0.1652
 6393SOL    HW130815   0.393   0.133  12.964  0.4334  0.4344  0.6327
 6393SOL    HW230816   0.296   0.221  13.032  0.8791  0.9554 -0.5444
 6394SOL     OW30817   3.320   2.857  11.232 -0.5000 -0.1423 -0.1665
 6394SOL    HW130818   3.254   2.796  11.199  0.4176 -0.1442 -1.9716
 6394SOL    HW230819   3.264   2.934  11.224  1.2140  1.1090 -0.0777
 6395SOL     OW30820   3.663   1.064   5.498  0.3527 -0.4433 -0.4088
 6395SOL    HW130821   3.616   0.982   5.517  0.2505 -1.3269 -4.5258
 6395SOL    HW230822   3.593   1.128   5.510 -1.8480 -2.2784 -3.3152
 6396SOL     OW30823   2.044   1.386   3.327  0.4682  0.5823  1.0430
 6396SOL    HW130824   2.094   1.311   3.295  0.0625  0.2356  1.2058
 6396SOL    HW230825   1.967   1.332   3.348  2.0978 -1.3090  2.2212
 6397SOL     OW30826   4.204   4.157   2.591 -0.3893 -0.6098  0.3297
 6397SOL    HW130827   4.291   4.197   2.586 -0.9108  0.8911  3.4036
 6397SOL    HW230828   4.143   4.215   2.546 -0.5456 -1.2532 -0.2915
 6398SOL     OW30829   3.010   4.188   9.767 -0.7773  0.6016 -0.1635
 6398SOL    HW130830   3.083   4.226   9.815  0.2039 -1.2856 -0.1604
 6398SOL    HW230831   2.963   4.147   9.839  1.7993  0.6246  1.5341
 6399SOL     OW30832   3.906   4.347   7.013  0.3936 -0.2331  0.0981
 6399SOL    HW130833   3.879   4.290   6.941 -1.5325  1.7621 -0.7594
 6399SOL    HW230834   3.820   4.385   7.035 -0.2121  0.3669 -3.3448
 6400SOL     OW30835   1.048   3.026   1.102  0.1300  0.1497 -0.3405
 6400SOL    HW130836   1.098   2.945   1.086 -0.0019 -0.5009  2.6106
 6400SOL    HW230837   1.118   3.091   1.109 -1.5776  1.7060  2.0486
 6401SOL     OW30838   0.704   0.375   3.323 -0.1825  0.0641 -0.1349
 6401SOL    HW130839   0.722   0.402   3.413  0.4792 -1.0188  0.0636
 6401SOL    HW230840   0.770   0.414   3.266  0.7448 -1.6019 -0.2028
 6402SOL     OW30841   2.980   4.071   9.122  0.1508 -1.0078  0.1992
 6402SOL    HW130842   2.923   4.001   9.155 -1.0168 -0.0592  0.2154
 6402SOL    HW230843   3.034   4.027   9.056 -1.1864 -2.2288 -0.0724
 6403SOL     OW30844   2.126   3.802   8.451 -0.0260  0.3656 -0.1127
 6403SOL    HW130845   2.114   3.850   8.533 -0.1823  0.2859 -0.0876
 6403SOL    HW230846   2.087   3.717   8.474  1.9604  0.0407  1.9887
 6404SOL     OW30847   2.314   3.802   1.773 -0.0205 -0.5216  0.7873
 6404SOL    HW130848   2.239   3.854   1.743  1.8043  1.6779  0.0373
 6404SOL    HW230849   2.320   3.742   1.698  0.5535  0.1260  0.3147
 6405SOL     OW30850   1.594   3.070  15.933  0.8864 -0.0965 -0.7840
 6405SOL    HW130851   1.653   3.037  15.865  0.5520 -1.9684 -0.1542
 6405SOL    HW230852   1.541   2.994  15.956  1.3014  0.5785  2.4204
 6406SOL     OW30853   3.420   0.474   6.767 -0.4562  0.3650 -0.2938
 6406SOL    HW130854   3.470   0.524   6.830  0.3194 -0.1828 -0.4754
 6406SOL    HW230855   3.342   0.454   6.820  1.7870 -2.5661  1.8982
 6407SOL     OW30856   2.412   2.656   5.320 -0.3732 -0.2280 -0.6125
 6407SOL    HW130857   2.455   2.627   5.401 -0.0861  0.9121 -0.3666
 6407SOL    HW230858   2.471   2.724   5.289 -0.3763 -0.6409 -1.5388
 6408SOL     OW30859   2.895   2.383   3.983  0.4424  0.5541 -0.2214
 6408SOL    HW130860   2.813   2.355   4.025 -1.1080  0.5909 -3.1938
 6408SOL    HW230861   2.948   2.306   4.004 -1.7022 -0.2982  2.1348
 6409SOL     OW30862   2.502   2.733   2.854 -0.2371  0.1042 -0.3879
 6409SOL    HW130863   2.492   2.697   2.942  1.8981  2.0092  0.6289
 6409SOL    HW230864   2.596   2.737   2.839 -0.5075  0.6260 -1.9701
 6410SOL     OW30865   4.277   1.186   5.959 -0.2519 -0.8338  0.3913
 6410SOL    HW130866   4.290   1.213   5.868  0.5865 -0.0995  0.7318
 6410SOL    HW230867   4.344   1.118   5.970  0.3612 -0.3040 -0.1520
 6411SOL     OW30868   2.893   3.703  14.672  0.5251 -0.6708 -0.1453
 6411SOL    HW130869   2.948   3.640  14.626 -0.0073 -0.7565 -0.6548
 6411SOL    HW230870   2.898   3.770  14.604 -0.2094 -0.9989 -0.5165
 6412SOL     OW30871   1.630   2.860   4.718  0.0922  0.0020 -0.1439
 6412SOL    HW130872   1.562   2.855   4.651 -0.4721 -1.4135  0.5535
 6412SOL    HW230873   1.704   2.882   4.661 -0.6293  2.0968 -0.2983
 6413SOL     OW30874   4.595   1.592   6.457  0.0350  0.1164  0.3618
 6413SOL    HW130875   4.540   1.663   6.422  0.9911  1.3876  1.4669
 6413SOL    HW230876   4.530   1.525   6.479  3.1027 -1.5249  4.3477
 6414SOL     OW30877   1.230   4.341  12.643 -0.1775  0.1953 -0.9662
 6414SOL    HW130878   1.186   4.305  12.720 -2.3456 -0.6579 -2.6379
 6414SOL    HW230879   1.316   4.363  12.680 -0.2557 -2.4971  0.8058
 6415SOL     OW30880   0.581   1.639  15.132 -0.0811  0.0779  0.3620
 6415SOL    HW130881   0.648   1.572  15.119 -1.3341 -1.5563  2.2034
 6415SOL    HW230882   0.502   1.585  15.127 -0.3108  0.2161  2.7519
 6416SOL     OW30883   2.314   3.738   5.275  0.0131  0.5183 -0.3856
 6416SOL    HW130884   2.271   3.715   5.193  2.0401 -0.7599 -1.1034
 6416SOL    HW230885   2.351   3.826   5.263  0.9411 -0.0652 -1.7008
 6417SOL     OW30886   0.267   4.061   5.585  0.4753  0.8057 -0.2278
 6417SOL    HW130887   0.243   4.154   5.578  3.0953  1.4280 -0.9483
 6417SOL    HW230888   0.361   4.068   5.566  0.4531 -2.4354 -1.4742
 6418SOL     OW30889   4.274   1.433   5.302  0.1844  0.1522 -0.1117
 6418SOL    HW130890   4.184   1.419   5.332  1.1355 -3.4565  1.0113
 6418SOL    HW230891   4.266   1.386   5.219  0.7089 -1.2178  0.6270
 6419SOL     OW30892   2.499   0.112   1.728  0.1322  0.3000  0.3661
 6419SOL    HW130893   2.458   0.180   1.674 -0.5482 -0.6135 -0.2561
 6419SOL    HW230894   2.440   0.116   1.803 -0.7105 -1.6901 -0.1903
 6420SOL     OW30895   1.161   4.079   2.566 -0.1146  0.4633  0.1494
 6420SOL    HW130896   1.216   4.108   2.494  0.8599 -2.0556 -0.1342
 6420SOL    HW230897   1.203   3.996   2.588 -0.3672 -0.3155 -2.2852
 6421SOL     OW30898   1.630   2.767   3.300 -0.3509  0.3423  0.3257
 6421SOL    HW130899   1.671   2.777   3.215  0.7700 -0.0621  0.8145
 6421SOL    HW230900   1.556   2.718   3.264 -0.8506  1.1507  0.2703
 6422SOL     OW30901   3.101   3.366   7.597 -0.2282 -0.0570  0.6384
 6422SOL    HW130902   3.109   3.388   7.504  1.4682 -1.0445  0.5367
 6422SOL    HW230903   3.062   3.443   7.639  0.5696  0.3573  0.6362
 6423SOL     OW30904   3.756   1.230   9.893 -0.1868 -0.0647  0.4963
 6423SOL    HW130905   3.761   1.153   9.836 -0.6908 -0.4092  0.9221
 6423SOL    HW230906   3.724   1.197   9.977 -1.9160 -1.5503 -0.7678
 6424SOL     OW30907   1.913   3.899   1.515 -0.5762 -0.2058 -0.0046
 6424SOL    HW130908   1.978   3.909   1.585 -1.5383  2.0266  0.5726
 6424SOL    HW230909   1.973   3.900   1.441 -0.5323  0.2370  0.0375
 6425SOL     OW30910   0.340   3.877  16.977  0.3025  0.7128 -0.8891
 6425SOL    HW130911   0.292   3.956  17.000  0.6965  0.4136  0.9119
 6425SOL    HW230912   0.387   3.869  17.060 -2.0151 -0.8124  0.2791
 6426SOL     OW30913   0.911   4.679   6.452 -0.0705 -0.1508 -0.3766
 6426SOL    HW130914   0.881   0.032   6.454  0.0521 -0.1443  1.6170
 6426SOL    HW230915   0.864   4.648   6.530 -1.4273  4.4169  0.6611
 6427SOL     OW30916   2.892   2.770  16.867 -0.2310  0.4600 -0.2566
 6427SOL    HW130917   2.816   2.768  16.809  0.8343 -4.3737 -1.4904
 6427SOL    HW230918   2.930   2.856  16.849 -0.4704  0.8696  1.2081
 6428SOL     OW30919   0.914   0.031   6.031  0.2116 -0.0641 -0.3773
 6428SOL    HW130920   0.891   4.693   6.083  0.5531  0.0812 -0.0177
 6428SOL    HW230921   0.831   0.073   6.011 -0.3664 -1.8404 -1.7951
 6429SOL     OW30922   4.623   1.972   8.719 -0.5638  0.2103  0.3919
 6429SOL    HW130923   4.569   1.912   8.668 -0.0889 -0.1153  0.2650
 6429SOL    HW230924   4.703   1.957   8.668 -0.1691 -1.1919  1.4094
 6430SOL     OW30925   1.153   1.391   9.498  0.1175 -0.2294 -0.4637
 6430SOL    HW130926   1.121   1.370   9.586  2.4549  1.6677  0.8242
 6430SOL    HW230927   1.237   1.428   9.524  0.4694 -1.4857  0.2177
 6431SOL     OW30928   3.321   4.507   9.469  0.4378  0.0176 -0.1230
 6431SOL    HW130929   3.264   4.447   9.421 -0.6727  0.6424  0.4173
 6431SOL    HW230930   3.343   4.572   9.402  0.0354 -0.5409 -0.7955
 6432SOL     OW30931   2.439   3.252  17.079 -0.1867  0.6555 -0.3948
 6432SOL    HW130932   2.472   3.230  17.167 -4.2755  0.4020  1.0620
 6432SOL    HW230933   2.504   3.316  17.050 -0.7644  2.6349  2.6916
 6433SOL     OW30934   0.313   2.954  14.664  0.0888 -0.2924 -0.4676
 6433SOL    HW130935   0.394   2.910  14.637  0.2442 -0.0675 -0.3630
 6433SOL    HW230936   0.257   2.897  14.611 -0.0721 -1.2502  0.7120
 6434SOL     OW30937   1.993   2.237  12.179  0.2382 -0.2087  0.0210
 6434SOL    HW130938   2.028   2.204  12.097  2.3529 -0.6635  1.0984
 6434SOL    HW230939   2.062   2.205  12.237  0.5398 -0.0790 -0.2709
 6435SOL     OW30940   1.663   2.774  12.283 -0.2960 -0.6681  0.3863
 6435SOL    HW130941   1.683   2.867  12.282  0.6819 -0.8619  1.9580
 6435SOL    HW230942   1.727   2.748  12.349  0.8003  1.3032  0.0830
 6436SOL     OW30943   1.264   2.140   6.156 -0.4067 -0.1165  0.2058
 6436SOL    HW130944   1.188   2.122   6.099 -0.1355 -1.7725  0.3570
 6436SOL    HW230945   1.313   2.058   6.155 -1.5896 -0.8199 -1.3041
 6437SOL     OW30946   4.704   4.062   9.857 -0.1974 -0.4769  0.5170
 6437SOL    HW130947   0.028   4.118   9.902 -0.5344  1.2770 -1.2250
 6437SOL    HW230948   4.646   4.041   9.930  0.3977 -0.5170  0.9767
 6438SOL     OW30949   3.189   0.371   2.178  0.3367  0.0522 -0.3039
 6438SOL    HW130950   3.268   0.410   2.140  0.7553 -0.4525  0.0658
 6438SOL    HW230951   3.116   0.391   2.119 -1.2377 -0.5993  1.4455
 6439SOL     OW30952   1.284   2.188  15.854  0.1605  0.2941  0.0791
 6439SOL    HW130953   1.220   2.203  15.784 -0.5336 -0.7690  0.4974
 6439SOL    HW230954   1.307   2.281  15.859 -0.2631  0.3320  1.3037
 6440SOL     OW30955   1.855   3.796   2.500  0.4101  0.1378 -0.1650
 6440SOL    HW130956   1.919   3.736   2.539  2.7953  1.2093 -2.4063
 6440SOL    HW230957   1.891   3.883   2.513 -2.5984  1.3883 -0.1778
 6441SOL     OW30958   2.939   3.313   5.203  0.2214 -0.0759  0.3788
 6441SOL    HW130959   2.912   3.347   5.117  2.4586 -0.2312 -0.3807
 6441SOL    HW230960   2.979   3.228   5.187  0.3653  0.2707 -1.1006
 6442SOL     OW30961   1.774   0.107   8.008  0.1163 -0.0689  0.0859
 6442SOL    HW130962   1.796   0.200   8.005 -0.0671 -0.0502 -0.6656
 6442SOL    HW230963   1.809   0.083   8.094  2.4091 -1.7211 -1.2977
 6443SOL     OW30964   2.205   3.704   5.522 -0.3773 -0.4286 -0.5218
 6443SOL    HW130965   2.242   3.791   5.518 -2.8466  0.6261 -0.7708
 6443SOL    HW230966   2.244   3.665   5.444  2.6991 -1.4171  1.5132
 6444SOL     OW30967   1.455   4.578   4.432 -0.5001  0.1529 -0.5965
 6444SOL    HW130968   1.477   4.578   4.525 -0.1546  1.1656 -0.6847
 6444SOL    HW230969   1.456   4.672   4.417 -2.6472  0.2494 -0.0767
 6445SOL     OW30970   3.788   0.598   3.329  1.1665 -0.1417  0.3655
 6445SOL    HW130971   3.777   0.671   3.390  0.0888 -0.7690  0.9490
 6445SOL    HW230972   3.696   0.570   3.332  1.2005 -0.2860  0.0440
 6446SOL     OW30973   1.319   0.150  14.702 -0.4964  0.4553  0.1506
 6446SOL    HW130974   1.368   0.069  14.686 -0.0854  0.8467 -0.5595
 6446SOL    HW230975   1.266   0.140  14.623 -3.0178 -2.6250  2.2224
 6447SOL     OW30976   2.526   0.220  13.631  0.0477  0.5757 -0.0040
 6447SOL    HW130977   2.487   0.244  13.715  0.6003 -0.8015  0.6371
 6447SOL    HW230978   2.570   0.305  13.621 -0.4233  0.5644 -2.0912
 6448SOL     OW30979   4.692   3.922   4.359  0.0424 -0.0634  0.1889
 6448SOL    HW130980   4.643   3.861   4.414  0.1902 -1.0476 -0.7841
 6448SOL    HW230981   4.636   4.000   4.355 -0.7318 -0.5675  1.2602
 6449SOL     OW30982   0.976   4.539   5.834 -0.1952 -0.1623  0.2731
 6449SOL    HW130983   0.941   4.471   5.892  1.7219  0.6978  2.4431
 6449SOL    HW230984   1.057   4.560   5.881  0.5065  0.6282 -1.2818
 6450SOL     OW30985   2.699   2.385   2.812  0.4467 -0.4140 -0.4884
 6450SOL    HW130986   2.782   2.356   2.774  1.0393 -0.3143  0.7302
 6450SOL    HW230987   2.742   2.444   2.873  1.7905 -0.7591 -1.0919
 6451SOL     OW30988   1.777   3.817   8.522  0.6197 -0.2439 -0.2820
 6451SOL    HW130989   1.743   3.795   8.436 -2.4552 -1.7039  1.3262
 6451SOL    HW230990   1.724   3.895   8.539  3.1369  0.8858  2.4627
 6452SOL     OW30991   0.079   4.015   8.175  0.1705  0.8656  0.0039
 6452SOL    HW130992   0.041   3.929   8.155  0.5704  0.5938  0.4205
 6452SOL    HW230993   0.163   4.003   8.131  0.8398 -2.3633  2.1575
 6453SOL     OW30994   1.437   1.502   7.656  0.2141 -0.7566  0.0933
 6453SOL    HW130995   1.495   1.514   7.580  3.2219 -0.2224  2.4594
 6453SOL    HW230996   1.445   1.408   7.674  1.0949 -0.6251  0.3828
 6454SOL     OW30997   3.666   0.786   1.708  0.2605 -0.1992 -0.4799
 6454SOL    HW130998   3.614   0.825   1.637 -0.6954 -1.4050 -0.4568
 6454SOL    HW230999   3.717   0.720   1.660  1.0371 -0.4394  0.6893
 6455SOL     OW31000   0.659   2.547   2.225 -0.0040  0.5126 -0.2585
 6455SOL    HW131001   0.649   2.559   2.320 -2.3431  2.8416 -0.7980
 6455SOL    HW231002   0.737   2.493   2.215 -0.7689 -0.6003 -0.3225
 6456SOL     OW31003   2.379   2.130   2.043 -0.2359 -0.0586 -0.1615
 6456SOL    HW131004   2.328   2.200   2.086  1.5440  0.9302  0.3191
 6456SOL    HW231005   2.310   2.064   2.036 -2.1181  1.8905  0.0219
 6457SOL     OW31006   3.937   1.891  12.610  0.1742 -0.3201  0.4308
 6457SOL    HW131007   3.930   1.798  12.590 -0.0961 -0.4579  1.1625
 6457SOL    HW231008   4.018   1.916  12.567  0.0667  1.0804  1.0577
 6458SOL     OW31009   2.016   3.604   2.592 -0.2368 -0.4379  0.2482
 6458SOL    HW131010   2.014   3.616   2.687 -0.0101 -1.1132  0.3426
 6458SOL    HW231011   2.011   3.508   2.592  1.5272 -0.5283 -0.7280
 6459SOL     OW31012   1.110   2.797   8.747 -0.0790 -0.6447 -0.2780
 6459SOL    HW131013   1.030   2.746   8.731 -0.9057  0.5481 -0.0025
 6459SOL    HW231014   1.170   2.728   8.771 -0.9271 -0.8955  1.0876
 6460SOL     OW31015   2.337   2.364   8.734  0.4514 -0.1513 -0.5252
 6460SOL    HW131016   2.249   2.391   8.709  1.3196  0.6622 -2.6811
 6460SOL    HW231017   2.340   2.282   8.684 -0.6740 -0.5291  0.0176
 6461SOL     OW31018   1.785   2.404  13.120 -0.1221  0.3022  0.3591
 6461SOL    HW131019   1.869   2.449  13.132  0.0146  0.3828 -0.9439
 6461SOL    HW231020   1.797   2.330  13.061  0.2841 -0.4384  1.3687
 6462SOL     OW31021   4.115   2.698   7.843  0.0076 -0.1828 -0.8793
 6462SOL    HW131022   4.043   2.675   7.902  0.2768 -1.0803 -0.8905
 6462SOL    HW231023   4.123   2.789   7.870 -0.2830 -0.4762  0.2115
 6463SOL     OW31024   1.491   2.527   5.596  0.2158 -0.3070  0.3275
 6463SOL    HW131025   1.577   2.569   5.586 -0.6562  2.0271  2.5061
 6463SOL    HW231026   1.451   2.570   5.521 -2.8470 -0.0294  2.1047
 6464SOL     OW31027   1.194   3.691   9.592  0.1561  0.4308  0.0168
 6464SOL    HW131028   1.104   3.659   9.594  0.5144 -0.6327 -0.9507
 6464SOL    HW231029   1.227   3.625   9.531 -0.6447 -1.3711  1.5544
 6465SOL     OW31030   1.898   3.184   2.365 -0.0437  0.0112 -0.0818
 6465SOL    HW131031   1.922   3.254   2.304  1.9478 -1.5808 -1.1111
 6465SOL    HW231032   1.972   3.124   2.373  1.7309  2.0692 -1.1489
 6466SOL     OW31033   3.016   1.435   4.562 -0.6081 -0.4067  0.2201
 6466SOL    HW131034   2.931   1.451   4.520  1.0757  2.0658 -2.2877
 6466SOL    HW231035   3.062   1.406   4.483  1.1011  0.5348  0.8642
 6467SOL     OW31036   4.216   0.173   4.637  0.8372  0.3600  0.4059
 6467SOL    HW131037   4.203   0.083   4.667 -2.1772  1.2223  1.6712
 6467SOL    HW231038   4.129   0.197   4.604  1.0296  0.1354 -0.2790
 6468SOL     OW31039   1.569   0.896   8.477 -0.2751  0.2120 -0.2705
 6468SOL    HW131040   1.624   0.973   8.461 -1.4510  0.9518 -0.7046
 6468SOL    HW231041   1.508   0.923   8.545 -2.1562 -0.2809 -1.7767
 6469SOL     OW31042   2.970   1.206   7.237  0.2862  0.5812 -0.0506
 6469SOL    HW131043   2.914   1.275   7.204  0.1483 -0.1291 -1.2960
 6469SOL    HW231044   3.050   1.201   7.186  0.6687 -1.8082  0.7864
 6470SOL     OW31045   1.624   2.264   5.745  0.0778 -0.1288  0.3261
 6470SOL    HW131046   1.591   2.354   5.743  4.0319  1.2953  0.5247
 6470SOL    HW231047   1.597   2.236   5.657  2.1199  1.9058 -0.9402
 6471SOL     OW31048   4.488   0.912   4.303 -0.5396  1.0670  0.0389
 6471SOL    HW131049   4.506   1.002   4.329 -1.9037  1.6541 -1.0383
 6471SOL    HW231050   4.536   0.914   4.220  1.1673 -0.5522  0.9974
 6472SOL     OW31051   0.240   0.152   4.597 -0.0332  0.3501  0.4546
 6472SOL    HW131052   0.300   0.166   4.524 -0.2816 -1.3029 -0.0810
 6472SOL    HW231053   0.191   0.075   4.568  1.2765  0.0335 -0.9690
 6473SOL     OW31054   0.257   1.088   0.958 -0.3674 -0.3947  0.1214
 6473SOL    HW131055   0.222   1.011   0.913 -0.1981  0.3214 -1.2367
 6473SOL    HW231056   0.349   1.092   0.931 -0.8351  1.6549 -1.1247
 6474SOL     OW31057   2.707   2.944   7.997  0.3133  0.4088  0.5586
 6474SOL    HW131058   2.622   2.987   7.988  0.1595  0.0077  0.0751
 6474SOL    HW231059   2.735   2.948   7.906 -1.5829 -0.2705 -0.0421
 6475SOL     OW31060   2.221   0.960   2.863  0.6932 -0.6537  0.1270
 6475SOL    HW131061   2.159   0.980   2.793 -0.1552  0.5199  1.2064
 6475SOL    HW231062   2.266   1.044   2.869  1.0407 -0.6383 -2.6864
 6476SOL     OW31063   1.682   4.145   3.654  0.1039  0.3989  0.1025
 6476SOL    HW131064   1.587   4.140   3.648  0.1746 -1.2730  0.4280
 6476SOL    HW231065   1.713   4.055   3.648  0.3565  0.5610 -1.0954
 6477SOL     OW31066   3.848   0.168   1.320 -0.0202  0.6626 -0.1114
 6477SOL    HW131067   3.943   0.154   1.319  0.0254  0.9273  1.1914
 6477SOL    HW231068   3.830   0.207   1.235 -0.0140  0.5564 -0.1614
 6478SOL     OW31069   3.855   2.905  12.560 -0.1752  0.0256 -0.4577
 6478SOL    HW131070   3.791   2.835  12.573 -1.6979  1.2766 -1.1513
 6478SOL    HW231071   3.938   2.862  12.539 -0.6707 -1.1922  0.0490
 6479SOL     OW31072   2.944   0.082   7.387  0.1791 -0.3130 -0.0606
 6479SOL    HW131073   2.986   0.065   7.302  3.9584  0.0911  1.7485
 6479SOL    HW231074   2.873   0.140   7.361 -0.2042 -0.2575  1.1354
 6480SOL     OW31075   3.171   3.574   2.825  0.3075 -0.0623  0.3462
 6480SOL    HW131076   3.152   3.666   2.809 -2.2273 -0.9058 -1.6475
 6480SOL    HW231077   3.226   3.571   2.903  1.5547 -0.0561 -0.5417
 6481SOL     OW31078   2.075   2.332   3.850 -0.4896 -0.0219 -0.3988
 6481SOL    HW131079   2.119   2.258   3.809  0.4522  0.0566  0.4463
 6481SOL    HW231080   2.015   2.282   3.906 -0.4708  0.7752  0.3344
 6482SOL     OW31081   0.961   4.169   8.849 -0.1781 -0.1600 -0.5287
 6482SOL    HW131082   0.878   4.128   8.823  0.9561 -1.5747 -1.8943
 6482SOL    HW231083   0.986   4.221   8.772  2.5989 -2.7943 -1.3918
 6483SOL     OW31084   2.193   1.032   9.266 -0.3528 -0.0777 -0.9924
 6483SOL    HW131085   2.160   0.944   9.248 -0.5625 -0.4255  1.0382
 6483SOL    HW231086   2.140   1.089   9.211  0.3096  0.7467 -0.7670
 6484SOL     OW31087   3.526   2.381   9.772 -0.3709 -0.1397  0.2255
 6484SOL    HW131088   3.498   2.459   9.819  2.2625  0.6362  0.5125
 6484SOL    HW231089   3.599   2.355   9.828 -0.4562 -1.9317 -0.4752
 6485SOL     OW31090   2.879   3.759   8.285 -0.0192 -0.5428 -0.1347
 6485SOL    HW131091   2.806   3.805   8.328 -0.2143 -2.3154  1.4309
 6485SOL    HW231092   2.894   3.708   8.365  1.2184  1.2399  0.7751
 6486SOL     OW31093   0.765   2.250   4.134  0.4064 -0.2515 -0.0068
 6486SOL    HW131094   0.671   2.272   4.132  1.1199  2.8669  0.5764
 6486SOL    HW231095   0.766   2.156   4.151 -0.1996 -0.3932 -0.7235
 6487SOL     OW31096   3.343   3.850  14.292 -0.8267  0.3876  0.2693
 6487SOL    HW131097   3.323   3.943  14.278  1.0199  0.8163  0.5501
 6487SOL    HW231098   3.438   3.848  14.293 -0.8460 -1.4776 -2.7512
 6488SOL     OW31099   0.453   3.527   7.172  0.2228  0.7173  0.1731
 6488SOL    HW131100   0.383   3.591   7.159  1.2430  2.3873  2.9871
 6488SOL    HW231101   0.518   3.586   7.135 -0.4769  1.9529  0.9513
 6489SOL     OW31102   0.493   3.339   8.009 -0.2873 -0.0702 -0.2550
 6489SOL    HW131103   0.453   3.309   8.090 -1.2420 -2.2098 -1.5091
 6489SOL    HW231104   0.511   3.431   8.030 -1.3463  0.7060 -2.6883
 6490SOL     OW31105   4.262   3.540   4.533  0.2973  0.0548 -0.3059
 6490SOL    HW131106   4.203   3.465   4.539  0.6462 -0.0792  1.3872
 6490SOL    HW231107   4.259   3.575   4.622  1.3229 -2.0339  0.5375
 6491SOL     OW31108   4.293   4.719   1.801  0.4417  0.4974  0.5044
 6491SOL    HW131109   4.377   4.682   1.776 -1.1728 -2.2815 -0.7372
 6491SOL    HW231110   4.299   0.069   1.766 -3.1702  0.8108  0.6457
 6492SOL     OW31111   2.790   2.964   7.739  0.0346 -0.0974  0.3865
 6492SOL    HW131112   2.860   3.016   7.701 -0.6979  0.3069 -0.4056
 6492SOL    HW231113   2.784   2.886   7.684 -1.1224 -0.3206  0.8171
 6493SOL     OW31114   2.449   4.608   2.665  0.4064  0.3198  0.4076
 6493SOL    HW131115   2.385   4.614   2.595 -1.2699  0.7984  1.9948
 6493SOL    HW231116   2.534   4.616   2.620 -0.4411  1.1747 -1.0285
 6494SOL     OW31117   3.391   0.678   6.572  0.1825  0.2731  0.1014
 6494SOL    HW131118   3.485   0.668   6.563  0.0352  0.1084 -1.2718
 6494SOL    HW231119   3.371   0.600   6.623 -2.1476  0.2388 -0.8522
 6495SOL     OW31120   1.401   2.469   4.134  0.5311 -0.1318  0.8976
 6495SOL    HW131121   1.395   2.461   4.039 -1.1572 -1.1357  1.0900
 6495SOL    HW231122   1.382   2.562   4.144  1.2515 -0.0150  1.1554
 6496SOL     OW31123   3.395   4.085  12.001 -0.5359  0.4669 -0.1873
 6496SOL    HW131124   3.490   4.097  12.007 -0.2583 -1.3704 -0.6910
 6496SOL    HW231125   3.368   4.176  11.991  0.8384  0.9758  0.7110
 6497SOL     OW31126   3.145   2.034   9.153 -0.4052 -0.5712 -0.6497
 6497SOL    HW131127   3.143   1.961   9.216  1.6403  1.1091  1.3656
 6497SOL    HW231128   3.089   1.994   9.086  0.9492 -2.1019 -0.8802
 6498SOL     OW31129   1.915   1.377   4.614 -0.2214 -0.0026 -0.5306
 6498SOL    HW131130   1.879   1.358   4.528 -0.9070 -1.2982  0.0328
 6498SOL    HW231131   1.925   1.472   4.605 -0.1251  0.0740  0.3612
 6499SOL     OW31132   2.592   1.507   4.059 -0.3482  0.5464  0.2376
 6499SOL    HW131133   2.564   1.430   4.009 -1.0344 -0.2743  1.8786
 6499SOL    HW231134   2.528   1.569   4.024  2.7149  2.5644 -1.7593
 6500SOL     OW31135   0.664   1.211   2.750  0.3836 -0.1422  0.0621
 6500SOL    HW131136   0.750   1.232   2.786  0.7734  0.1000 -1.0094
 6500SOL    HW231137   0.685   1.213   2.656 -0.1838 -2.0127 -0.1071
 6501SOL     OW31138   2.609   3.210   9.676 -0.4057  0.2949 -0.0140
 6501SOL    HW131139   2.680   3.188   9.615 -2.0173 -2.3003 -0.9786
 6501SOL    HW231140   2.560   3.129   9.692  1.1730 -0.8227 -0.7067
 6502SOL     OW31141   1.130   3.071  17.601 -0.2262 -0.4202 -0.9109
 6502SOL    HW131142   1.199   3.074  17.666 -2.6071 -1.7787  1.6771
 6502SOL    HW231143   1.050   3.078  17.653  1.2530  2.7280  0.9531
 6503SOL     OW31144   0.367   1.943   3.678 -0.0243  0.2249 -0.1482
 6503SOL    HW131145   0.358   1.851   3.652  0.4288  0.1568 -0.0707
 6503SOL    HW231146   0.361   1.986   3.592  1.3301  1.1093  0.1936
 6504SOL     OW31147   0.144   1.069   5.866 -0.1137 -0.3392 -0.1426
 6504SOL    HW131148   0.140   1.148   5.812 -2.4033  0.1019  0.6916
 6504SOL    HW231149   0.067   1.075   5.921 -0.5884  0.5451 -0.9088
 6505SOL     OW31150   2.966   0.432   2.333  0.6023  0.1639 -0.1572
 6505SOL    HW131151   3.004   0.359   2.283  0.1265  0.1421 -0.4959
 6505SOL    HW231152   2.979   0.403   2.423 -0.1793  2.5222  0.7027
 6506SOL     OW31153   3.566   0.734   1.336 -0.1315  0.2305 -0.2792
 6506SOL    HW131154   3.527   0.665   1.390  0.6453 -0.4575 -0.5895
 6506SOL    HW231155   3.616   0.679   1.274 -0.7510 -1.3272  0.6121
 6507SOL     OW31156   0.654   1.592   6.529  0.0521 -0.3347 -0.1303
 6507SOL    HW131157   0.569   1.623   6.560  0.7160  1.3272  0.0779
 6507SOL    HW231158   0.655   1.498   6.543 -1.9599 -0.2624  0.3841
 6508SOL     OW31159   1.014   1.487   8.758 -0.1731  0.7653 -0.2844
 6508SOL    HW131160   0.979   1.483   8.846 -0.0010 -2.2248 -0.3431
 6508SOL    HW231161   1.103   1.455   8.777 -0.7442 -0.3622  0.4908
 6509SOL     OW31162   3.327   2.830   8.153 -0.1667 -0.3227  0.3114
 6509SOL    HW131163   3.268   2.903   8.173 -0.5397 -0.5851  0.1718
 6509SOL    HW231164   3.400   2.840   8.213  0.0422 -2.5643  0.4213
 6510SOL     OW31165   0.319   3.000   8.758  0.5166  0.1481  0.1556
 6510SOL    HW131166   0.315   3.075   8.818  2.3650  0.2605  0.1603
 6510SOL    HW231167   0.392   2.958   8.804 -1.2352 -1.0514  1.8102
 6511SOL     OW31168   2.103   2.633   4.968  0.3426 -0.2374 -0.4337
 6511SOL    HW131169   2.111   2.537   4.968 -1.4750 -0.3829 -2.2878
 6511SOL    HW231170   2.128   2.641   5.060 -0.4506 -0.1430 -0.2299
 6512SOL     OW31171   4.567   0.873   7.000 -0.0111  0.0749  0.1054
 6512SOL    HW131172   4.493   0.835   6.954  1.1153 -1.7854 -0.1370
 6512SOL    HW231173   4.536   0.850   7.088 -0.3884  0.5200  0.0923
 6513SOL     OW31174   3.650   0.515   6.380  0.1738 -0.5948  0.2472
 6513SOL    HW131175   3.658   0.611   6.376  0.5003 -0.6432 -0.1936
 6513SOL    HW231176   3.605   0.490   6.299  1.9827  0.5950 -1.1126
 6514SOL     OW31177   2.702   3.831   8.924  0.0753 -0.1297  0.6267
 6514SOL    HW131178   2.629   3.881   8.962 -0.7633 -0.2718 -0.7993
 6514SOL    HW231179   2.663   3.821   8.838  0.0164 -1.0117  0.7539
 6515SOL     OW31180   0.551   2.968  10.226 -0.0967 -0.2627  0.3225
 6515SOL    HW131181   0.467   2.996  10.261 -0.6785  0.7076 -1.8278
 6515SOL    HW231182   0.614   2.992  10.294  1.5469  0.2493 -1.3659
 6516SOL     OW31183   4.298   0.961   8.922 -0.1918 -0.5734  0.3569
 6516SOL    HW131184   4.307   1.050   8.890  2.0907 -1.5004 -1.5833
 6516SOL    HW231185   4.226   0.930   8.866 -0.8045  0.4224  0.6003
 6517SOL     OW31186   4.273   3.604   5.059  0.4796  0.2130 -0.0454
 6517SOL    HW131187   4.184   3.573   5.042  0.3705 -1.0694  3.0286
 6517SOL    HW231188   4.290   3.612   4.965 -0.8086  0.6053 -0.2452
 6518SOL     OW31189   2.386   0.755  11.207  0.3803 -0.1639  0.3284
 6518SOL    HW131190   2.378   0.811  11.283  0.8516  0.7324 -0.2883
 6518SOL    HW231191   2.481   0.746  11.202  0.4366  0.9292 -0.5280
 6519SOL     OW31192   3.207   1.440   5.376 -0.6500 -0.2210 -0.0362
 6519SOL    HW131193   3.166   1.495   5.310 -1.0526  0.1509  0.5214
 6519SOL    HW231194   3.141   1.371   5.373 -0.5316 -0.4514  2.0502
 6520SOL     OW31195   3.726   1.162   4.934 -0.3270 -0.6007 -0.8063
 6520SOL    HW131196   3.631   1.150   4.932 -0.7475  2.5288 -1.1340
 6520SOL    HW231197   3.745   1.255   4.921  0.4244 -0.6607 -0.0877
 6521SOL     OW31198   4.389   1.234   7.513 -0.0929  0.1758 -0.6742
 6521SOL    HW131199   4.342   1.237   7.596  1.6594  1.1688  0.2874
 6521SOL    HW231200   4.477   1.238   7.551 -0.4086 -2.4263  0.3519
 6522SOL     OW31201   2.186   2.644   8.996 -0.4634  0.3623  0.2630
 6522SOL    HW131202   2.197   2.704   9.070 -0.3813  0.6246  0.0387
 6522SOL    HW231203   2.275   2.633   8.964 -0.0531  0.2409  1.4373
 6523SOL     OW31204   3.422   0.028  10.469 -0.3695  0.1111  0.3954
 6523SOL    HW131205   3.391   4.681  10.497 -0.1409 -1.2530 -3.5409
 6523SOL    HW231206   3.510   0.032  10.507  0.4198  1.1397 -1.5525
 6524SOL     OW31207   1.176   4.689   5.987 -0.0396 -0.1971 -0.0583
 6524SOL    HW131208   1.099   4.710   6.039 -1.5490 -1.5043 -1.7885
 6524SOL    HW231209   1.238   0.021   6.007 -0.3620  0.2100 -0.5078
 6525SOL     OW31210   2.333   1.986  14.299 -0.0526 -0.0379 -0.9960
 6525SOL    HW131211   2.314   2.009  14.390  0.2405  0.2571 -1.0132
 6525SOL    HW231212   2.389   2.054  14.263 -1.3441 -0.6484 -4.1429
 6526SOL     OW31213   0.180   3.565  16.216  0.3872 -0.4469 -0.5745
 6526SOL    HW131214   0.196   3.659  16.205  0.2838 -0.3274  0.2942
 6526SOL    HW231215   0.194   3.563  16.311  0.3874  1.8678 -0.5137
 6527SOL     OW31216   0.218   2.885  17.208 -0.2244 -0.3639  0.0009
 6527SOL    HW131217   0.167   2.857  17.132 -1.4664  0.2142  0.6080
 6527SOL    HW231218   0.242   2.973  17.178  0.7948 -1.4881 -2.4841
 6528SOL     OW31219   2.312   1.987  14.747  0.5183 -0.5307  0.5466
 6528SOL    HW131220   2.269   1.983  14.661  1.0207  0.4637  0.2470
 6528SOL    HW231221   2.247   2.047  14.785 -0.6546 -1.8543  0.6389
 6529SOL     OW31222   4.557   0.759   0.592  0.3637 -0.7954  0.1918
 6529SOL    HW131223   4.518   0.692   0.536 -1.2312 -0.5143  0.9696
 6529SOL    HW231224   4.640   0.714   0.604  1.3419  0.4958 -1.6404
 6530SOL     OW31225   4.725   1.393  16.305  0.2587 -0.2337  0.3544
 6530SOL    HW131226   4.666   1.318  16.313 -0.3355 -0.0741 -2.4158
 6530SOL    HW231227   0.056   1.371  16.367  0.5100  0.8198  0.4509
 6531SOL     OW31228   0.172   4.403   4.699  0.3884  0.1139  0.1996
 6531SOL    HW131229   0.140   4.430   4.785 -1.0489 -1.5219  0.1749
 6531SOL    HW231230   0.123   4.321   4.691  0.3827  0.0101  1.3812
 6532SOL     OW31231   3.902   0.595  11.565 -0.4445  0.3021  0.6648
 6532SOL    HW131232   3.872   0.533  11.631 -1.6581 -0.1460 -0.3203
 6532SOL    HW231233   3.987   0.622  11.599 -0.6069  0.6850  0.7600
 6533SOL     OW31234   4.259   2.976   6.428 -0.5451 -0.0558 -0.3810
 6533SOL    HW131235   4.217   3.010   6.349  1.2726  0.7742 -0.9995
 6533SOL    HW231236   4.232   3.025   6.506 -1.6356 -1.9796  0.4578
 6534SOL     OW31237   0.230   0.013   7.350 -0.0778  0.1953 -0.5835
 6534SOL    HW131238   0.244   4.658   7.361  0.6917  0.8505  3.9700
 6534SOL    HW231239   0.135   0.024   7.362  0.2443  2.1844  0.2277
 6535SOL     OW31240   1.639   4.642   7.537  0.8801  0.1416 -0.2382
 6535SOL    HW131241   1.629   4.690   7.619  1.8935 -0.8191  0.4544
 6535SOL    HW231242   1.599   4.559   7.565 -0.3501  0.0729 -2.2953
 6536SOL     OW31243   2.440   2.541  10.511  0.2270  0.4720 -0.3554
 6536SOL    HW131244   2.446   2.517  10.603  0.5974  1.2322 -0.1756
 6536SOL    HW231245   2.505   2.476  10.484 -0.0963  0.2100 -0.5012
 6537SOL     OW31246   0.815   4.015   3.565  0.1642  0.2099  0.0730
 6537SOL    HW131247   0.732   3.969   3.551  0.3367 -0.8539  2.6211
 6537SOL    HW231248   0.787   4.105   3.581  0.1165  0.6757 -2.5710
 6538SOL     OW31249   1.407   0.976   6.880  0.0916 -0.1428  0.6635
 6538SOL    HW131250   1.460   0.930   6.816  1.0943  0.5195  1.0197
 6538SOL    HW231251   1.462   1.053   6.897 -0.2502  0.2137  0.1541
 6539SOL     OW31252   0.643   0.487  10.486  0.2606  0.2518 -0.0835
 6539SOL    HW131253   0.575   0.546  10.518  0.1706 -0.0774  0.3376
 6539SOL    HW231254   0.596   0.407  10.460  2.4472 -1.0682  0.0140
 6540SOL     OW31255   3.917   3.152  12.722 -0.3335  0.5647  0.3103
 6540SOL    HW131256   3.935   3.246  12.716  1.0186  0.3330  0.7921
 6540SOL    HW231257   3.976   3.109  12.659  1.1691  2.6812  0.2729
 6541SOL     OW31258   0.457   0.539  13.081 -0.1452  0.2294 -0.0361
 6541SOL    HW131259   0.524   0.603  13.105 -3.8315  3.2665  1.9697
 6541SOL    HW231260   0.491   0.455  13.113 -2.7708 -0.1977  1.5708
 6542SOL     OW31261   0.716   3.062  10.021 -0.0558  0.1103 -0.2026
 6542SOL    HW131262   0.685   3.038   9.934 -1.0986 -0.8375  0.4236
 6542SOL    HW231263   0.655   3.018  10.080 -0.3143 -1.7471 -1.8588
 6543SOL     OW31264   0.097   0.601   4.451 -0.9499  0.3134  0.0737
 6543SOL    HW131265   0.064   0.555   4.528  0.1793 -1.6301 -0.5942
 6543SOL    HW231266   0.018   0.620   4.402  0.5471  0.3187 -2.3347
 6544SOL     OW31267   1.429   3.881   4.598  0.5301  0.2392 -0.1576
 6544SOL    HW131268   1.383   3.819   4.654  0.3047  1.0400  0.5574
 6544SOL    HW231269   1.498   3.823   4.567  1.3792  1.3983 -0.4650
 6545SOL     OW31270   0.922   3.365   2.457 -0.2050  0.1715  0.0972
 6545SOL    HW131271   0.829   3.352   2.441  0.2010 -0.5750 -1.7054
 6545SOL    HW231272   0.961   3.286   2.419 -1.5248 -0.1472 -0.5995
 6546SOL     OW31273   1.098   2.121  13.615  0.2083  0.6186  0.6639
 6546SOL    HW131274   1.174   2.068  13.640  0.4900  0.2773 -0.9013
 6546SOL    HW231275   1.131   2.208  13.637 -1.0472  0.5650  2.7470
 6547SOL     OW31276   1.042   0.163   8.096  0.4023 -0.5530  0.4222
 6547SOL    HW131277   1.062   0.202   8.011  1.6245 -0.8510  0.5632
 6547SOL    HW231278   1.126   0.129   8.129  0.5416  0.1195  0.7646
 6548SOL     OW31279   2.362   0.382   8.528 -0.2387  0.0588  0.5476
 6548SOL    HW131280   2.362   0.358   8.620 -2.8828 -1.9652  0.0058
 6548SOL    HW231281   2.309   0.461   8.534 -0.4449  0.1591 -2.2654
 6549SOL     OW31282   1.968   0.878  17.435 -0.4915 -0.5302  0.0312
 6549SOL    HW131283   2.024   0.896  17.511  0.4555 -0.8881 -0.5701
 6549SOL    HW231284   2.002   0.797  17.396 -0.7745 -1.0231  0.8072
 6550SOL     OW31285   2.426   3.592  15.387  0.2622  0.3535 -0.0174
 6550SOL    HW131286   2.479   3.623  15.313 -2.5733  0.4728 -2.0103
 6550SOL    HW231287   2.410   3.667  15.444  0.7154 -0.3685  1.0640
 6551SOL     OW31288   1.770   3.728  13.275  0.3110 -0.2618 -0.3026
 6551SOL    HW131289   1.750   3.821  13.285  0.1802 -0.1964 -1.2134
 6551SOL    HW231290   1.751   3.692  13.362 -0.9681  0.4093 -0.3112
 6552SOL     OW31291   0.207   0.509   4.896 -0.1913  0.1265 -0.2848
 6552SOL    HW131292   0.160   0.463   4.826  0.4720 -0.5132 -0.3063
 6552SOL    HW231293   0.203   0.441   4.964  0.2122 -0.4772 -0.8641
 6553SOL     OW31294   2.932   1.960   3.519 -0.2533 -0.0467  0.6467
 6553SOL    HW131295   2.932   1.963   3.424  0.1878 -3.4770  0.5467
 6553SOL    HW231296   2.953   2.050   3.544 -0.3302  0.4313 -1.0578
 6554SOL     OW31297   4.321   1.743  15.569  0.1121 -0.0058 -1.0235
 6554SOL    HW131298   4.399   1.745  15.513  0.9870 -1.7055  0.1059
 6554SOL    HW231299   4.343   1.705  15.654  0.8885  0.4035 -1.0421
 6555SOL     OW31300   3.073   2.474  10.636 -0.6577  0.0223 -0.1270
 6555SOL    HW131301   3.115   2.520  10.563  2.4035 -4.5621 -1.3114
 6555SOL    HW231302   2.982   2.492  10.612 -0.3738  0.2945 -0.9887
 6556SOL     OW31303   4.444   2.386   2.370 -0.4277 -0.5996 -0.1232
 6556SOL    HW131304   4.435   2.304   2.418 -0.0111 -0.1499  0.7117
 6556SOL    HW231305   4.501   2.361   2.297  2.0902 -1.9450  2.3319
 6557SOL     OW31306   0.738   1.701   9.154 -0.2509  0.0906  0.2163
 6557SOL    HW131307   0.660   1.754   9.139 -0.7556 -0.2480  1.6708
 6557SOL    HW231308   0.809   1.744   9.107 -1.1874  2.2663  0.8237
 6558SOL     OW31309   0.379   4.007   1.785 -0.1220 -0.1378 -0.1785
 6558SOL    HW131310   0.355   4.009   1.878 -3.0437  1.6906 -0.9929
 6558SOL    HW231311   0.320   3.951   1.735 -1.2860 -1.8474  3.1219
 6559SOL     OW31312   3.127   1.423   7.051  0.2104  0.6195 -0.5439
 6559SOL    HW131313   3.035   1.442   7.071  0.0438 -0.3299 -0.4287
 6559SOL    HW231314   3.123   1.336   7.013 -1.8387  1.1437 -1.5293
 6560SOL     OW31315   1.963   1.771   2.253 -0.2322  0.0971 -0.1928
 6560SOL    HW131316   2.030   1.838   2.241 -1.3574  1.2809  0.0142
 6560SOL    HW231317   1.904   1.806   2.320  1.1720 -0.2511  1.2089
 6561SOL     OW31318   4.656   1.335   5.888 -0.0137 -0.4265  0.0357
 6561SOL    HW131319   4.700   1.331   5.973 -0.8883  0.5707  0.5456
 6561SOL    HW231320   4.577   1.387   5.907 -1.4818 -2.2349 -1.1413
 6562SOL     OW31321   4.479   3.325   4.330 -0.5910 -0.6378  0.0144
 6562SOL    HW131322   4.454   3.282   4.247 -0.6740 -1.7370  0.6103
 6562SOL    HW231323   4.528   3.264   4.385 -0.1537 -0.4928 -0.2164
 6563SOL     OW31324   0.421   0.390   7.841  0.1762 -0.3844  0.3682
 6563SOL    HW131325   0.477   0.371   7.916 -0.8231 -3.5517  0.2744
 6563SOL    HW231326   0.425   0.486   7.839 -0.3701 -0.3205  2.2249
 6564SOL     OW31327   0.078   0.902   0.801  0.2240 -0.0557  1.1574
 6564SOL    HW131328   0.002   0.916   0.857  0.0537 -0.3571  0.9975
 6564SOL    HW231329   0.081   0.807   0.796  1.1740  0.0665 -0.4479
 6565SOL     OW31330   1.176   3.624   8.850  0.4172 -0.9273 -0.1170
 6565SOL    HW131331   1.149   3.572   8.774 -2.1520  1.9622 -1.1869
 6565SOL    HW231332   1.117   3.698   8.837 -1.6428 -2.2644  1.6086
 6566SOL     OW31333   3.563   1.647   2.083  0.3705  0.0778  0.3518
 6566SOL    HW131334   3.583   1.697   2.004  0.7832  1.7387  1.5171
 6566SOL    HW231335   3.636   1.586   2.092  0.1317 -0.3033 -0.3323
 6567SOL     OW31336   1.069   0.561   9.114  0.1485  0.8244 -0.9334
 6567SOL    HW131337   1.027   0.606   9.041  0.7480 -0.6350 -2.1640
 6567SOL    HW231338   0.995   0.504   9.136  0.4718  1.8684  2.9167
 6568SOL     OW31339   4.726   0.082   7.113  0.0243 -0.2114 -0.0638
 6568SOL    HW131340   4.690   0.043   7.193  0.5503 -2.5023 -0.9438
 6568SOL    HW231341   0.048   0.149   7.146 -0.7742 -0.9936  2.9822
 6569SOL     OW31342   2.994   2.449   5.182  0.3670 -0.4662  0.3427
 6569SOL    HW131343   3.052   2.391   5.133  0.0159 -1.3021  0.9178
 6569SOL    HW231344   3.056   2.482   5.246  0.0640 -0.7688  0.7921
 6570SOL     OW31345   0.443   3.359   9.179 -0.2220  0.9939 -0.0602
 6570SOL    HW131346   0.406   3.310   9.251 -2.2748  1.3459 -0.8864
 6570SOL    HW231347   0.536   3.337   9.187 -0.1953  1.0720 -0.1517
 6571SOL     OW31348   3.066   0.867   1.058 -0.3073  0.1023 -0.4304
 6571SOL    HW131349   3.101   0.942   1.010  0.0559  0.7894  0.9107
 6571SOL    HW231350   3.109   0.885   1.142  0.0668 -0.6018 -0.4735
 6572SOL     OW31351   3.812   2.120   5.917 -0.3444 -0.0268  0.0884
 6572SOL    HW131352   3.821   2.117   6.012  0.6036 -1.7263 -0.0640
 6572SOL    HW231353   3.771   2.206   5.903  1.0986  0.3526 -1.8852
 6573SOL     OW31354   1.723   0.109   4.925 -0.2630  0.6074 -0.0610
 6573SOL    HW131355   1.692   0.028   4.965 -0.4137  1.0462  0.6993
 6573SOL    HW231356   1.815   0.092   4.942 -0.1201  0.7145 -0.7274
 6574SOL     OW31357   0.152   4.327   4.320 -0.0285  0.2092 -0.3401
 6574SOL    HW131358   0.159   4.417   4.350 -1.1991  1.0664 -2.6059
 6574SOL    HW231359   0.070   4.341   4.272 -0.5794  2.2782  1.1959
 6575SOL     OW31360   0.039   0.962   9.483 -0.4775 -0.1527  0.7289
 6575SOL    HW131361   0.114   0.933   9.533  2.9489  2.4507 -2.9040
 6575SOL    HW231362   0.044   0.935   9.391 -0.7406  0.9506  0.3790
 6576SOL     OW31363   3.213   0.689   2.649 -0.1988  0.3792  0.0344
 6576SOL    HW131364   3.132   0.654   2.686 -1.6830  0.9997 -2.6035
 6576SOL    HW231365   3.282   0.653   2.704  1.2577 -0.6758 -2.4737
 6577SOL     OW31366   3.314   4.165   5.611 -0.6016  0.6021  0.0943
 6577SOL    HW131367   3.232   4.145   5.566 -1.1115  0.6537  1.0075
 6577SOL    HW231368   3.280   4.240   5.661  2.1964  1.8378  0.1345
 6578SOL     OW31369   4.424   4.007   2.876 -0.4153  0.4539  0.2226
 6578SOL    HW131370   4.429   3.988   2.970  1.0343  1.7808  0.4322
 6578SOL    HW231371   4.330   4.024   2.871 -0.4107  0.2022 -0.6337
 6579SOL     OW31372   0.689   1.434   4.194  0.3837  0.8318 -0.0742
 6579SOL    HW131373   0.730   1.377   4.259  0.5231  1.3960  0.3258
 6579SOL    HW231374   0.604   1.434   4.239  0.7471  1.7537  0.6093
 6580SOL     OW31375   4.662   0.710  11.592  0.1717  0.4595 -0.1283
 6580SOL    HW131376   4.623   0.676  11.673  1.3448 -1.2326 -0.2890
 6580SOL    HW231377   4.716   0.634  11.570  0.6021  0.5800  0.5173
 6581SOL     OW31378   2.222   0.378   4.052 -0.4731  1.2285 -0.1416
 6581SOL    HW131379   2.150   0.438   4.073 -1.4366  0.7812 -2.1905
 6581SOL    HW231380   2.222   0.310   4.119  1.5439 -0.0601 -1.4671
 6582SOL     OW31381   4.688   3.016   3.368 -0.4955  0.5756 -0.7327
 6582SOL    HW131382   4.608   3.057   3.336  0.2405  1.9489 -0.8194
 6582SOL    HW231383   4.737   3.095   3.388  0.1884 -0.7896  2.8730
 6583SOL     OW31384   2.909   3.216   1.715 -0.1669  0.7768 -0.3895
 6583SOL    HW131385   2.992   3.252   1.682 -0.0733 -0.8452 -1.8944
 6583SOL    HW231386   2.902   3.132   1.671  0.0975  1.6979 -2.2077
 6584SOL     OW31387   3.522   0.730   7.571  0.0038  0.2375  0.5302
 6584SOL    HW131388   3.457   0.765   7.510 -0.0937 -1.7610 -0.5029
 6584SOL    HW231389   3.598   0.787   7.556 -0.8641  0.8490 -1.5436
 6585SOL     OW31390   3.201   0.358   9.867  0.1222  0.5244 -0.1932
 6585SOL    HW131391   3.114   0.327   9.891 -0.7141  2.1552 -1.1863
 6585SOL    HW231392   3.236   0.273   9.838  0.5803  0.9229 -0.8103
 6586SOL     OW31393   3.668   0.084   9.590 -0.0101 -0.1176  0.3358
 6586SOL    HW131394   3.722   0.138   9.647  0.1429  0.7448 -0.6110
 6586SOL    HW231395   3.646   0.015   9.653 -2.5607 -0.6635 -1.1436
 6587SOL     OW31396   1.861   2.785   6.047 -0.4085 -0.3997  0.3003
 6587SOL    HW131397   1.951   2.818   6.051 -1.0866  1.6672 -0.9919
 6587SOL    HW231398   1.886   2.694   6.054  1.1199 -0.0333 -0.4647
 6588SOL     OW31399   0.454   2.662   3.621 -0.0016 -0.0207  0.1194
 6588SOL    HW131400   0.523   2.699   3.677  0.0309 -2.0777  1.4322
 6588SOL    HW231401   0.507   2.635   3.546  1.8705  2.6041  0.5131
 6589SOL     OW31402   3.280   1.172  13.987  0.1986  0.0766 -0.4302
 6589SOL    HW131403   3.268   1.264  14.008 -3.3417 -0.3216 -0.7232
 6589SOL    HW231404   3.223   1.158  13.911 -1.3139  1.3574  0.4714
 6590SOL     OW31405   4.513   0.428   2.451  0.1378 -0.2587  0.1271
 6590SOL    HW131406   4.500   0.360   2.385  0.8308 -0.7980  0.5405
 6590SOL    HW231407   4.475   0.501   2.403 -0.2134 -1.0455 -0.7970
 6591SOL     OW31408   3.672   2.162   8.465 -0.2587 -0.7016  0.4497
 6591SOL    HW131409   3.697   2.216   8.540 -2.8237 -0.8457  1.4062
 6591SOL    HW231410   3.648   2.223   8.396 -0.3009  0.0001  1.0902
 6592SOL     OW31411   1.040   1.679   4.229 -0.5122 -0.2766 -0.0567
 6592SOL    HW131412   0.958   1.702   4.273 -0.1249  1.7561 -0.3885
 6592SOL    HW231413   1.102   1.660   4.299  1.0968 -0.6443 -1.5811
 6593SOL     OW31414   4.011   1.667   7.176 -0.2001 -0.5437  0.0488
 6593SOL    HW131415   3.979   1.638   7.090 -1.9339 -1.1873  0.9055
 6593SOL    HW231416   4.048   1.583   7.204 -2.2677 -1.8262 -1.0046
 6594SOL     OW31417   2.018   2.397  13.682  0.3033  0.5480 -0.1596
 6594SOL    HW131418   2.070   2.347  13.745 -0.3213  1.3601  1.0089
 6594SOL    HW231419   1.973   2.464  13.733  0.9727 -0.5727  1.8810
 6595SOL     OW31420   1.855   0.803   8.435  0.4257  0.4586 -0.1973
 6595SOL    HW131421   1.914   0.845   8.498 -0.9759  2.2740 -0.0953
 6595SOL    HW231422   1.769   0.838   8.457  1.9274  2.5028  2.4255
 6596SOL     OW31423   3.388   4.509   2.948 -0.5373 -0.2428 -0.0748
 6596SOL    HW131424   3.368   4.589   2.996  0.4967 -0.5146  0.7822
 6596SOL    HW231425   3.390   4.453   3.025  1.4117 -2.0632 -1.4572
 6597SOL     OW31426   3.021   3.576   4.782 -0.6827  0.5066  0.1211
 6597SOL    HW131427   3.044   3.633   4.708 -0.0226  2.2560  1.6623
 6597SOL    HW231428   2.944   3.622   4.817 -1.5650 -1.5468  0.8749
 6598SOL     OW31429   3.894   3.966   6.896 -0.8426 -0.1819 -0.3320
 6598SOL    HW131430   3.864   4.046   6.853 -0.4586 -0.4251 -1.0638
 6598SOL    HW231431   3.877   3.972   6.990 -0.7361  0.6130 -0.3656
 6599SOL     OW31432   0.277   0.934   8.282  0.2869  0.2479  0.3254
 6599SOL    HW131433   0.358   0.943   8.233 -0.5523 -0.4637 -1.1610
 6599SOL    HW231434   0.215   0.944   8.210 -0.4531  1.1089  1.0844
 6600SOL     OW31435   2.069   3.043   4.697 -0.3384 -0.2282  0.4121
 6600SOL    HW131436   2.016   2.983   4.644 -1.4316  1.0052  0.1074
 6600SOL    HW231437   2.148   2.991   4.707  1.2592  1.7630 -1.7940
 6601SOL     OW31438   2.532   3.559   8.721 -0.2526 -0.3766  0.6214
 6601SOL    HW131439   2.500   3.578   8.809 -1.8600 -0.2289  0.0183
 6601SOL    HW231440   2.623   3.585   8.716 -0.5911  0.5276 -1.0278
 6602SOL     OW31441   1.285   0.814   4.584  0.0879 -0.1986 -0.4135
 6602SOL    HW131442   1.330   0.836   4.666 -0.1700 -1.9872  0.2040
 6602SOL    HW231443   1.261   0.722   4.594 -0.3080 -0.3014 -2.4611
 6603SOL     OW31444   0.401   2.617   8.411 -0.8545  0.1709  0.2765
 6603SOL    HW131445   0.437   2.653   8.491  2.7414 -1.2780 -0.7027
 6603SOL    HW231446   0.383   2.526   8.432  0.0435  0.1044  0.7367
 6604SOL     OW31447   3.536   2.234   6.863  0.1572  0.2544  0.6540
 6604SOL    HW131448   3.544   2.289   6.941  1.3250 -1.2187  1.5953
 6604SOL    HW231449   3.536   2.149   6.908 -0.3269  0.1781  0.5055
 6605SOL     OW31450   3.499   1.239   5.636 -0.3281  0.9933  0.2895
 6605SOL    HW131451   3.419   1.197   5.669  0.6957 -0.0979  1.4359
 6605SOL    HW231452   3.540   1.280   5.713  0.8883 -1.7978  1.1339
 6606SOL     OW31453   0.686   0.921   6.595 -0.4454 -0.3912 -0.6528
 6606SOL    HW131454   0.753   0.989   6.595 -1.7591  0.8933  0.3302
 6606SOL    HW231455   0.731   0.852   6.644 -2.0881 -1.6081 -0.8369
 6607SOL     OW31456   1.871   4.125   1.750 -0.2925  0.1989 -0.3106
 6607SOL    HW131457   1.949   4.170   1.716 -1.7233  1.1970 -2.2748
 6607SOL    HW231458   1.846   4.186   1.819  0.8918  0.4240 -0.0819
 6608SOL     OW31459   1.380   1.452   2.742 -0.1272 -0.3176  0.0788
 6608SOL    HW131460   1.363   1.444   2.648 -0.2966  2.0705 -0.1121
 6608SOL    HW231461   1.297   1.493   2.767 -0.7180 -2.0051  0.8683
 6609SOL     OW31462   0.827   0.382   3.578 -0.0889 -0.2750  0.3683
 6609SOL    HW131463   0.803   0.291   3.594 -0.7500  0.1529  1.8168
 6609SOL    HW231464   0.905   0.387   3.633  0.0080 -0.1090  0.2159
 6610SOL     OW31465   4.221   1.848   8.339  0.2663  0.5095 -0.2401
 6610SOL    HW131466   4.151   1.905   8.307 -0.7387 -0.9052 -0.5560
 6610SOL    HW231467   4.180   1.805   8.414 -0.3993  1.8970  0.1954
 6611SOL     OW31468   0.970   3.866   7.118 -0.1526  0.7371 -0.8315
 6611SOL    HW131469   0.926   3.899   7.040  0.2234 -0.3513 -1.5111
 6611SOL    HW231470   0.981   3.952   7.157 -0.6047  0.8609 -0.9844
 6612SOL     OW31471   4.038   3.498   2.230 -0.0624 -0.0972 -0.1368
 6612SOL    HW131472   3.988   3.545   2.297  1.5323  1.4227 -0.0185
 6612SOL    HW231473   3.970   3.441   2.194 -1.1236  1.0026  0.1092
 6613SOL     OW31474   4.054   3.325   2.570 -0.6249 -0.2508 -0.2113
 6613SOL    HW131475   4.073   3.274   2.491  2.0053  1.0245 -0.3925
 6613SOL    HW231476   4.138   3.365   2.593  0.0897 -1.5283 -0.5982
 6614SOL     OW31477   4.434   4.409  13.637  0.3388  0.2291  0.1555
 6614SOL    HW131478   4.352   4.364  13.619  0.0880  0.7584 -0.0542
 6614SOL    HW231479   4.428   4.420  13.732 -0.3021  2.3114 -0.1117
 6615SOL     OW31480   3.881   0.355   0.025  0.0870  0.8418  0.5777
 6615SOL    HW131481   3.840   0.394   0.103 -0.2021 -0.0270  0.8593
 6615SOL    HW231482   3.832   0.394  17.705 -2.0806 -0.3499  1.3888
 6616SOL     OW31483   3.069   2.955   2.348  0.0598 -0.1166  0.2907
 6616SOL    HW131484   3.150   2.997   2.319 -0.9103  0.9358 -0.8682
 6616SOL    HW231485   3.057   2.889   2.280 -0.1482 -1.1192  1.2988
 6617SOL     OW31486   3.767   1.755  14.568  0.6265  0.1566  0.1265
 6617SOL    HW131487   3.672   1.762  14.577  0.6041 -0.7641  0.5743
 6617SOL    HW231488   3.786   1.816  14.497 -0.0225  2.3170  1.7983
 6618SOL     OW31489   2.480   1.059  15.073 -0.4870  0.0988 -0.5736
 6618SOL    HW131490   2.419   0.992  15.041 -1.9625  1.0667  0.2259
 6618SOL    HW231491   2.418   1.121  15.112 -1.1405 -1.1995  0.4394
 6619SOL     OW31492   3.634   0.991   4.132  0.2509 -0.4638  0.0948
 6619SOL    HW131493   3.679   0.988   4.216  0.8063 -1.6569 -0.2394
 6619SOL    HW231494   3.564   1.055   4.141  1.5284  0.7246  1.4101
 6620SOL     OW31495   2.025   3.864   2.237  0.3003  0.0966 -0.0683
 6620SOL    HW131496   2.097   3.844   2.178  0.2001 -0.2520 -0.0769
 6620SOL    HW231497   1.969   3.786   2.228 -0.7493  0.5712  2.2847
 6621SOL     OW31498   3.258   1.942  17.389 -0.0906  0.1667 -0.7058
 6621SOL    HW131499   3.219   1.996  17.458 -0.9260 -0.5976 -0.5832
 6621SOL    HW231500   3.332   1.909  17.441 -0.2160 -0.1030 -0.7002
 6622SOL     OW31501   3.984   3.660   9.121  0.0606 -0.3804 -0.4565
 6622SOL    HW131502   3.941   3.648   9.036  0.8090 -2.5016 -0.5330
 6622SOL    HW231503   3.908   3.690   9.172  1.3628 -1.0092  1.8552
 6623SOL     OW31504   3.962   3.525   5.470 -0.1292  0.6438 -0.2617
 6623SOL    HW131505   3.925   3.546   5.384  2.5605  1.9677 -1.1050
 6623SOL    HW231506   4.047   3.569   5.463  1.2497 -2.0178 -0.0922
 6624SOL     OW31507   2.456   1.633   8.673  0.2704  0.5750 -0.1735
 6624SOL    HW131508   2.419   1.652   8.587  0.1300 -0.5772 -0.3755
 6624SOL    HW231509   2.478   1.718   8.711  2.4175  0.5079 -1.3139
 6625SOL     OW31510   4.030   1.310   6.038 -0.1810 -0.0155 -0.2156
 6625SOL    HW131511   4.120   1.277   6.031  0.0155  0.6467 -0.8269
 6625SOL    HW231512   4.026   1.379   5.971  0.3571 -0.0167 -0.2553
 6626SOL     OW31513   3.432   4.293  16.761 -0.0643  0.1066 -0.4075
 6626SOL    HW131514   3.377   4.348  16.816 -2.8768 -0.9006 -2.2044
 6626SOL    HW231515   3.473   4.361  16.706 -2.4641  1.6110 -0.3343
 6627SOL     OW31516   1.707   1.354   6.823  0.2267 -0.3629  0.4463
 6627SOL    HW131517   1.751   1.380   6.742 -3.1342 -2.3054 -2.0150
 6627SOL    HW231518   1.741   1.265   6.830  1.1020 -0.2527 -2.1628
 6628SOL     OW31519   2.285   0.119   5.564  0.1418  0.1553  0.4681
 6628SOL    HW131520   2.371   0.081   5.583  2.2479  3.6210 -2.1441
 6628SOL    HW231521   2.276   0.171   5.644  0.1685  0.1846  0.4519
 6629SOL     OW31522   4.114   3.032   0.774  0.2384 -0.0457 -0.0946
 6629SOL    HW131523   4.189   2.975   0.755 -0.0411 -0.5025  0.1780
 6629SOL    HW231524   4.085   3.007   0.862 -1.7757 -1.4487 -1.1574
 6630SOL     OW31525   0.270   3.325   3.656 -0.3195 -0.0169 -0.3255
 6630SOL    HW131526   0.280   3.231   3.666 -1.5697  0.0051  1.1680
 6630SOL    HW231527   0.222   3.331   3.574 -0.2322  1.1553 -0.2968
 6631SOL     OW31528   1.507   0.052   3.049 -0.1090  0.8873 -0.1127
 6631SOL    HW131529   1.579   4.732   3.071 -2.2455 -2.0048 -0.9244
 6631SOL    HW231530   1.538   0.136   3.083 -0.2005  0.3840  1.1780
 6632SOL     OW31531   4.177   1.835   4.576  0.2490  0.0544  0.0748
 6632SOL    HW131532   4.103   1.793   4.620 -0.6390  0.3086 -1.1903
 6632SOL    HW231533   4.235   1.846   4.652  1.0124  0.9723 -0.6461
 6633SOL     OW31534   4.547   2.419   4.755  0.3130 -0.0747  0.4184
 6633SOL    HW131535   4.543   2.474   4.677  2.4884 -0.5708 -0.0500
 6633SOL    HW231536   4.498   2.472   4.818  0.8581  0.8050  0.0994
 6634SOL     OW31537   2.940   3.620   4.309 -0.3135  0.7858 -0.0154
 6634SOL    HW131538   3.002   3.680   4.269  0.5143 -0.0162  0.0780
 6634SOL    HW231539   2.884   3.598   4.234 -0.5616  0.3648  0.2916
 6635SOL     OW31540   2.710   0.829   4.668  0.3178 -0.0571 -1.0308
 6635SOL    HW131541   2.704   0.790   4.755 -1.2738 -1.2856 -1.6951
 6635SOL    HW231542   2.688   0.919   4.693  3.8809  0.6862 -0.4970
 6636SOL     OW31543   3.234   4.189  16.423 -0.8166 -0.0231 -0.1419
 6636SOL    HW131544   3.155   4.216  16.375 -0.3840 -1.6547 -1.7642
 6636SOL    HW231545   3.293   4.150  16.358  0.3469  0.6303  0.5238
 6637SOL     OW31546   1.320   1.863   1.531 -0.6393  0.5460  0.3916
 6637SOL    HW131547   1.371   1.909   1.599 -0.4295 -1.9954  1.9352
 6637SOL    HW231548   1.364   1.779   1.521  1.7377  1.7622  0.4780
 6638SOL     OW31549   2.141   2.473   6.409  0.7738  0.2657 -0.9870
 6638SOL    HW131550   2.177   2.389   6.384 -2.3466 -1.5663  0.6653
 6638SOL    HW231551   2.056   2.459   6.367 -0.5520 -2.5616  2.6382
 6639SOL     OW31552   0.927   3.260  15.803 -0.0191 -0.0217  0.0621
 6639SOL    HW131553   0.947   3.337  15.750  1.3311 -1.3585 -1.3771
 6639SOL    HW231554   0.834   3.243  15.788  0.5593 -0.2252 -3.2241
 6640SOL     OW31555   0.674   0.091   3.235  0.0628  0.3149  0.0380
 6640SOL    HW131556   0.688   0.179   3.269 -2.7494  0.5751  0.5143
 6640SOL    HW231557   0.623   0.052   3.307 -1.6116  1.5133 -0.5032
 6641SOL     OW31558   2.649   3.290  14.702 -0.2515 -0.0372 -0.1926
 6641SOL    HW131559   2.628   3.206  14.661 -1.2875  1.1363 -2.0903
 6641SOL    HW231560   2.692   3.336  14.630 -0.2256  1.0660  0.5391
 6642SOL     OW31561   4.180   0.818   5.742  0.1729  0.4063 -0.2138
 6642SOL    HW131562   4.263   0.813   5.695  0.8296 -1.7933  1.2152
 6642SOL    HW231563   4.126   0.774   5.676  0.6312 -1.2978  0.5556
 6643SOL     OW31564   4.465   1.570  17.227  0.7988 -0.4026 -0.3626
 6643SOL    HW131565   4.555   1.540  17.237 -0.3375 -2.5843  3.1132
 6643SOL    HW231566   4.425   1.499  17.177 -2.2003 -0.7986  2.5773
 6644SOL     OW31567   3.110   2.245  15.119  0.0473  0.0586 -0.7973
 6644SOL    HW131568   3.142   2.156  15.134  0.9323  0.2975 -1.2521
 6644SOL    HW231569   3.186   2.296  15.148 -0.0012 -0.2315 -0.1640
 6645SOL     OW31570   1.768   2.311   3.011  0.1559 -0.6683 -0.1865
 6645SOL    HW131571   1.802   2.258   3.083  1.8116  0.4145 -0.1745
 6645SOL    HW231572   1.676   2.325   3.034  0.8985  0.4541  2.1172
 6646SOL     OW31573   0.316   1.746   9.011 -0.7331 -0.1109  0.0951
 6646SOL    HW131574   0.292   1.655   9.031 -0.8421 -0.0320  0.3292
 6646SOL    HW231575   0.402   1.746   9.053 -1.5692  1.6997  1.7845
 6647SOL     OW31576   4.534   1.372  12.403  0.0464  0.2397 -0.5943
 6647SOL    HW131577   4.539   1.282  12.437  0.7745  0.1942 -0.8261
 6647SOL    HW231578   4.522   1.421  12.484 -2.3218 -0.4063 -0.5343
 6648SOL     OW31579   2.732   0.091   8.369 -0.8642  0.0597  0.2794
 6648SOL    HW131580   2.736   0.150   8.293  0.5472 -0.3661  0.0225
 6648SOL    HW231581   2.642   0.058   8.367 -0.7412 -0.3958  2.7721
 6649SOL     OW31582   1.668   2.001   3.249  0.5491  0.6542 -0.6449
 6649SOL    HW131583   1.652   1.948   3.172 -1.4480 -0.6921  0.6788
 6649SOL    HW231584   1.678   1.928   3.311  0.2942 -0.7741 -2.3061
 6650SOL     OW31585   2.246   0.465  13.971 -0.0423  0.2657  0.1046
 6650SOL    HW131586   2.324   0.411  13.961 -1.8801 -2.7357  2.0889
 6650SOL    HW231587   2.268   0.528  14.040  1.3481 -0.1242  0.0008
 6651SOL     OW31588   2.595   1.570   9.028 -0.1584  0.5077  0.3348
 6651SOL    HW131589   2.600   1.664   9.014 -0.8745  0.1604 -2.2432
 6651SOL    HW231590   2.555   1.556   9.114  2.8603 -1.6635  1.3787
 6652SOL     OW31591   0.469   4.257  15.782 -0.3228 -0.2694  0.0043
 6652SOL    HW131592   0.441   4.224  15.867 -0.4847 -0.1702 -0.0095
 6652SOL    HW231593   0.427   4.343  15.795  0.5250 -0.0868  1.5278
 6653SOL     OW31594   3.584   3.035  13.536 -0.5365  0.1672 -0.1202
 6653SOL    HW131595   3.672   3.012  13.507 -0.0815  0.7270  0.8119
 6653SOL    HW231596   3.554   3.063  13.450 -1.1072 -2.1369 -0.6715
 6654SOL     OW31597   3.224   0.860  16.306 -0.6511  0.8701 -0.4870
 6654SOL    HW131598   3.145   0.904  16.272 -1.3321 -1.4005 -1.8608
 6654SOL    HW231599   3.191   0.819  16.386 -0.4052 -1.6817 -1.6759
 6655SOL     OW31600   0.950   2.792   8.123  0.0305  0.4184  0.1735
 6655SOL    HW131601   0.926   2.814   8.214 -0.7601 -1.9106  0.5464
 6655SOL    HW231602   0.888   2.720   8.110  1.7360 -1.4044  2.3352
 6656SOL     OW31603   2.644   2.509   3.363  0.0461 -0.0019  0.4310
 6656SOL    HW131604   2.715   2.489   3.302 -0.4401 -1.0124  0.1979
 6656SOL    HW231605   2.699   2.570   3.413 -0.5730 -1.3076  2.7016
 6657SOL     OW31606   4.471   0.505   2.996  0.1398 -0.0470 -0.2435
 6657SOL    HW131607   4.439   0.434   3.053 -1.7374  2.2678  1.5592
 6657SOL    HW231608   4.437   0.472   2.912 -1.1285  1.4280 -0.2981
 6658SOL     OW31609   3.390   3.385   7.207 -1.0115 -0.0531 -0.0968
 6658SOL    HW131610   3.397   3.468   7.254  0.3451 -0.2172 -0.0142
 6658SOL    HW231611   3.475   3.348   7.228 -0.9119  0.6241  0.6835
 6659SOL     OW31612   4.247   0.723   4.854 -0.3241  0.2610  0.3455
 6659SOL    HW131613   4.185   0.780   4.808 -2.1542 -1.5051  0.6282
 6659SOL    HW231614   4.196   0.688   4.926 -0.8812  0.5712  0.1032
 6660SOL     OW31615   2.075   0.064   9.172 -0.0710 -0.6842  0.2285
 6660SOL    HW131616   1.982   0.055   9.149  0.1333  1.3612 -1.4092
 6660SOL    HW231617   2.117   0.010   9.106 -1.7144 -2.6341  0.7674
 6661SOL     OW31618   4.238   1.839   3.855  0.2575  0.0310  0.0046
 6661SOL    HW131619   4.254   1.819   3.763  0.2623  2.6015 -0.5538
 6661SOL    HW231620   4.332   1.840   3.871  0.0205  1.2432  1.2616
 6662SOL     OW31621   4.150   1.880  14.282  0.0493  0.0168 -0.0603
 6662SOL    HW131622   4.134   1.957  14.337 -2.5013 -1.0468  0.6833
 6662SOL    HW231623   4.059   1.852  14.276  0.7045 -2.2348  0.2938
 6663SOL     OW31624   4.632   0.238   7.498 -0.1526  0.0847 -0.6307
 6663SOL    HW131625   4.708   0.296   7.498  0.3419 -0.5653 -2.0766
 6663SOL    HW231626   4.559   0.295   7.475  1.1527  2.4922  1.1591
 6664SOL     OW31627   2.495   2.150   2.886 -0.4310 -0.0448 -0.0047
 6664SOL    HW131628   2.514   2.192   2.802 -4.6412  0.6310 -0.6140
 6664SOL    HW231629   2.448   2.223   2.927 -0.9547 -0.3251 -0.1027
 6665SOL     OW31630   2.932   0.736   1.922 -0.1954 -0.1371  0.0456
 6665SOL    HW131631   2.954   0.651   1.960  0.1088 -0.6982 -1.3628
 6665SOL    HW231632   3.010   0.787   1.943 -1.2978  0.1724  3.3203
 6666SOL     OW31633   2.247   0.635   4.483 -0.4358 -0.0570 -0.2852
 6666SOL    HW131634   2.332   0.679   4.492  1.2661 -2.8799 -2.5017
 6666SOL    HW231635   2.194   0.714   4.472 -0.4530  0.1129  1.0066
 6667SOL     OW31636   0.088   1.602   6.303  0.1367 -0.0391  0.2149
 6667SOL    HW131637   0.127   1.590   6.390 -2.1121 -0.3311  1.1825
 6667SOL    HW231638   4.735   1.591   6.327  0.2943  0.1469  0.9072
 6668SOL     OW31639   2.213   0.285   9.193  0.3800 -0.2509  0.1893
 6668SOL    HW131640   2.158   0.211   9.169  0.9235 -0.9851  1.2045
 6668SOL    HW231641   2.243   0.259   9.280 -0.1242  0.8802  0.7001
 6669SOL     OW31642   0.387   2.183  17.278 -0.3606 -0.1128  0.3925
 6669SOL    HW131643   0.351   2.246  17.340  2.5478  1.3034  0.6462
 6669SOL    HW231644   0.442   2.128  17.335  0.9814  2.9392  2.0293
 6670SOL     OW31645   2.577   3.066   1.533  1.2044  0.2947  0.1746
 6670SOL    HW131646   2.670   3.045   1.525  1.0782  0.8820 -2.6826
 6670SOL    HW231647   2.573   3.156   1.501  0.2574  0.0055 -0.5180
 6671SOL     OW31648   4.168   1.983   1.500 -0.1268 -0.4975  0.0654
 6671SOL    HW131649   4.214   2.005   1.419 -0.4135  0.2753  0.1160
 6671SOL    HW231650   4.129   2.067   1.524  1.4413  0.7073 -1.6118
 6672SOL     OW31651   0.168   4.044   6.124 -0.3624 -0.3844  0.3141
 6672SOL    HW131652   0.077   4.014   6.118 -0.1952 -0.9743  0.6844
 6672SOL    HW231653   0.163   4.137   6.101  0.8053 -0.6350 -0.9575
 6673SOL     OW31654   0.194   0.467  16.678  0.0505  0.1183  0.5736
 6673SOL    HW131655   0.215   0.459  16.771 -0.2864 -3.7581  0.2934
 6673SOL    HW231656   0.230   0.388  16.638  1.6762  1.2396 -0.1648
 6674SOL     OW31657   1.922   4.553  13.806 -0.1019  0.1766  0.0340
 6674SOL    HW131658   1.859   4.624  13.817 -0.8017 -0.4578  0.0885
 6674SOL    HW231659   1.972   4.590  13.733  2.5986 -1.0854  1.2437
 6675SOL     OW31660   4.417   0.659   2.321  0.6525 -0.0690 -0.3866
 6675SOL    HW131661   4.494   0.678   2.268  0.4676  0.0509 -0.6156
 6675SOL    HW231662   4.348   0.668   2.255  0.7466 -2.3506 -0.8064
 6676SOL     OW31663   2.452   3.952  13.715  0.1145  0.1255  0.6268
 6676SOL    HW131664   2.503   3.877  13.745  0.5385 -0.4855 -1.6617
 6676SOL    HW231665   2.396   3.965  13.792 -1.6920  1.5952 -0.9109
 6677SOL     OW31666   0.744   2.959   9.034  0.5392  0.4165 -0.0464
 6677SOL    HW131667   0.822   2.910   9.060  0.4804  1.7400  2.6954
 6677SOL    HW231668   0.765   3.037   9.086  2.7503  0.0740 -0.4027
 6678SOL     OW31669   0.289   3.494   0.344  0.1139  0.5803  0.6071
 6678SOL    HW131670   0.274   3.513   0.437  1.4439 -1.0465  1.1441
 6678SOL    HW231671   0.208   3.509   0.295 -0.1190  2.5282  1.5637
 6679SOL     OW31672   0.472   4.347   7.079 -0.2598 -0.1662 -0.0774
 6679SOL    HW131673   0.512   4.391   7.005 -2.4634  1.4369 -0.3113
 6679SOL    HW231674   0.452   4.423   7.134  1.1177 -0.9358  1.5021
 6680SOL     OW31675   3.070   3.859   4.211  0.3805 -0.1149 -0.4145
 6680SOL    HW131676   3.047   3.949   4.192 -0.1759 -0.5592 -1.8454
 6680SOL    HW231677   3.159   3.854   4.176 -0.0196  0.5687 -1.4940
 6681SOL     OW31678   2.373   0.754   2.911  0.7924 -0.0397 -0.2473
 6681SOL    HW131679   2.309   0.683   2.914  0.3884  0.4741  3.9418
 6681SOL    HW231680   2.311   0.825   2.894 -2.0077 -1.6094  3.4485
 6682SOL     OW31681   2.581   0.580  17.649 -0.6077  0.0229 -0.2977
 6682SOL    HW131682   2.510   0.551  17.707  0.4588  1.1806  1.5615
 6682SOL    HW231683   2.649   0.513  17.661 -0.2083  0.5857  0.5645
 6683SOL     OW31684   2.877   4.077  16.750 -0.7751  0.8281  0.4776
 6683SOL    HW131685   2.945   4.014  16.727 -0.0462  1.6111  0.4814
 6683SOL    HW231686   2.806   4.018  16.777 -0.6016  1.1003  1.5054
 6684SOL     OW31687   2.652   0.248   9.247  0.2430  0.0871  0.2644
 6684SOL    HW131688   2.724   0.200   9.287  1.8968  1.0355 -1.5669
 6684SOL    HW231689   2.572   0.229   9.296  0.1882 -2.1627 -0.6995
 6685SOL     OW31690   4.056   1.192   4.351 -0.1580  0.4653  0.1862
 6685SOL    HW131691   3.992   1.124   4.372 -0.3241  1.0498  1.5435
 6685SOL    HW231692   4.023   1.269   4.396 -1.2158  1.4230 -2.2142
 6686SOL     OW31693   3.385   1.670   9.553 -0.3031  0.1416 -0.1437
 6686SOL    HW131694   3.365   1.742   9.613 -3.1809 -1.4695  0.8563
 6686SOL    HW231695   3.479   1.682   9.542 -0.2048  1.2360  1.8235
 6687SOL     OW31696   4.717   4.602  10.141 -0.1616 -0.1717 -0.4461
 6687SOL    HW131697   4.736   4.668  10.207  1.2417  1.4225 -2.4558
 6687SOL    HW231698   0.058   4.596  10.088  0.5710 -1.0230  0.7412
 6688SOL     OW31699   0.563   4.327  11.647  0.0914  0.5898 -0.6957
 6688SOL    HW131700   0.572   4.362  11.736  2.8021  0.6463 -0.9843
 6688SOL    HW231701   0.628   4.257  11.637  0.4790  0.9298 -0.5698
 6689SOL     OW31702   1.408   1.659  10.397 -0.6962 -0.4103  0.0093
 6689SOL    HW131703   1.323   1.633  10.432 -0.9399  0.6646  0.2146
 6689SOL    HW231704   1.466   1.604  10.450  0.6622  1.3685  0.3977
 6690SOL     OW31705   0.228   4.642   2.343  1.1437 -0.0535  0.2507
 6690SOL    HW131706   0.187   4.725   2.322  0.3102 -0.2660  1.0444
 6690SOL    HW231707   0.158   4.578   2.334 -1.2136  2.7445 -1.2019
 6691SOL     OW31708   4.424   1.398   8.929 -0.7538  0.3095  0.1056
 6691SOL    HW131709   4.487   1.436   8.990  0.6690 -1.3752 -0.3292
 6691SOL    HW231710   4.431   1.449   8.848 -0.6962 -0.3324 -0.2882
 6692SOL     OW31711   3.215   1.475  12.095 -0.0364  0.7529 -0.1243
 6692SOL    HW131712   3.127   1.489  12.060  0.1162  0.1975 -0.7499
 6692SOL    HW231713   3.233   1.543  12.159  0.2387  1.0320 -0.4944
 6693SOL     OW31714   0.045   2.891  16.182  0.2978 -0.1013  0.9315
 6693SOL    HW131715   0.106   2.843  16.237  2.1294  2.6106  1.2399
 6693SOL    HW231716   0.083   2.885  16.094 -0.0484  0.7922  0.7184
 6694SOL     OW31717   1.020   1.337   3.280  0.6208  0.7880  0.1488
 6694SOL    HW131718   0.993   1.318   3.370  1.5392  0.3727  0.3363
 6694SOL    HW231719   0.949   1.379   3.232  0.8442  0.4913 -0.4383
 6695SOL     OW31720   1.203   2.785  17.171  0.5119 -0.2146 -0.2575
 6695SOL    HW131721   1.193   2.691  17.185  4.1130 -0.4576  0.5722
 6695SOL    HW231722   1.145   2.816  17.241 -1.1497 -3.5072 -0.1883
 6696SOL     OW31723   1.917   0.792   1.594  0.1149  0.1366 -0.8361
 6696SOL    HW131724   1.961   0.826   1.516  1.8292  1.0033  0.5110
 6696SOL    HW231725   1.949   0.702   1.591 -0.4077 -0.1015  0.7415
 6697SOL     OW31726   0.141   0.753   3.606 -0.5502  0.5201  0.2328
 6697SOL    HW131727   0.119   0.672   3.652 -2.2881  0.6087 -0.4405
 6697SOL    HW231728   0.213   0.716   3.555 -1.2928  0.0248 -0.4569
 6698SOL     OW31729   1.619   1.406  17.410 -0.3490  0.1733 -0.2790
 6698SOL    HW131730   1.695   1.415  17.467 -0.0742  0.6790 -0.7296
 6698SOL    HW231731   1.656   1.405  17.322  3.3522  1.3401  1.2770
 6699SOL     OW31732   1.689   1.919   2.925 -0.7772 -0.0137 -0.2456
 6699SOL    HW131733   1.667   1.827   2.937 -0.8857  0.0505  0.0474
 6699SOL    HW231734   1.780   1.911   2.896 -0.9045 -0.2430 -0.5740
 6700SOL     OW31735   2.754   1.509  17.617  0.3296  0.3131 -0.4678
 6700SOL    HW131736   2.745   1.548  17.704 -1.9315 -1.1460 -0.0634
 6700SOL    HW231737   2.687   1.554  17.566  0.4907 -0.0481 -0.9981
 6701SOL     OW31738   0.651   4.517   8.698  0.4196 -0.0861  0.5571
 6701SOL    HW131739   0.596   4.593   8.716  0.7760  0.9152 -2.4305
 6701SOL    HW231740   0.704   4.507   8.777 -1.0698  1.1380  1.7198
 6702SOL     OW31741   3.975   0.282   4.567 -0.7106  0.5446 -0.8431
 6702SOL    HW131742   3.881   0.278   4.553 -0.8449 -0.2027  0.2551
 6702SOL    HW231743   3.977   0.371   4.602  1.2094  0.1032  0.1974
 6703SOL     OW31744   0.225   0.217   3.530 -0.2098 -0.6582  0.0445
 6703SOL    HW131745   0.160   0.255   3.590  1.1784  2.9972 -0.7934
 6703SOL    HW231746   0.212   0.123   3.542 -1.8509 -0.2394  1.5799
 6704SOL     OW31747   1.824   4.164  16.292 -0.3145 -0.2533  0.6549
 6704SOL    HW131748   1.733   4.178  16.265  0.3935 -1.0325 -2.1079
 6704SOL    HW231749   1.839   4.070  16.290  0.7564 -0.0218 -3.4972
 6705SOL     OW31750   4.553   3.867   2.148 -0.2536  0.0908 -0.1285
 6705SOL    HW131751   4.538   3.807   2.221  1.1608  0.8348  0.7667
 6705SOL    HW231752   4.490   3.933   2.179 -0.6997  0.0737 -0.9898
 6706SOL     OW31753   1.465   4.404   3.873 -0.6329  0.5420 -0.2698
 6706SOL    HW131754   1.470   4.466   3.800 -1.2851  3.2511  1.9923
 6706SOL    HW231755   1.385   4.353   3.862 -0.8396  0.7583  0.2508
 6707SOL     OW31756   1.641   3.282   3.880  0.4637 -0.2323  0.3111
 6707SOL    HW131757   1.640   3.227   3.801 -3.1785  1.9025 -1.1425
 6707SOL    HW231758   1.632   3.370   3.844 -0.6294 -0.2678  0.5028
 6708SOL     OW31759   2.269   1.393  10.168 -0.8082 -0.2594  0.1091
 6708SOL    HW131760   2.246   1.303  10.141 -0.9024  0.4426 -2.1648
 6708SOL    HW231761   2.239   1.431  10.085 -0.0975 -1.7190 -0.8360
 6709SOL     OW31762   1.196   4.214   9.953 -0.1033 -0.0074  0.5224
 6709SOL    HW131763   1.104   4.197   9.932 -0.3658 -1.7632  3.0447
 6709SOL    HW231764   1.246   4.184   9.877 -1.5969 -1.7459  0.2131
 6710SOL     OW31765   0.169   0.147   7.672  0.3627 -0.4199 -0.7235
 6710SOL    HW131766   0.162   0.062   7.629 -2.5080  0.4225 -1.9082
 6710SOL    HW231767   0.261   0.173   7.673 -1.0368  4.4708  0.4629
 6711SOL     OW31768   1.029   1.227   7.339 -0.3922 -0.1539  0.0783
 6711SOL    HW131769   1.078   1.157   7.383 -1.3048 -0.2332  0.9614
 6711SOL    HW231770   1.083   1.295   7.301  1.0078 -0.2386  1.9203
 6712SOL     OW31771   4.088   2.934   8.005  0.1779  0.2747 -0.1565
 6712SOL    HW131772   4.104   3.005   7.942  1.1534 -1.3498 -1.7301
 6712SOL    HW231773   4.084   2.995   8.079 -1.8938  0.3440 -0.3490
 6713SOL     OW31774   3.881   3.288   2.146  0.4443  0.4255  0.2220
 6713SOL    HW131775   3.903   3.198   2.171  0.2831  0.7094  1.4101
 6713SOL    HW231776   3.819   3.317   2.213 -0.3907 -0.8494 -0.0042
 6714SOL     OW31777   0.800   2.023   2.066  0.2797 -0.0990  0.1412
 6714SOL    HW131778   0.788   2.092   2.132 -0.0716 -0.5280  0.5305
 6714SOL    HW231779   0.895   2.012   2.069  0.1533 -0.5683  2.8268
 6715SOL     OW31780   0.213   2.198   9.133 -0.4128 -0.8700 -0.0904
 6715SOL    HW131781   0.167   2.116   9.115 -1.1204 -0.9825  2.1629
 6715SOL    HW231782   0.134   2.249   9.151  0.1298 -0.9348  2.5527
 6716SOL     OW31783   3.389   1.928   9.051  0.3677  0.4220  0.3989
 6716SOL    HW131784   3.316   1.982   9.081 -0.0447 -1.6142  3.1388
 6716SOL    HW231785   3.420   1.883   9.130  1.7534 -1.5709 -1.2885
 6717SOL     OW31786   0.079   1.919  11.438  0.1025  0.2626 -0.1375
 6717SOL    HW131787   0.034   1.998  11.467 -1.5070 -0.6893 -0.0152
 6717SOL    HW231788   0.037   1.888  11.358 -0.1188 -0.8509  0.4030
 6718SOL     OW31789   3.198   1.829  14.627 -0.0002 -1.1514  0.0243
 6718SOL    HW131790   3.282   1.815  14.584 -0.9338 -2.0816 -1.5080
 6718SOL    HW231791   3.148   1.767  14.573  1.4089 -2.0299 -0.2612
 6719SOL     OW31792   4.468   3.957   4.022 -0.2684 -0.2074 -0.2293
 6719SOL    HW131793   4.484   3.972   4.115 -1.6630  1.1884 -0.2082
 6719SOL    HW231794   4.418   4.036   3.999 -1.2993 -1.1117 -1.1136
 6720SOL     OW31795   4.679   3.370   5.248 -0.0718  0.5252 -0.2843
 6720SOL    HW131796   4.636   3.397   5.167  3.4589  0.1214 -2.2866
 6720SOL    HW231797   4.683   3.280   5.217  0.3043  1.0333 -1.6863
 6721SOL     OW31798   2.809   4.465   9.564 -0.1968 -0.9860  0.0780
 6721SOL    HW131799   2.841   4.426   9.483 -0.0837 -1.6659  0.4466
 6721SOL    HW231800   2.893   4.500   9.593 -1.1055  1.2946 -0.0196
 6722SOL     OW31801   3.853   2.421   9.077 -0.1697 -0.0019  0.1105
 6722SOL    HW131802   3.784   2.425   9.142 -0.0939 -2.8623  0.3800
 6722SOL    HW231803   3.865   2.512   9.050 -0.9947 -0.2204 -0.9816
 6723SOL     OW31804   3.937   3.846   1.991 -0.1926 -0.3543 -0.3223
 6723SOL    HW131805   3.856   3.846   2.041  0.3652 -1.6736  0.5983
 6723SOL    HW231806   3.911   3.774   1.935  2.7660 -1.5568 -0.1769
 6724SOL     OW31807   4.399   3.464   3.840  0.0195  0.4913  0.3292
 6724SOL    HW131808   4.314   3.430   3.867  0.1352  0.5754  0.8052
 6724SOL    HW231809   4.444   3.467   3.925  0.1538  0.1183  0.2688
 6725SOL     OW31810   0.907   4.008  14.115 -0.6066 -0.0210  0.0310
 6725SOL    HW131811   0.901   4.099  14.143 -0.6984 -0.8509  2.7927
 6725SOL    HW231812   0.886   3.967  14.200 -1.5567 -0.1700 -0.2691
 6726SOL     OW31813   1.197   3.380   3.754 -0.4124  0.1654  0.2176
 6726SOL    HW131814   1.114   3.335   3.771  0.4707 -1.8836 -0.8662
 6726SOL    HW231815   1.238   3.295   3.766  0.6831  0.7426  0.6275
 6727SOL     OW31816   3.147   3.282  10.497 -0.0399 -0.1689 -0.2204
 6727SOL    HW131817   3.076   3.218  10.511 -0.5965  0.2270 -1.2604
 6727SOL    HW231818   3.107   3.351  10.444 -3.0415 -2.4421 -0.9564
 6728SOL     OW31819   1.276   0.167   6.394 -0.3181 -0.2345  1.1533
 6728SOL    HW131820   1.348   0.139   6.338 -0.8930 -0.9783  0.7770
 6728SOL    HW231821   1.205   0.136   6.338 -0.4062  1.2198  0.4751
 6729SOL     OW31822   0.437   1.837   4.248  0.4152  0.1455  0.6198
 6729SOL    HW131823   0.450   1.916   4.301  1.3074  0.3073  0.1649
 6729SOL    HW231824   0.450   1.763   4.307  0.1469  0.1045  0.6255
 6730SOL     OW31825   3.181   1.434   2.862 -0.0909  0.1469 -0.2285
 6730SOL    HW131826   3.193   1.449   2.768  1.6010  2.0543  0.2826
 6730SOL    HW231827   3.149   1.344   2.863 -2.9114  1.1317 -0.3357
 6731SOL     OW31828   2.036   2.454  11.790 -0.3579 -0.0373 -0.4792
 6731SOL    HW131829   2.120   2.450  11.836  0.2662  2.7869 -1.3796
 6731SOL    HW231830   2.057   2.419  11.704  0.4663  1.4833 -0.8900
 6732SOL     OW31831   0.162   1.076   3.408  0.1006 -0.3883  0.0229
 6732SOL    HW131832   0.224   1.124   3.464 -0.4157  0.3508 -0.0435
 6732SOL    HW231833   0.220   1.002   3.390  0.2310 -0.4393  0.6644
 6733SOL     OW31834   2.588   4.495   5.123  0.6758 -0.3570 -0.4285
 6733SOL    HW131835   2.593   4.509   5.028 -1.4903 -0.8149 -0.6228
 6733SOL    HW231836   2.526   4.560   5.156 -2.5680 -2.7583 -1.8439
 6734SOL     OW31837   3.439   4.299  12.903 -0.6717 -0.1800 -0.7223
 6734SOL    HW131838   3.447   4.265  12.814 -0.3304 -1.1832 -0.3050
 6734SOL    HW231839   3.407   4.222  12.950 -1.3410 -0.2299 -1.2703
 6735SOL     OW31840   3.777   0.825   3.503 -0.6595  0.1823  0.5012
 6735SOL    HW131841   3.849   0.821   3.565  1.4674  0.6657 -1.9422
 6735SOL    HW231842   3.710   0.887   3.532 -0.4748  0.6585 -0.1075
 6736SOL     OW31843   3.617   4.221   9.306  0.2197 -0.1323 -0.1035
 6736SOL    HW131844   3.664   4.299   9.277 -2.7692  0.7317 -2.5749
 6736SOL    HW231845   3.587   4.254   9.391 -2.1716 -0.7482 -0.7221
 6737SOL     OW31846   1.224   2.483   2.841  0.0052 -0.2982 -0.1812
 6737SOL    HW131847   1.288   2.553   2.855 -0.2560 -0.3109  1.1155
 6737SOL    HW231848   1.194   2.511   2.754 -0.2480  2.7934  0.9067
 6738SOL     OW31849   3.052   3.264  12.758  0.6941  0.2698 -0.9866
 6738SOL    HW131850   2.976   3.315  12.728  1.3177  2.6697  1.4635
 6738SOL    HW231851   3.022   3.174  12.749 -0.2710  0.5182 -0.1864
 6739SOL     OW31852   2.913   4.509  13.252  0.1166 -0.9752 -0.4875
 6739SOL    HW131853   2.912   4.441  13.184 -1.4776 -0.9309 -0.5075
 6739SOL    HW231854   3.005   4.504  13.277  0.0941 -1.0044 -0.4124
 6740SOL     OW31855   1.488   0.884   3.399 -0.0572  0.2110 -0.4606
 6740SOL    HW131856   1.454   0.854   3.315 -0.5723  0.1038 -0.2150
 6740SOL    HW231857   1.575   0.910   3.367  1.3204 -1.4593  1.9421
 6741SOL     OW31858   1.695   4.647   8.778  0.0253  0.2179  0.0204
 6741SOL    HW131859   1.735   4.601   8.852  0.1336 -0.4499 -0.4600
 6741SOL    HW231860   1.671   4.572   8.725  4.2093 -0.5189 -0.7920
 6742SOL     OW31861   3.615   4.328   7.076 -0.2817 -0.2894  0.4830
 6742SOL    HW131862   3.578   4.290   7.155  0.4190 -1.2894  0.3276
 6742SOL    HW231863   3.624   4.258   7.011 -0.7197 -1.6875  1.9373
 6743SOL     OW31864   4.285   3.464  16.002  0.2176 -0.5273 -0.1692
 6743SOL    HW131865   4.293   3.555  15.972 -3.5232 -0.5300 -1.2395
 6743SOL    HW231866   4.337   3.415  15.938  1.4446 -1.2158  1.3679
 6744SOL     OW31867   1.605   1.466   5.553 -0.1636  0.0377  0.4272
 6744SOL    HW131868   1.673   1.399   5.565  1.3767  1.5946  0.3424
 6744SOL    HW231869   1.529   1.408   5.543  1.4093 -1.4817 -2.8148
 6745SOL     OW31870   1.080   4.608  15.038  0.2336  0.6208  0.6693
 6745SOL    HW131871   1.084   4.565  15.123  1.1064  1.7249  1.1954
 6745SOL    HW231872   1.174   4.619  15.022  0.2471 -0.3891  0.0611
 6746SOL     OW31873   2.567   2.427   6.533 -0.3267 -0.0074  0.0435
 6746SOL    HW131874   2.500   2.493   6.550  0.6670  0.6519  1.3388
 6746SOL    HW231875   2.526   2.377   6.462 -0.5744  1.7011 -1.0389
 6747SOL     OW31876   2.799   1.984  10.112 -0.0470 -0.7974 -0.2987
 6747SOL    HW131877   2.859   2.040  10.160 -1.1500 -1.0249  1.3921
 6747SOL    HW231878   2.714   2.000  10.154  0.2447  0.3149 -0.1518
 6748SOL     OW31879   2.169   4.083  16.476  0.0419  0.2869 -0.7005
 6748SOL    HW131880   2.181   4.082  16.381  1.3729 -0.7798 -0.5192
 6748SOL    HW231881   2.086   4.041  16.497  0.7418 -0.5167  0.4164
 6749SOL     OW31882   3.175   2.077  11.707  0.0576 -0.6067 -0.2643
 6749SOL    HW131883   3.177   2.155  11.652  0.2134 -0.0264  0.5534
 6749SOL    HW231884   3.263   2.042  11.699  0.1803 -0.6421  1.2812
 6750SOL     OW31885   1.381   3.757   6.635 -0.0582  0.0291  0.7202
 6750SOL    HW131886   1.470   3.729   6.658  0.4141  1.3749  0.5569
 6750SOL    HW231887   1.397   3.851   6.632  0.7035 -0.1803 -1.6154
 6751SOL     OW31888   1.678   0.398  13.331 -0.2231  1.0913  0.4884
 6751SOL    HW131889   1.687   0.303  13.337 -1.6026  0.9919  0.8729
 6751SOL    HW231890   1.760   0.420  13.287 -0.3833  0.3324 -0.1880
 6752SOL     OW31891   1.530   0.200   3.639 -0.1248 -0.0595 -0.7352
 6752SOL    HW131892   1.455   0.256   3.621 -0.6434 -0.2521  0.8347
 6752SOL    HW231893   1.537   0.207   3.734 -3.9292  0.2284 -0.4911
 6753SOL     OW31894   1.739   0.671   1.867  0.8963 -0.0834 -0.2743
 6753SOL    HW131895   1.738   0.766   1.879 -0.2337 -0.2556  1.1099
 6753SOL    HW231896   1.734   0.668   1.772 -0.6740  0.0451 -0.1947
 6754SOL     OW31897   1.738   1.020   3.121 -0.6748  0.4878  0.1058
 6754SOL    HW131898   1.812   1.064   3.081  1.2882 -1.8043  1.1969
 6754SOL    HW231899   1.714   0.949   3.061 -0.8385  0.4588  0.2026
 6755SOL     OW31900   3.279   3.077  14.030  0.3685 -0.8792  0.0384
 6755SOL    HW131901   3.231   3.087  14.112  1.0677 -1.4592  0.5231
 6755SOL    HW231902   3.303   3.166  14.003  0.1371 -1.2592 -1.4490
 6756SOL     OW31903   1.526   2.966   5.647  0.0158 -0.0152  0.0179
 6756SOL    HW131904   1.474   3.011   5.713 -2.0811  0.1341 -1.7157
 6756SOL    HW231905   1.511   3.018   5.567  0.5592 -0.9291 -0.6746
 6757SOL     OW31906   4.602   3.112  11.359  0.6007  0.3381 -0.2604
 6757SOL    HW131907   4.690   3.148  11.348  0.5395  0.2749 -0.9575
 6757SOL    HW231908   4.566   3.191  11.320 -1.8210 -0.4362  0.4590
 6758SOL     OW31909   0.159   0.330   3.165  0.3877 -0.4921  0.4541
 6758SOL    HW131910   0.241   0.334   3.215 -0.2387  0.8627  1.3655
 6758SOL    HW231911   0.127   0.419   3.179 -1.2628 -1.2019  1.0818
 6759SOL     OW31912   4.613   0.223   3.200  0.3164  0.0129 -0.2374
 6759SOL    HW131913   4.656   0.302   3.233  0.3450 -0.9935  2.1416
 6759SOL    HW231914   4.628   0.153   3.263  1.6112  2.0546  1.7525
 6760SOL     OW31915   0.092   3.316   2.797  0.2434 -0.0431 -0.5830
 6760SOL    HW131916   0.114   3.362   2.879  1.6315 -0.8467 -0.4971
 6760SOL    HW231917   0.040   3.386   2.758 -0.1402 -0.1668 -0.2938
 6761SOL     OW31918   3.886   0.681   5.199 -0.1419 -0.1608  0.9666
 6761SOL    HW131919   3.848   0.598   5.228 -1.4163 -0.3714 -1.3043
 6761SOL    HW231920   3.812   0.725   5.158 -1.7674 -1.7926  2.1459
 6762SOL     OW31921   2.682   1.959   4.489 -0.0797 -0.2910 -0.1476
 6762SOL    HW131922   2.671   1.915   4.573  0.2843 -1.1882 -0.5730
 6762SOL    HW231923   2.599   1.934   4.448  0.4540 -0.3701 -1.1840
 6763SOL     OW31924   1.314   0.818   5.459 -0.3360  0.0980  0.7090
 6763SOL    HW131925   1.328   0.908   5.488 -3.4038  0.8880 -0.2507
 6763SOL    HW231926   1.383   0.795   5.522  0.2144  0.7269  0.3260
 6764SOL     OW31927   3.309   4.427   2.686 -0.0196  0.4649 -0.1434
 6764SOL    HW131928   3.318   4.334   2.705  1.0502  0.4648 -0.6941
 6764SOL    HW231929   3.343   4.458   2.770  3.9963 -0.0963 -1.6043
 6765SOL     OW31930   0.569   1.081   5.813 -0.0627  0.7000 -0.2564
 6765SOL    HW131931   0.624   1.064   5.889 -0.7327 -0.9162 -0.1411
 6765SOL    HW231932   0.581   0.993   5.778 -2.0791  0.0443  0.7084
 6766SOL     OW31933   2.935   2.002  11.540 -0.2990  0.5572  0.3359
 6766SOL    HW131934   2.985   2.075  11.502  1.6839  0.6324  3.1009
 6766SOL    HW231935   3.005   1.984  11.602 -1.9903 -0.0339  2.0461
 6767SOL     OW31936   0.418   1.671   1.942  0.0199  0.0658 -0.6627
 6767SOL    HW131937   0.484   1.696   2.007 -1.4506 -0.8833  1.2011
 6767SOL    HW231938   0.430   1.751   1.892 -2.7003 -0.3538 -1.9719
 6768SOL     OW31939   0.588   3.888  15.418  0.1004 -0.3619  0.1949
 6768SOL    HW131940   0.559   3.970  15.460  0.0776 -0.4413  0.3328
 6768SOL    HW231941   0.561   3.821  15.481 -1.8051  1.8427  1.7618
 6769SOL     OW31942   2.330   4.656   1.392  0.2950 -0.1343 -0.4384
 6769SOL    HW131943   2.305   4.668   1.484  2.1424 -0.5096  0.1114
 6769SOL    HW231944   2.392   4.727   1.377  0.0445  0.0345 -0.6689
 6770SOL     OW31945   1.288   1.238   3.877 -0.0297 -0.2976  0.0298
 6770SOL    HW131946   1.281   1.327   3.842  3.0019 -0.2025 -0.3308
 6770SOL    HW231947   1.236   1.191   3.813 -0.8598  0.4424  0.1589
 6771SOL     OW31948   1.713   3.746   6.769 -0.2174 -0.3637  0.4217
 6771SOL    HW131949   1.802   3.777   6.785  0.1264 -1.3141  0.3789
 6771SOL    HW231950   1.689   3.720   6.858  0.1516  2.2442  1.2640
 6772SOL     OW31951   3.224   2.565   1.976  0.4171 -0.1467  0.5030
 6772SOL    HW131952   3.231   2.487   2.031 -1.3421  0.4051  1.5250
 6772SOL    HW231953   3.150   2.550   1.917  0.4426  1.8669 -0.0676
 6773SOL     OW31954   3.684   2.995   4.413 -0.1709  0.6580  0.0157
 6773SOL    HW131955   3.686   3.029   4.502  0.5673 -2.0985  1.0421
 6773SOL    HW231956   3.669   2.903   4.435  0.6702  0.3249 -0.7949
 6774SOL     OW31957   2.200   0.955   5.581 -0.0295 -0.1281  0.0932
 6774SOL    HW131958   2.160   0.936   5.496 -0.1615  2.5275 -0.4445
 6774SOL    HW231959   2.142   0.915   5.646  0.5523  0.0130  0.6996
 6775SOL     OW31960   2.653   1.892   8.385  0.0475 -0.3099 -0.3976
 6775SOL    HW131961   2.566   1.925   8.406 -0.0350 -1.9781  1.8215
 6775SOL    HW231962   2.671   1.956   8.315 -0.7572  0.9578  0.5553
 6776SOL     OW31963   3.039   2.863   1.713  0.0708 -0.5816  0.8129
 6776SOL    HW131964   2.949   2.838   1.733 -0.1951 -2.5499 -2.8123
 6776SOL    HW231965   3.049   2.934   1.777 -1.5600  0.8668 -0.5669
 6777SOL     OW31966   0.013   0.426   6.912  0.7730 -0.1397  0.5793
 6777SOL    HW131967   0.008   0.388   7.000 -0.7325 -1.0854  0.0779
 6777SOL    HW231968   4.672   0.477   6.901  0.2004 -1.0076  0.6266
 6778SOL     OW31969   3.054   0.188   8.365  0.1611  0.2187 -0.3161
 6778SOL    HW131970   2.970   0.158   8.400 -0.2194 -0.1357 -1.5113
 6778SOL    HW231971   3.067   0.123   8.296 -0.0808  0.3527 -0.4938
 6779SOL     OW31972   3.138   1.822   7.689 -0.0908  0.3849  0.3244
 6779SOL    HW131973   3.110   1.913   7.700  0.7768  0.9007 -1.7849
 6779SOL    HW231974   3.220   1.831   7.736  0.9152 -1.7836 -1.0345
 6780SOL     OW31975   1.991   3.657   0.922  0.0723  0.6958  0.4175
 6780SOL    HW131976   1.943   3.579   0.896  0.7034  0.6465 -0.6200
 6780SOL    HW231977   2.037   3.679   0.841  2.3579  0.7970  1.7339
 6781SOL     OW31978   3.672   2.371   5.953 -0.8474 -0.0340 -0.7613
 6781SOL    HW131979   3.647   2.450   6.002 -0.9479  0.2060 -1.1997
 6781SOL    HW231980   3.625   2.307   6.006  0.2325  0.5376  0.8781
 6782SOL     OW31981   4.656   1.594   4.503  0.5671 -0.5195 -0.2895
 6782SOL    HW131982   0.009   1.571   4.490  0.5900 -1.4223  1.5369
 6782SOL    HW231983   4.628   1.529   4.567 -1.1762  1.4079  0.9380
 6783SOL     OW31984   4.185   4.523   2.140  0.8206  0.6824 -0.1662
 6783SOL    HW131985   4.174   4.617   2.131 -1.2771  0.1637 -2.8720
 6783SOL    HW231986   4.189   4.488   2.051  0.0120 -0.0319  0.0847
 6784SOL     OW31987   3.462   0.455   7.526  0.0170 -0.0332  0.4009
 6784SOL    HW131988   3.550   0.437   7.492  0.7744  1.6675  1.4298
 6784SOL    HW231989   3.481   0.538   7.570  0.2051 -1.2087  2.5220
 6785SOL     OW31990   0.421   1.859   3.389 -0.2873 -0.8833 -0.5135
 6785SOL    HW131991   0.447   1.792   3.326 -1.0279 -0.3100 -1.4342
 6785SOL    HW231992   0.508   1.876   3.427 -1.0334  1.2444  0.2190
 6786SOL     OW31993   4.599   4.372  12.482 -0.4813 -0.3199 -0.7040
 6786SOL    HW131994   4.622   4.290  12.525  0.6078  1.0789  1.3707
 6786SOL    HW231995   4.659   4.436  12.519 -1.7500 -1.3205  3.0710
 6787SOL     OW31996   3.250   0.020   6.595  0.1219 -0.1206  0.0402
 6787SOL    HW131997   3.247   0.116   6.596 -0.4487 -0.1320 -0.4223
 6787SOL    HW231998   3.272   0.011   6.502  0.9471  0.9177  0.1317
 6788SOL     OW31999   1.274   3.612  14.901 -0.2356  0.3011  0.9103
 6788SOL    HW132000   1.343   3.676  14.881 -1.3059  1.3678  0.6246
 6788SOL    HW232001   1.267   3.588  14.809  0.8219  1.1907  0.5937
 6789SOL     OW32002   4.500   0.133   5.950 -0.6865 -0.0871  0.2191
 6789SOL    HW132003   4.530   0.140   6.040  0.1963  0.1520 -0.0901
 6789SOL    HW232004   4.516   0.222   5.918 -2.4062  0.6451  1.3960
 6790SOL     OW32005   3.820   2.662   7.712 -0.1510  0.0804 -0.0471
 6790SOL    HW132006   3.847   2.752   7.731 -0.8799  0.1902  0.4458
 6790SOL    HW232007   3.883   2.645   7.641 -0.6169 -1.5208 -0.0712
 6791SOL     OW32008   0.855   2.931   5.544  0.6735  0.0281 -0.2537
 6791SOL    HW132009   0.807   2.858   5.505  1.9411  0.0895 -1.9196
 6791SOL    HW232010   0.919   2.954   5.478  0.0511  1.9493 -0.2049
 6792SOL     OW32011   0.525   2.116   4.345  0.0601  0.1780 -0.1797
 6792SOL    HW132012   0.610   2.072   4.351  0.2159  0.8450  2.5620
 6792SOL    HW232013   0.535   2.164   4.428  1.3824  1.1434 -0.8887
 6793SOL     OW32014   2.762   2.764   2.853 -0.0946 -0.0650  0.2672
 6793SOL    HW132015   2.828   2.829   2.879 -0.5484  1.1084 -1.5589
 6793SOL    HW232016   2.779   2.702   2.925  0.7166  1.5286  1.4520
 6794SOL     OW32017   0.478   0.977  15.218 -0.8001 -0.4400  0.2136
 6794SOL    HW132018   0.457   0.918  15.290 -0.5219 -0.1941  0.4983
 6794SOL    HW232019   0.487   1.059  15.267  1.4336  0.7593 -2.2027
 6795SOL     OW32020   3.793   1.260   3.649  0.2912  0.1292 -0.3293
 6795SOL    HW132021   3.889   1.260   3.639  0.2626 -0.6303 -0.5997
 6795SOL    HW232022   3.792   1.230   3.740 -0.0302 -0.4312 -0.5166
 6796SOL     OW32023   4.711   2.807   4.013  0.4965  0.2637  0.0749
 6796SOL    HW132024   4.696   2.768   3.927  0.0118 -1.7205  1.0486
 6796SOL    HW232025   0.046   2.758   4.049 -1.2106 -1.8432  0.7002
 6797SOL     OW32026   2.692   1.594  11.533 -0.4152  0.8506  0.3129
 6797SOL    HW132027   2.778   1.557  11.554 -0.4834  0.7782  0.4653
 6797SOL    HW232028   2.699   1.689  11.541 -0.9945  0.8490  0.8144
 6798SOL     OW32029   0.024   3.329   3.945  0.2902  0.0815  0.3680
 6798SOL    HW132030   0.096   3.343   4.006  1.3619 -0.2932 -0.8169
 6798SOL    HW232031   4.693   3.289   3.998  0.0071 -1.9213 -1.5095
 6799SOL     OW32032   1.415   0.827  15.449  0.3340 -0.1985  0.0502
 6799SOL    HW132033   1.489   0.780  15.488 -2.5945 -3.0746  2.1100
 6799SOL    HW232034   1.341   0.771  15.472 -0.7834  1.5344  0.6723
 6800SOL     OW32035   2.491   1.942   9.246 -0.2632  0.2949 -0.2124
 6800SOL    HW132036   2.483   1.933   9.341  1.5906 -2.4650 -0.3087
 6800SOL    HW232037   2.515   2.035   9.241 -2.8646  1.0497  1.2639
 6801SOL     OW32038   1.607   2.223   4.336  0.1881 -0.6156  0.3843
 6801SOL    HW132039   1.580   2.139   4.299 -3.6295 -0.0599  1.8009
 6801SOL    HW232040   1.537   2.284   4.309  2.0390  0.7036 -1.4179
 6802SOL     OW32041   4.359   0.417   2.686  0.7769 -0.0193 -0.2447
 6802SOL    HW132042   4.276   0.390   2.646  0.8318 -2.4847  1.3338
 6802SOL    HW232043   4.420   0.407   2.613  1.9604 -0.5527  0.8214
 6803SOL     OW32044   4.151   2.824  11.542  0.2386  0.2582  0.0812
 6803SOL    HW132045   4.070   2.845  11.496  0.8497 -1.3711 -1.7163
 6803SOL    HW232046   4.187   2.912  11.556  1.5744 -0.4336  0.9795
 6804SOL     OW32047   4.062   0.454   1.817 -0.1330  0.2776  0.0912
 6804SOL    HW132048   4.012   0.460   1.735 -0.0535  3.4012  0.2563
 6804SOL    HW232049   4.152   0.467   1.787 -0.3657  2.2115  0.2060
 6805SOL     OW32050   2.844   3.886   4.479 -0.1700  0.2090  0.1314
 6805SOL    HW132051   2.888   3.966   4.449 -0.8856  1.1397  1.5211
 6805SOL    HW232052   2.915   3.826   4.501  1.0626  1.9263  0.8190
 6806SOL     OW32053   2.366   0.367   2.928 -0.0536 -0.5418  1.2257
 6806SOL    HW132054   2.353   0.286   2.977  0.9920 -0.1236  2.2017
 6806SOL    HW232055   2.373   0.344   2.835  1.1575 -0.7860  1.3793
 6807SOL     OW32056   1.447   0.728   8.279 -0.3787  0.5955  0.1512
 6807SOL    HW132057   1.507   0.777   8.334 -0.5593  1.8991 -0.8015
 6807SOL    HW232058   1.495   0.667   8.223  1.0955  2.0305 -0.1518
 6808SOL     OW32059   0.325   2.146  17.720  0.7172  0.2059  0.8085
 6808SOL    HW132060   0.383   2.184  17.654  0.8656  1.4640  1.6695
 6808SOL    HW232061   0.251   2.130  17.663  1.5165  0.2443 -0.2461
 6809SOL     OW32062   3.250   3.392  10.155  0.2068  0.3271 -0.2348
 6809SOL    HW132063   3.274   3.321  10.215  3.6565  1.1661 -0.5918
 6809SOL    HW232064   3.340   3.411  10.127  1.0681 -0.3248  2.0620
 6810SOL     OW32065   2.120   1.488   3.799 -0.1711 -0.1364  0.4527
 6810SOL    HW132066   2.143   1.510   3.709 -0.4914 -2.0004 -0.0776
 6810SOL    HW232067   2.122   1.580   3.826 -0.1817 -0.2629  0.8825
 6811SOL     OW32068   2.206   3.381   6.072  0.0862 -0.4275  0.0754
 6811SOL    HW132069   2.300   3.397   6.066  0.3756 -1.4679  1.6648
 6811SOL    HW232070   2.169   3.463   6.041  2.0443  1.5132  2.8413
 6812SOL     OW32071   3.742   0.593   2.633 -0.5121  0.3432 -0.0466
 6812SOL    HW132072   3.703   0.596   2.546  2.2511 -2.9267 -1.3988
 6812SOL    HW232073   3.698   0.669   2.672 -0.0822  1.1015 -1.0310
 6813SOL     OW32074   2.971   3.000   9.689 -0.2856 -0.5970  0.0852
 6813SOL    HW132075   2.928   3.052   9.758  0.1500 -1.3150  0.9053
 6813SOL    HW232076   2.895   3.004   9.631 -0.2844 -0.4908  0.0915
 6814SOL     OW32077   2.142   2.989  11.834  0.3985 -0.1100 -0.6087
 6814SOL    HW132078   2.131   3.022  11.923 -1.1716 -1.1200 -0.4221
 6814SOL    HW232079   2.213   2.927  11.851 -0.4359 -0.4457  1.6098
 6815SOL     OW32080   1.171   1.944   5.147 -0.5470  0.3955  0.2663
 6815SOL    HW132081   1.148   1.935   5.055  0.2559  0.7582  0.0325
 6815SOL    HW232082   1.174   1.853   5.176 -4.2362  0.4535  0.8298
 6816SOL     OW32083   0.324   3.288   7.618 -0.1734 -0.8353  0.2413
 6816SOL    HW132084   0.245   3.338   7.634 -0.8424 -1.2270 -1.8428
 6816SOL    HW232085   0.312   3.239   7.537 -0.5048  0.6535 -0.5984
 6817SOL     OW32086   4.312   2.001  15.950  0.5670  0.0897  0.3892
 6817SOL    HW132087   4.238   2.057  15.927  1.5888  1.0758 -0.5066
 6817SOL    HW232088   4.375   2.018  15.880 -1.0877  2.3736 -0.5051
 6818SOL     OW32089   2.162   2.933   9.485  0.3456  0.0429  0.8242
 6818SOL    HW132090   2.096   2.872   9.452  2.1804 -0.7462 -1.4210
 6818SOL    HW232091   2.222   2.877   9.535 -1.1094 -1.6513  0.6818
 6819SOL     OW32092   4.562   3.922   5.584  0.2480  0.0942  0.1102
 6819SOL    HW132093   4.583   3.981   5.656 -0.3254  0.7834 -0.2900
 6819SOL    HW232094   4.615   3.964   5.516 -1.6491  0.5175 -1.1104
 6820SOL     OW32095   3.755   2.438  13.108 -0.2272  0.0524  0.1238
 6820SOL    HW132096   3.758   2.388  13.026 -0.4683  1.1258 -0.5457
 6820SOL    HW232097   3.806   2.516  13.085 -2.0058  0.3646 -2.8103
 6821SOL     OW32098   1.475   2.604  14.840  0.1433 -0.2705 -0.0935
 6821SOL    HW132099   1.427   2.670  14.891 -0.5198 -2.1016  1.6354
 6821SOL    HW232100   1.505   2.563  14.921 -0.3237 -1.3360 -0.4539
 6822SOL     OW32101   0.264   2.711   8.774 -0.1045 -0.3171 -0.3289
 6822SOL    HW132102   0.194   2.662   8.816  0.2481 -0.6372 -0.1084
 6822SOL    HW232103   0.220   2.792   8.748 -0.9488 -0.7940 -0.3844
 6823SOL     OW32104   4.535   4.168   4.219 -0.0684  0.7710  0.0394
 6823SOL    HW132105   4.516   4.206   4.133  0.6664  1.0815  0.0112
 6823SOL    HW232106   4.462   4.184   4.279 -0.2135  2.5148 -0.6144
 6824SOL     OW32107   1.047   1.562   7.477  0.1049  0.3361 -0.4446
 6824SOL    HW132108   1.044   1.649   7.518 -1.6762  0.5410 -0.9969
 6824SOL    HW232109   0.964   1.555   7.429  0.1790 -0.3052 -0.4822
 6825SOL     OW32110   1.148   0.761   3.419 -0.1333  0.4111  0.5037
 6825SOL    HW132111   1.103   0.737   3.500  1.3076 -0.1938  1.1361
 6825SOL    HW232112   1.171   0.853   3.430 -3.2522  1.3637 -1.0384
 6826SOL     OW32113   3.484   0.137   2.677  0.1055 -0.0314 -0.0206
 6826SOL    HW132114   3.453   0.050   2.651  1.2378  0.2264 -2.2275
 6826SOL    HW232115   3.546   0.153   2.606 -0.8062 -1.4447 -1.1343
 6827SOL     OW32116   2.833   0.978  10.007 -0.4202 -0.2026  0.0276
 6827SOL    HW132117   2.825   0.965  10.102 -2.5934  3.4303  0.3029
 6827SOL    HW232118   2.808   1.070  10.008  1.3983  0.3076 -2.9863
 6828SOL     OW32119   1.506   0.028   8.384 -0.1520  0.1154  0.0786
 6828SOL    HW132120   1.455   0.013   8.463 -1.3031  0.7910 -0.5208
 6828SOL    HW232121   1.504   0.122   8.400  0.0399 -0.1274  1.4678
 6829SOL     OW32122   3.548   4.313   4.949  0.0783 -0.2458  0.0271
 6829SOL    HW132123   3.594   4.349   5.026 -1.1766  0.6066  0.3759
 6829SOL    HW232124   3.615   4.254   4.913 -1.9309 -1.0906 -2.3386
 6830SOL     OW32125   1.257   3.666   4.694 -0.4196  0.3348  0.3481
 6830SOL    HW132126   1.276   3.609   4.769  1.4417  0.2084 -0.2287
 6830SOL    HW232127   1.183   3.712   4.734 -2.1562  1.3140 -3.9890
 6831SOL     OW32128   1.774   2.215  15.218 -0.0820  0.0065  0.6783
 6831SOL    HW132129   1.853   2.162  15.202 -1.1013 -1.5564  0.8742
 6831SOL    HW232130   1.704   2.156  15.192  0.1573 -0.9964  2.3214
 6832SOL     OW32131   0.522   4.063   8.075 -0.1815 -0.7350  0.0350
 6832SOL    HW132132   0.462   4.030   8.008 -0.6236  0.0913  0.0267
 6832SOL    HW232133   0.506   4.157   8.081 -0.9929 -0.9108  0.5479
 6833SOL     OW32134   1.396   2.730   3.919 -0.1877  0.0084  0.1856
 6833SOL    HW132135   1.305   2.731   3.947 -0.4638  0.7453 -0.7206
 6833SOL    HW232136   1.400   2.814   3.873  0.7099 -0.4734 -0.6094
 6834SOL     OW32137   2.733   2.498   5.134  0.2416  0.3943 -0.2643
 6834SOL    HW132138   2.704   2.418   5.089 -1.0764  1.1878 -0.8178
 6834SOL    HW232139   2.825   2.475   5.143  0.5159  0.6182 -2.5645
 6835SOL     OW32140   2.619   4.217   8.953 -0.2183  0.2834 -0.1524
 6835SOL    HW132141   2.596   4.136   8.999 -0.6159 -0.1839 -1.1674
 6835SOL    HW232142   2.691   4.181   8.901  0.4861  1.3440  0.0853
 6836SOL     OW32143   1.039   0.212  14.247  0.2586  0.0106 -0.5495
 6836SOL    HW132144   1.037   0.267  14.325 -1.0954 -2.6990  1.3394
 6836SOL    HW232145   1.012   0.273  14.178  1.9023  1.2449 -0.0924
 6837SOL     OW32146   4.152   1.269  16.973 -0.3670  0.3603  0.1577
 6837SOL    HW132147   4.234   1.253  17.020 -1.0168  0.7508  1.4460
 6837SOL    HW232148   4.144   1.195  16.913 -0.0526  0.2796  0.2174
 6838SOL     OW32149   3.445   3.703   9.520  0.1117  0.2378 -0.0746
 6838SOL    HW132150   3.382   3.652   9.571 -1.6639 -0.4239 -2.9065
 6838SOL    HW232151   3.499   3.637   9.475 -2.2869 -0.3829 -2.0129
 6839SOL     OW32152   0.273   1.267   3.571  0.0129 -0.4894  0.4499
 6839SOL    HW132153   0.315   1.292   3.653  0.8747 -0.6106  0.0450
 6839SOL    HW232154   0.282   1.339   3.509  0.3292  1.7618  3.1112
 6840SOL     OW32155   2.238   2.376  10.287  0.1681 -0.6277 -0.4416
 6840SOL    HW132156   2.187   2.453  10.313  0.5547 -1.0238  1.4924
 6840SOL    HW232157   2.170   2.317  10.253 -0.0007  0.0963 -1.3586
 6841SOL     OW32158   4.042   2.252   7.337  0.3763 -0.0997  0.5415
 6841SOL    HW132159   4.110   2.304   7.294 -0.9792  1.0615 -0.2132
 6841SOL    HW232160   4.070   2.164   7.312  2.7844  0.6001  0.8353
 6842SOL     OW32161   3.350   0.440  17.697  0.3194 -0.1718 -0.0718
 6842SOL    HW132162   3.336   0.451   0.038 -1.0521 -0.8376 -0.1892
 6842SOL    HW232163   3.334   0.529  17.665  0.1962 -1.2003 -2.9100
 6843SOL     OW32164   0.897   3.204   1.232  0.4286 -0.5595 -0.0041
 6843SOL    HW132165   0.938   3.125   1.197 -1.2580 -1.6226  0.4244
 6843SOL    HW232166   0.976   3.259   1.231  0.7408 -0.9874  0.6627
 6844SOL     OW32167   1.048   1.981   6.897 -0.1622 -0.0730 -0.6231
 6844SOL    HW132168   0.968   2.025   6.927  0.9827  0.4042  1.7221
 6844SOL    HW232169   1.036   1.898   6.944 -0.3014  0.9329  1.1117
 6845SOL     OW32170   0.644   1.679  10.676 -0.6504 -0.1904 -0.4589
 6845SOL    HW132171   0.686   1.751  10.723  1.1906 -2.4764  1.4597
 6845SOL    HW232172   0.651   1.708  10.585  0.5009 -0.7596 -0.5641
 6846SOL     OW32173   3.771   2.859  13.266  0.6083 -0.3331 -0.0000
 6846SOL    HW132174   3.824   2.835  13.342  1.0997  1.5792  0.2633
 6846SOL    HW232175   3.763   2.953  13.284  1.1673 -0.2319 -0.2651
 6847SOL     OW32176   1.577   4.313   7.267  0.3772 -0.0013  0.4282
 6847SOL    HW132177   1.651   4.364   7.300  1.8153 -3.8712  3.1325
 6847SOL    HW232178   1.616   4.226   7.273  1.0033  0.3006  0.6901
 6848SOL     OW32179   0.279   2.475  12.207 -0.2966 -0.6255  0.1543
 6848SOL    HW132180   0.368   2.441  12.196 -1.2235 -3.0219  0.0695
 6848SOL    HW232181   0.229   2.430  12.139  0.3850 -0.8231 -0.2168
 6849SOL     OW32182   0.501   1.285  13.020  0.1850  0.0431 -0.1960
 6849SOL    HW132183   0.546   1.285  12.936  0.9235 -1.3205  0.2036
 6849SOL    HW232184   0.451   1.366  13.008  0.3074  0.0564 -0.6111
 6850SOL     OW32185   2.695   0.249   3.108  0.4079  0.1973  0.3775
 6850SOL    HW132186   2.693   0.278   3.017  0.1902 -0.5078  0.1587
 6850SOL    HW232187   2.681   0.155   3.102  1.4469 -0.0468  1.7642
 6851SOL     OW32188   1.293   3.519  14.644  0.3022 -0.1566 -0.2923
 6851SOL    HW132189   1.379   3.544  14.680 -0.0758 -0.3602  0.7512
 6851SOL    HW232190   1.317   3.507  14.552 -2.7671 -0.0870 -1.0834
 6852SOL     OW32191   4.137   3.082   2.097  0.7126  0.1928  0.6401
 6852SOL    HW132192   4.142   3.132   2.179 -2.8668  0.3876  0.7126
 6852SOL    HW232193   4.117   3.155   2.037  1.6204 -2.1368 -2.4911
 6853SOL     OW32194   0.457   4.003   1.191 -0.0512 -0.4270  0.3184
 6853SOL    HW132195   0.461   4.038   1.102 -1.6769 -1.3772 -0.1209
 6853SOL    HW232196   0.364   4.014   1.208  0.1082  2.8681 -1.0086
 6854SOL     OW32197   4.372   0.473   8.400  0.1755 -0.1772  0.9592
 6854SOL    HW132198   4.332   0.541   8.346 -0.1988 -1.8412 -0.8539
 6854SOL    HW232199   4.317   0.403   8.365 -0.5701  1.1920 -0.6140
 6855SOL     OW32200   1.095   3.208   5.030 -0.0335 -0.1902 -0.6489
 6855SOL    HW132201   1.133   3.294   5.050 -0.1952 -0.8014  2.1900
 6855SOL    HW232202   1.023   3.201   5.093 -2.1132  0.9768 -2.8695
 6856SOL     OW32203   3.859   2.284   7.575  0.5805  0.6917 -0.5175
 6856SOL    HW132204   3.941   2.235   7.580 -0.2084 -0.6819 -0.8234
 6856SOL    HW232205   3.868   2.345   7.502 -0.2203  2.6461  1.0355
 6857SOL     OW32206   1.406   1.472   9.081 -0.2853 -0.3025 -0.0414
 6857SOL    HW132207   1.489   1.484   9.127 -0.8406 -0.3574  0.9751
 6857SOL    HW232208   1.342   1.494   9.149 -0.1188  2.6638 -0.8081
 6858SOL     OW32209   2.687   0.155   6.261 -0.1206 -0.0292  0.0327
 6858SOL    HW132210   2.659   0.246   6.257 -0.4545 -0.1837 -1.0853
 6858SOL    HW232211   2.780   0.170   6.248  0.6694 -3.3175  1.6950
 6859SOL     OW32212   2.462   2.330  10.731  0.0822  0.1751  0.5997
 6859SOL    HW132213   2.368   2.328  10.717  0.6218  0.0091 -2.8529
 6859SOL    HW232214   2.496   2.242  10.750  1.0501  0.2469 -0.8010
 6860SOL     OW32215   3.792   4.311  11.336  0.0844 -0.2804 -0.1105
 6860SOL    HW132216   3.845   4.336  11.412  0.7622  1.5590 -1.1782
 6860SOL    HW232217   3.702   4.339  11.351  0.8159  1.0484  1.7951
 6861SOL     OW32218   2.388   3.804   4.936  0.0778 -0.4443  0.0450
 6861SOL    HW132219   2.362   3.740   4.870 -0.5234  0.6852 -0.8114
 6861SOL    HW232220   2.458   3.762   4.986  1.2890 -0.9015 -2.0454
 6862SOL     OW32221   2.420   1.930   5.514  0.1924  0.7945  0.2771
 6862SOL    HW132222   2.382   1.998   5.457 -0.5741 -0.9589 -1.3254
 6862SOL    HW232223   2.502   1.921   5.465 -0.5129 -1.8543 -0.4175
 6863SOL     OW32224   3.162   4.008  12.352 -0.1842 -0.3783  0.1064
 6863SOL    HW132225   3.110   4.085  12.375  1.0890  1.2819 -2.5700
 6863SOL    HW232226   3.126   3.948  12.418  2.3898 -1.0583  0.8940
 6864SOL     OW32227   2.635   0.659  16.887 -0.5238 -0.5332  0.5015
 6864SOL    HW132228   2.571   0.633  16.821 -0.3074 -4.3676  1.8235
 6864SOL    HW232229   2.714   0.606  16.874 -0.0589  0.2894  0.0056
 6865SOL     OW32230   1.362   2.508  10.122  0.2756  0.1531  0.4981
 6865SOL    HW132231   1.361   2.599  10.092  1.9062 -0.8373 -2.5584
 6865SOL    HW232232   1.391   2.447  10.055  1.3019  0.9123  0.2544
 6866SOL     OW32233   1.748   2.126  13.381  0.1093 -0.3022 -0.2965
 6866SOL    HW132234   1.663   2.082  13.383  0.1496 -0.2286  2.8844
 6866SOL    HW232235   1.812   2.058  13.363 -1.0230 -1.8956  1.6868
 6867SOL     OW32236   0.583   3.853   7.555 -0.7207  0.4255  0.0428
 6867SOL    HW132237   0.517   3.785   7.545 -1.0322  0.5155  1.5369
 6867SOL    HW232238   0.625   3.862   7.469  1.0724  1.4045  1.0183
 6868SOL     OW32239   1.396   1.591   5.997 -0.3256 -0.5099  0.3274
 6868SOL    HW132240   1.466   1.526   6.008 -1.0864 -1.3781  0.1031
 6868SOL    HW232241   1.406   1.631   6.083 -0.4504  1.1435 -0.4459
 6869SOL     OW32242   1.995   1.362  15.598 -0.3617 -0.9655  0.0790
 6869SOL    HW132243   1.904   1.342  15.621 -0.4492  2.2139  2.5200
 6869SOL    HW232244   2.022   1.401  15.681 -0.5599 -2.0430  0.6564
 6870SOL     OW32245   1.349   4.066   9.482 -0.5889  0.2902 -0.6370
 6870SOL    HW132246   1.263   4.060   9.440 -0.3898  2.3165 -1.3166
 6870SOL    HW232247   1.403   4.020   9.418  0.3415 -0.3299  0.5930
 6871SOL     OW32248   3.126   0.214   8.799  0.3608 -0.2118 -0.5209
 6871SOL    HW132249   3.119   0.119   8.785 -2.9404 -0.2585  1.6884
 6871SOL    HW232250   3.093   0.216   8.888  1.5604 -0.7029 -0.0671
 6872SOL     OW32251   1.916   0.227   3.077 -0.2813  0.4238 -0.1213
 6872SOL    HW132252   1.927   0.132   3.080  0.4999  0.5358  0.5047
 6872SOL    HW232253   1.983   0.248   3.142  1.0333 -1.9819 -0.7030
 6873SOL     OW32254   3.981   1.375   5.337 -0.2298  0.0438 -0.1525
 6873SOL    HW132255   3.904   1.352   5.389 -0.9990 -0.6027 -1.5817
 6873SOL    HW232256   3.957   1.327   5.258 -3.1008  2.1980 -0.5495
 6874SOL     OW32257   3.392   1.441   3.039 -0.2410  0.2465  0.2378
 6874SOL    HW132258   3.356   1.512   3.091 -2.4819 -0.8828  0.2237
 6874SOL    HW232259   3.325   1.435   2.972  1.5380  2.8444 -1.7452
 6875SOL     OW32260   4.659   3.818  11.259 -0.1122 -0.1332 -0.4445
 6875SOL    HW132261   4.576   3.781  11.290  0.3878  0.1041  1.1915
 6875SOL    HW232262   4.625   3.906  11.240  1.3238  0.5503  0.1426
 6876SOL     OW32263   0.409   3.410  11.601  0.2684 -0.2838 -0.5545
 6876SOL    HW132264   0.502   3.415  11.577  1.2676 -2.7761  2.7417
 6876SOL    HW232265   0.406   3.337  11.663  1.6507 -0.4422 -0.6768
 6877SOL     OW32266   3.632   0.478   1.228  0.2198  0.2656 -0.3419
 6877SOL    HW132267   3.569   0.411   1.202  0.8686 -0.4041 -0.1752
 6877SOL    HW232268   3.718   0.441   1.208  1.3911  1.8388  1.7504
 6878SOL     OW32269   2.827   0.030  13.246  0.0593  0.3622  0.2476
 6878SOL    HW132270   2.838   4.674  13.237 -2.5148 -0.0286  0.9603
 6878SOL    HW232271   2.792   0.038  13.335 -0.5741  0.7680 -0.0310
 6879SOL     OW32272   3.127   2.598   2.769  0.3720  0.1190  0.2183
 6879SOL    HW132273   3.193   2.619   2.703 -0.7707  2.2326 -0.2481
 6879SOL    HW232274   3.162   2.511   2.790 -0.5782  0.0321  1.4266
 6880SOL     OW32275   2.852   4.611  12.352  0.4663  0.3398  0.1786
 6880SOL    HW132276   2.788   4.664  12.401  0.4678 -0.9125  1.5525
 6880SOL    HW232277   2.799   4.604  12.273  0.4378 -1.6112  0.3836
 6881SOL     OW32278   2.474   3.162   1.761 -0.1838 -0.3727  1.0172
 6881SOL    HW132279   2.457   3.230   1.696  2.5768  1.5209  2.2447
 6881SOL    HW232280   2.532   3.108   1.708 -0.4436 -0.6582  1.0256
 6882SOL     OW32281   2.201   3.017   3.032  0.0036  0.7282  0.3265
 6882SOL    HW132282   2.214   2.971   3.115  0.3753  0.8623  0.3447
 6882SOL    HW232283   2.170   2.938   2.986  1.6079 -0.7699  1.7938
 6883SOL     OW32284   1.866   2.312   7.781  0.3965 -0.1182 -0.2073
 6883SOL    HW132285   1.775   2.324   7.807  0.6791  2.5899 -0.5223
 6883SOL    HW232286   1.870   2.353   7.695  0.7180 -0.0471 -0.1595
 6884SOL     OW32287   3.309   3.611  16.112 -0.4268  0.5640  0.5355
 6884SOL    HW132288   3.230   3.626  16.164 -0.7527  0.6671  0.0136
 6884SOL    HW232289   3.372   3.621  16.183 -0.7706 -1.5718  1.1562
 6885SOL     OW32290   1.556   4.315   8.372  0.3868 -0.0253 -0.7998
 6885SOL    HW132291   1.598   4.383   8.321  2.3085 -0.1009  0.6811
 6885SOL    HW232292   1.507   4.370   8.434  2.3942  1.0281 -0.1651
 6886SOL     OW32293   0.781   3.290   1.479  0.1777  0.5600  0.0426
 6886SOL    HW132294   0.782   3.385   1.470 -2.1977  0.6950  1.0562
 6886SOL    HW232295   0.824   3.260   1.399 -1.0022  1.0571 -0.7750
 6887SOL     OW32296   2.707   4.116   5.332  0.8603  0.6393 -0.3810
 6887SOL    HW132297   2.654   4.122   5.252 -0.4884 -1.5915  0.3182
 6887SOL    HW232298   2.780   4.060   5.304  0.5761  0.9960 -1.8357
 6888SOL     OW32299   2.911   0.082   3.343 -0.2287 -0.5011  0.5926
 6888SOL    HW132300   2.996   0.101   3.304 -0.3713 -0.4035  0.3355
 6888SOL    HW232301   2.904   4.727   3.323  1.3536 -0.3625 -0.5290
 6889SOL     OW32302   3.178   3.768   9.036 -0.3871 -0.1865 -0.4858
 6889SOL    HW132303   3.225   3.697   8.991 -1.6429 -1.3697  0.0738
 6889SOL    HW232304   3.209   3.749   9.125 -2.6570 -3.8212 -0.4654
 6890SOL     OW32305   2.861   2.469  13.079  0.0438  0.4236 -0.0434
 6890SOL    HW132306   2.943   2.502  13.115 -0.7473  0.8906  1.3480
 6890SOL    HW232307   2.875   2.375  13.073 -1.2049  0.2854 -0.9270
 6891SOL     OW32308   2.051   1.548  13.266  0.2773 -0.4044  0.1683
 6891SOL    HW132309   1.958   1.566  13.283  0.4509  0.4704  0.1774
 6891SOL    HW232310   2.068   1.604  13.190  0.0117 -0.2001  0.2577
 6892SOL     OW32311   3.054   3.555   0.733 -0.2573  0.2055 -0.4673
 6892SOL    HW132312   2.994   3.498   0.782 -0.6093  1.5063  0.6097
 6892SOL    HW232313   3.087   3.612   0.803 -0.0061 -2.2499  1.4126
 6893SOL     OW32314   3.585   2.102  16.744  0.5085 -0.1507  0.1299
 6893SOL    HW132315   3.581   2.132  16.835  1.9252  1.4258 -0.3112
 6893SOL    HW232316   3.494   2.125  16.724  0.3018  1.8327  3.3029
 6894SOL     OW32317   3.848   1.706  16.957 -0.2496 -0.2815 -0.0411
 6894SOL    HW132318   3.801   1.787  16.975  0.3650 -0.0155  0.4025
 6894SOL    HW232319   3.859   1.703  16.862  0.8974 -0.2576  0.0849
 6895SOL     OW32320   0.942   3.349   4.265 -0.0812 -0.0850  0.2637
 6895SOL    HW132321   0.931   3.254   4.265 -0.5912 -0.0234 -1.0270
 6895SOL    HW232322   1.033   3.353   4.236 -0.5683  0.9935 -1.0920
 6896SOL     OW32323   0.029   3.263   6.719 -0.2002  0.2750  0.2347
 6896SOL    HW132324   0.031   3.302   6.631  1.6542  0.5899  0.4103
 6896SOL    HW232325   0.104   3.306   6.761 -0.6428  1.2472  0.0175
 6897SOL     OW32326   3.364   0.885   3.976 -0.4820  0.1439 -0.2207
 6897SOL    HW132327   3.349   0.857   4.066 -1.8290  1.9456  0.1218
 6897SOL    HW232328   3.400   0.808   3.932 -0.5039  0.0717 -0.1124
 6898SOL     OW32329   3.084   2.063   2.025 -0.0152  0.0765 -0.4967
 6898SOL    HW132330   3.081   1.968   2.043 -2.3174  0.2672  0.1602
 6898SOL    HW232331   3.009   2.067   1.966 -0.2514 -0.1664 -0.2170
 6899SOL     OW32332   0.005   0.509   1.676 -0.0936  0.0762  0.4185
 6899SOL    HW132333   4.716   0.426   1.637  0.6965  0.8187 -1.7330
 6899SOL    HW232334   0.093   0.526   1.641  0.2813  0.6826  1.6819
 6900SOL     OW32335   3.847   4.238  13.571 -0.9461  0.0974  0.2770
 6900SOL    HW132336   3.801   4.321  13.561  0.4330  1.0279  1.6812
 6900SOL    HW232337   3.896   4.251  13.652  2.5256 -0.1020 -1.7484
 6901SOL     OW32338   2.209   3.502   7.516 -0.3663 -0.5692  0.4866
 6901SOL    HW132339   2.305   3.502   7.514 -0.4096  2.8752 -2.8789
 6901SOL    HW232340   2.193   3.470   7.428 -0.5869 -2.1289  1.1046
 6902SOL     OW32341   1.488   3.229  16.738 -0.4402 -0.7806 -0.3754
 6902SOL    HW132342   1.447   3.160  16.685 -0.9329 -1.0790  0.3954
 6902SOL    HW232343   1.576   3.192  16.746 -0.1826 -0.0887 -0.0635
 6903SOL     OW32344   3.535   0.427   3.117 -0.4030  0.1704  0.5043
 6903SOL    HW132345   3.448   0.387   3.111 -1.6611  3.1915 -1.1288
 6903SOL    HW232346   3.560   0.398   3.205 -2.9044  0.7584  1.4364
 6904SOL     OW32347   2.943   0.880  14.421 -0.4482  0.2589  1.0456
 6904SOL    HW132348   3.022   0.836  14.453 -0.9644  0.6910  2.8809
 6904SOL    HW232349   2.991   0.944  14.368 -0.0238 -0.8630  0.0641
 6905SOL     OW32350   4.091   0.295  15.475 -0.3191  0.6455 -0.3923
 6905SOL    HW132351   4.179   0.283  15.512 -0.7918 -2.0800 -0.1064
 6905SOL    HW232352   4.072   0.382  15.509  0.0544  0.9692 -1.0320
 6906SOL     OW32353   3.740   3.416   2.538  0.0828 -0.0648  0.0438
 6906SOL    HW132354   3.814   3.356   2.552  0.1843  0.0912  0.1767
 6906SOL    HW232355   3.663   3.358   2.541 -0.4654  0.4942 -3.6258
 6907SOL     OW32356   3.048   2.200  12.297  0.0793 -0.2019  0.0312
 6907SOL    HW132357   2.992   2.268  12.334 -0.5450 -0.9108  0.3852
 6907SOL    HW232358   3.069   2.159  12.382 -0.2255  0.0241  0.2146
 6908SOL     OW32359   0.762   2.212  11.194  0.1752  0.5551  0.2204
 6908SOL    HW132360   0.838   2.190  11.247 -1.0369  0.7928  2.0717
 6908SOL    HW232361   0.693   2.168  11.244 -0.2301 -0.0370 -0.8681
 6909SOL     OW32362   1.470   0.875  14.612  0.3953 -0.4048 -0.7412
 6909SOL    HW132363   1.562   0.894  14.595  0.8688 -1.9723  0.0940
 6909SOL    HW232364   1.463   0.793  14.563 -2.5170  0.2023 -1.3678
 6910SOL     OW32365   0.518   0.932   8.138 -0.2932 -0.6340 -0.1011
 6910SOL    HW132366   0.557   0.845   8.128 -1.9195 -1.3497 -0.1669
 6910SOL    HW232367   0.591   0.986   8.168 -0.5123 -1.4917  1.9757
 6911SOL     OW32368   3.858   2.265   4.432 -0.3458 -0.3483  0.6097
 6911SOL    HW132369   3.875   2.312   4.350 -2.0486  1.2824  1.1968
 6911SOL    HW232370   3.947   2.238   4.453 -0.2169 -1.0896 -0.9106
 6912SOL     OW32371   0.851   1.522   7.899  0.5027  0.5591 -0.2033
 6912SOL    HW132372   0.762   1.555   7.892 -0.2843 -1.5932 -0.3444
 6912SOL    HW232373   0.846   1.453   7.833 -1.5232 -0.6586  1.2269
 6913SOL     OW32374   2.512   1.676   3.283 -0.5601 -0.2627 -0.2388
 6913SOL    HW132375   2.535   1.583   3.289  2.4940  0.6026  1.4799
 6913SOL    HW232376   2.570   1.716   3.218 -0.3851  0.4470  0.3535
 6914SOL     OW32377   3.678   1.419   4.595  0.5973 -0.1010 -0.6682
 6914SOL    HW132378   3.755   1.462   4.557 -0.3587 -0.1906 -2.6968
 6914SOL    HW232379   3.694   1.443   4.686  0.5929  2.3228 -1.2943
 6915SOL     OW32380   3.737   3.772   3.959 -0.0648 -0.0844  0.3720
 6915SOL    HW132381   3.649   3.787   3.924 -0.1711  1.8799  1.4672
 6915SOL    HW232382   3.776   3.859   3.964 -1.5154  0.7353 -2.6552
 6916SOL     OW32383   0.176   1.040   7.201 -0.7082 -0.0119  0.2077
 6916SOL    HW132384   0.268   1.059   7.220 -1.0214  1.8318 -0.0974
 6916SOL    HW232385   0.158   1.071   7.290 -0.5088  1.4430 -0.2491
 6917SOL     OW32386   3.257   2.381   2.798  0.4261  0.1746 -0.1670
 6917SOL    HW132387   3.231   2.367   2.889  2.6565  0.1703  0.4890
 6917SOL    HW232388   3.249   2.292   2.763  3.2515 -0.4971  0.9040
 6918SOL     OW32389   0.131   4.233   1.906  0.6531 -0.1368  0.0077
 6918SOL    HW132390   0.049   4.212   1.950  0.0760  0.0583 -0.9813
 6918SOL    HW232391   0.129   4.176   1.829 -0.6529  2.1118 -1.6104
 6919SOL     OW32392   2.620   2.585   0.734 -0.3288 -0.1967  0.0186
 6919SOL    HW132393   2.693   2.553   0.682 -0.5795  1.3292 -1.2579
 6919SOL    HW232394   2.581   2.652   0.678 -1.2949  0.0542  0.9735
 6920SOL     OW32395   4.171   4.372  16.710 -0.0196  0.2172  0.0549
 6920SOL    HW132396   4.108   4.319  16.661  0.5956  0.2614 -0.7774
 6920SOL    HW232397   4.134   4.460  16.714  1.5379  0.8203  0.9678
 6921SOL     OW32398   0.422   1.051   7.331 -0.4555  0.0336  0.1122
 6921SOL    HW132399   0.443   1.130   7.380 -2.3115  1.0752 -0.7954
 6921SOL    HW232400   0.442   0.976   7.388  0.1721  0.8390  0.9323
 6922SOL     OW32401   1.782   2.300  14.816  0.1116 -0.2038 -0.2094
 6922SOL    HW132402   1.756   2.337  14.731  0.9574 -1.3570 -0.9674
 6922SOL    HW232403   1.799   2.208  14.796  1.1280 -0.1310  0.3479
 6923SOL     OW32404   3.247   4.078  16.881 -0.0553 -0.9436  0.0981
 6923SOL    HW132405   3.175   4.029  16.841 -0.7954  0.6732 -0.5613
 6923SOL    HW232406   3.268   4.123  16.800  0.5916 -2.3322 -0.5129
 6924SOL     OW32407   2.813   3.441  14.493 -1.1873 -0.3227  0.1879
 6924SOL    HW132408   2.778   3.530  14.494 -2.4517 -0.8168 -0.3082
 6924SOL    HW232409   2.881   3.454  14.427  1.6378 -1.5514  2.8664
 6925SOL     OW32410   1.370   3.230   7.377  0.0845 -0.3904  0.3700
 6925SOL    HW132411   1.414   3.145   7.375  0.2901 -0.2466 -1.3558
 6925SOL    HW232412   1.417   3.279   7.310  0.1936  1.8039  2.0542
 6926SOL     OW32413   3.438   0.320   7.785  0.2541  0.8692 -0.5042
 6926SOL    HW132414   3.439   0.356   7.697  1.1837  1.0404 -0.4169
 6926SOL    HW232415   3.406   0.399   7.830 -1.3285 -0.2558  0.3502
 6927SOL     OW32416   4.268   1.356   7.830  0.5614 -0.2608 -0.5747
 6927SOL    HW132417   4.192   1.390   7.876  0.1392  2.3421 -3.1585
 6927SOL    HW232418   4.258   1.261   7.829  0.9912 -0.3181  0.9884
 6928SOL     OW32419   2.215   3.674   6.500  0.0698 -0.2674 -0.1238
 6928SOL    HW132420   2.309   3.655   6.505 -0.1452 -1.6090 -0.8753
 6928SOL    HW232421   2.169   3.608   6.552 -0.4031  0.9086  0.9452
 6929SOL     OW32422   4.282   2.672   4.374 -0.3254  0.7907  0.2188
 6929SOL    HW132423   4.293   2.582   4.403 -0.1561  0.2479 -1.5406
 6929SOL    HW232424   4.352   2.683   4.310  0.7374 -3.0023  0.7624
 6930SOL     OW32425   2.629   4.606   1.540  0.0787  0.2990  0.8318
 6930SOL    HW132426   2.655   4.667   1.471  0.5686 -0.9579 -0.0959
 6930SOL    HW232427   2.572   4.663   1.590  1.3212  0.6388  1.8643
 6931SOL     OW32428   2.854   3.948  12.366 -0.5849 -1.1456  0.1741
 6931SOL    HW132429   2.902   3.973  12.445 -0.3553 -0.8836 -0.0504
 6931SOL    HW232430   2.802   3.882  12.412  1.2516 -0.6598  2.9475
 6932SOL     OW32431   1.209   1.574  17.063 -0.2924 -0.1453  0.0790
 6932SOL    HW132432   1.236   1.621  16.984  0.1457 -1.4535 -0.5450
 6932SOL    HW232433   1.235   1.487  17.034  2.2744  0.4806  0.5173
 6933SOL     OW32434   0.083   3.282   1.968  0.4698 -0.1005 -0.1326
 6933SOL    HW132435   0.019   3.218   1.936  0.3474 -0.1437  0.1999
 6933SOL    HW232436   0.162   3.233   1.990  0.5251  0.7003  1.4631
 6934SOL     OW32437   4.029   1.333   2.639  0.1915  0.2587 -0.3255
 6934SOL    HW132438   4.020   1.413   2.690 -1.0820  0.3702 -0.7134
 6934SOL    HW232439   3.938   1.303   2.650  0.3224  0.6522  1.6836
 6935SOL     OW32440   1.178   2.595  12.085  0.6063 -0.1975  0.1771
 6935SOL    HW132441   1.099   2.615  12.134  1.0182 -0.9275  1.1335
 6935SOL    HW232442   1.236   2.666  12.111 -0.4151  0.4045  0.8126
 6936SOL     OW32443   1.160   2.980   5.418 -0.0275  0.4854 -0.0297
 6936SOL    HW132444   1.169   3.075   5.413 -1.4540  0.6421  0.3194
 6936SOL    HW232445   1.167   2.966   5.513  2.1048  1.4156 -0.0515
 6937SOL     OW32446   0.532   2.193   2.944 -0.1991  0.0134 -0.4969
 6937SOL    HW132447   0.482   2.119   2.907  0.5736  1.1777 -3.8922
 6937SOL    HW232448   0.566   2.158   3.026  1.4777 -1.0565 -1.6350
 6938SOL     OW32449   0.410   1.748   8.071 -0.0788  0.1973 -0.6866
 6938SOL    HW132450   0.419   1.842   8.054  1.1276 -0.0093 -1.2174
 6938SOL    HW232451   0.432   1.700   7.991  0.2637  2.0424 -1.7005
 6939SOL     OW32452   0.353   4.205   2.679  0.3032 -0.0531  0.2619
 6939SOL    HW132453   0.420   4.258   2.636 -1.2945  0.7568 -1.2925
 6939SOL    HW232454   0.288   4.201   2.608 -0.4096  1.0778  0.8638
 6940SOL     OW32455   0.399   1.356   4.406 -0.0403 -0.0886 -0.4334
 6940SOL    HW132456   0.428   1.309   4.485 -0.5789 -0.2617 -0.3407
 6940SOL    HW232457   0.325   1.306   4.371 -0.0032  1.3377 -2.5435
 6941SOL     OW32458   3.785   1.209   2.591  0.0644 -0.0500  0.3814
 6941SOL    HW132459   3.815   1.132   2.543 -1.4834  0.8058 -1.9598
 6941SOL    HW232460   3.743   1.269   2.529  2.2874  1.2131  0.1102
 6942SOL     OW32461   1.240   3.948   8.810  0.5164 -0.0572 -0.6320
 6942SOL    HW132462   1.162   3.899   8.786  0.2411 -0.0304  0.2169
 6942SOL    HW232463   1.215   4.039   8.795  1.4731  0.1473 -1.0119
 6943SOL     OW32464   3.283   2.764   3.288 -0.0863 -0.1242 -0.8283
 6943SOL    HW132465   3.335   2.822   3.232  0.4335  0.5664  0.3604
 6943SOL    HW232466   3.194   2.769   3.252 -0.0961  0.0586 -0.7798
 6944SOL     OW32467   0.577   0.449   2.466  0.2947 -0.1999  0.4119
 6944SOL    HW132468   0.517   0.375   2.467 -0.4337  0.3749 -0.5980
 6944SOL    HW232469   0.660   0.411   2.496  0.7094  0.5276  0.1814
 6945SOL     OW32470   2.840   1.206   3.060  0.4614 -0.5836  0.1861
 6945SOL    HW132471   2.923   1.209   3.013  0.2348 -0.9173 -0.2294
 6945SOL    HW232472   2.871   1.250   3.140  0.1460  1.3772 -0.7543
 6946SOL     OW32473   1.849   2.685   5.076 -0.1467 -0.0920  0.7521
 6946SOL    HW132474   1.810   2.599   5.057  0.6293 -0.5459  1.2192
 6946SOL    HW232475   1.940   2.673   5.050 -0.1433 -0.4125  0.9082
 6947SOL     OW32476   1.143   0.953   5.767 -0.0843  0.1034 -0.2215
 6947SOL    HW132477   1.049   0.970   5.775  0.1932  1.5262  0.0253
 6947SOL    HW232478   1.182   0.993   5.845  0.7829 -1.8580  0.3311
 6948SOL     OW32479   2.981   3.686  16.609  0.4978 -0.4125  0.1830
 6948SOL    HW132480   2.890   3.709  16.593  0.7410  1.9845  2.2487
 6948SOL    HW232481   2.977   3.593  16.632 -0.2577 -0.7568 -1.3275
 6949SOL     OW32482   3.366   3.000  16.191  0.2360 -0.3033  0.2161
 6949SOL    HW132483   3.367   2.939  16.116  1.9866 -1.6241  1.3129
 6949SOL    HW232484   3.274   2.994  16.218 -0.8375 -0.9687 -3.4859
 6950SOL     OW32485   4.514   2.949   5.146 -0.0140 -0.4155  0.6704
 6950SOL    HW132486   4.532   2.931   5.054  1.3375  0.5837  0.7342
 6950SOL    HW232487   4.602   2.982   5.165 -0.4588  1.0785  0.0768
 6951SOL     OW32488   2.640   2.565   4.037 -0.1484 -0.3725  0.3425
 6951SOL    HW132489   2.681   2.572   3.951 -1.2701 -1.1541 -0.2570
 6951SOL    HW232490   2.567   2.627   4.044  0.3187  0.1573  0.5803
 6952SOL     OW32491   2.576   0.754   1.181  0.1601  1.2287 -0.2378
 6952SOL    HW132492   2.569   0.798   1.096 -0.5204 -0.1472 -0.8895
 6952SOL    HW232493   2.615   0.820   1.239 -1.0770  3.4224 -1.8868
 6953SOL     OW32494   1.626   0.686  17.579 -0.8922  0.0603  0.3537
 6953SOL    HW132495   1.540   0.718  17.552 -0.5061  0.8341  0.0431
 6953SOL    HW232496   1.672   0.740  17.515 -1.3768  0.3516  0.2501
 6954SOL     OW32497   1.403   1.299   5.489  0.1232 -0.6335  0.4876
 6954SOL    HW132498   1.421   1.210   5.519  1.7221 -0.4241  0.1291
 6954SOL    HW232499   1.349   1.284   5.412 -0.7472  2.7438  0.4239
 6955SOL     OW32500   0.097   3.409  12.165  0.2945  0.8556 -0.1688
 6955SOL    HW132501   0.127   3.371  12.083 -0.5954  1.8348 -0.9532
 6955SOL    HW232502   0.074   3.499  12.139 -2.0611  0.1056 -0.7383
 6956SOL     OW32503   4.675   0.755  14.625 -0.4798 -0.6232 -0.4564
 6956SOL    HW132504   0.021   0.711  14.612  0.3679  0.5571  1.1260
 6956SOL    HW232505   4.615   0.681  14.630 -0.5353 -0.5922 -0.6659
 6957SOL     OW32506   0.778   3.643   1.760  0.3265  0.4596  0.1602
 6957SOL    HW132507   0.726   3.711   1.717  0.1295  1.3465  1.7957
 6957SOL    HW232508   0.793   3.682   1.846 -0.7982 -1.7817  1.3627
 6958SOL     OW32509   3.148   2.033   5.065  0.2829  0.0373 -0.5454
 6958SOL    HW132510   3.207   2.065   4.997  1.8616  2.3408  1.8708
 6958SOL    HW232511   3.106   1.956   5.028 -0.8120  0.1942  0.3920
 6959SOL     OW32512   0.692   0.588   8.050 -0.0577 -0.6127 -0.0155
 6959SOL    HW132513   0.773   0.538   8.059  1.1786  1.5973  1.2849
 6959SOL    HW232514   0.623   0.525   8.072 -0.8222  0.1924 -0.1228
 6960SOL     OW32515   4.271   1.702   6.020  0.1280 -0.1324  0.1758
 6960SOL    HW132516   4.319   1.632   6.064  0.9039  3.0282  4.3404
 6960SOL    HW232517   4.344   1.755   5.990  0.4048 -0.0457  0.9969
 6961SOL     OW32518   4.362   2.974   5.541  0.4787  0.1098  0.2063
 6961SOL    HW132519   4.326   2.889   5.564  0.2633  0.1084 -0.1338
 6961SOL    HW232520   4.284   3.030   5.541 -0.5482 -1.3275  0.9399
 6962SOL     OW32521   1.555   3.984   2.547  0.0688 -0.0770 -0.0688
 6962SOL    HW132522   1.601   3.909   2.508  0.0870  0.3185 -0.8117
 6962SOL    HW232523   1.497   3.939   2.608  2.1789 -0.1934  1.8543
 6963SOL     OW32524   0.751   1.278   4.390  0.9722  0.0558  0.1169
 6963SOL    HW132525   0.806   1.206   4.358  0.0872 -0.3456 -0.5028
 6963SOL    HW232526   0.800   1.315   4.463  1.1320 -0.2924  0.1844
 6964SOL     OW32527   2.787   0.703   9.994 -0.4192 -0.1611  0.1797
 6964SOL    HW132528   2.810   0.794  10.016 -1.1215 -0.4028  1.9168
 6964SOL    HW232529   2.712   0.717   9.936 -0.9505 -0.1555  0.8690
 6965SOL     OW32530   3.339   1.166   3.071  0.4266 -0.3444  0.9108
 6965SOL    HW132531   3.413   1.125   3.117  1.4007 -0.8043 -1.0937
 6965SOL    HW232532   3.353   1.261   3.078 -0.2672 -0.1021 -1.0807
 6966SOL     OW32533   1.386   2.607   4.887  0.1147 -0.1167 -0.0811
 6966SOL    HW132534   1.435   2.596   4.805 -0.2222 -2.7471  0.0765
 6966SOL    HW232535   1.366   2.700   4.888  1.5721  0.1913  1.1117
 6967SOL     OW32536   4.449   0.811   2.018 -0.0100 -0.0667  0.2732
 6967SOL    HW132537   4.519   0.767   2.065 -0.1044  2.2601  2.5571
 6967SOL    HW232538   4.470   0.905   2.023 -0.4395  0.0853 -0.7380
 6968SOL     OW32539   1.253   1.570   5.760 -0.3153 -0.1983  0.4199
 6968SOL    HW132540   1.322   1.554   5.825  1.7145 -1.4729 -2.0416
 6968SOL    HW232541   1.309   1.575   5.682  0.4961  0.7375  1.0525
 6969SOL     OW32542   0.502   2.659   8.653  0.9465 -0.4264 -0.2583
 6969SOL    HW132543   0.557   2.719   8.703 -1.0546 -1.6360  3.4050
 6969SOL    HW232544   0.420   2.680   8.699  2.0889  2.3923  0.5286
 6970SOL     OW32545   1.696   3.250   2.549  0.5843 -0.0576  0.1184
 6970SOL    HW132546   1.781   3.221   2.518  1.4640  1.7739  0.8829
 6970SOL    HW232547   1.695   3.343   2.530 -1.9953 -0.1799 -0.3568
 6971SOL     OW32548   3.739   1.807   4.829 -0.1915  0.1887 -0.1045
 6971SOL    HW132549   3.705   1.890   4.863  0.9533  1.3598 -1.7738
 6971SOL    HW232550   3.764   1.765   4.911  1.3244  1.2928  0.0138
 6972SOL     OW32551   0.616   3.575   6.834 -0.2285 -0.2224  0.5557
 6972SOL    HW132552   0.627   3.585   6.929  1.5219  1.2645  0.1918
 6972SOL    HW232553   0.702   3.604   6.803 -0.9007 -0.9190 -1.9652
 6973SOL     OW32554   3.987   1.636   4.883 -0.1176  0.1771 -0.8467
 6973SOL    HW132555   3.964   1.553   4.841 -2.5769  0.5621 -0.2526
 6973SOL    HW232556   3.937   1.640   4.965  1.4782  0.3296  0.1218
 6974SOL     OW32557   4.415   1.140   7.026 -0.1944 -0.2712  0.0516
 6974SOL    HW132558   4.476   1.127   6.953 -0.6442  0.7448 -0.4918
 6974SOL    HW232559   4.476   1.134   7.100 -0.6550 -1.2299  0.3551
 6975SOL     OW32560   0.696   2.472  12.469  0.4146  0.0282 -0.4762
 6975SOL    HW132561   0.614   2.469  12.518 -0.3196  0.7160 -1.6567
 6975SOL    HW232562   0.742   2.550  12.500 -0.3377  1.3815 -2.7105
 6976SOL     OW32563   3.539   1.483  13.270 -0.1365 -0.3776  0.4598
 6976SOL    HW132564   3.552   1.463  13.363 -0.0021  2.0841  0.9797
 6976SOL    HW232565   3.544   1.579  13.269 -1.9569 -0.2984 -1.6018
 6977SOL     OW32566   3.847   0.116   2.780 -0.1623 -0.3174  0.1691
 6977SOL    HW132567   3.782   0.181   2.807 -1.0230 -1.4920  0.9542
 6977SOL    HW232568   3.885   0.164   2.707  2.1468  0.1581  1.7095
 6978SOL     OW32569   0.694   0.847   2.834 -0.0263  0.5972 -0.6370
 6978SOL    HW132570   0.729   0.799   2.760  1.0792 -0.3459  0.4872
 6978SOL    HW232571   0.747   0.818   2.909 -0.1382  1.4821 -0.2115
 6979SOL     OW32572   3.083   2.121   5.333  0.3946  0.5060 -0.3748
 6979SOL    HW132573   3.123   2.107   5.246  0.9930  0.5787 -0.1147
 6979SOL    HW232574   2.989   2.128   5.320  0.6156  0.2803 -2.2028
 6980SOL     OW32575   0.538   2.349   6.383  0.4132  0.6458 -0.0793
 6980SOL    HW132576   0.487   2.302   6.449  0.4986 -2.1867 -2.0582
 6980SOL    HW232577   0.626   2.316   6.400  0.9279  2.1092  0.1506
 6981SOL     OW32578   1.829   1.342   5.835  0.9456  0.0964 -0.5885
 6981SOL    HW132579   1.922   1.320   5.846  0.8612 -2.0176 -4.0608
 6981SOL    HW232580   1.826   1.328   5.741  0.1948 -0.1923 -0.5204
 6982SOL     OW32581   2.889   3.564   1.146 -0.1946  0.4055 -0.1341
 6982SOL    HW132582   2.861   3.479   1.180  1.8416  0.6839  2.2755
 6982SOL    HW232583   2.811   3.585   1.096  0.2392 -0.6918 -1.2608
 6983SOL     OW32584   2.074   2.429   8.688  0.1333 -0.9814  0.0280
 6983SOL    HW132585   1.997   2.471   8.727 -0.8618 -1.9621 -0.8819
 6983SOL    HW232586   2.028   2.355   8.648 -2.7387  1.7181 -1.6582
 6984SOL     OW32587   2.681   3.705   3.424  0.6268  0.6919  0.4361
 6984SOL    HW132588   2.721   3.782   3.464 -0.1060  1.4618 -0.3289
 6984SOL    HW232589   2.664   3.743   3.339 -2.4955  1.1955  1.2759
 6985SOL     OW32590   1.804   1.566   6.977 -0.0546  0.0133  0.5509
 6985SOL    HW132591   1.773   1.530   7.060 -2.1588 -0.4387 -0.4198
 6985SOL    HW232592   1.743   1.517   6.922 -0.7921  3.0343 -1.3698
 6986SOL     OW32593   0.160   4.716   3.628  0.6775  0.3835  0.0722
 6986SOL    HW132594   0.191   4.650   3.690 -1.5709 -1.8515 -1.1997
 6986SOL    HW232595   0.080   4.673   3.597 -0.3782  1.9508  0.6130
 6987SOL     OW32596   0.012   1.679   8.395  0.4031 -0.3157 -0.7945
 6987SOL    HW132597   4.678   1.629   8.432 -1.8732  3.5700 -0.0727
 6987SOL    HW232598   0.079   1.667   8.463  1.7952  0.4744 -2.0077
 6988SOL     OW32599   0.735   2.889   3.543  0.3473  0.1895  0.1726
 6988SOL    HW132600   0.738   2.834   3.621  1.9563 -0.9209 -0.6673
 6988SOL    HW232601   0.816   2.937   3.562 -1.0133  2.0139  1.3517
 6989SOL     OW32602   2.142   0.490   9.601 -0.0597  0.4868  0.2814
 6989SOL    HW132603   2.096   0.569   9.631 -2.5800 -0.7170 -0.4827
 6989SOL    HW232604   2.216   0.516   9.547  0.8805  0.5898  1.6207
 6990SOL     OW32605   1.605   2.578   2.874  0.1052 -0.2739 -0.5384
 6990SOL    HW132606   1.547   2.573   2.798  2.6047  0.0840 -2.4727
 6990SOL    HW232607   1.549   2.515   2.919  1.4172 -1.6255 -0.8156
 6991SOL     OW32608   4.367   0.267  12.886 -0.7452  0.2997  0.2733
 6991SOL    HW132609   4.367   0.354  12.846  0.9279  1.0499  1.8982
 6991SOL    HW232610   4.449   0.230  12.851  0.6235  0.7929  2.9899
 6992SOL     OW32611   1.907   3.704   8.731 -0.1073 -0.6054  0.0566
 6992SOL    HW132612   1.839   3.658   8.780 -1.0635  0.4196 -0.3110
 6992SOL    HW232613   1.863   3.741   8.654 -0.4491  0.5035  0.7733
 6993SOL     OW32614   2.828   1.052   8.945 -0.4825  0.4333  0.3826
 6993SOL    HW132615   2.906   1.102   8.971 -0.6654  0.3574  1.0868
 6993SOL    HW232616   2.772   1.126   8.921  0.2131  0.9788  0.4347
 6994SOL     OW32617   4.435   2.544   7.805  0.1731 -0.5388 -0.1600
 6994SOL    HW132618   4.380   2.510   7.874 -0.1534  0.1183 -0.0902
 6994SOL    HW232619   4.504   2.576   7.863 -0.0992  0.4518 -0.3704
 6995SOL     OW32620   0.138   3.764   8.525  0.1821  0.4230  0.7182
 6995SOL    HW132621   0.185   3.728   8.449 -2.0664  0.4848 -0.7095
 6995SOL    HW232622   0.052   3.790   8.492  0.3764  0.1471 -0.0233
 6996SOL     OW32623   3.818   4.386   7.355 -0.4390 -0.4402  0.0351
 6996SOL    HW132624   3.887   4.337   7.311 -1.2443 -0.3229 -1.3384
 6996SOL    HW232625   3.857   4.384   7.443  3.1143 -0.8194 -1.5735
 6997SOL     OW32626   3.767   2.984   2.914 -0.4112  0.4864 -0.3081
 6997SOL    HW132627   3.833   2.955   2.851 -0.1554  0.3091  0.0340
 6997SOL    HW232628   3.687   2.956   2.871 -0.0412  0.1062 -0.7438
 6998SOL     OW32629   3.543   3.169   9.005 -0.0276  0.5296  0.1777
 6998SOL    HW132630   3.509   3.080   8.998 -0.3236  0.6988 -0.5209
 6998SOL    HW232631   3.598   3.168   9.083  2.1433 -1.4895 -1.3811
 6999SOL     OW32632   1.428   0.749  10.770  0.0909 -0.5094  0.2095
 6999SOL    HW132633   1.520   0.766  10.751 -0.4872  1.1388 -1.1266
 6999SOL    HW232634   1.410   0.829  10.821 -0.6636  0.1248 -1.0496
 7000SOL     OW32635   0.880   0.149  10.512 -0.0519 -0.1176 -0.0960
 7000SOL    HW132636   0.961   0.195  10.490 -0.3747  0.9002  0.9034
 7000SOL    HW232637   0.831   0.161  10.431  2.1394  1.2837 -1.2089
 7001SOL     OW32638   4.252   1.605   6.355 -0.1004  0.3958  0.3526
 7001SOL    HW132639   4.311   1.604   6.279 -0.8675  0.0081 -0.2332
 7001SOL    HW232640   4.282   1.682   6.403 -0.0793  0.0315  0.9183
 7002SOL     OW32641   0.234   4.117   4.861 -0.4304 -0.2533  0.3500
 7002SOL    HW132642   0.268   4.198   4.824 -1.3625 -0.0650 -0.0950
 7002SOL    HW232643   0.311   4.060   4.856 -0.8074 -0.7861  0.5742
 7003SOL     OW32644   0.677   1.921   7.960  0.1417 -0.5932  0.6114
 7003SOL    HW132645   0.638   1.960   8.038  1.1777 -1.2787  1.4685
 7003SOL    HW232646   0.769   1.910   7.987  0.7764  0.7969 -0.9471
 7004SOL     OW32647   4.062   3.124   8.194 -0.0112 -0.1770 -0.0430
 7004SOL    HW132648   3.981   3.174   8.198 -0.0359 -0.4034  2.1913
 7004SOL    HW232649   4.118   3.169   8.257  2.6245 -1.1045 -1.6890
 7005SOL     OW32650   4.352   1.391  13.374  0.4041 -0.0857  0.1464
 7005SOL    HW132651   4.310   1.450  13.437  0.5339  0.0127  0.1419
 7005SOL    HW232652   4.355   1.444  13.294 -0.6897 -0.4286 -0.1183
 7006SOL     OW32653   2.984   1.669   4.316  0.2854 -0.9629  0.0871
 7006SOL    HW132654   2.947   1.729   4.252 -0.6187 -2.3862 -0.7303
 7006SOL    HW232655   2.964   1.590   4.266  0.3520 -1.2790  0.5579
 7007SOL     OW32656   1.595   0.023  17.512 -0.1728 -0.3333 -0.4237
 7007SOL    HW132657   1.666   0.047  17.572 -1.4249 -0.3722  1.0561
 7007SOL    HW232658   1.516   0.032  17.565  0.6912  2.3013  0.4097
 7008SOL     OW32659   3.485   0.263   1.147 -0.1124  0.4996  0.1059
 7008SOL    HW132660   3.511   0.176   1.178  0.1057  1.5171  2.8077
 7008SOL    HW232661   3.427   0.243   1.074 -1.0973 -1.8494  1.5093
 7009SOL     OW32662   4.577   3.844  14.138  1.1807  0.0009 -0.1528
 7009SOL    HW132663   4.635   3.859  14.213  0.1316 -1.2754  0.9095
 7009SOL    HW232664   4.573   3.749  14.150 -0.8131 -0.2490 -2.6675
 7010SOL     OW32665   0.505   2.235  15.715  0.0859 -0.2020  0.2158
 7010SOL    HW132666   0.528   2.167  15.651 -0.1324  0.9872 -1.1126
 7010SOL    HW232667   0.410   2.218  15.715 -0.2211  1.5218 -0.1460
 7011SOL     OW32668   1.724   3.744   3.975 -0.1963  0.0640  0.0393
 7011SOL    HW132669   1.645   3.784   3.940 -0.2428 -0.8261 -0.8724
 7011SOL    HW232670   1.783   3.739   3.900  0.5932  1.2284  0.5761
 7012SOL     OW32671   3.885   4.679   2.991  0.1300 -0.2692 -0.3667
 7012SOL    HW132672   3.891   0.002   2.918 -0.6706 -2.7770 -2.5629
 7012SOL    HW232673   3.821   4.720   3.048  1.2032  3.5937 -1.9813
 7013SOL     OW32674   3.424   0.277   9.579 -0.1290  0.3925 -0.1680
 7013SOL    HW132675   3.450   0.360   9.539 -0.3317  0.0251 -1.0832
 7013SOL    HW232676   3.484   0.278   9.653 -1.6306  2.2239  1.0083
 7014SOL     OW32677   2.743   3.963   3.836  0.5114  0.0668 -0.0075
 7014SOL    HW132678   2.673   3.918   3.884 -0.5892  0.9265 -0.7987
 7014SOL    HW232679   2.700   3.977   3.751 -0.6319 -1.4472  0.3089
 7015SOL     OW32680   3.333   1.640   7.026 -0.1063 -0.5174 -0.1435
 7015SOL    HW132681   3.379   1.666   6.947 -1.2487  0.8946 -0.3371
 7015SOL    HW232682   3.269   1.575   6.996 -2.2705  1.6236 -0.1791
 7016SOL     OW32683   2.736   3.367  12.869 -0.2716 -0.1975 -0.2416
 7016SOL    HW132684   2.786   3.387  12.791  1.2661 -0.2624  0.7280
 7016SOL    HW232685   2.653   3.341  12.830 -1.2975  1.6713  0.6858
 7017SOL     OW32686   0.276   1.404   1.354  0.1422  0.0979  0.0732
 7017SOL    HW132687   0.251   1.312   1.364 -0.6413  0.1443 -1.4498
 7017SOL    HW232688   0.197   1.431   1.306  0.6283 -0.6366 -1.1380
 7018SOL     OW32689   1.867   2.442   9.277 -0.2999 -0.1661 -0.0572
 7018SOL    HW132690   1.885   2.467   9.186 -1.5091 -0.1345 -0.2835
 7018SOL    HW232691   1.921   2.506   9.323  0.6382  0.2615 -1.7385
 7019SOL     OW32692   3.869   4.374   7.631  0.5006 -1.0557  0.7093
 7019SOL    HW132693   3.928   4.332   7.694  0.8510 -2.7296 -0.7473
 7019SOL    HW232694   3.785   4.334   7.656 -0.1266 -0.3287 -0.2206
 7020SOL     OW32695   3.551   1.204  13.989 -0.1473  0.7966 -1.1078
 7020SOL    HW132696   3.460   1.178  13.993  0.2182 -0.1248  1.0690
 7020SOL    HW232697   3.584   1.116  13.971 -2.6908 -0.2596 -0.5734
 7021SOL     OW32698   4.733   1.839   4.642 -0.5323  0.4501  0.2029
 7021SOL    HW132699   4.715   1.754   4.603  1.2770  0.0381  0.2803
 7021SOL    HW232700   4.704   1.819   4.731  0.7721 -1.5177  0.2054
 7022SOL     OW32701   2.139   3.751   0.710  0.2044 -0.0858 -0.0527
 7022SOL    HW132702   2.213   3.797   0.750  0.6891 -2.0625  1.3077
 7022SOL    HW232703   2.181   3.736   0.626 -2.4094  2.7026 -1.8717
 7023SOL     OW32704   2.695   2.961   8.433 -0.0361  0.2417 -0.0924
 7023SOL    HW132705   2.765   2.918   8.383  1.5119  3.4166 -0.6539
 7023SOL    HW232706   2.698   2.921   8.520  0.1788 -0.8801 -0.6141
 7024SOL     OW32707   4.272   3.536   7.115 -0.1737 -0.5314  0.4522
 7024SOL    HW132708   4.286   3.442   7.109 -0.6217 -0.5988  0.4354
 7024SOL    HW232709   4.308   3.566   7.032 -1.9511  1.9421  0.5654
 7025SOL     OW32710   0.879   2.096   1.236  0.3880  0.6084  0.0550
 7025SOL    HW132711   0.969   2.072   1.254  1.2970  1.3108 -3.6428
 7025SOL    HW232712   0.872   2.150   1.314 -0.5432 -1.9852  1.7658
 7026SOL     OW32713   4.614   2.207   4.938  0.1926  0.0754  0.1181
 7026SOL    HW132714   4.605   2.294   4.900  1.3547 -0.0577 -0.4857
 7026SOL    HW232715   4.675   2.173   4.872  0.7057  0.1645  0.5397
 7027SOL     OW32716   3.236   4.157   8.133  0.3398 -0.1748  0.5614
 7027SOL    HW132717   3.203   4.099   8.202 -0.0599  0.2772  0.7436
 7027SOL    HW232718   3.169   4.221   8.112  0.5724 -0.5405 -1.3147
 7028SOL     OW32719   0.284   2.070   4.024  0.1049 -0.0399  1.0116
 7028SOL    HW132720   0.227   2.034   4.092 -2.3648  0.1252 -0.9685
 7028SOL    HW232721   0.307   1.990   3.977 -0.3355 -0.3728  1.3696
 7029SOL     OW32722   0.871   0.570   4.549 -0.0780  0.3179 -0.7607
 7029SOL    HW132723   0.940   0.508   4.526 -0.0200 -0.0965  0.5196
 7029SOL    HW232724   0.884   0.574   4.644 -2.8166 -0.3587 -0.3438
 7030SOL     OW32725   0.932   1.187   3.765 -0.5987  0.1263  0.1183
 7030SOL    HW132726   0.891   1.111   3.806 -1.3134 -0.8123 -2.3415
 7030SOL    HW232727   0.895   1.258   3.818  0.3642  0.2844  0.5805
 7031SOL     OW32728   0.341   4.437  16.890  0.1840 -0.1463  0.7995
 7031SOL    HW132729   0.437   4.437  16.881  0.1041  0.2839 -0.0876
 7031SOL    HW232730   0.329   4.377  16.964  2.0026 -1.4544  0.0603
 7032SOL     OW32731   4.109   3.738   8.141 -0.1116  0.8861  0.0847
 7032SOL    HW132732   4.030   3.741   8.195 -0.1973 -0.6294  0.0502
 7032SOL    HW232733   4.117   3.645   8.122 -1.8354  0.6889  0.2822
 7033SOL     OW32734   1.850   0.800  13.933 -0.1549 -0.1480  0.2141
 7033SOL    HW132735   1.802   0.733  13.981  0.1657 -0.8218 -0.4165
 7033SOL    HW232736   1.786   0.866  13.907  0.0183  0.1726  0.6102
 7034SOL     OW32737   0.881   2.925   4.618 -0.4120  0.2120  0.1907
 7034SOL    HW132738   0.913   3.014   4.603 -0.4155 -0.0582 -1.4434
 7034SOL    HW232739   0.922   2.902   4.701 -0.9896 -2.1709 -0.1763
 7035SOL     OW32740   4.202   4.094   3.423  0.5593  0.4184  0.4479
 7035SOL    HW132741   4.209   4.086   3.328  0.6548 -3.7948  0.7739
 7035SOL    HW232742   4.252   4.017   3.453  0.2449 -0.1971 -0.6032
 7036SOL     OW32743   1.157   1.608  14.260 -0.0432 -0.1972  0.5528
 7036SOL    HW132744   1.197   1.573  14.180 -0.7310 -1.0982  0.6146
 7036SOL    HW232745   1.092   1.667  14.221 -0.5095 -1.2072 -0.1945
 7037SOL     OW32746   1.541   3.196   5.902 -0.3455  0.1101  0.1961
 7037SOL    HW132747   1.544   3.104   5.930  2.1516  0.1467  0.0427
 7037SOL    HW232748   1.633   3.207   5.877 -0.1656  0.0790  0.8624
 7038SOL     OW32749   3.004   0.088   4.204 -0.3564 -0.3298 -0.3261
 7038SOL    HW132750   2.984   0.057   4.293 -0.4103  0.7643  0.0409
 7038SOL    HW232751   2.968   0.175   4.219  1.3853  0.3824 -0.3429
 7039SOL     OW32752   4.578   3.653   7.225  0.5188 -0.0375  0.4392
 7039SOL    HW132753   4.492   3.682   7.254 -0.0193 -0.8472 -0.3657
 7039SOL    HW232754   4.630   3.707   7.285  0.0641 -1.2650  1.9121
 7040SOL     OW32755   4.279   0.582   5.279  0.6862 -0.2907  0.1997
 7040SOL    HW132756   4.263   0.620   5.192  0.3337 -1.5709 -0.3009
 7040SOL    HW232757   4.221   0.634   5.335  0.2344  0.9906 -1.4401
 7041SOL     OW32758   4.072   2.687   1.349  0.0825 -0.5171 -0.0199
 7041SOL    HW132759   4.131   2.759   1.371  1.8740 -1.5799 -1.3680
 7041SOL    HW232760   3.997   2.712   1.403  0.2222  1.5418 -0.7732
 7042SOL     OW32761   1.113   0.024   3.788  0.1862  0.0263 -0.4550
 7042SOL    HW132762   1.104   0.090   3.719 -0.1523  0.4083 -0.0394
 7042SOL    HW232763   1.195   0.060   3.820 -0.1813 -0.5211  1.0937
 7043SOL     OW32764   4.318   4.429  12.485  0.0759 -0.3767  0.6589
 7043SOL    HW132765   4.412   4.410  12.486  0.3243  0.8782  2.3400
 7043SOL    HW232766   4.303   4.440  12.391 -1.5004  3.4827  1.3423
 7044SOL     OW32767   0.748   3.826   4.054  0.0732  0.2530 -0.0809
 7044SOL    HW132768   0.662   3.821   4.095  0.5605  0.1054  0.9252
 7044SOL    HW232769   0.795   3.754   4.096  1.6468  1.4472  0.2519
 7045SOL     OW32770   0.617   4.083   1.642 -0.0995  0.1671 -0.3267
 7045SOL    HW132771   0.551   4.037   1.694  1.1756 -0.4256  0.7362
 7045SOL    HW232772   0.678   4.014   1.615  1.8361  0.9848  2.0113
 7046SOL     OW32773   1.283   1.674  10.048  0.4824  0.6205 -0.5608
 7046SOL    HW132774   1.365   1.629  10.068 -1.6816 -2.8803  0.4651
 7046SOL    HW232775   1.230   1.669  10.127  2.8900 -0.8774  0.9603
 7047SOL     OW32776   1.019   0.534  10.690 -0.2691 -0.1299  0.1816
 7047SOL    HW132777   1.004   0.627  10.677 -0.1532 -0.0889  0.3561
 7047SOL    HW232778   0.933   0.494  10.707  0.0618 -1.0963 -0.3993
 7048SOL     OW32779   1.259   0.335   3.923  0.1354 -0.0690 -0.1085
 7048SOL    HW132780   1.338   0.389   3.926  0.4404 -0.5040 -0.4855
 7048SOL    HW232781   1.220   0.369   3.842  1.5194  1.4848 -0.1206
 7049SOL     OW32782   0.351   2.236   9.391 -0.1843  0.2622 -0.6294
 7049SOL    HW132783   0.302   2.201   9.317 -0.7388 -0.2482 -0.0340
 7049SOL    HW232784   0.294   2.206   9.462 -0.7055  3.2838  0.2004
 7050SOL     OW32785   3.161   4.102  14.635  0.3951 -0.3674 -0.0853
 7050SOL    HW132786   3.152   4.009  14.654  0.2382 -0.7525 -2.0057
 7050SOL    HW232787   3.253   4.123  14.647  0.3476 -1.6517  2.4239
 7051SOL     OW32788   1.143   2.333   3.479 -0.4550 -0.5598 -0.3295
 7051SOL    HW132789   1.068   2.360   3.425 -2.4715  2.1696  3.8812
 7051SOL    HW232790   1.105   2.263   3.532  0.3522 -0.7073  0.0477
 7052SOL     OW32791   3.503   1.087   0.780 -0.1832 -0.8696  0.0263
 7052SOL    HW132792   3.487   1.087   0.686  3.8272 -0.8216 -0.6583
 7052SOL    HW232793   3.581   1.143   0.779 -0.1847 -0.8204  1.9333
 7053SOL     OW32794   0.222   4.040  10.424 -0.2839 -0.1878  0.5641
 7053SOL    HW132795   0.308   4.003  10.409  0.0251 -0.3142  2.6296
 7053SOL    HW232796   0.223   4.062  10.517  1.8401 -0.4544  0.5895
 7054SOL     OW32797   2.607   3.250   6.246 -0.1606  0.5660  0.3936
 7054SOL    HW132798   2.693   3.243   6.207  0.2343  0.5134  1.2746
 7054SOL    HW232799   2.629   3.229   6.337 -1.8972 -0.3322  0.6148
 7055SOL     OW32800   4.285   1.605   9.853 -0.0389 -0.1655  0.0301
 7055SOL    HW132801   4.327   1.640   9.774  2.2299 -0.2101  1.2203
 7055SOL    HW232802   4.222   1.542   9.818 -1.6102  1.7171 -0.5152
 7056SOL     OW32803   3.919   1.243   8.652  0.2183 -0.1543  0.7373
 7056SOL    HW132804   3.878   1.305   8.711 -0.6613 -1.9541  2.0107
 7056SOL    HW232805   3.851   1.222   8.588  0.2893 -2.6511  1.4718
 7057SOL     OW32806   1.231   4.516   3.022 -0.3128 -0.1432 -0.5455
 7057SOL    HW132807   1.210   4.549   3.110 -1.5896  0.6689 -1.1703
 7057SOL    HW232808   1.289   4.442   3.038  2.1399  1.1730 -3.3209
 7058SOL     OW32809   0.212   3.445   3.251  0.8593 -0.6984  0.0674
 7058SOL    HW132810   0.191   3.487   3.167  1.1037  0.1659  0.4364
 7058SOL    HW232811   0.228   3.517   3.312 -1.8473  0.6219 -0.8023
 7059SOL     OW32812   0.431   0.591   4.740  0.3253 -0.1781 -0.6149
 7059SOL    HW132813   0.338   0.574   4.756  0.4727 -0.0397  0.4252
 7059SOL    HW232814   0.468   0.521   4.794  0.0950  0.2314  0.0820
 7060SOL     OW32815   1.546   0.734  14.907 -0.2888  0.8902  0.9020
 7060SOL    HW132816   1.601   0.807  14.880  1.4740 -0.5826  0.4572
 7060SOL    HW232817   1.464   0.752  14.862  0.8229  1.0946 -1.0363
 7061SOL     OW32818   1.343   2.968  10.876 -0.1783  0.1144  0.5857
 7061SOL    HW132819   1.368   2.921  10.956  3.2109 -1.4610 -1.3901
 7061SOL    HW232820   1.268   2.915  10.846  1.0304 -1.9805  1.2724
 7062SOL     OW32821   0.889   1.803   0.136 -0.4226 -0.1928  0.2999
 7062SOL    HW132822   0.795   1.798   0.122 -0.3722  0.7851 -0.3603
 7062SOL    HW232823   0.904   1.712   0.110 -2.4987 -0.2118 -0.8038
 7063SOL     OW32824   3.340   3.819   4.153 -0.2496  0.1237  0.4367
 7063SOL    HW132825   3.427   3.809   4.193 -0.1971 -1.5675 -0.0974
 7063SOL    HW232826   3.357   3.778   4.068  1.2321  1.8785 -0.1120
 7064SOL     OW32827   0.654   1.127  16.853  0.2191  0.1430 -0.0524
 7064SOL    HW132828   0.635   1.034  16.855 -0.6618  0.1926 -4.7840
 7064SOL    HW232829   0.566   1.164  16.846 -0.8935 -2.8285 -1.9093
 7065SOL     OW32830   1.387   4.407   8.581  0.2178  0.1628 -0.0791
 7065SOL    HW132831   1.361   4.438   8.668 -0.1348  0.4054 -0.2729
 7065SOL    HW232832   1.329   4.332   8.579 -1.0013  1.1526 -1.8486
 7066SOL     OW32833   4.715   0.360   0.430  0.6625 -0.0710  0.5636
 7066SOL    HW132834   0.059   0.405   0.416  0.0710  0.2722 -1.8484
 7066SOL    HW232835   4.695   0.316   0.347  2.0384  1.6252 -0.6727
 7067SOL     OW32836   4.522   2.568   5.781 -0.0303  0.1542 -1.0674
 7067SOL    HW132837   4.487   2.499   5.837 -2.4167  3.0326  0.9857
 7067SOL    HW232838   4.565   2.621   5.847 -1.2845 -0.0802 -0.0570
 7068SOL     OW32839   2.125   3.992   8.971 -0.0623  0.1476  0.0919
 7068SOL    HW132840   2.040   4.010   9.009  0.2661  1.2105  0.3065
 7068SOL    HW232841   2.179   4.071   8.978 -0.4439  0.5205 -1.1672
 7069SOL     OW32842   0.549   1.448   3.378  0.1509  0.2480  0.6038
 7069SOL    HW132843   0.582   1.534   3.353 -0.5748  0.3611  0.0176
 7069SOL    HW232844   0.467   1.436   3.330 -0.1562  1.5909  0.7936
 7070SOL     OW32845   3.715   1.742   7.462  0.0299  0.0571  0.0606
 7070SOL    HW132846   3.697   1.677   7.529  0.4869 -2.0774 -1.9089
 7070SOL    HW232847   3.774   1.805   7.504 -1.4700 -0.1395  2.4096
 7071SOL     OW32848   4.253   1.081   6.418 -0.3793  0.1913  0.3114
 7071SOL    HW132849   4.212   1.054   6.500  0.8860 -1.3219  0.4366
 7071SOL    HW232850   4.204   1.160   6.392 -0.4377 -0.9190 -2.8801
 7072SOL     OW32851   1.956   2.007  12.614  0.1339 -0.2217 -0.6696
 7072SOL    HW132852   2.011   2.038  12.686 -0.3341  0.1770 -0.4855
 7072SOL    HW232853   1.931   1.926  12.658 -1.6720  1.1606  0.8395
 7073SOL     OW32854   1.645   0.566   5.054  0.2052 -0.1286  0.5361
 7073SOL    HW132855   1.721   0.624   5.048  0.5492 -0.6747 -0.4365
 7073SOL    HW232856   1.683   0.498   4.998  1.5904  0.5549  0.6331
 7074SOL     OW32857   3.797   1.305   3.089  0.3047 -0.1553  0.6974
 7074SOL    HW132858   3.750   1.321   3.007  1.6592 -0.1913 -0.0957
 7074SOL    HW232859   3.868   1.248   3.058 -1.7219 -2.3549  0.1222
 7075SOL     OW32860   1.841   2.896   2.236  0.7286  0.2061  0.3289
 7075SOL    HW132861   1.870   2.923   2.323  0.9571  0.9273  0.0241
 7075SOL    HW232862   1.883   2.810   2.236 -0.7112 -0.4961  1.6612
 7076SOL     OW32863   2.308   1.317   9.426  0.2631  0.1623 -1.1897
 7076SOL    HW132864   2.320   1.410   9.447 -0.2862 -0.2980  1.1286
 7076SOL    HW232865   2.314   1.318   9.331 -2.4571 -0.3228 -1.3570
 7077SOL     OW32866   3.610   0.949   0.110  0.1451  0.0926  0.4649
 7077SOL    HW132867   3.622   1.041   0.132 -0.7254 -0.0294  1.4575
 7077SOL    HW232868   3.518   0.933   0.131 -0.7378  1.3882 -2.5025
 7078SOL     OW32869   2.174   1.584   9.227  0.0829  0.3739 -0.1485
 7078SOL    HW132870   2.224   1.640   9.286  1.9270 -0.4367 -0.9542
 7078SOL    HW232871   2.215   1.616   9.147  1.2266 -1.4611 -0.3002
 7079SOL     OW32872   0.383   4.510   4.071  0.4612 -0.3286  0.2343
 7079SOL    HW132873   0.355   4.510   4.163  2.5313 -1.4407  0.8700
 7079SOL    HW232874   0.443   4.584   4.063 -0.2391  0.4237  1.9088
 7080SOL     OW32875   1.925   1.533   8.031  0.5136  0.2327  0.6770
 7080SOL    HW132876   2.019   1.520   8.020  0.4809 -1.7081  2.7966
 7080SOL    HW232877   1.904   1.587   7.955 -0.3174  0.9145  1.3938
 7081SOL     OW32878   1.427   4.068   5.484 -0.0603 -0.1630  0.1283
 7081SOL    HW132879   1.503   4.113   5.521 -1.9210  2.9488  0.1885
 7081SOL    HW232880   1.428   4.098   5.393  1.8414 -1.9808 -0.4463
 7082SOL     OW32881   4.502   2.661   5.438  0.0361 -0.7902 -0.2046
 7082SOL    HW132882   4.535   2.636   5.524 -0.1550  1.6265  0.5765
 7082SOL    HW232883   4.583   2.643   5.391  0.3463 -0.7033  0.2995
 7083SOL     OW32884   1.390   1.178   2.836  0.5973  0.4268  0.0289
 7083SOL    HW132885   1.373   1.272   2.828  0.9437  0.7217  2.7889
 7083SOL    HW232886   1.301   1.146   2.848  0.5034 -0.0985 -2.1630
 7084SOL     OW32887   0.212   1.591   5.566  0.4080  0.3976  0.0047
 7084SOL    HW132888   0.281   1.654   5.543 -0.0392 -0.7956 -4.6169
 7084SOL    HW232889   0.213   1.614   5.659 -0.4481 -1.7061  0.5186
 7085SOL     OW32890   3.769   0.851  11.514  0.2543  0.1609  0.0587
 7085SOL    HW132891   3.818   0.770  11.528  2.7347  1.8736  1.1879
 7085SOL    HW232892   3.847   0.907  11.510 -1.4402  2.5047 -0.2655
 7086SOL     OW32893   0.419   1.016   3.616 -0.2014  0.2225 -0.6909
 7086SOL    HW132894   0.476   1.084   3.580  0.6309  0.0590  0.3304
 7086SOL    HW232895   0.361   1.068   3.671  0.9997  0.4046  0.4036
 7087SOL     OW32896   0.828   0.548   5.013 -0.3861 -0.3611 -0.5480
 7087SOL    HW132897   0.737   0.545   5.043 -1.3384 -2.2703 -3.6184
 7087SOL    HW232898   0.825   0.638   4.981  1.6513  0.6680  2.0969
 7088SOL     OW32899   0.139   2.648   4.243  0.4166 -0.5390 -0.4967
 7088SOL    HW132900   0.126   2.559   4.277  0.7859 -0.9129 -1.3510
 7088SOL    HW232901   0.178   2.632   4.157  0.1462 -1.2739 -0.4818
 7089SOL     OW32902   3.215   3.011   7.679  0.2054  0.2532  0.6512
 7089SOL    HW132903   3.234   2.931   7.629  0.7080  0.4300  0.5594
 7089SOL    HW232904   3.167   2.976   7.754 -1.0061 -1.4666 -0.9078
 7090SOL     OW32905   0.008   2.072   0.755  0.4533 -0.6474 -0.6204
 7090SOL    HW132906   4.658   2.104   0.734  0.5145  1.2770  2.0466
 7090SOL    HW232907   0.062   2.082   0.677  1.5654  0.7352  0.3206
 7091SOL     OW32908   4.324   2.636   3.265  0.2192  0.0166 -0.6358
 7091SOL    HW132909   4.282   2.550   3.269  2.4988 -1.0956  0.0475
 7091SOL    HW232910   4.408   2.628   3.311 -0.9290 -1.6064  1.1863
 7092SOL     OW32911   0.185   3.199   5.415 -0.0699  0.0232 -0.4560
 7092SOL    HW132912   0.280   3.188   5.419 -0.3101 -0.9830  2.0819
 7092SOL    HW232913   0.165   3.226   5.325  1.5104  2.7197  0.0118
 7093SOL     OW32914   1.407   4.646  13.593  0.5612 -0.5336  0.0473
 7093SOL    HW132915   1.368   4.601  13.518 -1.6323 -0.5345  1.1857
 7093SOL    HW232916   1.339   4.641  13.660  0.8621  0.5227  0.4428
 7094SOL     OW32917   0.928   4.121   6.193  0.3519  0.0307  0.1897
 7094SOL    HW132918   0.979   4.120   6.274  2.0089  0.8072 -0.8472
 7094SOL    HW232919   0.852   4.168   6.225  1.1380  2.0478 -0.9259
 7095SOL     OW32920   4.178   2.115   2.094 -0.9836  0.0998  0.0298
 7095SOL    HW132921   4.135   2.139   2.012  0.2301 -0.8054 -0.8898
 7095SOL    HW232922   4.268   2.123   2.063 -0.6370 -0.4982  0.8928
 7096SOL     OW32923   3.851   1.602   1.762  0.7700 -0.4767 -0.2066
 7096SOL    HW132924   3.875   1.688   1.796 -2.8439 -0.2815  1.7699
 7096SOL    HW232925   3.929   1.570   1.716  2.6953  2.3462  1.1055
 7097SOL     OW32926   2.908   4.409   8.911  0.1272  0.1639 -0.2168
 7097SOL    HW132927   2.909   4.500   8.942  3.2584 -0.1083  0.4199
 7097SOL    HW232928   2.833   4.408   8.851  0.7586 -0.5168 -0.9755
 7098SOL     OW32929   1.829   1.274   8.035 -0.4898  0.0422 -0.3089
 7098SOL    HW132930   1.736   1.260   8.053 -0.0158 -0.3126  1.9618
 7098SOL    HW232931   1.838   1.361   8.074  1.1392 -0.5482  0.6111
 7099SOL     OW32932   4.412   1.658   3.422 -0.3651 -0.1543  0.0284
 7099SOL    HW132933   4.359   1.620   3.352 -0.5073  0.5025 -0.2292
 7099SOL    HW232934   4.428   1.742   3.378 -1.7151 -0.0985 -0.3364
 7100SOL     OW32935   1.258   1.021   3.522  0.3537  0.8262 -0.2763
 7100SOL    HW132936   1.326   0.959   3.494 -0.2786  1.1759 -2.5637
 7100SOL    HW232937   1.291   1.104   3.488  0.3547  1.1783  0.5779
 7101SOL     OW32938   0.143   0.197   6.558  0.0745  0.2083 -0.4551
 7101SOL    HW132939   0.153   0.137   6.631 -0.8136  1.1587  0.4504
 7101SOL    HW232940   0.189   0.274   6.591 -1.6516  1.1516 -0.2443
 7102SOL     OW32941   3.867   0.785   7.196 -0.2688  0.2033 -0.0505
 7102SOL    HW132942   3.792   0.730   7.174 -1.2416  1.3023  0.5069
 7102SOL    HW232943   3.899   0.810   7.109  0.7709 -0.6340  0.0967
 7103SOL     OW32944   2.156   1.801  15.458 -0.0686  0.2820  0.1960
 7103SOL    HW132945   2.082   1.752  15.493  0.9002 -1.0809  0.3440
 7103SOL    HW232946   2.226   1.794  15.523  0.6236 -1.5045 -0.7483
 7104SOL     OW32947   1.968   2.046   6.433  0.3057  0.3729  0.0195
 7104SOL    HW132948   1.937   1.997   6.508 -0.3718  1.3255  0.3655
 7104SOL    HW232949   1.902   2.021   6.369 -0.0874  0.4999  0.3816
 7105SOL     OW32950   2.470   2.890   8.195 -0.5156  0.0474  0.3768
 7105SOL    HW132951   2.415   2.955   8.239  1.6769  1.0558  1.6413
 7105SOL    HW232952   2.520   2.864   8.272  1.5111 -1.5644 -1.5141
 7106SOL     OW32953   0.555   1.414  17.527 -0.1969 -0.2978  0.0825
 7106SOL    HW132954   0.614   1.459  17.587  0.7836  0.3073 -1.3217
 7106SOL    HW232955   0.473   1.441  17.568 -0.8217 -1.1792 -0.5701
 7107SOL     OW32956   4.448   2.147   3.979  0.3337  0.0465  0.0359
 7107SOL    HW132957   4.439   2.089   4.055  1.4128 -0.8936 -0.5455
 7107SOL    HW232958   4.474   2.093   3.904 -2.3588  0.0100 -0.8872
 7108SOL     OW32959   0.303   4.721  10.431 -0.2839  0.0173  0.2048
 7108SOL    HW132960   0.256   0.049  10.481  0.5244  0.2199  0.6988
 7108SOL    HW232961   0.257   4.640  10.453  1.4879 -0.8025  0.9325
 7109SOL     OW32962   3.392   2.801   2.593  0.0545 -0.0950  0.4727
 7109SOL    HW132963   3.458   2.822   2.527  0.1295  1.1207  0.9274
 7109SOL    HW232964   3.390   2.707   2.577  1.0619 -0.1335  0.5876
 7110SOL     OW32965   4.215   2.859  12.062  0.3904 -0.0720  0.0019
 7110SOL    HW132966   4.201   2.807  11.983  1.4318  0.1178 -0.3161
 7110SOL    HW232967   4.303   2.892  12.045  0.1917  0.1508 -0.6056
 7111SOL     OW32968   2.661   4.539   4.343  0.4025 -0.2657 -0.1095
 7111SOL    HW132969   2.694   4.556   4.254  1.0532  0.9652  0.3588
 7111SOL    HW232970   2.597   4.611   4.340  1.1809  0.3543 -2.1331
 7112SOL     OW32971   2.652   4.510   8.373 -0.2128  0.4908 -0.1528
 7112SOL    HW132972   2.596   4.587   8.369 -3.0040 -1.5823 -0.7306
 7112SOL    HW232973   2.584   4.450   8.343  1.6622 -0.7740 -1.9220
 7113SOL     OW32974   1.188   0.190   7.492 -0.9237  0.2957  0.3006
 7113SOL    HW132975   1.138   0.112   7.516 -0.3686 -0.7801 -2.0053
 7113SOL    HW232976   1.117   0.253   7.481  1.4732  2.5380 -2.3629
 7114SOL     OW32977   0.667   1.549   8.663  0.5969  0.4472 -0.2353
 7114SOL    HW132978   0.720   1.534   8.585  1.1637 -1.7535  0.5700
 7114SOL    HW232979   0.709   1.494   8.729  1.4027  0.7745 -0.4796
 7115SOL     OW32980   4.576   0.798   4.615 -0.2551 -0.0833 -0.6479
 7115SOL    HW132981   4.581   0.736   4.542 -4.0843 -1.9517  0.6855
 7115SOL    HW232982   4.543   0.749   4.691 -0.5331 -0.5463 -1.0652
 7116SOL     OW32983   2.038   1.477  11.447 -0.2047  0.3295 -0.4279
 7116SOL    HW132984   2.022   1.384  11.428  2.7015 -0.4191  0.6838
 7116SOL    HW232985   2.111   1.469  11.509  0.3366  1.8602 -0.8787
 7117SOL     OW32986   1.409   2.074   7.137  0.3821 -0.5004 -0.7983
 7117SOL    HW132987   1.409   2.167   7.161  0.9495 -0.7772  0.2742
 7117SOL    HW232988   1.316   2.056   7.152  0.4683 -0.7733 -0.5841
 7118SOL     OW32989   0.406   0.920   7.891 -0.4870 -0.1736 -0.3208
 7118SOL    HW132990   0.430   0.922   7.984 -3.7070  1.8514  0.4891
 7118SOL    HW232991   0.421   0.827   7.875  0.2357 -0.2593  0.8862
 7119SOL     OW32992   4.063   2.520   9.959 -0.3963  0.1557 -0.3421
 7119SOL    HW132993   4.146   2.556   9.991 -0.1993  0.6440 -1.3812
 7119SOL    HW232994   4.090   2.429   9.970  0.8586  0.5392 -0.2317
 7120SOL     OW32995   3.951   2.592   3.640 -0.3267 -0.6352  0.4546
 7120SOL    HW132996   3.923   2.682   3.627 -1.2047 -0.8454  0.8919
 7120SOL    HW232997   4.044   2.593   3.616  0.1346 -1.9568  2.2284
 7121SOL     OW32998   1.664   1.580  10.142 -0.2950 -0.4979  0.2612
 7121SOL    HW132999   1.704   1.583  10.229  0.9837  0.0537 -0.3507
 7121SOL    HW233000   1.594   1.646  10.148  0.7703  0.6494  0.1333
 7122SOL     OW33001   2.358   4.046   7.959  0.0151 -0.4977  0.8571
 7122SOL    HW133002   2.302   3.991   8.014 -0.3467  0.7952  1.7779
 7122SOL    HW233003   2.384   3.983   7.891 -0.8581  0.1271 -0.0565
 7123SOL     OW33004   2.064   2.594   3.750  0.0799  0.0123 -0.2229
 7123SOL    HW133005   2.080   2.508   3.787 -0.4984  0.3912  0.8937
 7123SOL    HW233006   2.107   2.650   3.815 -0.1098  0.7765 -0.7473
 7124SOL     OW33007   1.394   1.830  14.801 -0.0533 -0.3529  0.1005
 7124SOL    HW133008   1.426   1.774  14.730  0.9883  0.5407 -0.1340
 7124SOL    HW233009   1.480   1.861  14.829 -1.9131  3.2566  1.8716
 7125SOL     OW33010   3.202   1.116  11.648 -0.3955 -0.5957  0.0901
 7125SOL    HW133011   3.281   1.164  11.623 -1.9167  0.8826 -1.8949
 7125SOL    HW233012   3.142   1.180  11.687 -0.9462 -2.0022  1.5275
 7126SOL     OW33013   2.753   0.066  14.812  0.1949 -0.4413 -0.0125
 7126SOL    HW133014   2.664   0.099  14.824 -0.4133 -1.9289 -0.5685
 7126SOL    HW233015   2.747   4.724  14.863  0.8381  0.4188  1.4287
 7127SOL     OW33016   3.758   1.726   6.173 -0.0252  0.2306 -0.3936
 7127SOL    HW133017   3.773   1.805   6.224  1.2778  0.0249 -0.4469
 7127SOL    HW233018   3.850   1.697   6.172  0.2659  1.0455  2.5347
 7128SOL     OW33019   4.369   2.961   3.134 -0.0645  0.0157  0.3653
 7128SOL    HW133020   4.395   2.872   3.109 -0.7576 -0.5422  1.6727
 7128SOL    HW233021   4.280   2.949   3.167 -0.3846  0.9074 -0.1522
 7129SOL     OW33022   3.168   4.583   4.287 -0.3539 -0.2917  0.4688
 7129SOL    HW133023   3.142   4.676   4.282 -0.8222 -0.4159  0.5756
 7129SOL    HW233024   3.218   4.575   4.368 -2.0630  1.6725  1.7212
 7130SOL     OW33025   2.340   1.163  15.571 -0.6464  0.3316  0.3663
 7130SOL    HW133026   2.318   1.116  15.651  0.8037 -0.7220  0.1431
 7130SOL    HW233027   2.420   1.213  15.588 -0.4143  0.5383 -1.3177
 7131SOL     OW33028   1.111   1.685   5.247 -0.4033  0.3281  0.7904
 7131SOL    HW133029   1.100   1.633   5.327  1.0759 -2.5094 -0.8473
 7131SOL    HW233030   1.023   1.684   5.210 -0.1023 -0.2816  0.0819
 7132SOL     OW33031   3.507   4.497   1.877 -0.0386 -0.5094 -0.0964
 7132SOL    HW133032   3.464   4.444   1.810  0.7818 -1.4955  0.1605
 7132SOL    HW233033   3.588   4.522   1.834  1.2400  0.7745  3.0313
 7133SOL     OW33034   4.482   0.281   5.232  0.2144 -0.2277 -0.2752
 7133SOL    HW133035   4.461   0.287   5.139 -4.2180  1.7530  0.8208
 7133SOL    HW233036   4.418   0.215   5.260  0.2788 -0.5439 -0.8828
 7134SOL     OW33037   2.704   4.376   6.932 -0.9026 -0.0035 -0.3568
 7134SOL    HW133038   2.687   4.336   6.847 -0.3882 -0.9667 -0.0116
 7134SOL    HW233039   2.787   4.422   6.921 -2.2575  2.8406  1.4066
 7135SOL     OW33040   1.833   0.652   7.461 -0.0890  0.4270  0.3473
 7135SOL    HW133041   1.805   0.608   7.541 -2.6760  1.2658 -0.1022
 7135SOL    HW233042   1.870   0.578   7.413 -0.5656 -0.8161  1.8783
 7136SOL     OW33043   2.092   3.946   1.746  0.3457 -0.2094  0.0304
 7136SOL    HW133044   2.137   4.017   1.700  1.3329 -0.2771  0.8770
 7136SOL    HW233045   2.010   3.986   1.774  0.4271 -1.1937  1.6413
 7137SOL     OW33046   0.733   2.610   9.334  0.4681 -0.7838  0.2961
 7137SOL    HW133047   0.763   2.627   9.423  1.7470  0.4718 -0.3715
 7137SOL    HW233048   0.667   2.542   9.345  0.8193 -1.3516 -1.0416
 7138SOL     OW33049   3.434   1.613  16.194  0.1942 -0.2075  0.5783
 7138SOL    HW133050   3.416   1.555  16.267 -0.8442  1.1310  1.3841
 7138SOL    HW233051   3.355   1.594  16.142 -0.1745 -0.2269  1.1512
 7139SOL     OW33052   2.204   0.774   3.577 -0.7442 -0.0674 -0.1216
 7139SOL    HW133053   2.283   0.783   3.630 -0.8661  0.8674 -0.1025
 7139SOL    HW233054   2.192   0.679   3.586  0.8820 -0.2842 -0.2542
 7140SOL     OW33055   0.223   2.574   3.062  0.4504 -0.1110  0.0077
 7140SOL    HW133056   0.194   2.569   3.153 -0.4971 -1.2570 -0.3542
 7140SOL    HW233057   0.296   2.636   3.067 -0.3635  0.9245 -0.7915
 7141SOL     OW33058   2.473   4.426   3.324 -0.2111 -0.1085  0.0909
 7141SOL    HW133059   2.403   4.441   3.388 -0.3569  1.1279 -0.3545
 7141SOL    HW233060   2.444   4.487   3.257  3.6434  3.0032  1.2114
 7142SOL     OW33061   2.862   3.122  14.665  0.2415 -0.3965 -0.0601
 7142SOL    HW133062   2.831   3.034  14.685  0.9840 -0.8037 -0.7147
 7142SOL    HW233063   2.789   3.180  14.687  0.6475  0.6570 -1.4907
 7143SOL     OW33064   0.722   3.204   2.291  0.2496  0.1001  0.5250
 7143SOL    HW133065   0.783   3.210   2.218  1.1195 -0.8078  1.1638
 7143SOL    HW233066   0.668   3.279   2.265  1.3416  1.4820  2.2204
 7144SOL     OW33067   0.950   1.425   5.879 -0.2234  0.1792  0.5546
 7144SOL    HW133068   1.031   1.379   5.901 -0.8435 -0.4605  1.4901
 7144SOL    HW233069   0.908   1.349   5.840  0.5223 -0.0877  0.2610
 7145SOL     OW33070   1.707   2.821   7.186  0.4301 -0.2781 -0.5226
 7145SOL    HW133071   1.659   2.903   7.175 -0.4741 -0.9265 -1.5383
 7145SOL    HW233072   1.782   2.812   7.127  0.8678  0.0443 -0.0163
 7146SOL     OW33073   4.289   2.360   6.753 -0.6635  0.0156 -0.3101
 7146SOL    HW133074   4.280   2.401   6.668  1.6961  2.2689  0.5334
 7146SOL    HW233075   4.210   2.390   6.798 -0.3396  1.3332 -0.6064
 7147SOL     OW33076   2.413   1.463   4.304  0.1705  0.8852  0.2898
 7147SOL    HW133077   2.337   1.432   4.255  0.9890  2.4476 -1.9400
 7147SOL    HW233078   2.489   1.425   4.261  1.2384  1.6154  1.5516
 7148SOL     OW33079   2.808   3.431   4.481 -0.2608 -0.7540 -0.0304
 7148SOL    HW133080   2.868   3.360   4.503  0.4289 -1.0388 -2.9220
 7148SOL    HW233081   2.855   3.509   4.449  1.9012 -1.1177  2.2600
 7149SOL     OW33082   0.708   3.102   8.017  0.0295 -0.5178 -0.0332
 7149SOL    HW133083   0.616   3.125   8.002  0.0550 -0.0396  0.5152
 7149SOL    HW233084   0.730   3.044   7.945  1.2241  0.1269 -0.1930
 7150SOL     OW33085   2.863   1.704  11.834  0.2764  0.1527 -0.2428
 7150SOL    HW133086   2.922   1.658  11.775  0.7674  0.0967  0.2874
 7150SOL    HW233087   2.865   1.790  11.791  0.5009  1.0187  1.4872
 7151SOL     OW33088   0.492   0.017   4.074  0.5208  0.0457  0.2955
 7151SOL    HW133089   0.577   0.051   4.098  0.9105 -0.0342 -0.9537
 7151SOL    HW233090   0.446   0.095   4.043  1.1673  0.0467 -0.6774
 7152SOL     OW33091   4.201   1.750   7.860 -0.4535  0.1371  0.4543
 7152SOL    HW133092   4.136   1.771   7.793 -0.1145  0.2574  0.1556
 7152SOL    HW233093   4.178   1.658   7.877 -0.1739  0.4090  2.2855
 7153SOL     OW33094   2.923   3.419   9.988  0.2584  0.0865  0.2769
 7153SOL    HW133095   2.863   3.446  10.057 -0.2273  1.0826 -0.5329
 7153SOL    HW233096   2.911   3.490   9.925 -0.2123  0.1254  0.4161
 7154SOL     OW33097   4.365   1.792   4.377 -0.0190  0.0280  0.2425
 7154SOL    HW133098   4.293   1.799   4.440 -0.8100  0.4506 -0.7240
 7154SOL    HW233099   4.368   1.696   4.378 -0.6670  0.0237  2.2359
 7155SOL     OW33100   0.692   2.663  15.811  0.1663 -0.2877 -0.7784
 7155SOL    HW133101   0.742   2.715  15.748  0.5854  0.9704  0.6069
 7155SOL    HW233102   0.755   2.599  15.846  0.8524  1.3281  0.9454
 7156SOL     OW33103   3.164   4.446   4.573 -0.2801 -0.1867  0.0570
 7156SOL    HW133104   3.200   4.360   4.595 -1.6624 -0.7147  0.2228
 7156SOL    HW233105   3.086   4.417   4.527 -0.3840 -3.5551  2.3820
 7157SOL     OW33106   3.085   1.174   2.927  0.3376  0.4485 -0.0613
 7157SOL    HW133107   3.160   1.167   2.985  1.0059 -0.4302 -1.0261
 7157SOL    HW233108   3.079   1.092   2.878  1.5203 -0.8432  1.9807
 7158SOL     OW33109   2.437   0.701   2.281 -0.7500  0.2996  0.6497
 7158SOL    HW133110   2.470   0.691   2.370 -0.4868 -0.4966  0.4640
 7158SOL    HW233111   2.390   0.618   2.272  1.8241 -1.3698  2.7120
 7159SOL     OW33112   3.180   4.031   6.361  0.3343  0.0225  0.1708
 7159SOL    HW133113   3.147   3.991   6.442 -1.1587  2.0045  0.5420
 7159SOL    HW233114   3.258   4.079   6.387  0.8504  0.7036 -2.6522
 7160SOL     OW33115   3.264   0.567   5.818 -0.0099  0.0570 -0.0955
 7160SOL    HW133116   3.324   0.523   5.878 -0.5428  0.1623  0.5194
 7160SOL    HW233117   3.322   0.611   5.756  0.3002 -0.8269 -0.4375
 7161SOL     OW33118   2.985   3.225   8.320  0.7940  0.2232 -0.0618
 7161SOL    HW133119   2.962   3.164   8.251  3.2086 -1.0320  0.2525
 7161SOL    HW233120   3.015   3.164   8.387 -0.4158  1.6986  1.8337
 7162SOL     OW33121   0.039   2.002   6.989  0.2448  0.1608  0.0668
 7162SOL    HW133122   0.059   1.930   6.929  1.2839  0.8775 -0.4508
 7162SOL    HW233123   0.017   2.074   6.931  0.8664  1.1373  1.0285
 7163SOL     OW33124   1.464   1.467   6.573 -0.3302  0.0253  0.2226
 7163SOL    HW133125   1.457   1.557   6.607  1.6515  0.5541 -0.7181
 7163SOL    HW233126   1.559   1.451   6.577 -0.4649 -0.5574  0.9564
 7164SOL     OW33127   3.803   3.278   3.222  0.1657  0.0973  0.1122
 7164SOL    HW133128   3.809   3.289   3.317 -1.0054  1.3530  0.0462
 7164SOL    HW233129   3.794   3.373   3.210 -1.7833  0.1035  1.7064
 7165SOL     OW33130   2.221   1.076  11.337 -0.0115  0.6464 -0.0032
 7165SOL    HW133131   2.255   0.998  11.380 -0.2875  0.7754  0.4400
 7165SOL    HW233132   2.279   1.138  11.382  0.4060 -0.2018  0.6200
 7166SOL     OW33133   4.029   0.788   7.430 -0.0343 -0.2529  0.3661
 7166SOL    HW133134   3.978   0.747   7.359 -2.0253  1.2085  0.9533
 7166SOL    HW233135   4.076   0.856   7.383  1.1414 -2.5301 -1.7633
 7167SOL     OW33136   3.389   4.701   7.967 -0.2534  0.3520  0.6505
 7167SOL    HW133137   3.370   0.035   8.026 -1.9851 -0.4324  1.0772
 7167SOL    HW233138   3.363   4.625   8.020 -2.9536 -0.3594 -1.7193
 7168SOL     OW33139   3.685   2.189  14.478  0.1116  0.1667  0.8087
 7168SOL    HW133140   3.606   2.153  14.437  1.4213  0.4757 -1.9629
 7168SOL    HW233141   3.660   2.265  14.530 -0.5325  1.4960 -1.4297
 7169SOL     OW33142   3.231   0.286   6.616 -0.1888 -0.0747  0.6361
 7169SOL    HW133143   3.172   0.362   6.612 -2.1217 -1.6625 -0.8387
 7169SOL    HW233144   3.311   0.311   6.570 -1.0176 -0.3831 -0.9573
 7170SOL     OW33145   0.749   2.163   2.525 -0.0037  0.3633  0.2677
 7170SOL    HW133146   0.755   2.102   2.598 -2.7308 -0.4856 -0.2129
 7170SOL    HW233147   0.688   2.122   2.463 -1.1430  1.2203  0.8342
 7171SOL     OW33148   3.366   4.177   2.202  0.3011  0.0959 -0.2609
 7171SOL    HW133149   3.317   4.178   2.284 -1.3017 -0.7404 -1.2108
 7171SOL    HW233150   3.451   4.190   2.245  0.4920 -0.4271 -0.4831
 7172SOL     OW33151   4.399   3.428   7.641 -0.1465 -0.2229  0.3178
 7172SOL    HW133152   4.337   3.463   7.705 -1.1748 -1.1498 -0.1665
 7172SOL    HW233153   4.329   3.402   7.581  0.2776 -2.4649  0.8062
 7173SOL     OW33154   3.488   3.059   6.653 -0.2114 -0.1116  0.0725
 7173SOL    HW133155   3.498   2.978   6.703 -1.7851  1.1118  2.4191
 7173SOL    HW233156   3.466   3.118   6.725 -1.8522 -0.0255 -0.5071
 7174SOL     OW33157   0.840   4.084  12.522 -0.2839  0.1498 -0.0530
 7174SOL    HW133158   0.770   4.149  12.516  0.4040  1.2826  3.7196
 7174SOL    HW233159   0.871   4.068  12.433 -4.0593 -0.7063 -1.1874
 7175SOL     OW33160   1.247   1.683   9.195  0.1749  0.4932  0.2803
 7175SOL    HW133161   1.257   1.737   9.274  1.0080 -1.6317  1.6012
 7175SOL    HW233162   1.271   1.738   9.120 -1.9382  1.4395  0.2820
 7176SOL     OW33163   0.275   0.392   2.446 -0.0402  0.0215  0.2825
 7176SOL    HW133164   0.290   0.329   2.516  0.7228  1.9504  1.8820
 7176SOL    HW233165   0.180   0.405   2.437 -0.1680 -0.4956  0.9510
 7177SOL     OW33166   3.908   2.876   1.937 -0.1239 -0.0014 -0.3210
 7177SOL    HW133167   3.969   2.841   2.002 -1.0581 -1.0732 -0.0409
 7177SOL    HW233168   3.843   2.806   1.935 -0.6900  0.4996  0.3146
 7178SOL     OW33169   0.380   1.169   8.021 -0.2643 -0.3089  0.4999
 7178SOL    HW133170   0.396   1.094   7.964 -0.5722  0.4818 -0.6193
 7178SOL    HW233171   0.445   1.169   8.092  0.4636  0.6111 -0.1718
 7179SOL     OW33172   0.062   1.255  14.850 -0.1509 -0.0896 -0.3576
 7179SOL    HW133173   0.005   1.302  14.788 -0.7858  1.2944  1.2500
 7179SOL    HW233174   0.052   1.164  14.823 -2.6413  0.4217 -1.2141
 7180SOL     OW33175   3.803   4.014   7.144 -0.1556 -0.1073  0.4991
 7180SOL    HW133176   3.721   4.051   7.178 -0.4556  0.1929 -0.5578
 7180SOL    HW233177   3.865   4.049   7.208  0.8210 -2.4985  0.8577
 7181SOL     OW33178   3.836   4.330   3.741  0.4381 -0.0961  0.5318
 7181SOL    HW133179   3.827   4.265   3.672 -2.6000  1.1810 -0.2857
 7181SOL    HW233180   3.764   4.387   3.712  2.0583  2.2181  1.0895
 7182SOL     OW33181   0.776   1.308   0.153 -0.1389  0.5992  0.1870
 7182SOL    HW133182   0.803   1.348   0.235  0.6552 -1.5894  1.0008
 7182SOL    HW233183   0.759   1.385   0.099  1.2076  1.8808  1.5821
 7183SOL     OW33184   4.340   3.770   7.284  0.3089 -0.2857 -0.0493
 7183SOL    HW133185   4.281   3.703   7.251  1.8858 -1.6133 -0.1773
 7183SOL    HW233186   4.317   3.854   7.244  2.1607  0.4079  0.3593
 7184SOL     OW33187   3.743   3.964   9.356  0.6352  0.2518 -0.1399
 7184SOL    HW133188   3.690   3.929   9.427 -0.2239  2.0758  0.1169
 7184SOL    HW233189   3.713   4.055   9.359 -0.9672 -0.2573 -0.5615
 7185SOL     OW33190   2.478   3.846   2.098  0.0060 -0.2501 -0.1887
 7185SOL    HW133191   2.411   3.887   2.152 -1.3727 -3.0131  0.1856
 7185SOL    HW233192   2.517   3.791   2.166  0.3331 -0.2390 -0.3667
 7186SOL     OW33193   3.609   3.755   3.435  0.6077 -0.3809 -0.1047
 7186SOL    HW133194   3.562   3.744   3.353  0.2668  0.8715 -0.0822
 7186SOL    HW233195   3.698   3.770   3.403  0.5980  0.1038  0.0980
 7187SOL     OW33196   1.173   0.675   6.281  1.1359 -0.6878  0.2432
 7187SOL    HW133197   1.148   0.767   6.278  2.3461 -0.2846  3.3942
 7187SOL    HW233198   1.259   0.675   6.323  1.2434  1.7920 -0.0107
 7188SOL     OW33199   1.945   1.147   5.139  0.2154  0.4717  0.4585
 7188SOL    HW133200   1.993   1.200   5.075 -1.5872 -1.4212 -2.4679
 7188SOL    HW233201   1.898   1.085   5.082 -1.3155  1.7228  0.3447
 7189SOL     OW33202   2.421   1.951   4.806 -0.0885 -0.3276 -0.2871
 7189SOL    HW133203   2.409   2.040   4.773  1.1837  0.0319  0.2526
 7189SOL    HW233204   2.484   1.918   4.742 -0.2764 -2.9662  0.8989
 7190SOL     OW33205   0.785   4.051   7.823  0.3171 -0.0925  0.2190
 7190SOL    HW133206   0.860   4.032   7.879  0.2802 -0.9162 -0.0092
 7190SOL    HW233207   0.775   4.146   7.824 -1.6184 -0.3113  1.7189
 7191SOL     OW33208   0.277   4.632   7.939 -0.4654  0.7672  0.1763
 7191SOL    HW133209   0.290   4.684   8.018  1.0998  0.0468  0.4021
 7191SOL    HW233210   0.185   4.607   7.943 -0.9756  2.6871  0.3735
 7192SOL     OW33211   0.015   4.448   2.261 -0.0216  0.6064 -0.3571
 7192SOL    HW133212   0.059   4.488   2.186  0.2055 -0.0268 -0.5593
 7192SOL    HW233213   4.695   4.396   2.206 -0.0068  3.6019 -3.2488
 7193SOL     OW33214   0.441   0.766   3.906 -0.1072  0.4189  0.1445
 7193SOL    HW133215   0.468   0.763   3.814  0.4068 -2.2868  0.3850
 7193SOL    HW233216   0.449   0.857   3.934  0.1649  0.4222  0.0580
 7194SOL     OW33217   4.628   1.184   7.668  0.1165 -0.3668  0.4745
 7194SOL    HW133218   4.604   1.131   7.744 -0.4661  1.5099  1.5946
 7194SOL    HW233219   4.610   1.272   7.699  0.4592 -0.6656  1.5566
 7195SOL     OW33220   4.055   1.202   8.149 -0.3208  0.0511 -0.1187
 7195SOL    HW133221   4.032   1.253   8.071  0.2784  1.1685  0.4299
 7195SOL    HW233222   4.056   1.277   8.209  0.8244  1.3032 -1.6988
 7196SOL     OW33223   3.603   0.646   8.475 -0.1195 -0.2160  0.2023
 7196SOL    HW133224   3.522   0.663   8.524  0.2782  0.6964  0.5549
 7196SOL    HW233225   3.601   0.553   8.454 -2.2905  0.5949 -3.1723
 7197SOL     OW33226   1.884   4.694   1.953 -0.2643  0.4273 -0.1884
 7197SOL    HW133227   1.907   4.665   2.042  0.9634  0.0802 -0.6254
 7197SOL    HW233228   1.891   0.050   1.969  0.1321  0.6427 -1.6840
 7198SOL     OW33229   2.610   4.003  14.013 -0.0391 -0.7258 -0.0423
 7198SOL    HW133230   2.531   4.046  13.980 -0.6259 -1.3587  0.5391
 7198SOL    HW233231   2.643   4.054  14.087 -1.5123  0.9637 -0.5376
 7199SOL     OW33232   0.344   2.776   5.009  0.0798  0.0271  0.5569
 7199SOL    HW133233   0.369   2.761   4.918 -0.2168 -0.2749  0.5246
 7199SOL    HW233234   0.252   2.794   4.986  0.1535  1.0576  1.0622
 7200SOL     OW33235   2.859   0.050  14.558  0.3495 -0.1195  0.1301
 7200SOL    HW133236   2.915   4.713  14.540  0.5705  0.4316 -1.4282
 7200SOL    HW233237   2.830   0.032  14.648  1.8688  1.2759  0.8912
 7201SOL     OW33238   2.677   4.575   3.490 -0.1998  0.3501 -0.1721
 7201SOL    HW133239   2.639   4.559   3.577  1.3009 -1.2460  0.1832
 7201SOL    HW233240   2.610   4.537   3.434 -0.5914 -0.1425  0.6338
 7202SOL     OW33241   1.816   2.058  14.716 -0.4304 -0.2877  0.0862
 7202SOL    HW133242   1.748   2.023  14.773  1.0657  0.3119  2.2293
 7202SOL    HW233243   1.804   1.996  14.644 -3.2130 -2.0056  2.0182
 7203SOL     OW33244   3.007   4.328   8.625 -0.1373  0.5451 -0.1897
 7203SOL    HW133245   2.957   4.363   8.699  0.5010  0.9238  0.0633
 7203SOL    HW233246   3.007   4.388   8.551  0.5171  1.0577  0.2296
 7204SOL     OW33247   4.398   2.119  17.434  0.1230 -0.0549 -0.2509
 7204SOL    HW133248   4.353   2.189  17.481 -0.3631 -0.3401 -0.2946
 7204SOL    HW233249   4.359   2.037  17.463 -3.4177  0.9979 -2.1234
 7205SOL     OW33250   3.772   2.530   9.489 -0.2940 -0.1196  0.6017
 7205SOL    HW133251   3.798   2.537   9.581 -4.3408 -3.0381  1.9342
 7205SOL    HW233252   3.740   2.620   9.477 -0.1974 -0.0317  1.0180
 7206SOL     OW33253   4.700   0.463   5.117 -0.1959 -0.1682  0.0168
 7206SOL    HW133254   4.644   0.468   5.195  0.4992 -1.7757  0.6407
 7206SOL    HW233255   4.648   0.507   5.051 -1.5998  1.0516  1.9286
 7207SOL     OW33256   2.031   0.738   9.660 -0.5567  0.5438  0.4682
 7207SOL    HW133257   1.975   0.732   9.582 -0.6674  1.4049  0.4838
 7207SOL    HW233258   2.056   0.831   9.659 -2.0807  0.9577  1.7386
 7208SOL     OW33259   2.340   2.064   3.303  0.4060 -0.8766  0.1248
 7208SOL    HW133260   2.397   2.140   3.312 -2.1991  1.0075  0.9663
 7208SOL    HW233261   2.253   2.101   3.285  0.8584  0.9689  1.7707
 7209SOL     OW33262   1.928   1.861   5.339 -0.1414  0.0369 -0.9520
 7209SOL    HW133263   1.989   1.928   5.308  1.1450  0.0228  1.5707
 7209SOL    HW233264   1.965   1.845   5.425  0.6114 -1.9288 -1.6540
 7210SOL     OW33265   3.485   1.609  17.057 -0.2160  0.2381  0.5332
 7210SOL    HW133266   3.505   1.702  17.067  1.6004 -0.3277  2.0221
 7210SOL    HW233267   3.536   1.581  16.981  0.0788  1.8802  0.1394
 7211SOL     OW33268   3.538   3.773   6.331  0.4799 -0.9226 -0.2247
 7211SOL    HW133269   3.524   3.867   6.326 -0.6835 -1.0472  0.8852
 7211SOL    HW233270   3.591   3.753   6.254 -0.5264  1.4747 -1.5389
 7212SOL     OW33271   0.730   1.231   2.504 -0.5738  0.0524  0.0419
 7212SOL    HW133272   0.815   1.247   2.464  0.1055  0.0052  1.4959
 7212SOL    HW233273   0.677   1.191   2.435 -0.0979 -0.8506  0.2011
 7213SOL     OW33274   0.844   3.702  17.177  0.2591 -0.2402  0.0829
 7213SOL    HW133275   0.919   3.733  17.228  1.0863  0.6125 -1.6503
 7213SOL    HW233276   0.831   3.613  17.211  0.0267 -0.5950 -0.9493
 7214SOL     OW33277   3.014   1.357   1.383  0.1970  0.4883  0.3096
 7214SOL    HW133278   3.010   1.289   1.316  1.8215 -0.1620  0.8611
 7214SOL    HW233279   3.104   1.384   1.364 -0.3692  1.1075 -1.5524
 7215SOL     OW33280   2.225   2.867   3.270 -0.1904  0.0277  0.2581
 7215SOL    HW133281   2.153   2.824   3.317  2.0030 -1.0480  2.6033
 7215SOL    HW233282   2.281   2.791   3.255 -1.9036 -0.6738 -2.5817
 7216SOL     OW33283   0.537   2.129  15.312  0.2912  0.3019 -0.3527
 7216SOL    HW133284   0.552   2.058  15.375 -0.3555  0.6886  0.2337
 7216SOL    HW233285   0.477   2.184  15.363  0.2375 -0.7787  0.7502
 7217SOL     OW33286   2.099   0.512  17.044  0.4712  0.2797 -0.3283
 7217SOL    HW133287   2.147   0.591  17.066 -1.5644  0.7714  2.2974
 7217SOL    HW233288   2.153   0.448  17.090  2.5899  1.8718 -0.5974
 7218SOL     OW33289   4.221   4.335  13.819  0.0103 -0.7903  0.7614
 7218SOL    HW133290   4.161   4.410  13.820  2.5587  1.2401  2.2519
 7218SOL    HW233291   4.295   4.373  13.868  0.8692  1.1484 -2.0415
 7219SOL     OW33292   1.221   1.574   4.429  0.2085 -0.3260 -0.7574
 7219SOL    HW133293   1.288   1.642   4.441 -0.6178  0.0172  2.0778
 7219SOL    HW233294   1.283   1.501   4.429  1.2950  0.5934  0.6042
 7220SOL     OW33295   3.580   2.286   8.998 -0.3032 -0.1655  0.2124
 7220SOL    HW133296   3.641   2.312   9.067  1.8116  1.4143 -2.2702
 7220SOL    HW233297   3.587   2.360   8.939  2.0245 -3.2243 -3.3175
 7221SOL     OW33298   2.124   1.629   4.409  0.3523 -0.3827 -0.3985
 7221SOL    HW133299   2.117   1.702   4.470 -0.9518 -0.7837 -0.0710
 7221SOL    HW233300   2.186   1.582   4.465  1.3280 -0.1325 -1.2768
 7222SOL     OW33301   1.545   1.965  13.433 -0.0324  0.3414  0.2017
 7222SOL    HW133302   1.501   1.905  13.372  0.2290 -1.0308  1.3466
 7222SOL    HW233303   1.564   1.903  13.504  1.1654  0.7420  0.2239
 7223SOL     OW33304   1.310   0.818  12.956  0.2304 -0.4276  0.2469
 7223SOL    HW133305   1.327   0.752  12.889  2.2293 -1.0842  1.3982
 7223SOL    HW233306   1.243   0.778  13.011 -1.0058  0.3634 -0.6880
 7224SOL     OW33307   4.366   3.903   8.584 -0.0411 -0.6210 -0.2277
 7224SOL    HW133308   4.423   3.944   8.519 -1.3677 -0.3542 -1.2303
 7224SOL    HW233309   4.284   3.933   8.543 -0.5256 -1.2418  0.2952
 7225SOL     OW33310   0.887   4.284  16.884  0.0998 -0.6742  0.1841
 7225SOL    HW133311   0.951   4.239  16.939  0.0578 -0.2502  0.5802
 7225SOL    HW233312   0.945   4.322  16.818 -1.0507  3.0361  1.3119
 7226SOL     OW33313   3.804   1.836   5.312 -0.4601 -0.1132 -0.1912
 7226SOL    HW133314   3.862   1.900   5.352  0.1525 -1.5958  1.2844
 7226SOL    HW233315   3.762   1.799   5.390 -0.3221 -2.2211 -1.1147
 7227SOL     OW33316   3.418   0.642   2.383 -1.0970 -0.4892  0.2100
 7227SOL    HW133317   3.412   0.707   2.452 -0.4999  2.0751 -2.1537
 7227SOL    HW233318   3.382   0.691   2.309 -0.2963 -0.9751 -0.4959
 7228SOL     OW33319   2.866   2.592   5.940  0.2284 -0.4574 -0.2289
 7228SOL    HW133320   2.831   2.668   5.988 -1.6238 -1.2995 -0.2631
 7228SOL    HW233321   2.796   2.588   5.875  0.0170 -0.1178 -0.0232
 7229SOL     OW33322   4.719   4.060   5.405 -0.0547  0.0721 -0.2781
 7229SOL    HW133323   4.665   4.138   5.418 -1.1624 -1.0852  2.1509
 7229SOL    HW233324   0.062   4.098   5.372 -0.4351  1.4022  0.3111
 7230SOL     OW33325   0.284   2.884  15.033 -0.4386 -0.0768 -0.5795
 7230SOL    HW133326   0.213   2.907  14.973 -0.9271 -0.6022 -0.2018
 7230SOL    HW233327   0.287   2.971  15.073 -0.7157 -0.1217 -0.4595
 7231SOL     OW33328   0.024   2.193   6.779 -0.6595  0.0884  0.4362
 7231SOL    HW133329   4.670   2.191   6.755 -0.3521  0.8140 -0.7957
 7231SOL    HW233330   0.067   2.157   6.702 -1.3723  0.7495 -0.2592
 7232SOL     OW33331   4.069   4.413   4.720  0.4407  0.1184 -0.6131
 7232SOL    HW133332   4.092   4.404   4.813 -1.1836 -0.6249 -0.2856
 7232SOL    HW233333   4.026   4.328   4.709  3.0673 -1.1274 -1.1463
 7233SOL     OW33334   4.394   2.087   2.872  0.5604 -0.4801 -0.0901
 7233SOL    HW133335   4.468   2.028   2.858  0.9269 -1.1141  4.7059
 7233SOL    HW233336   4.413   2.149   2.801  0.5401 -0.9678 -0.5284
 7234SOL     OW33337   2.261   1.017   7.897  0.2175 -0.5626 -0.1648
 7234SOL    HW133338   2.201   1.091   7.907  1.8365  0.5017  1.6686
 7234SOL    HW233339   2.251   0.982   7.985  2.0169  0.7342  0.5637
 7235SOL     OW33340   4.665   0.640   6.036 -0.1677  0.4529  0.0005
 7235SOL    HW133341   4.665   0.582   6.112 -0.3706  1.7576  0.9935
 7235SOL    HW233342   4.574   0.669   6.047 -1.2166 -2.2690 -1.4536
 7236SOL     OW33343   3.207   2.356   6.281  0.2047  0.0503 -0.2474
 7236SOL    HW133344   3.193   2.333   6.189  1.4424  2.0792 -0.9636
 7236SOL    HW233345   3.149   2.432   6.289 -0.1729  0.0047 -2.6689
 7237SOL     OW33346   3.982   1.734   7.683  0.4616 -0.2305  0.2182
 7237SOL    HW133347   3.916   1.803   7.684  1.3705  0.6498 -1.0183
 7237SOL    HW233348   3.933   1.654   7.704 -0.5534  0.2279 -0.3933
 7238SOL     OW33349   4.600   0.658  12.107 -0.2415  0.1964 -0.4369
 7238SOL    HW133350   4.535   0.590  12.124 -0.3791  0.1093 -1.3186
 7238SOL    HW233351   4.543   0.720  12.060  0.3688  2.2577  1.5648
 7239SOL     OW33352   4.533   1.677   2.661  0.1298 -0.0018 -0.3878
 7239SOL    HW133353   4.575   1.593   2.645 -0.4178 -0.1164 -1.1958
 7239SOL    HW233354   4.448   1.645   2.692 -0.3722  1.1326 -0.6066
 7240SOL     OW33355   2.090   0.373   7.868  0.1690  0.9413  0.2207
 7240SOL    HW133356   2.133   0.453   7.839  0.4717  0.4117 -0.7669
 7240SOL    HW233357   2.165   0.333   7.912 -0.4719  0.6795  1.0645
 7241SOL     OW33358   1.264   4.089   1.475 -0.4305 -0.6374 -0.0416
 7241SOL    HW133359   1.232   4.027   1.541 -0.9416 -0.7670 -0.4147
 7241SOL    HW233360   1.176   4.115   1.449 -1.1776 -2.0273  1.0621
 7242SOL     OW33361   0.952   3.119   4.829 -0.0846 -0.3588 -0.5728
 7242SOL    HW133362   1.021   3.164   4.878  1.6969 -0.8146 -2.6679
 7242SOL    HW233363   0.950   3.041   4.885 -2.6757 -0.7379 -1.1941
 7243SOL     OW33364   2.093   2.947   0.147 -0.0618  0.3325  0.5641
 7243SOL    HW133365   2.052   3.002   0.213 -0.4162 -0.3457  0.9060
 7243SOL    HW233366   2.051   2.968   0.063 -1.0504 -0.9670  0.7348
 7244SOL     OW33367   3.486   0.322   4.803 -0.2098 -0.1649  0.2086
 7244SOL    HW133368   3.413   0.371   4.842 -1.1735  0.7962 -2.7421
 7244SOL    HW233369   3.560   0.366   4.845 -0.2054 -0.8612  0.9198
 7245SOL     OW33370   2.705   0.945   3.009  0.0510  0.1921 -0.2466
 7245SOL    HW133371   2.657   0.927   3.089 -2.4962  0.1808 -1.7818
 7245SOL    HW233372   2.777   0.995   3.048  0.0350 -0.5313  0.7024
 7246SOL     OW33373   1.639   2.590   8.030  0.1019  0.8074  0.3865
 7246SOL    HW133374   1.626   2.614   7.938 -0.4082  2.7103  0.9570
 7246SOL    HW233375   1.618   2.497   8.036  0.3068  0.6759 -0.8286
 7247SOL     OW33376   3.764   0.979   8.786 -0.0613  0.7511  0.3342
 7247SOL    HW133377   3.683   1.021   8.757 -0.3251 -0.5301 -0.7685
 7247SOL    HW233378   3.748   0.888   8.761  0.8254  0.9143 -0.8157
 7248SOL     OW33379   3.317   2.270  13.351 -0.4268  0.0029 -0.3940
 7248SOL    HW133380   3.331   2.179  13.377 -2.4077  0.4175  2.1506
 7248SOL    HW233381   3.222   2.265  13.341  0.0061 -1.8643 -3.4848
 7249SOL     OW33382   1.254   1.214   5.264  0.3328 -0.2533  0.2355
 7249SOL    HW133383   1.202   1.144   5.225  2.1411 -1.5923  0.2664
 7249SOL    HW233384   1.191   1.286   5.275  0.4665 -0.4286  2.1030
 7250SOL     OW33385   0.139   2.303   1.778 -0.6814 -0.2146 -0.0286
 7250SOL    HW133386   0.068   2.365   1.791 -0.9353 -0.2460 -1.2334
 7250SOL    HW233387   0.215   2.358   1.762 -0.6444 -1.3557 -3.7758
 7251SOL     OW33388   2.234   1.239   6.030  0.7312  0.1722  0.3081
 7251SOL    HW133389   2.174   1.292   6.082 -1.3046 -2.4863  0.6605
 7251SOL    HW233390   2.310   1.296   6.038  1.5302 -0.8607  0.1680
 7252SOL     OW33391   1.931   1.476   9.210  0.2560 -0.1666 -0.0485
 7252SOL    HW133392   1.963   1.400   9.161  0.0893 -0.4288  0.2491
 7252SOL    HW233393   2.010   1.531   9.213 -1.3426  2.0819  0.4875
 7253SOL     OW33394   4.107   0.365   7.345  0.1656 -0.0270  0.0262
 7253SOL    HW133395   4.110   0.290   7.286 -0.4560 -0.7148  0.8612
 7253SOL    HW233396   4.120   0.438   7.284  0.2299  0.7489  0.9659
 7254SOL     OW33397   1.782   1.094   3.380 -0.2408 -0.4690 -0.0747
 7254SOL    HW133398   1.771   1.070   3.288 -1.0684  2.1597 -0.6468
 7254SOL    HW233399   1.730   1.173   3.395  2.5781  1.3306  0.2888
 7255SOL     OW33400   1.429   1.676   9.820  0.1588 -0.1857  0.1180
 7255SOL    HW133401   1.462   1.595   9.859  1.1293  0.8948  1.5734
 7255SOL    HW233402   1.353   1.700   9.872  0.0192  0.4193 -0.3599
 7256SOL     OW33403   1.140   2.451  17.709  0.3109  0.5356 -0.3624
 7256SOL    HW133404   1.161   2.496  17.627  3.2590 -0.3168 -0.0996
 7256SOL    HW233405   1.076   2.515  17.738 -0.4079 -0.0827 -0.5880
 7257SOL     OW33406   3.767   2.627   2.192  0.1890  0.8442 -0.1572
 7257SOL    HW133407   3.833   2.565   2.163 -1.1802 -0.8925  0.4119
 7257SOL    HW233408   3.696   2.614   2.129 -1.2583 -0.1007  1.6423
 7258SOL     OW33409   4.257   3.281  14.612 -0.5997 -0.0545 -0.0750
 7258SOL    HW133410   4.228   3.339  14.683 -0.9995 -1.1302  0.6384
 7258SOL    HW233411   4.192   3.295  14.544 -2.0311  1.4578  1.6119
 7259SOL     OW33412   2.219   4.181   0.661  0.1681 -0.0722  0.0451
 7259SOL    HW133413   2.216   4.260   0.606  0.4751 -0.2439 -0.2149
 7259SOL    HW233414   2.127   4.170   0.687  0.7548 -2.1268  1.2154
 7260SOL     OW33415   0.115   3.794   4.193 -1.0408  0.3515 -0.4376
 7260SOL    HW133416   0.058   3.839   4.255 -0.1166  1.0511 -0.0985
 7260SOL    HW233417   0.051   3.725   4.174 -0.1260 -0.2603 -1.2833
 7261SOL     OW33418   0.533   0.434   3.663 -0.3201 -0.2285 -0.1623
 7261SOL    HW133419   0.541   0.423   3.758  0.4651 -0.4611 -0.2563
 7261SOL    HW233420   0.623   0.427   3.632  0.7170  2.9103  2.1156
 7262SOL     OW33421   0.904   3.836  11.417  0.5814 -0.1893 -0.2551
 7262SOL    HW133422   0.892   3.744  11.441  0.1131 -0.0174  0.1790
 7262SOL    HW233423   0.998   3.841  11.403  0.3305  1.9225 -1.2993
 7263SOL     OW33424   0.682   3.677   5.308  0.8344 -0.3131 -0.8175
 7263SOL    HW133425   0.665   3.583   5.295  4.7326 -0.9346 -1.2502
 7263SOL    HW233426   0.710   3.696   5.219  1.6546  1.4325 -0.1855
 7264SOL     OW33427   1.758   2.961   6.604 -0.5858 -0.8200 -0.4267
 7264SOL    HW133428   1.711   3.040   6.633  0.9210  0.2604 -0.8954
 7264SOL    HW233429   1.781   2.978   6.513  0.4085 -0.5175 -0.1224
 7265SOL     OW33430   3.114   2.044  16.810  0.5262 -0.1304 -0.3569
 7265SOL    HW133431   3.038   2.034  16.867 -0.5462  0.8518 -1.6049
 7265SOL    HW233432   3.082   2.001  16.731  0.4966  0.8444 -0.8772
 7266SOL     OW33433   0.143   2.959  10.804 -0.2462 -0.2210  0.5865
 7266SOL    HW133434   0.082   2.935  10.735 -1.4508 -0.2792  1.6674
 7266SOL    HW233435   0.145   3.054  10.797 -0.1109 -0.2423  0.3468
 7267SOL     OW33436   4.330   2.677   5.194  0.3905  0.4502  0.0408
 7267SOL    HW133437   4.314   2.771   5.191 -0.2033  0.2359 -4.5187
 7267SOL    HW233438   4.381   2.670   5.275  1.7435  0.4093 -0.8033
 7268SOL     OW33439   1.118   3.499   2.555 -0.1228  0.0249 -0.6006
 7268SOL    HW133440   1.045   3.452   2.514  0.6026 -1.1249 -0.5947
 7268SOL    HW233441   1.157   3.422   2.596  0.0133  0.4865  0.1367
 7269SOL     OW33442   3.797   4.527   8.356  0.6018 -0.2856 -0.0556
 7269SOL    HW133443   3.799   4.542   8.262  1.4140 -1.4706 -0.2236
 7269SOL    HW233444   3.875   4.573   8.389  0.6101  0.8190 -1.6535
 7270SOL     OW33445   3.287   0.212   0.941 -0.0877 -0.4106  0.2965
 7270SOL    HW133446   3.247   0.129   0.917  0.0808 -0.9253  1.7926
 7270SOL    HW233447   3.225   0.250   1.003  0.4057 -0.0198  0.5586
 7271SOL     OW33448   2.068   0.117   0.929 -0.1434  0.1974 -0.1198
 7271SOL    HW133449   1.997   0.121   0.993  0.4765 -1.3951  0.6696
 7271SOL    HW233450   2.019   0.140   0.850 -0.1234 -1.2504 -0.5540
 7272SOL     OW33451   1.966   4.510   4.078 -0.4375 -0.5430  0.1081
 7272SOL    HW133452   2.008   4.425   4.095  0.9447  0.2374  0.6281
 7272SOL    HW233453   1.887   4.484   4.030 -0.3282  0.2948 -0.5207
 7273SOL     OW33454   3.591   1.773   5.487  0.0031 -0.0415 -0.4955
 7273SOL    HW133455   3.509   1.727   5.505 -0.3194  0.4862 -0.6348
 7273SOL    HW233456   3.564   1.863   5.500 -0.1030 -0.3035  1.0460
 7274SOL     OW33457   0.698   4.208  17.223  0.8233  0.3894 -0.0719
 7274SOL    HW133458   0.757   4.151  17.272 -1.1957 -1.5931  0.0448
 7274SOL    HW233459   0.755   4.284  17.214 -2.4762  2.8912  0.2826
 7275SOL     OW33460   0.261   4.154   0.628 -0.5085  0.1246  0.6422
 7275SOL    HW133461   0.344   4.199   0.644 -0.3338 -0.2021  0.6592
 7275SOL    HW233462   0.216   4.226   0.582  3.4461  3.4316  1.9306
 7276SOL     OW33463   1.362   0.109   4.012  0.0990 -0.3387  0.1947
 7276SOL    HW133464   1.449   0.128   3.977 -0.2664  0.5779 -0.2395
 7276SOL    HW233465   1.319   0.191   3.987  0.6575 -0.2222 -0.3814
 7277SOL     OW33466   1.858   0.402   7.316  0.3838  0.0925 -0.1893
 7277SOL    HW133467   1.910   0.374   7.391 -0.8975  0.2647  0.7687
 7277SOL    HW233468   1.911   0.368   7.244  1.2840  1.9956 -0.4185
 7278SOL     OW33469   3.048   3.379   3.380 -0.6130 -0.5588  0.1579
 7278SOL    HW133470   3.055   3.384   3.284 -0.8283 -3.6452 -0.0274
 7278SOL    HW233471   2.954   3.388   3.396 -0.3533  0.5558  1.0069
 7279SOL     OW33472   4.322   1.398   6.929 -0.0124  0.0178  0.3669
 7279SOL    HW133473   4.337   1.315   6.975  0.9989 -1.3289 -2.3832
 7279SOL    HW233474   4.385   1.457   6.970 -0.3809  1.6796 -1.4635
 7280SOL     OW33475   1.352   2.286  11.855 -0.0814 -0.2245 -0.0218
 7280SOL    HW133476   1.338   2.253  11.944  0.2791  1.3743  0.6174
 7280SOL    HW233477   1.392   2.370  11.876  1.8183 -0.8862 -0.9724
 7281SOL     OW33478   2.452   1.744  13.208 -0.2253 -0.0049 -0.0415
 7281SOL    HW133479   2.421   1.673  13.264  5.6807 -0.5551  2.4673
 7281SOL    HW233480   2.476   1.694  13.130  0.6415 -2.4434  1.8229
 7282SOL     OW33481   2.260   3.243  16.710 -0.0810 -0.4669  0.0884
 7282SOL    HW133482   2.211   3.224  16.630  0.7832 -2.3188 -0.0050
 7282SOL    HW233483   2.310   3.161  16.716  0.2383 -0.2355  0.6195
 7283SOL     OW33484   4.049   2.232  10.043 -0.2733 -0.3350 -0.4650
 7283SOL    HW133485   3.980   2.189  10.093 -0.1691 -0.0765 -0.1042
 7283SOL    HW233486   4.064   2.167   9.974 -1.0039 -0.1594 -0.7938
 7284SOL     OW33487   3.292   4.481   5.978 -0.1384 -0.0320 -0.0635
 7284SOL    HW133488   3.268   4.573   5.966 -0.9007 -0.3531 -1.0177
 7284SOL    HW233489   3.336   4.478   6.063 -1.5721 -0.0294  0.6654
 7285SOL     OW33490   3.368   4.230   6.421 -0.8391  0.1014  0.1951
 7285SOL    HW133491   3.310   4.290   6.467 -0.4623 -0.3120  1.2264
 7285SOL    HW233492   3.360   4.281   6.341  0.0773 -1.1886 -0.7113
 7286SOL     OW33493   4.345   1.237   2.646 -0.0017 -0.1394 -0.0717
 7286SOL    HW133494   4.265   1.288   2.634  0.0702  0.0450  0.2203
 7286SOL    HW233495   4.340   1.177   2.572  0.5371  1.3053 -1.2681
 7287SOL     OW33496   0.306   4.366   1.635  0.4719  0.2375 -0.0998
 7287SOL    HW133497   0.392   4.382   1.675 -0.8459  2.4581  1.9102
 7287SOL    HW233498   0.243   4.384   1.706  0.5002 -0.7232  0.1665
 7288SOL     OW33499   2.631   0.805   3.933  0.1708 -0.3317 -0.1554
 7288SOL    HW133500   2.645   0.791   4.027  0.8783  3.2706  0.2610
 7288SOL    HW233501   2.669   0.726   3.893  0.6832  0.2370 -0.7846
 7289SOL     OW33502   4.694   4.494   4.188  0.1671 -0.1414  0.3015
 7289SOL    HW133503   4.692   4.588   4.206 -0.1245 -0.1669  0.3855
 7289SOL    HW233504   4.689   4.489   4.092  0.7742 -1.5419  0.3445
 7290SOL     OW33505   3.626   1.245  15.196  0.0161  0.0342 -0.2334
 7290SOL    HW133506   3.657   1.172  15.249  1.3404  1.2149  0.6076
 7290SOL    HW233507   3.533   1.224  15.187 -0.1654  1.1943 -1.0670
 7291SOL     OW33508   0.924   4.184   8.244 -0.2613 -0.2658 -0.1576
 7291SOL    HW133509   1.012   4.220   8.245  0.4339 -2.1149  2.9171
 7291SOL    HW233510   0.943   4.104   8.293 -1.1248 -0.5547 -0.2911
 7292SOL     OW33511   4.623   3.742  17.590  0.2606 -0.4509  0.3241
 7292SOL    HW133512   4.645   3.701  17.506  1.1904 -0.6063  0.6417
 7292SOL    HW233513   4.695   3.805  17.587 -1.1667  1.1388 -0.1201
 7293SOL     OW33514   1.390   3.776   2.729  0.2140 -0.5421  0.4655
 7293SOL    HW133515   1.390   3.747   2.820 -1.5825  2.4014  1.3965
 7293SOL    HW233516   1.297   3.796   2.718  0.3581  0.6226  1.4236
 7294SOL     OW33517   2.138   2.851   6.081  0.7597 -0.3154  0.7205
 7294SOL    HW133518   2.179   2.859   5.995 -0.6186  0.1440  0.1006
 7294SOL    HW233519   2.174   2.935   6.109  0.7134  0.4642 -1.5864
 7295SOL     OW33520   0.961   2.162  13.379  0.4205  0.2724 -0.6600
 7295SOL    HW133521   1.014   2.179  13.457  1.6380 -1.1287 -1.1645
 7295SOL    HW233522   1.003   2.081  13.350  2.9544  0.0163  3.7483
 7296SOL     OW33523   4.714   3.314   2.240  0.0135  0.3827  0.2882
 7296SOL    HW133524   0.012   3.249   2.300  0.9991  1.6157  1.0441
 7296SOL    HW233525   0.026   3.289   2.163 -0.8526 -0.5155  0.0130
 7297SOL     OW33526   0.684   4.021   2.030 -0.2131 -0.0782 -0.2635
 7297SOL    HW133527   0.590   4.034   2.019 -0.0665  1.0085 -0.1890
 7297SOL    HW233528   0.692   4.009   2.125  0.1530  2.3800  0.0058
 7298SOL     OW33529   4.668   4.331   7.803  0.4185 -0.2085  0.2397
 7298SOL    HW133530   4.690   4.287   7.886  1.5222  1.0960  0.6456
 7298SOL    HW233531   4.634   4.411   7.844  2.4612 -1.1015  3.6972
 7299SOL     OW33532   2.491   0.708   0.866 -0.5390 -0.0603 -0.3356
 7299SOL    HW133533   2.458   0.687   0.953 -1.1583  1.2894 -0.2385
 7299SOL    HW233534   2.565   0.649   0.850 -1.0304 -0.7517 -0.0674
 7300SOL     OW33535   0.384   3.395   2.720 -0.1533 -0.4925  0.2369
 7300SOL    HW133536   0.298   3.413   2.682 -1.1017 -2.7315  1.3048
 7300SOL    HW233537   0.353   3.332   2.786 -2.1926 -0.0575 -0.3051
 7301SOL     OW33538   2.660   1.139   4.498  0.6131 -0.3297  0.5251
 7301SOL    HW133539   2.664   1.225   4.541 -1.3939 -0.5214  1.1223
 7301SOL    HW233540   2.589   1.100   4.549 -0.1073  3.4767  2.4252
 7302SOL     OW33541   0.052   0.606   8.542  0.1173 -0.0424 -0.3316
 7302SOL    HW133542   0.130   0.620   8.489  0.0367  1.5453 -0.0046
 7302SOL    HW233543   0.060   0.668   8.614  0.0598 -0.3332 -0.0722
 7303SOL     OW33544   1.906   4.318  11.891 -0.0073 -0.1487  0.3058
 7303SOL    HW133545   1.904   4.380  11.963  0.2360 -1.9757  1.9024
 7303SOL    HW233546   1.892   4.367  11.810  2.0663 -0.6715 -0.3693
 7304SOL     OW33547   1.416   4.093   3.645 -0.4490  0.3071 -0.1943
 7304SOL    HW133548   1.397   4.090   3.551 -1.4727 -2.7026  0.0897
 7304SOL    HW233549   1.369   4.164   3.688 -0.6989  0.8586 -1.3995
 7305SOL     OW33550   2.585   1.591   7.734  0.2941 -0.9684 -0.6795
 7305SOL    HW133551   2.563   1.580   7.827  3.3507  0.4238  0.2172
 7305SOL    HW233552   2.640   1.669   7.736 -0.5834 -0.3724  0.4999
 7306SOL     OW33553   4.629   0.293   1.594 -0.1129 -0.7777 -0.4324
 7306SOL    HW133554   4.656   0.202   1.584  1.5191 -0.3666  0.1428
 7306SOL    HW233555   4.550   0.284   1.541  0.2271  2.2056 -1.4857
 7307SOL     OW33556   0.471   3.904  15.165  0.3948 -0.7232 -0.1996
 7307SOL    HW133557   0.540   3.919  15.101 -0.0420 -2.5147 -1.0909
 7307SOL    HW233558   0.528   3.900  15.242 -0.3803  0.1594  0.4120
 7308SOL     OW33559   0.188   3.793   5.859  0.1156 -0.1874  0.2292
 7308SOL    HW133560   0.280   3.768   5.847  0.3892  1.9497 -2.0202
 7308SOL    HW233561   0.191   3.887   5.878 -2.5907 -0.4875  2.1233
 7309SOL     OW33562   2.250   0.455   5.082  0.3602 -0.1079 -0.4268
 7309SOL    HW133563   2.242   0.444   4.987 -0.7559 -0.9507 -0.2428
 7309SOL    HW233564   2.333   0.408   5.095 -0.0177 -0.4331  0.7408
 7310SOL     OW33565   2.617   1.115  15.394 -0.6479 -0.1690 -0.2568
 7310SOL    HW133566   2.540   1.108  15.338 -2.5455  2.4701  2.0116
 7310SOL    HW233567   2.691   1.138  15.338  0.9209 -0.1630  1.8181
 7311SOL     OW33568   2.557   3.535   4.539  0.4994  0.4568  0.3455
 7311SOL    HW133569   2.560   3.629   4.521 -0.5579  0.3078 -0.6141
 7311SOL    HW233570   2.651   3.520   4.533  0.9881  4.0842 -0.6477
 7312SOL     OW33571   4.706   0.689   3.001 -0.5378 -0.2155  0.5260
 7312SOL    HW133572   4.660   0.606   2.991 -1.4558  0.4572 -0.8420
 7312SOL    HW233573   0.040   0.664   3.058 -0.4670 -0.7812  0.1862
 7313SOL     OW33574   3.640   4.245   7.878  0.1746  0.1306 -0.7448
 7313SOL    HW133575   3.550   4.251   7.847 -0.1999 -1.3858  0.0422
 7313SOL    HW233576   3.641   4.332   7.918  1.4583  0.3888 -1.3505
 7314SOL     OW33577   2.228   3.639  13.913  0.4282 -0.1506 -0.4928
 7314SOL    HW133578   2.297   3.661  13.976  0.0775 -4.1047  1.2281
 7314SOL    HW233579   2.260   3.672  13.829  1.0981 -1.8893 -0.9024
 7315SOL     OW33580   2.631   2.368  17.153  0.1698  0.7331 -0.0692
 7315SOL    HW133581   2.550   2.408  17.183 -1.1917 -2.0091 -0.0581
 7315SOL    HW233582   2.618   2.386  17.059 -1.1403 -1.0357 -0.2313
 7316SOL     OW33583   1.950   2.558   7.919 -0.7117 -0.3886 -0.2708
 7316SOL    HW133584   1.920   2.480   7.873 -1.3462 -0.0650 -0.4206
 7316SOL    HW233585   1.910   2.633   7.874  2.3207  0.4077 -1.6253
 7317SOL     OW33586   2.612   4.592  13.659  0.8653 -0.3060  0.7069
 7317SOL    HW133587   2.519   4.570  13.652  1.5327 -2.5722 -0.9819
 7317SOL    HW233588   2.652   4.529  13.718  3.0381  2.3260  2.0824
 7318SOL     OW33589   0.402   1.523   8.482  0.4080  0.5363  0.6230
 7318SOL    HW133590   0.402   1.604   8.430  0.7076  0.7721  0.9859
 7318SOL    HW233591   0.420   1.462   8.411  1.2373 -1.6338  2.7036
 7319SOL     OW33592   2.860   0.908   6.162 -0.4184  0.2541  0.3741
 7319SOL    HW133593   2.929   0.916   6.096 -1.8025 -0.8685 -1.2183
 7319SOL    HW233594   2.784   0.951   6.124 -1.2123 -2.0363 -0.6245
 7320SOL     OW33595   4.098   3.225   4.934  0.8655  0.2480  0.0760
 7320SOL    HW133596   4.129   3.236   5.024  0.4863  1.4663  0.0576
 7320SOL    HW233597   4.154   3.152   4.906 -0.9172 -1.4943  1.0305
 7321SOL     OW33598   4.292   1.556   3.914 -0.0142  0.4985  0.1414
 7321SOL    HW133599   4.264   1.648   3.906  1.4240  0.9326  0.0827
 7321SOL    HW233600   4.313   1.541   3.822  1.3274 -0.6522  0.6385
 7322SOL     OW33601   2.103   2.656   6.822  0.0599 -0.1046  0.3054
 7322SOL    HW133602   2.056   2.576   6.847 -0.4177 -0.1482 -0.7273
 7322SOL    HW233603   2.071   2.666   6.732  2.1384  1.6478 -0.2265
 7323SOL     OW33604   1.268   3.460   9.111 -0.2103 -0.6431 -0.5223
 7323SOL    HW133605   1.260   3.523   9.040  0.2607  0.1894  0.1639
 7323SOL    HW233606   1.290   3.519   9.183 -0.7965 -0.9320 -0.1047
 7324SOL     OW33607   4.054   4.577   2.695 -0.1563  0.5909 -0.5252
 7324SOL    HW133608   4.026   4.487   2.677 -0.1866  0.7349 -1.2027
 7324SOL    HW233609   4.011   4.627   2.625  1.2153 -0.8638 -2.4312
 7325SOL     OW33610   1.160   2.076   4.335  0.2036 -0.0056  0.2043
 7325SOL    HW133611   1.124   2.141   4.275  1.0673 -0.7511 -1.1279
 7325SOL    HW233612   1.086   2.056   4.392  0.8540 -0.0870  1.0369
 7326SOL     OW33613   0.184   0.629   3.198 -0.8023  0.0714  0.4481
 7326SOL    HW133614   0.278   0.610   3.193 -0.6293  0.4554  2.1187
 7326SOL    HW233615   0.170   0.706   3.254  0.9310  0.9655 -0.3645
 7327SOL     OW33616   0.994   0.520   8.123  0.0967  0.2957 -0.0631
 7327SOL    HW133617   1.005   0.580   8.197  0.9482 -0.4358  0.4007
 7327SOL    HW233618   1.086   0.492   8.122 -0.1844 -0.7397  2.7697
 7328SOL     OW33619   0.148   1.875   3.389  0.6150  0.1437 -0.1222
 7328SOL    HW133620   0.117   1.795   3.432 -0.0265  0.1602 -0.5557
 7328SOL    HW233621   0.243   1.867   3.391  0.3737 -2.4315  0.2247
 7329SOL     OW33622   1.456   1.201  15.124  0.6174 -0.1675  0.2259
 7329SOL    HW133623   1.429   1.120  15.168  0.3123 -0.4659 -0.5146
 7329SOL    HW233624   1.468   1.169  15.034 -1.4291 -0.8410  0.1953
 7330SOL     OW33625   4.425   2.919  11.474 -1.0487  0.5023 -0.6211
 7330SOL    HW133626   4.344   2.965  11.452 -1.2933  0.6542  0.6122
 7330SOL    HW233627   4.492   2.959  11.418  0.3072  0.4819  0.9908
 7331SOL     OW33628   3.086   4.653  11.996 -0.2931  0.5286  0.1114
 7331SOL    HW133629   3.104   4.661  12.090 -3.1957  0.1070  0.6917
 7331SOL    HW233630   3.006   4.601  12.006  0.3659 -0.4278  0.4875
 7332SOL     OW33631   3.960   0.922   2.455 -0.0811  0.2145  0.0121
 7332SOL    HW133632   3.946   0.915   2.550  2.9020  0.3925  0.4416
 7332SOL    HW233633   4.051   0.893   2.452 -0.6179 -1.3523 -1.3539
 7333SOL     OW33634   4.715   3.319   8.562  0.2140  0.0823 -0.2441
 7333SOL    HW133635   4.679   3.247   8.614  0.1597  0.7893  0.6890
 7333SOL    HW233636   0.041   3.268   8.513 -1.1433 -0.3249 -1.6387
 7334SOL     OW33637   0.913   1.758   8.722  0.1148 -0.0013  0.1746
 7334SOL    HW133638   0.969   1.681   8.736  0.1571  0.1869  1.0762
 7334SOL    HW233639   0.840   1.715   8.679  0.2431  0.8269 -0.8567
 7335SOL     OW33640   2.108   2.063   2.237 -0.5686 -0.1606  0.7381
 7335SOL    HW133641   2.125   2.010   2.159  0.4267  0.9839  0.1870
 7335SOL    HW233642   2.183   2.049   2.295 -0.5175 -0.8745  0.5060
 7336SOL     OW33643   0.984   2.839  13.340  0.2067 -0.3355 -0.4972
 7336SOL    HW133644   1.005   2.751  13.370  0.0222 -0.5303 -0.9436
 7336SOL    HW233645   0.948   2.884  13.417  0.3646 -1.2526  0.1122
 7337SOL     OW33646   3.969   2.155   9.767  0.0386 -0.9653  0.2087
 7337SOL    HW133647   4.048   2.194   9.729 -0.9833 -0.0420 -0.9973
 7337SOL    HW233648   3.923   2.237   9.785 -1.7039 -1.9083  0.0652
 7338SOL     OW33649   1.275   1.907  13.759 -0.7064  0.0530 -0.2163
 7338SOL    HW133650   1.328   1.986  13.746  0.9128 -1.0499 -0.3744
 7338SOL    HW233651   1.205   1.940  13.815 -1.9652 -1.0208 -1.1886
 7339SOL     OW33652   3.362   4.205   7.797 -0.0225 -0.2214  0.3889
 7339SOL    HW133653   3.299   4.247   7.739 -0.3797  0.3863  1.2078
 7339SOL    HW233654   3.299   4.170   7.861  0.5761 -0.0717  1.0608
 7340SOL     OW33655   2.098   0.671   4.778  0.1899 -0.5372 -0.0629
 7340SOL    HW133656   2.008   0.647   4.755 -0.3913 -0.3073  2.0093
 7340SOL    HW233657   2.080   0.712   4.863  3.9965  0.8819  0.0436
 7341SOL     OW33658   0.217   2.547   2.583 -0.2415  0.3632  0.6936
 7341SOL    HW133659   0.277   2.494   2.531 -1.1607  0.3323 -0.3273
 7341SOL    HW233660   0.274   2.618   2.614  2.7906 -0.5167 -2.8348
 7342SOL     OW33661   1.861   3.137   7.046  0.0629 -0.3197 -0.6108
 7342SOL    HW133662   1.838   3.060   6.995  0.4378  0.6978 -2.3054
 7342SOL    HW233663   1.941   3.107   7.089 -1.3942 -1.0171  1.6260
 7343SOL     OW33664   2.339   1.606   2.040  0.4804 -0.2131  0.4094
 7343SOL    HW133665   2.325   1.663   1.965 -0.4873  0.2520  0.9370
 7343SOL    HW233666   2.350   1.668   2.113 -0.1611 -0.4876  0.7384
 7344SOL     OW33667   4.445   2.777   6.927 -0.3551  0.4336 -0.3892
 7344SOL    HW133668   4.464   2.862   6.886  0.0776  0.1766 -0.7230
 7344SOL    HW233669   4.367   2.750   6.879  0.5800  1.3627 -2.4448
 7345SOL     OW33670   2.112   2.606   5.528  0.2297  0.3675  0.0834
 7345SOL    HW133671   2.188   2.613   5.586 -0.6445  0.1415  1.2622
 7345SOL    HW233672   2.092   2.515   5.546  1.0186 -0.1738 -1.8217
 7346SOL     OW33673   0.114   4.158   4.560 -0.2762 -0.0507  0.2930
 7346SOL    HW133674   0.148   4.191   4.477 -0.9056  0.4274  0.2213
 7346SOL    HW233675   0.152   4.071   4.572  1.6351  1.1253  2.7449
 7347SOL     OW33676   1.995   4.617  13.100  0.5216 -0.1358  0.3731
 7347SOL    HW133677   1.969   4.682  13.165  2.2988  0.3200  0.6401
 7347SOL    HW233678   2.006   4.542  13.158 -2.8310 -0.8171  0.1438
 7348SOL     OW33679   0.158   1.684  12.331  0.5182 -0.3203  0.5511
 7348SOL    HW133680   0.132   1.656  12.244 -1.9636 -0.0204  1.1781
 7348SOL    HW233681   0.149   1.599  12.374 -1.0910 -0.6857 -0.4981
 7349SOL     OW33682   1.005   0.782   3.167 -0.5839 -0.3995  0.6662
 7349SOL    HW133683   1.060   0.856   3.139 -0.0891 -1.1580 -0.3537
 7349SOL    HW233684   1.024   0.785   3.261  2.3020 -2.0946  0.1240
 7350SOL     OW33685   1.185   2.776  11.469 -0.5789 -0.1237  0.2339
 7350SOL    HW133686   1.217   2.722  11.397 -2.0999 -1.1385  0.3185
 7350SOL    HW233687   1.108   2.809  11.423  0.8806  0.2095 -1.9806
 7351SOL     OW33688   0.017   2.315   4.035 -0.6045  0.1127 -0.8406
 7351SOL    HW133689   4.666   2.349   4.037  0.1532  2.0510  0.1652
 7351SOL    HW233690   0.021   2.265   4.116  0.9303 -0.5991 -1.3544
 7352SOL     OW33691   1.788   0.841   2.458  0.1684 -0.7925  0.4158
 7352SOL    HW133692   1.751   0.898   2.390 -0.4658  1.3564  2.5530
 7352SOL    HW233693   1.875   0.882   2.468  0.1806 -0.8095  0.3792
 7353SOL     OW33694   3.010   2.648   7.964 -0.7609 -0.1473 -0.1324
 7353SOL    HW133695   3.010   2.594   8.043  2.1918 -0.4674 -0.3553
 7353SOL    HW233696   2.916   2.664   7.961 -0.5535  1.8386  4.6603
 7354SOL     OW33697   4.453   0.691   2.695 -1.2050 -0.4773  0.1276
 7354SOL    HW133698   4.429   0.601   2.673 -0.3159 -0.7939  0.4239
 7354SOL    HW233699   4.493   0.681   2.782 -1.8227 -0.8674  0.3612
 7355SOL     OW33700   3.451   0.576   1.570  0.6549  0.0657  0.5029
 7355SOL    HW133701   3.390   0.600   1.640  0.1287 -0.2696  0.1619
 7355SOL    HW233702   3.409   0.498   1.534 -2.2748  1.6040  0.5892
 7356SOL     OW33703   2.346   4.318   5.484  0.0368 -0.0292 -0.4338
 7356SOL    HW133704   2.365   4.239   5.535 -0.2483 -0.0899 -0.4200
 7356SOL    HW233705   2.259   4.353   5.504  0.4801  0.1356  1.2536
 7357SOL     OW33706   2.964   0.996   7.865 -0.1333  0.5269  0.1719
 7357SOL    HW133707   2.928   1.029   7.947  1.3715  3.0125 -0.1532
 7357SOL    HW233708   2.897   1.006   7.797  0.4720  1.2302 -0.3352
 7358SOL     OW33709   3.773   1.588   6.940  0.0222  0.0513  0.0192
 7358SOL    HW133710   3.682   1.568   6.919  0.1131  0.3784 -0.6917
 7358SOL    HW233711   3.821   1.530   6.880  1.1671  0.7325  0.2817
 7359SOL     OW33712   0.818   0.403   2.625  0.1618  0.2961  0.2565
 7359SOL    HW133713   0.775   0.332   2.673  0.2164 -0.8124 -1.3137
 7359SOL    HW233714   0.910   0.378   2.639  0.5625  0.9341 -1.2559
 7360SOL     OW33715   2.137   4.072   2.979 -0.3643  0.1018 -0.1352
 7360SOL    HW133716   2.065   4.013   3.002 -0.8363  1.2081  1.2844
 7360SOL    HW233717   2.145   4.119   3.062  0.8663  1.4314 -0.9975
 7361SOL     OW33718   2.449   2.855  14.269  0.0957 -0.2222 -0.2306
 7361SOL    HW133719   2.362   2.853  14.230 -0.5543  2.9354  1.0945
 7361SOL    HW233720   2.420   2.850  14.360  0.6311  1.1127  0.0157
 7362SOL     OW33721   1.070   0.448   6.908 -0.2269  0.6799 -0.1917
 7362SOL    HW133722   1.146   0.393   6.930 -0.3793 -0.3972 -2.2780
 7362SOL    HW233723   1.113   0.529   6.880  0.1969  1.1685  1.9340
 7363SOL     OW33724   3.657   0.724  17.625 -0.0107  0.7555  0.0860
 7363SOL    HW133725   3.632   0.751  17.536  1.2716 -0.0648 -0.5243
 7363SOL    HW233726   3.581   0.766  17.666  0.4639 -0.8552  2.6089
 7364SOL     OW33727   0.180   4.191   0.922 -0.1173 -0.3694 -0.7202
 7364SOL    HW133728   0.102   4.174   0.869 -2.1861  1.2886  1.7561
 7364SOL    HW233729   0.203   4.276   0.884 -3.4071  0.9079  0.1187
 7365SOL     OW33730   0.704   3.270  17.175 -0.2853 -0.6143  0.5997
 7365SOL    HW133731   0.734   3.322  17.101  0.6513 -0.7485  0.8852
 7365SOL    HW233732   0.695   3.188  17.125  0.5315 -0.4894  0.2479
 7366SOL     OW33733   1.429   2.748   5.424  0.0741  0.1488 -0.2612
 7366SOL    HW133734   1.429   2.759   5.329  0.5848  0.7111 -0.1981
 7366SOL    HW233735   1.437   2.839   5.453 -2.4968  0.1917  0.3114
 7367SOL     OW33736   0.458   1.441   9.885  0.6494 -0.0259 -0.2177
 7367SOL    HW133737   0.377   1.494   9.887  1.7904  1.8019 -2.3304
 7367SOL    HW233738   0.427   1.351   9.897  0.5279 -0.0113 -0.4180
 7368SOL     OW33739   4.180   4.216   6.979  0.3747  0.7089 -0.1294
 7368SOL    HW133740   4.092   4.254   6.981  0.2994  0.4939  0.8054
 7368SOL    HW233741   4.167   4.122   6.966  0.5832  0.5943  0.4946
 7369SOL     OW33742   2.507   0.745   4.519 -0.2663  0.2532  0.5637
 7369SOL    HW133743   2.595   0.771   4.547  0.3711 -1.0930 -0.1893
 7369SOL    HW233744   2.468   0.751   4.606  0.9448  0.3784  1.1103
 7370SOL     OW33745   2.565   3.737   9.754  0.2864 -0.1104 -0.6937
 7370SOL    HW133746   2.576   3.654   9.709 -0.9527  0.4865 -2.0613
 7370SOL    HW233747   2.651   3.744   9.796 -1.2246 -1.4177  2.5933
 7371SOL     OW33748   1.231   3.482   1.780  0.4731  0.0280 -0.4472
 7371SOL    HW133749   1.304   3.529   1.740  0.3723 -0.8276 -1.6463
 7371SOL    HW233750   1.164   3.519   1.723 -0.6684 -0.6111  0.4766
 7372SOL     OW33751   1.960   3.288  12.123  0.0157  0.6280 -0.1033
 7372SOL    HW133752   2.055   3.294  12.119 -0.1576  1.5567 -2.4626
 7372SOL    HW233753   1.943   3.200  12.089 -1.3932  0.9766 -0.2884
 7373SOL     OW33754   0.266   2.092   5.817  0.0694  0.2697  0.1637
 7373SOL    HW133755   0.350   2.055   5.788  1.2913  1.8103  1.7206
 7373SOL    HW233756   0.291   2.183   5.834  3.3850 -0.0967 -2.6819
 7374SOL     OW33757   3.987   3.678  16.252  0.3990 -0.4785  0.3247
 7374SOL    HW133758   4.006   3.592  16.217  2.2391 -0.6986  1.8701
 7374SOL    HW233759   3.981   3.725  16.169 -1.6985 -0.5716  0.4233
 7375SOL     OW33760   3.140   0.244  11.546  0.0825 -0.6444  0.7468
 7375SOL    HW133761   3.199   0.315  11.519 -1.2864  0.8421  1.6529
 7375SOL    HW233762   3.179   0.222  11.630 -0.3420  0.8954  1.3572
 7376SOL     OW33763   1.506   2.693   5.834 -0.2393  0.3921 -0.3255
 7376SOL    HW133764   1.428   2.748   5.837 -1.2327 -1.0526  0.5161
 7376SOL    HW233765   1.502   2.658   5.745  0.1984  0.9718 -0.5727
 7377SOL     OW33766   3.018   0.514   5.921  0.0244  0.3147  0.1921
 7377SOL    HW133767   3.091   0.522   5.859  1.0681 -1.0437  1.2519
 7377SOL    HW233768   3.054   0.461   5.992  0.5988  1.3757  0.6889
 7378SOL     OW33769   1.754   3.559  13.070  0.1504 -0.2453 -0.1780
 7378SOL    HW133770   1.754   3.615  13.148  1.9691  0.1215 -0.4345
 7378SOL    HW233771   1.660   3.543  13.068  0.0382  0.6912 -1.8939
 7379SOL     OW33772   4.160   0.146  14.776  0.3312 -0.6826 -0.6820
 7379SOL    HW133773   4.248   0.109  14.765  0.0496 -1.6051  0.1904
 7379SOL    HW233774   4.163   0.182  14.864  1.6156 -0.8124 -0.6793
 7380SOL     OW33775   3.831   1.942  14.289  0.0621  0.5807  0.0664
 7380SOL    HW133776   3.790   2.026  14.272  0.5473  0.5811 -1.0928
 7380SOL    HW233777   3.768   1.888  14.242 -2.0384  0.4732  2.9909
 7381SOL     OW33778   3.151   2.194   7.699 -0.1995  0.1321 -0.2283
 7381SOL    HW133779   3.181   2.267   7.753  1.0772 -0.3538 -0.2659
 7381SOL    HW233780   3.225   2.135   7.683  1.4276  2.4696 -1.4408
 7382SOL     OW33781   1.105   0.808   9.211 -0.3533 -0.5059 -0.2000
 7382SOL    HW133782   1.147   0.809   9.297  0.6324  2.4500 -0.7163
 7382SOL    HW233783   1.132   0.723   9.176  1.1982  0.1151 -0.5493
 7383SOL     OW33784   4.281   2.251   8.891  0.2930  0.0887 -0.3963
 7383SOL    HW133785   4.280   2.276   8.798  1.3444 -2.4397 -1.1164
 7383SOL    HW233786   4.328   2.167   8.895 -0.8673 -0.4982  0.8278
 7384SOL     OW33787   2.973   3.945  13.971  0.0285 -0.3700 -0.5072
 7384SOL    HW133788   3.062   3.921  13.944 -0.0327  0.1388 -1.1720
 7384SOL    HW233789   2.948   3.875  14.031 -2.3484  0.5093 -0.4713
 7385SOL     OW33790   2.569   0.952   2.779  0.8411  0.5232  0.0194
 7385SOL    HW133791   2.572   1.046   2.793 -1.8149  0.5695  0.2242
 7385SOL    HW233792   2.602   0.919   2.863  2.7624 -3.4456 -2.3007
 7386SOL     OW33793   1.301   1.688   7.185 -1.1526  0.5793 -0.5461
 7386SOL    HW133794   1.365   1.721   7.248 -0.0425  0.4291 -1.5984
 7386SOL    HW233795   1.223   1.744   7.196 -1.3572  0.0945  0.4475
 7387SOL     OW33796   0.028   0.544   1.336 -0.1551  0.1804 -0.2819
 7387SOL    HW133797   0.060   0.589   1.259 -0.8513  3.4542  1.3349
 7387SOL    HW233798   0.109   0.523   1.382 -0.2864  0.3755  0.0403
 7388SOL     OW33799   1.413   0.903   0.055  0.5835 -0.8111  0.7740
 7388SOL    HW133800   1.399   0.851  17.728 -1.4178  1.1182 -0.1334
 7388SOL    HW233801   1.329   0.936   0.085  0.7643  0.7612 -0.4226
 7389SOL     OW33802   3.796   1.891   8.779 -0.3300  0.0017 -0.6894
 7389SOL    HW133803   3.738   1.874   8.705 -2.7738  0.8417  1.0426
 7389SOL    HW233804   3.734   1.924   8.843  0.7429  0.4864  0.0949
 7390SOL     OW33805   0.218   3.605   4.789  0.5134 -0.6499 -0.1320
 7390SOL    HW133806   0.128   3.583   4.764 -0.5952  1.9979  1.5601
 7390SOL    HW233807   0.208   3.627   4.881 -0.0420  0.2335 -0.4054
 7391SOL     OW33808   4.715   0.367  14.926 -0.8320 -0.2798 -0.0476
 7391SOL    HW133809   4.696   0.275  14.946  0.3309 -0.7263 -1.0371
 7391SOL    HW233810   4.630   0.399  14.897 -1.9818 -2.8613  0.4595
 7392SOL     OW33811   3.404   3.892  16.528  0.1396 -0.5871  0.3345
 7392SOL    HW133812   3.438   3.976  16.558 -1.3985 -0.3828  1.4854
 7392SOL    HW233813   3.317   3.898  16.567 -0.7551 -1.4969 -1.5114
 7393SOL     OW33814   3.898   1.829   4.602  0.3485  0.0922  0.2770
 7393SOL    HW133815   3.834   1.899   4.611  0.7971  0.3701  1.3200
 7393SOL    HW233816   3.893   1.787   4.688  4.4935  0.1280  0.5295
 7394SOL     OW33817   2.156   0.310   6.437  0.3273 -0.2821  0.4519
 7394SOL    HW133818   2.248   0.315   6.410 -0.0019 -1.6093 -0.9143
 7394SOL    HW233819   2.131   0.221   6.413 -3.6351  1.0440 -0.3383
 7395SOL     OW33820   0.890   0.439   4.239 -0.7031 -0.3607 -0.0175
 7395SOL    HW133821   0.972   0.434   4.190 -0.9177 -0.8192 -0.3342
 7395SOL    HW233822   0.915   0.414   4.328 -0.7763 -2.3184 -0.5435
 7396SOL     OW33823   4.115   2.403   5.228  0.4712 -0.2996 -0.3606
 7396SOL    HW133824   4.190   2.460   5.210  0.3197  0.6473  2.1151
 7396SOL    HW233825   4.119   2.353   5.146 -0.3517  1.2725 -1.3647
 7397SOL     OW33826   3.118   4.542  16.748  0.2641 -0.3311  0.3958
 7397SOL    HW133827   3.167   4.522  16.668 -0.9870  2.3789 -1.0161
 7397SOL    HW233828   3.177   4.503  16.813  1.1488 -0.2466 -0.3500
 7398SOL     OW33829   0.863   0.280   6.791  0.1096  0.5379  0.4448
 7398SOL    HW133830   0.887   0.239   6.708 -0.8393 -2.3130  1.5899
 7398SOL    HW233831   0.936   0.341   6.808  0.4657  0.1542  0.2922
 7399SOL     OW33832   3.523   0.808   0.773  0.1932  0.0984  0.6486
 7399SOL    HW133833   3.607   0.827   0.816  0.6205 -2.1110  0.8058
 7399SOL    HW233834   3.496   0.900   0.770  1.7296  0.4721 -2.1593
 7400SOL     OW33835   0.128   4.254   6.695  0.1737  0.2953 -0.1026
 7400SOL    HW133836   0.221   4.278   6.685 -0.6232  2.8287 -1.3394
 7400SOL    HW233837   0.079   4.327   6.659 -1.4872 -0.1481  1.2852
 7401SOL     OW33838   0.876   2.130   1.771  0.5613  0.1974 -0.7615
 7401SOL    HW133839   0.879   2.176   1.855  2.9073 -1.2226 -0.0854
 7401SOL    HW233840   0.969   2.115   1.754  0.4389 -1.6465  0.2299
 7402SOL     OW33841   0.099   0.719  11.158  0.2810  0.4114 -0.2303
 7402SOL    HW133842   0.193   0.733  11.170 -0.2134  2.5431  0.9527
 7402SOL    HW233843   0.068   0.770  11.232 -0.7896 -0.9769  0.2920
 7403SOL     OW33844   1.098   2.487  10.001 -0.0286  0.1172  0.6437
 7403SOL    HW133845   1.107   2.424   9.930 -1.2116  0.7109 -0.0375
 7403SOL    HW233846   1.186   2.484  10.039  1.6020  2.1733 -2.9072
 7404SOL     OW33847   2.039   1.855   4.978 -0.1926 -0.1693  0.2815
 7404SOL    HW133848   2.131   1.846   5.003 -0.0796  1.4058  0.4179
 7404SOL    HW233849   2.012   1.775   5.025  0.2881 -0.4413  0.0989
 7405SOL     OW33850   4.704   2.785   1.831 -0.0355  0.3320 -0.9210
 7405SOL    HW133851   0.048   2.831   1.840 -1.1695  1.9984  1.0023
 7405SOL    HW233852   4.661   2.831   1.903  1.2425 -1.0869  0.7432
 7406SOL     OW33853   3.261   3.325   8.017 -0.2791  0.5859  0.1826
 7406SOL    HW133854   3.276   3.308   8.110  1.7957 -1.0027 -0.4659
 7406SOL    HW233855   3.300   3.252   7.970 -0.0115  0.1994  1.0146
 7407SOL     OW33856   3.651   1.163  10.622 -0.2002 -0.1774 -0.2193
 7407SOL    HW133857   3.674   1.130  10.709 -0.1341 -3.3149 -1.4274
 7407SOL    HW233858   3.735   1.150  10.576 -0.0463 -1.2343  0.3608
 7408SOL     OW33859   0.791   4.648   2.720 -0.4503 -0.0545 -0.2933
 7408SOL    HW133860   0.734   4.587   2.766  0.8705 -1.3950 -0.4564
 7408SOL    HW233861   0.877   4.630   2.758  0.0456 -0.8361 -1.7792
 7409SOL     OW33862   0.455   1.792   6.289 -0.1310 -0.1283 -0.0071
 7409SOL    HW133863   0.434   1.730   6.219  1.4774 -0.0088 -0.5992
 7409SOL    HW233864   0.446   1.740   6.369 -2.6369 -2.1699 -1.6258
 7410SOL     OW33865   2.137   2.046   8.931 -0.0066 -0.2045  0.1510
 7410SOL    HW133866   2.125   2.133   8.970  1.9550  1.0851 -2.1397
 7410SOL    HW233867   2.046   2.020   8.917  0.7200 -0.5474 -3.8650
 7411SOL     OW33868   0.985   0.300   4.497  0.1632 -0.5929  0.2210
 7411SOL    HW133869   0.917   0.234   4.482  0.4977 -1.1307  1.0687
 7411SOL    HW233870   1.065   0.249   4.505 -0.0299 -1.1282 -1.2758
 7412SOL     OW33871   1.712   3.088   6.287  0.2680 -0.4091 -0.0800
 7412SOL    HW133872   1.683   3.003   6.256  0.4659  0.5726 -2.9880
 7412SOL    HW233873   1.639   3.146   6.265 -0.0901 -0.5953  0.6217
 7413SOL     OW33874   1.846   2.578   5.790 -0.0646  0.2929 -0.1578
 7413SOL    HW133875   1.803   2.584   5.875 -0.9863 -1.6016 -0.4789
 7413SOL    HW233876   1.844   2.483   5.776  0.2842  0.0466  1.4416
 7414SOL     OW33877   0.859   4.640  17.016 -1.3916  0.3357  0.4283
 7414SOL    HW133878   0.911   4.719  17.022 -0.5828 -0.0496 -1.5115
 7414SOL    HW233879   0.766   4.660  17.026 -2.0021 -1.6204 -1.3187
 7415SOL     OW33880   2.579   0.465  11.799  0.5527 -0.1673 -0.4240
 7415SOL    HW133881   2.543   0.381  11.770 -0.0560 -0.8068  2.1419
 7415SOL    HW233882   2.534   0.521  11.735  0.0030  1.8869  1.7467
 7416SOL     OW33883   4.030   3.539   1.830 -0.5955  0.1783  0.6133
 7416SOL    HW133884   4.006   3.556   1.739  3.6498 -0.6543 -0.6673
 7416SOL    HW233885   4.106   3.596   1.845 -0.1930 -0.2759  0.2936
 7417SOL     OW33886   4.527   2.379   6.096 -0.1291  0.2749 -0.0675
 7417SOL    HW133887   4.612   2.361   6.054  1.5442  1.1779  2.9051
 7417SOL    HW233888   4.557   2.408   6.182  2.4788 -1.6511 -0.3094
 7418SOL     OW33889   3.447   1.421   2.693  0.1597  0.2690 -0.2817
 7418SOL    HW133890   3.392   1.343   2.681  0.9134 -0.1766 -0.7898
 7418SOL    HW233891   3.425   1.470   2.613  0.1011  1.1233  0.2581
 7419SOL     OW33892   2.867   4.398  16.782 -0.0419  0.4355  0.1379
 7419SOL    HW133893   2.872   4.309  16.746  0.2870 -0.1708  1.7122
 7419SOL    HW233894   2.945   4.431  16.737  0.1053 -0.0216  0.0580
 7420SOL     OW33895   0.467   2.226  13.225  0.2764  0.2497  0.2385
 7420SOL    HW133896   0.530   2.171  13.272 -1.0699 -1.6579 -0.1929
 7420SOL    HW233897   0.519   2.301  13.196 -0.9456  1.2399  0.6275
 7421SOL     OW33898   2.995   2.357  14.457 -0.1532 -0.0285 -0.2936
 7421SOL    HW133899   2.996   2.347  14.552  0.1864  0.6315 -0.2286
 7421SOL    HW233900   2.975   2.449  14.438 -1.4651 -0.4834 -1.1357
 7422SOL     OW33901   2.206   4.507   7.226 -0.0179  0.3685 -0.7469
 7422SOL    HW133902   2.247   4.443   7.168 -1.5675  1.2172 -2.7842
 7422SOL    HW233903   2.112   4.495   7.210 -0.7736  0.3474  3.7491
 7423SOL     OW33904   2.112   0.044   8.369  0.4317  0.5887 -0.9649
 7423SOL    HW133905   2.130   4.689   8.377 -1.1414  0.5290  1.7683
 7423SOL    HW233906   2.199   0.075   8.394  0.4722 -0.3334  0.0467
 7424SOL     OW33907   3.759   0.391   9.498 -0.2067 -0.4452  0.5115
 7424SOL    HW133908   3.750   0.464   9.437 -0.3639 -0.7833  0.1288
 7424SOL    HW233909   3.815   0.330   9.449 -1.4869 -0.9076 -0.3737
 7425SOL     OW33910   3.436   3.814   5.720 -0.4071 -0.1257 -0.1202
 7425SOL    HW133911   3.418   3.767   5.638  1.7094 -1.1047 -0.0377
 7425SOL    HW233912   3.470   3.895   5.683 -1.2577 -0.6548 -2.0509
 7426SOL     OW33913   0.646   3.060  13.176 -0.3104 -0.2116  0.0559
 7426SOL    HW133914   0.722   3.035  13.124 -0.9688  1.6798 -1.8119
 7426SOL    HW233915   0.644   3.154  13.189  0.2614 -0.4542  1.8699
 7427SOL     OW33916   4.332   0.222  13.301 -0.2902  0.1894 -0.0217
 7427SOL    HW133917   4.390   0.147  13.288  0.3174  0.6483  0.0301
 7427SOL    HW233918   4.309   0.217  13.394  0.6555 -1.8058  0.1141
 7428SOL     OW33919   0.495   0.197   5.135  0.2597  0.7115  0.1047
 7428SOL    HW133920   0.415   0.146   5.149 -0.6573  1.8432 -1.0161
 7428SOL    HW233921   0.536   0.194   5.221  0.0938  0.0929  0.1629
 7429SOL     OW33922   2.461   0.595  11.575 -0.1532  0.3901 -0.3273
 7429SOL    HW133923   2.376   0.561  11.547  0.8108 -0.6518 -2.0078
 7429SOL    HW233924   2.520   0.530  11.536 -0.7875 -0.0300 -0.5770
 7430SOL     OW33925   1.013   3.214   3.415  0.0824  0.0847 -0.0528
 7430SOL    HW133926   1.031   3.307   3.426  2.9422 -0.6057  0.8878
 7430SOL    HW233927   0.920   3.216   3.391 -0.3886 -0.3348  1.7025
 7431SOL     OW33928   0.019   0.389  14.377  0.4899  0.2463 -0.3338
 7431SOL    HW133929   0.071   0.361  14.451  1.7269 -0.4087 -1.4610
 7431SOL    HW233930   4.669   0.363  14.405  0.6659 -1.3356 -1.2718
 7432SOL     OW33931   1.849   0.495   2.661  0.2725 -0.1604  0.0757
 7432SOL    HW133932   1.860   0.463   2.750  1.5674 -0.8703 -0.3462
 7432SOL    HW233933   1.940   0.499   2.634  0.4846 -0.1111  0.8017
 7433SOL     OW33934   1.951   2.764  17.488 -0.4523 -0.0839  0.2356
 7433SOL    HW133935   2.034   2.760  17.534 -1.3592 -1.4799  1.7330
 7433SOL    HW233936   1.978   2.790  17.400 -1.5756 -0.9117 -0.3578
 7434SOL     OW33937   0.687   3.663   6.317 -0.4573  0.2396 -0.4450
 7434SOL    HW133938   0.623   3.604   6.356  1.6623 -1.8963 -0.2068
 7434SOL    HW233939   0.714   3.715   6.393  1.7268 -3.4109  1.2769
 7435SOL     OW33940   1.590   0.294   3.170  0.2736  0.4109 -0.3277
 7435SOL    HW133941   1.572   0.242   3.248  1.4349  0.8351  0.2194
 7435SOL    HW233942   1.656   0.353   3.206  0.4054  0.6585 -0.9671
 7436SOL     OW33943   0.786   3.509   5.703  0.4753  0.1514  0.2907
 7436SOL    HW133944   0.847   3.522   5.631  0.8183  0.7489  0.6892
 7436SOL    HW233945   0.809   3.590   5.749 -0.8188 -0.1941  1.5309
 7437SOL     OW33946   0.825   3.777   2.003 -0.2544  0.1316  0.2848
 7437SOL    HW133947   0.886   3.756   2.074  1.2660  2.7590 -0.2364
 7437SOL    HW233948   0.805   3.867   2.031 -2.4785 -0.6312  1.1373
 7438SOL     OW33949   0.953   3.419   7.709  0.0627 -0.8899 -0.1967
 7438SOL    HW133950   1.030   3.435   7.762 -0.1183 -0.2072 -0.1388
 7438SOL    HW233951   0.880   3.435   7.770  0.8196 -1.2034  0.7887
 7439SOL     OW33952   0.941   3.830   5.631  0.0542 -0.2753  0.2496
 7439SOL    HW133953   0.901   3.837   5.718 -2.3974 -1.0077 -0.8104
 7439SOL    HW233954   1.010   3.895   5.628  0.8479 -1.2811 -2.5234
 7440SOL     OW33955   2.720   2.178   3.344  0.0201  0.1642 -0.4891
 7440SOL    HW133956   2.674   2.177   3.428 -2.1512 -1.0412 -1.6709
 7440SOL    HW233957   2.645   2.199   3.288 -0.0866  1.0415 -0.0154
 7441SOL     OW33958   3.627   2.098  15.588 -0.5743  0.2958  0.1858
 7441SOL    HW133959   3.568   2.070  15.657 -1.3240 -0.8544 -0.9241
 7441SOL    HW233960   3.601   2.041  15.516 -1.7602 -0.4114  1.1903
 7442SOL     OW33961   1.147   1.421   7.988  0.1802  0.0337  0.3020
 7442SOL    HW133962   1.127   1.423   7.895  0.1519  1.6342  0.3343
 7442SOL    HW233963   1.204   1.498   8.001  1.0921 -0.8370  1.4285
 7443SOL     OW33964   2.041   2.617   3.471  0.5206 -0.2811 -0.1913
 7443SOL    HW133965   2.053   2.608   3.565  0.2829  2.9392  0.1512
 7443SOL    HW233966   2.111   2.559   3.442  0.9924  1.0936 -1.7976
 7444SOL     OW33967   1.588   3.659   6.345 -0.2875  0.1784  0.2803
 7444SOL    HW133968   1.504   3.625   6.376 -0.1771 -1.1238 -0.8824
 7444SOL    HW233969   1.609   3.592   6.281 -2.0419 -1.6259  1.5872
 7445SOL     OW33970   2.544   3.313   4.883 -0.3053 -0.3119 -0.1085
 7445SOL    HW133971   2.560   3.240   4.824  1.0781 -1.8985  2.1983
 7445SOL    HW233972   2.635   3.342   4.892 -0.6730 -0.2152  3.6722
 7446SOL     OW33973   2.120   4.115  16.164  0.3904  0.3475  0.1377
 7446SOL    HW133974   2.089   4.038  16.118 -2.2672  1.0281  0.7913
 7446SOL    HW233975   2.049   4.176  16.147 -0.1999 -0.6366 -0.8798
 7447SOL     OW33976   2.631   1.823  17.736 -0.4369  0.3606 -0.2661
 7447SOL    HW133977   2.560   1.795  17.679  0.1276 -0.3456 -0.6285
 7447SOL    HW233978   2.615   1.917  17.727  0.9289  0.4719 -1.6773
 7448SOL     OW33979   3.523   0.219   6.831 -0.8606 -0.6901  0.5702
 7448SOL    HW133980   3.488   0.302   6.799 -0.1781 -0.2684  0.9156
 7448SOL    HW233981   3.601   0.200   6.780 -2.0481 -1.1100 -1.0734
 7449SOL     OW33982   2.531   0.417   3.271  0.2299 -0.4641 -0.1741
 7449SOL    HW133983   2.545   0.453   3.183  0.0917  1.2869  0.5063
 7449SOL    HW233984   2.556   0.326   3.255 -1.8142 -0.6932 -2.0719
 7450SOL     OW33985   1.795   2.148  16.465 -0.2803  0.2137  0.1068
 7450SOL    HW133986   1.765   2.207  16.396 -1.7415  0.3616  0.8438
 7450SOL    HW233987   1.875   2.195  16.490 -0.9329  0.3344  2.0163
 7451SOL     OW33988   1.679   0.530   6.023  0.0002  0.0694  0.2455
 7451SOL    HW133989   1.604   0.580   5.991  0.5919 -0.0396 -1.3002
 7451SOL    HW233990   1.703   0.471   5.951 -2.3531  0.9268 -1.2275
 7452SOL     OW33991   0.124   0.812   7.097  0.2307  0.5179 -0.6546
 7452SOL    HW133992   0.030   0.819   7.081 -0.3583  0.8666  3.1537
 7452SOL    HW233993   0.144   0.895   7.140 -0.4045 -0.6045  1.7685
 7453SOL     OW33994   4.178   1.710  12.946  0.0778  0.1272  0.4781
 7453SOL    HW133995   4.138   1.694  13.031  0.4915  0.5400  0.7499
 7453SOL    HW233996   4.147   1.797  12.919 -2.1981 -0.3445  1.6413
 7454SOL     OW33997   1.778   3.203   0.507 -0.2100  0.2674 -0.3629
 7454SOL    HW133998   1.802   3.291   0.534  0.6949  0.4582 -1.8104
 7454SOL    HW233999   1.686   3.200   0.532 -0.4751 -0.0070 -1.3522
 7455SOL     OW34000   4.183   0.427  10.580 -0.4892 -0.0602 -0.1004
 7455SOL    HW134001   4.184   0.519  10.555 -1.2443  0.3863  1.5421
 7455SOL    HW234002   4.201   0.433  10.674  0.1040  1.5478 -0.3179
 7456SOL     OW34003   4.610   4.465   8.188 -0.0487  0.0230 -0.4082
 7456SOL    HW134004   4.578   4.500   8.104  0.2879 -1.6450 -1.2352
 7456SOL    HW234005   4.689   4.519   8.198  0.5273 -1.2537  1.7519
 7457SOL     OW34006   3.552   3.392   2.112 -0.5659  0.3717 -0.1903
 7457SOL    HW134007   3.471   3.420   2.155 -0.9527  3.4491 -2.8916
 7457SOL    HW234008   3.561   3.307   2.155 -1.3408 -0.3836 -1.5242
 7458SOL     OW34009   0.696   2.594   8.334 -0.1540  0.3163  0.0545
 7458SOL    HW134010   0.699   2.500   8.350  2.9173  0.5933  1.1493
 7458SOL    HW234011   0.623   2.620   8.390 -0.3646 -1.9089  0.8016
 7459SOL     OW34012   3.505   0.387  13.959  0.4662  0.1765 -0.5867
 7459SOL    HW134013   3.579   0.437  13.994 -0.0227 -0.0233  0.7317
 7459SOL    HW234014   3.508   0.309  14.013 -0.6277  1.3492  1.1797
 7460SOL     OW34015   3.598   4.176   7.315 -1.0604  0.0740  0.7513
 7460SOL    HW134016   3.626   4.249   7.370 -0.5766  0.7128 -0.3407
 7460SOL    HW234017   3.502   4.172   7.323 -1.3444  2.2893 -1.6036
 7461SOL     OW34018   2.352   3.861   7.739 -0.1937  0.2099  0.1887
 7461SOL    HW134019   2.274   3.814   7.710 -0.2536  0.3396  0.1373
 7461SOL    HW234020   2.394   3.870   7.653 -0.5786 -1.5912 -0.1821
 7462SOL     OW34021   2.647   2.540   6.784  0.1742 -0.2126  0.5037
 7462SOL    HW134022   2.615   2.489   6.709  1.8716 -0.2269 -0.2172
 7462SOL    HW234023   2.577   2.534   6.848 -1.0743  0.6430 -0.7762
 7463SOL     OW34024   2.304   3.473   1.834  0.3170  0.2611  0.3949
 7463SOL    HW134025   2.228   3.529   1.820 -0.8647 -1.3180  0.5063
 7463SOL    HW234026   2.355   3.509   1.906 -0.8353 -1.5994  2.1417
 7464SOL     OW34027   3.312   2.268   8.915 -0.0515 -0.0615 -0.1414
 7464SOL    HW134028   3.322   2.362   8.934  0.1300 -0.3883  1.3952
 7464SOL    HW234029   3.395   2.238   8.952 -0.2902 -2.7103 -1.7727
 7465SOL     OW34030   3.868   2.070  14.659 -0.2712  0.1098  0.1919
 7465SOL    HW134031   3.823   2.132  14.602 -0.9295 -2.0167 -1.6227
 7465SOL    HW234032   3.793   2.036  14.707  0.5819 -1.3711  0.4713
 7466SOL     OW34033   1.163   4.054   5.586  0.2087  0.4576 -0.1673
 7466SOL    HW134034   1.254   4.031   5.565 -0.2671 -0.1098 -1.5831
 7466SOL    HW234035   1.168   4.147   5.609  0.5623 -0.0157  1.7144
 7467SOL     OW34036   4.077   4.568   6.932  0.1282  0.1173 -0.1921
 7467SOL    HW134037   4.027   4.496   6.971 -1.2150  1.1790  0.0607
 7467SOL    HW234038   4.018   4.642   6.948  3.7439  3.1368 -0.6463
 7468SOL     OW34039   1.096   0.792   4.899  0.1881 -0.4308  0.0056
 7468SOL    HW134040   1.095   0.805   4.994 -1.1922  0.0434 -0.0616
 7468SOL    HW234041   1.161   0.724   4.888  0.4431 -0.2591  0.4559
 7469SOL     OW34042   1.093   3.259  10.577 -0.2106 -0.2457  0.4365
 7469SOL    HW134043   1.122   3.257  10.485 -2.3939  0.2609 -0.2622
 7469SOL    HW234044   1.156   3.197  10.613  0.7504  0.7626  0.5095
 7470SOL     OW34045   4.243   0.944   7.277 -0.1415 -0.3246 -0.0272
 7470SOL    HW134046   4.218   0.935   7.185  1.5596 -2.8587 -0.2227
 7470SOL    HW234047   4.336   0.927   7.284 -0.2679 -0.5713  1.0613
 7471SOL     OW34048   1.637   2.064   7.440 -0.8898 -0.4775 -0.2317
 7471SOL    HW134049   1.571   2.103   7.498 -0.3524 -2.6970  1.8882
 7471SOL    HW234050   1.656   2.145   7.392 -0.7350 -0.7096 -0.5572
 7472SOL     OW34051   1.701   2.528  13.587 -0.5235 -0.3615 -0.3248
 7472SOL    HW134052   1.716   2.469  13.514  0.9859  0.1737 -0.4603
 7472SOL    HW234053   1.681   2.465  13.655  1.2475 -1.5450 -0.9199
 7473SOL     OW34054   4.505   0.171   1.377  0.3338 -0.7877 -1.0557
 7473SOL    HW134055   4.509   0.237   1.309 -0.4182  1.4824  1.1124
 7473SOL    HW234056   4.434   0.119   1.340 -0.5915  0.4262 -0.9528
 7474SOL     OW34057   0.561   2.409   9.370 -0.5636 -0.1597 -0.2501
 7474SOL    HW134058   0.474   2.370   9.373 -1.0242  0.8233 -1.1220
 7474SOL    HW234059   0.594   2.388   9.458 -2.4302 -2.1689 -0.0126
 7475SOL     OW34060   4.199   2.538   9.520  0.4332  0.0982 -0.7163
 7475SOL    HW134061   4.141   2.601   9.478  0.3185 -0.4143 -1.3354
 7475SOL    HW234062   4.277   2.535   9.465  0.9519 -1.6308  0.1272
 7476SOL     OW34063   1.775   0.467   3.283 -0.7012  0.2306 -0.0166
 7476SOL    HW134064   1.745   0.537   3.225 -4.4480 -0.1445  1.4753
 7476SOL    HW234065   1.856   0.497   3.325 -0.6320  0.8850 -0.6168
 7477SOL     OW34066   4.510   0.244  14.429  0.2068 -0.1858 -0.2113
 7477SOL    HW134067   4.479   0.154  14.416 -2.4487  1.0889 -2.6664
 7477SOL    HW234068   4.469   0.290  14.356  0.9422  0.7949  0.0010
 7478SOL     OW34069   2.078   1.591   3.141  0.1274  0.7385 -0.1849
 7478SOL    HW134070   2.132   1.644   3.200  0.3884  1.6793 -1.2569
 7478SOL    HW234071   2.053   1.516   3.193  0.5341  0.6273 -0.1454
 7479SOL     OW34072   3.815   2.792   2.414  0.1152  0.2779  0.5628
 7479SOL    HW134073   3.834   2.757   2.500  0.7324  0.9290  0.6895
 7479SOL    HW234074   3.811   2.711   2.362  0.9067  2.1623 -2.4606
 7480SOL     OW34075   0.942   2.742   9.537 -0.0243  0.1718  0.6103
 7480SOL    HW134076   0.896   2.819   9.568 -2.0233 -0.9946  0.5294
 7480SOL    HW234077   0.994   2.776   9.464 -3.1199  3.3816 -0.0944
 7481SOL     OW34078   4.417   0.324   6.514  0.5407  0.0616 -0.0980
 7481SOL    HW134079   4.347   0.301   6.575  0.7834  0.5509  0.3644
 7481SOL    HW234080   4.402   0.272   6.435 -0.5892  0.4802 -0.1623
 7482SOL     OW34081   4.493   0.804   7.268  0.1360  0.2854  0.3550
 7482SOL    HW134082   4.468   0.750   7.344  0.5547 -2.5279 -1.4908
 7482SOL    HW234083   4.548   0.868   7.313 -0.2165 -0.2316  1.5203
 7483SOL     OW34084   2.850   3.076   9.228  0.1374  0.4072  0.0376
 7483SOL    HW134085   2.935   3.118   9.215 -0.2878  1.2337 -0.1024
 7483SOL    HW234086   2.838   3.022   9.150 -0.9831  1.8883 -0.8212
 7484SOL     OW34087   3.936   2.361  10.901  0.0333  0.4616  0.3299
 7484SOL    HW134088   4.025   2.385  10.878  0.1079  0.5478  0.7002
 7484SOL    HW234089   3.930   2.276  10.858  3.2136  0.0167  0.8209
 7485SOL     OW34090   1.655   4.547   8.249 -0.0258  0.5546  0.4028
 7485SOL    HW134091   1.708   4.598   8.310 -0.5936  2.5109 -0.7575
 7485SOL    HW234092   1.573   4.596   8.256  0.6313  1.7142 -0.1394
 7486SOL     OW34093   1.768   0.881  14.798 -0.6337  0.7302  0.4665
 7486SOL    HW134094   1.773   0.869  14.704 -1.1234  0.2708  0.4997
 7486SOL    HW234095   1.841   0.829  14.833  0.0007  0.2962 -1.5099
 7487SOL     OW34096   0.274   3.156  15.362 -0.0781  0.1947 -0.2099
 7487SOL    HW134097   0.311   3.161  15.274 -1.7813 -1.2793 -1.0072
 7487SOL    HW234098   0.199   3.105  15.330  2.1872 -1.8867 -2.1410
 7488SOL     OW34099   4.642   3.692   8.703  0.1912  0.1706  0.2951
 7488SOL    HW134100   4.675   3.707   8.614 -0.9471 -0.2531 -0.1932
 7488SOL    HW234101   4.686   3.763   8.750  0.2488 -0.3556  1.0268
 7489SOL     OW34102   0.702   2.865   8.759  0.5751  0.0938  0.3160
 7489SOL    HW134103   0.700   2.944   8.706  1.0373 -0.1005  0.0102
 7489SOL    HW234104   0.726   2.895   8.847  0.7418 -0.0877  0.3315
 7490SOL     OW34105   3.924   0.206   0.850 -0.1288  0.5812 -0.9475
 7490SOL    HW134106   3.839   0.162   0.840 -0.0208 -0.2277  1.7219
 7490SOL    HW234107   3.984   0.155   0.796 -2.8427 -2.8995 -0.7030
 7491SOL     OW34108   0.436   0.506   9.142 -0.5491  0.4007  0.2609
 7491SOL    HW134109   0.362   0.532   9.089  0.2300  0.6577 -0.6963
 7491SOL    HW234110   0.404   0.429   9.189 -2.1128  0.8018 -0.1715
 7492SOL     OW34111   2.203   0.356   8.907  0.2545  0.2706 -0.4852
 7492SOL    HW134112   2.108   0.356   8.895 -0.1170  0.2600  2.4166
 7492SOL    HW234113   2.210   0.322   8.996 -3.1497  0.0460 -0.3128
 7493SOL     OW34114   4.234   3.036   2.639 -0.2123 -0.5330  0.4529
 7493SOL    HW134115   4.237   3.044   2.734  1.4115 -1.7878  0.5110
 7493SOL    HW234116   4.307   2.974   2.627  1.4044  1.2575  1.0230
 7494SOL     OW34117   3.729   4.666   4.380  0.4213 -0.3292 -0.2839
 7494SOL    HW134118   3.819   4.664   4.412  0.3847 -1.2505 -0.2435
 7494SOL    HW234119   3.743   4.722   4.304  1.8084 -0.9796 -0.5151
 7495SOL     OW34120   2.566   1.624  15.554  0.4451  0.0319 -0.5558
 7495SOL    HW134121   2.598   1.624  15.644 -0.0604  0.5672 -0.3846
 7495SOL    HW234122   2.584   1.535  15.521 -2.0551 -0.3688 -0.8096
 7496SOL     OW34123   2.766   0.789  17.630  0.4758  0.1317  0.1881
 7496SOL    HW134124   2.722   0.860  17.676 -1.7664 -0.7215 -0.6331
 7496SOL    HW234125   2.713   0.710  17.642 -1.3507  1.4502  0.6579
 7497SOL     OW34126   3.797   0.284   1.082  0.1067 -0.4672  0.2286
 7497SOL    HW134127   3.860   0.303   1.013 -0.8867 -2.2326 -1.1738
 7497SOL    HW234128   3.749   0.211   1.043 -0.1583  0.4713 -1.1877
 7498SOL     OW34129   4.669   3.646   3.335 -0.5021 -0.4466 -0.6806
 7498SOL    HW134130   4.649   3.703   3.409 -1.7304 -1.1944 -0.4276
 7498SOL    HW234131   4.673   3.563   3.381 -0.9807 -0.1307 -0.0725
 7499SOL     OW34132   3.543   4.484   4.512  0.3225 -0.0428  0.1658
 7499SOL    HW134133   3.614   4.536   4.475  0.1103  1.6649  2.1154
 7499SOL    HW234134   3.471   4.547   4.508  0.3015  0.0204  1.3722
 7500SOL     OW34135   3.587   1.100   3.178 -0.0930  0.6821  0.9136
 7500SOL    HW134136   3.653   1.066   3.238 -0.3174  0.1355  0.8488
 7500SOL    HW234137   3.586   1.189   3.214  0.8287  0.5767  1.1937
 7501SOL     OW34138   1.052   0.610   3.918 -0.0753 -0.1584  0.2796
 7501SOL    HW134139   0.992   0.633   3.990  1.8673  0.6323  1.6696
 7501SOL    HW234140   1.118   0.679   3.925 -1.0682  0.5889  2.2761
 7502SOL     OW34141   2.830   4.119   4.823  0.0066  0.1190  0.4163
 7502SOL    HW134142   2.797   4.074   4.745  2.0367  0.1545 -0.4685
 7502SOL    HW234143   2.782   4.078   4.895 -0.5680 -0.5991 -0.3904
 7503SOL     OW34144   0.437   2.775  17.441  0.2791 -0.4877  0.4648
 7503SOL    HW134145   0.433   2.716  17.366  2.0365 -0.0115 -0.0205
 7503SOL    HW234146   0.509   2.836  17.424 -0.8082  1.0901  1.5342
 7504SOL     OW34147   0.638   2.446   6.141  1.2585 -0.1349 -0.2290
 7504SOL    HW134148   0.595   2.429   6.225  0.6697 -0.9846 -0.7076
 7504SOL    HW234149   0.578   2.495   6.085  0.4660 -1.6345 -0.6637
 7505SOL     OW34150   0.782   2.633   4.605 -0.4625 -0.2616  0.7080
 7505SOL    HW134151   0.799   2.727   4.598  2.7594 -1.0898 -2.6804
 7505SOL    HW234152   0.870   2.603   4.628 -0.3129  0.1194  0.6296
 7506SOL     OW34153   2.100   2.656  12.509  0.0929  0.2654 -0.3149
 7506SOL    HW134154   2.188   2.679  12.479  0.7335 -3.1884 -1.0304
 7506SOL    HW234155   2.100   2.561  12.500  0.2722  0.3777 -1.6049
 7507SOL     OW34156   1.878   3.404   6.526  0.4002  0.5677 -0.3345
 7507SOL    HW134157   1.959   3.358   6.507 -0.2780 -1.5890  2.0379
 7507SOL    HW234158   1.900   3.488   6.485 -1.3213  0.4019 -1.6091
 7508SOL     OW34159   0.806   0.049  10.154  0.4276 -0.5395 -0.0993
 7508SOL    HW134160   0.842   4.726  10.090  2.4607 -1.2523  1.7398
 7508SOL    HW234161   0.737   4.735  10.194 -1.2043  1.1475 -0.6726
 7509SOL     OW34162   4.493   3.162   3.259  0.0299 -0.4520 -0.0126
 7509SOL    HW134163   4.453   3.104   3.194 -0.7110 -1.6991  1.5591
 7509SOL    HW234164   4.420   3.188   3.316 -1.1308 -2.9109 -0.3773
 7510SOL     OW34165   0.090   2.171   6.497  0.2073  0.0483 -0.3572
 7510SOL    HW134166   0.012   2.121   6.473 -0.4778  1.5222 -1.1217
 7510SOL    HW234167   0.150   2.144   6.427 -0.9063 -1.7428 -0.6173
 7511SOL     OW34168   4.322   2.785   5.931  0.1456 -0.3470  0.2501
 7511SOL    HW134169   4.322   2.773   5.836 -0.2073 -0.3192  0.2465
 7511SOL    HW234170   4.412   2.761   5.955 -0.6607 -2.6309  1.0346
 7512SOL     OW34171   3.127   3.900  16.701  0.3563 -0.0626  0.4753
 7512SOL    HW134172   3.171   3.860  16.776  2.5736  2.2812  0.4229
 7512SOL    HW234173   3.077   3.827  16.665  0.2048 -0.1434  0.8556
 7513SOL     OW34174   2.216   1.467   5.774 -0.4196  0.6840 -0.2816
 7513SOL    HW134175   2.247   1.457   5.684  1.4825 -0.4326  0.5031
 7513SOL    HW234176   2.154   1.395   5.788 -0.0404  0.3577 -0.2804
 7514SOL     OW34177   2.749   3.399  11.332  0.2608 -0.3376 -0.2997
 7514SOL    HW134178   2.769   3.463  11.264  0.8806  1.4143  1.5525
 7514SOL    HW234179   2.790   3.437  11.409 -2.5505 -1.4904  1.7443
 7515SOL     OW34180   1.322   3.249  12.002  0.4971 -0.0539 -0.0300
 7515SOL    HW134181   1.316   3.156  12.021  0.4774 -0.0888 -0.2093
 7515SOL    HW234182   1.411   3.274  12.027 -0.3345  1.2818  1.6305
 7516SOL     OW34183   1.363   3.303   6.469 -0.0162  0.1436 -0.3751
 7516SOL    HW134184   1.361   3.397   6.456 -0.8598  0.2842  0.7488
 7516SOL    HW234185   1.404   3.275   6.387 -1.8820 -0.9207 -0.9467
 7517SOL     OW34186   4.257   4.301   0.556  0.0618 -0.2303  0.2648
 7517SOL    HW134187   4.327   4.363   0.541 -0.1074 -0.3455 -0.9852
 7517SOL    HW234188   4.213   4.346   0.628  0.1157  0.6543 -0.2616
 7518SOL     OW34189   3.987   0.720  13.749 -0.5702 -0.2006  0.1223
 7518SOL    HW134190   4.080   0.702  13.739 -1.0039 -2.2035 -0.3052
 7518SOL    HW234191   3.988   0.815  13.739 -1.6603 -0.2861 -0.7670
 7519SOL     OW34192   2.340   1.504   6.970  0.3827 -0.2812 -0.1449
 7519SOL    HW134193   2.431   1.488   6.996 -0.2751 -0.0536  2.3207
 7519SOL    HW234194   2.292   1.441   7.024  0.4061 -1.9027 -2.0399
 7520SOL     OW34195   2.775   2.814  13.592 -0.1798 -0.3642 -0.3320
 7520SOL    HW134196   2.720   2.858  13.528  1.5156 -1.6740 -2.6586
 7520SOL    HW234197   2.820   2.741  13.549 -0.8947 -0.0382 -1.5945
 7521SOL     OW34198   3.587   4.354   4.098  0.4396 -0.3471 -0.0518
 7521SOL    HW134199   3.664   4.393   4.138 -1.3247  1.7953  1.2540
 7521SOL    HW234200   3.553   4.420   4.039  0.8699  0.3741  0.5100
 7522SOL     OW34201   0.139   2.876  12.910 -0.0836 -0.4069  0.2390
 7522SOL    HW134202   0.089   2.924  12.976 -0.5144  0.4235 -0.6940
 7522SOL    HW234203   0.166   2.791  12.946  0.2651  0.8412  2.9144
 7523SOL     OW34204   1.031   1.348   8.505  0.6928  0.4544 -0.3377
 7523SOL    HW134205   0.994   1.392   8.581 -0.5354 -0.2883 -0.4971
 7523SOL    HW234206   0.958   1.297   8.470  1.2686 -0.9412  0.4600
 7524SOL     OW34207   1.133   0.935   6.307  0.0788  0.1161  0.1676
 7524SOL    HW134208   1.100   0.952   6.395 -0.7463 -0.7878  0.0359
 7524SOL    HW234209   1.224   0.961   6.318  0.4350 -0.5814 -1.2576
 7525SOL     OW34210   3.262   4.432   9.750 -0.4578  0.2563  0.6387
 7525SOL    HW134211   3.269   4.506   9.811 -0.3851  0.8343 -0.0723
 7525SOL    HW234212   3.262   4.473   9.663  2.1083  0.2171  0.6317
 7526SOL     OW34213   0.647   3.928   2.273  0.0967  0.1423  0.2907
 7526SOL    HW134214   0.653   3.954   2.365 -2.4806  2.6415 -0.2468
 7526SOL    HW234215   0.656   3.833   2.282  1.8528  0.3889  0.9739
 7527SOL     OW34216   3.787   1.244   8.935  0.2132  0.3910  0.8207
 7527SOL    HW134217   3.784   1.171   8.874  2.7226 -0.0886  1.2696
 7527SOL    HW234218   3.832   1.216   9.014  1.5137 -1.0099 -0.4191
 7528SOL     OW34219   4.532   0.982   9.656 -0.1417  0.5787  0.2353
 7528SOL    HW134220   4.516   1.076   9.653  0.5024  0.6842 -0.0415
 7528SOL    HW234221   4.604   0.976   9.593 -0.1171 -1.0565  0.4154
 7529SOL     OW34222   0.880   4.436   6.719  0.2938 -0.5360 -0.1429
 7529SOL    HW134223   0.949   4.373   6.696 -0.7467 -1.5575 -0.4477
 7529SOL    HW234224   0.814   4.413   6.653  0.1720 -0.1059 -0.1689
 7530SOL     OW34225   2.407   0.946   7.571  0.7275  0.2479  0.4016
 7530SOL    HW134226   2.424   0.944   7.477 -0.7898 -0.8460  0.1594
 7530SOL    HW234227   2.480   1.002   7.600  1.1115 -0.3568  0.6099
 7531SOL     OW34228   0.917   1.361   8.116  0.7514  0.5622 -0.0539
 7531SOL    HW134229   0.971   1.397   8.046 -1.2469 -0.3465 -2.0534
 7531SOL    HW234230   0.837   1.402   8.084  0.9279  0.2820 -0.8493
 7532SOL     OW34231   3.490   3.611   2.502  0.2743 -0.0239  0.2626
 7532SOL    HW134232   3.461   3.670   2.572 -0.9222 -1.6985  1.1996
 7532SOL    HW234233   3.412   3.556   2.490  0.9998 -1.0467  0.2321
 7533SOL     OW34234   2.515   1.085  16.560 -0.1206  0.0187 -0.2375
 7533SOL    HW134235   2.594   1.135  16.538  0.6782 -0.2001  2.0774
 7533SOL    HW234236   2.512   1.104  16.654 -0.0542 -0.5525 -0.1173
 7534SOL     OW34237   3.554   1.558   9.222 -0.2022  0.0396 -0.4437
 7534SOL    HW134238   3.469   1.599   9.209 -0.7569 -0.6323  1.0385
 7534SOL    HW234239   3.531   1.514   9.304 -0.1317  1.1736  0.1846
 7535SOL     OW34240   4.453   1.133   4.997 -0.4277 -0.2859  0.1073
 7535SOL    HW134241   4.534   1.121   4.947 -0.0919  1.4191  0.2612
 7535SOL    HW234242   4.388   1.088   4.942 -1.2660  1.6003 -0.4408
 7536SOL     OW34243   3.737   0.197   5.452  0.2273 -0.1088  0.2501
 7536SOL    HW134244   3.677   0.128   5.480 -1.4473  1.6986  1.1549
 7536SOL    HW234245   3.778   0.153   5.377  0.2667  2.0646 -1.0003
 7537SOL     OW34246   2.954   2.228   2.177 -0.6625 -0.3369 -0.0687
 7537SOL    HW134247   2.887   2.163   2.201 -1.3680  1.1132  1.9165
 7537SOL    HW234248   3.009   2.171   2.124 -1.9403  1.2014 -3.0272
 7538SOL     OW34249   3.990   0.743   1.941 -0.2624 -0.1203 -0.6986
 7538SOL    HW134250   3.955   0.748   2.030 -0.9991 -1.3841 -0.9240
 7538SOL    HW234251   4.004   0.650   1.923  0.2986 -0.3900  1.1437
 7539SOL     OW34252   4.593   1.333   8.396 -0.0709 -0.1544  0.1126
 7539SOL    HW134253   4.630   1.342   8.308  0.8755  0.8739  0.6299
 7539SOL    HW234254   4.638   1.252   8.419 -0.7111 -1.0532 -1.7434
 7540SOL     OW34255   0.915   3.796   4.803 -0.1977  0.3616 -0.2812
 7540SOL    HW134256   0.849   3.825   4.740  0.2479  0.1694 -0.8341
 7540SOL    HW234257   0.856   3.781   4.877  0.0759  2.2731  0.3392
 7541SOL     OW34258   0.741   3.869   8.090 -0.1844 -0.2396 -0.1765
 7541SOL    HW134259   0.678   3.938   8.068 -0.4275 -0.1473  0.8043
 7541SOL    HW234260   0.720   3.802   8.025 -2.0309  1.0360 -0.8907
 7542SOL     OW34261   3.770   2.955   3.200  0.1447  0.6358 -0.3285
 7542SOL    HW134262   3.779   3.032   3.256  0.3045  0.6580 -0.3848
 7542SOL    HW234263   3.753   3.003   3.119 -1.1045 -0.7175 -0.8646
 7543SOL     OW34264   1.361   2.305   9.281 -0.2514 -0.1620  0.2521
 7543SOL    HW134265   1.280   2.274   9.320  0.4029 -0.9966  0.9467
 7543SOL    HW234266   1.418   2.264   9.346 -0.9520  2.8718  2.7908
 7544SOL     OW34267   1.128   1.505   2.854 -0.2470 -0.2796 -0.0356
 7544SOL    HW134268   1.041   1.498   2.892 -0.0535  1.9612  0.8279
 7544SOL    HW234269   1.117   1.592   2.816 -0.8270 -0.0722  0.6160
 7545SOL     OW34270   3.292   3.736   9.270 -0.5364 -0.5606 -0.2512
 7545SOL    HW134271   3.337   3.813   9.306 -0.4988 -0.6756 -0.0506
 7545SOL    HW234272   3.278   3.689   9.352  0.2709 -1.9021 -0.8871
 7546SOL     OW34273   2.337   2.456   8.074  0.2015 -0.3055 -0.0049
 7546SOL    HW134274   2.432   2.442   8.076  0.0794 -1.6412 -3.2804
 7546SOL    HW234275   2.310   2.414   7.993  1.2759 -0.4972 -0.2626
 7547SOL     OW34276   1.672   3.459   1.456 -0.3121 -0.0963 -0.1602
 7547SOL    HW134277   1.747   3.489   1.508 -1.5242  2.2077  0.2263
 7547SOL    HW234278   1.600   3.514   1.485 -0.5715 -1.8387  2.5118
 7548SOL     OW34279   3.847   3.442   0.742  0.4000 -0.2782 -0.1568
 7548SOL    HW134280   3.767   3.397   0.770 -0.8664  1.9253 -0.2763
 7548SOL    HW234281   3.817   3.490   0.664  0.2916  1.0508  0.7080
 7549SOL     OW34282   1.412   1.350   7.245  0.5073 -0.0437  0.1789
 7549SOL    HW134283   1.405   1.255   7.255 -1.1265  0.2475  1.7991
 7549SOL    HW234284   1.318   1.365   7.257  0.1807 -0.6815 -1.6241
 7550SOL     OW34285   1.695   1.109   8.274  0.4079 -0.0088  0.0650
 7550SOL    HW134286   1.611   1.152   8.255 -0.4575 -2.3634 -1.4238
 7550SOL    HW234287   1.699   1.037   8.212 -0.5169 -1.1355  1.3053
 7551SOL     OW34288   4.548   3.322   5.789  0.2617  0.0653 -0.3294
 7551SOL    HW134289   4.532   3.243   5.738 -2.8990  1.7310 -1.8860
 7551SOL    HW234290   4.607   3.364   5.725 -0.5947 -2.0229 -2.5008
 7552SOL     OW34291   2.223   4.007   5.447  1.0396  0.3386 -0.0306
 7552SOL    HW134292   2.231   4.016   5.542  0.7224 -1.0613  0.1241
 7552SOL    HW234293   2.315   4.002   5.420  1.2561  1.1754  0.5651
 7553SOL     OW34294   2.413   0.924   1.818  0.3980 -0.0148  0.1440
 7553SOL    HW134295   2.384   0.873   1.742 -2.2956  0.0719  1.0793
 7553SOL    HW234296   2.400   0.872   1.898 -0.9792  1.9905  1.2181
 7554SOL     OW34297   4.582   4.573   1.912 -0.6940 -0.0160  1.6142
 7554SOL    HW134298   4.581   4.522   1.993 -0.4243 -1.1382  0.9142
 7554SOL    HW234299   4.520   4.520   1.861  0.0315  0.1388  0.5659
 7555SOL     OW34300   1.567   2.507   4.361  0.3365 -0.1134  0.2693
 7555SOL    HW134301   1.517   2.445   4.413  1.6586 -2.6813 -1.5620
 7555SOL    HW234302   1.514   2.513   4.282 -1.1212 -0.1434  1.2428
 7556SOL     OW34303   1.217   4.623  16.212 -0.3939 -0.3456  0.7278
 7556SOL    HW134304   1.135   4.575  16.221  0.5984 -2.6450 -2.0800
 7556SOL    HW234305   1.224   4.662  16.125  0.7999  1.1287  1.4926
 7557SOL     OW34306   1.153   3.351  13.557  0.2828  0.4255  0.2160
 7557SOL    HW134307   1.171   3.258  13.539  0.0906  0.1394  1.5082
 7557SOL    HW234308   1.087   3.344  13.625  0.4795  2.1206  0.5623
 7558SOL     OW34309   2.685   0.835   6.861 -0.0432 -0.4955  0.4090
 7558SOL    HW134310   2.688   0.744   6.888 -0.0929 -0.5175  0.3396
 7558SOL    HW234311   2.721   0.830   6.772 -3.1130 -1.1251 -0.7981
 7559SOL     OW34312   1.060   3.301   5.738 -0.0841  0.5314 -0.0252
 7559SOL    HW134313   0.983   3.300   5.681 -1.6680 -3.2315  2.1687
 7559SOL    HW234314   1.010   3.312   5.818  0.2503 -1.0776  0.4122
 7560SOL     OW34315   1.722   0.193   6.527  0.2944  0.2111 -0.6000
 7560SOL    HW134316   1.763   0.123   6.475  1.1626  1.4368 -1.5594
 7560SOL    HW234317   1.728   0.272   6.473 -3.8541 -0.9908 -2.8208
 7561SOL     OW34318   3.080   0.533   4.273 -0.0038 -0.5027  0.0831
 7561SOL    HW134319   3.068   0.628   4.277  0.3072 -0.4229 -0.7285
 7561SOL    HW234320   3.151   0.525   4.337 -1.6931 -3.8928  1.4685
 7562SOL     OW34321   2.580   0.648   8.972 -0.2464  0.0931  0.0037
 7562SOL    HW134322   2.571   0.665   9.066  2.8792  2.5584 -0.1523
 7562SOL    HW234323   2.659   0.599   8.952 -1.2369 -1.4388 -0.1523
 7563SOL     OW34324   3.328   2.766   6.469 -0.0087 -0.2613 -0.5287
 7563SOL    HW134325   3.301   2.817   6.545 -2.7395  0.6442 -2.1313
 7563SOL    HW234326   3.272   2.690   6.484  1.2566 -1.4749 -1.9556
 7564SOL     OW34327   0.106   4.596   4.438  0.7499 -0.3620  0.4423
 7564SOL    HW134328   0.029   4.549   4.470 -0.2055  2.9370  2.9809
 7564SOL    HW234329   0.077   4.670   4.384 -0.5407 -0.7913  0.5552
 7565SOL     OW34330   1.849   0.943  15.945  1.0985 -0.0110 -0.0743
 7565SOL    HW134331   1.853   0.927  16.039  0.4533  2.3245  0.3557
 7565SOL    HW234332   1.760   0.980  15.947  1.8154  1.7183 -0.0168
 7566SOL     OW34333   2.112   3.469  14.821 -0.7687 -0.1007 -0.0881
 7566SOL    HW134334   2.024   3.504  14.835 -0.4814  0.9743 -0.9647
 7566SOL    HW234335   2.133   3.448  14.912  0.3167  0.2451 -0.2602
 7567SOL     OW34336   4.408   3.399   2.892 -0.2937 -0.7170 -0.0817
 7567SOL    HW134337   4.447   3.435   2.972 -1.2448 -0.0409  0.0923
 7567SOL    HW234338   4.392   3.308   2.917 -0.9265 -0.7097 -0.4695
 7568SOL     OW34339   0.250   2.608   4.534  0.1131  0.0603 -0.6637
 7568SOL    HW134340   0.185   2.602   4.464  0.5140  1.2543 -1.1490
 7568SOL    HW234341   0.329   2.576   4.490  1.4792  0.3353  1.5735
 7569SOL     OW34342   3.386   2.362   9.508  0.2808 -0.2025 -0.7018
 7569SOL    HW134343   3.454   2.309   9.467  0.2352  0.5004 -1.7138
 7569SOL    HW234344   3.427   2.385   9.591  0.1148 -2.2460 -0.0583
 7570SOL     OW34345   0.600   1.045   5.515 -0.5342 -0.0740 -0.0821
 7570SOL    HW134346   0.570   0.960   5.548 -1.4041  0.2634  0.0088
 7570SOL    HW234347   0.535   1.065   5.448 -1.2611  1.0207  0.9481
 7571SOL     OW34348   0.295   1.474  12.159  0.0046  0.1478  0.2654
 7571SOL    HW134349   0.222   1.439  12.210 -0.9249  1.7552  0.0469
 7571SOL    HW234350   0.304   1.391  12.112 -2.5756  0.0473 -0.0836
 7572SOL     OW34351   3.567   1.750   3.936  0.4223 -0.5088 -0.1687
 7572SOL    HW134352   3.570   1.804   3.857 -0.3171 -0.0740  0.1083
 7572SOL    HW234353   3.580   1.661   3.903  0.8012 -0.0091 -1.3879
 7573SOL     OW34354   1.585   3.804   9.025 -0.0140 -0.0260 -0.0615
 7573SOL    HW134355   1.532   3.729   8.999  0.1036 -1.1815  2.9260
 7573SOL    HW234356   1.517   3.858   9.066 -1.0056 -1.2185 -0.1363
 7574SOL     OW34357   0.441   0.837   8.815 -0.2092  0.0831 -0.2125
 7574SOL    HW134358   0.520   0.887   8.794 -0.4159 -0.7408 -2.9465
 7574SOL    HW234359   0.436   0.774   8.743 -3.8606  0.8268 -0.5863
 7575SOL     OW34360   2.731   1.716  10.241 -0.3810 -0.0884 -0.4457
 7575SOL    HW134361   2.732   1.793  10.184  0.0464  2.0594  2.4944
 7575SOL    HW234362   2.643   1.679  10.232 -0.0342 -0.8567 -0.6417
 7576SOL     OW34363   0.705   2.593   4.169 -0.3323 -0.4998 -0.1474
 7576SOL    HW134364   0.680   2.534   4.097  2.5155  0.4877 -1.9284
 7576SOL    HW234365   0.774   2.637   4.119  1.1898  0.2380  2.6255
 7577SOL     OW34366   0.361   2.034   8.028  0.0493 -0.1423 -0.2566
 7577SOL    HW134367   0.411   2.099   8.078  1.5450 -0.6549 -1.0936
 7577SOL    HW234368   0.271   2.066   8.032  1.2460  3.0886  0.5709
 7578SOL     OW34369   2.054   2.394  15.889 -0.3059  0.1059  0.0873
 7578SOL    HW134370   1.960   2.411  15.888 -0.1744  0.7761 -2.7864
 7578SOL    HW234371   2.066   2.343  15.809  1.0522 -1.6112  1.3848
 7579SOL     OW34372   3.738   1.361   1.242  0.3879 -0.0701 -0.2760
 7579SOL    HW134373   3.756   1.438   1.295  1.5268 -0.2765 -0.3756
 7579SOL    HW234374   3.648   1.340   1.268 -0.0791  1.5622 -0.5328
 7580SOL     OW34375   2.318   2.026   2.386 -0.5523  0.3272  0.1127
 7580SOL    HW134376   2.379   2.099   2.389  0.4995 -0.5694  0.5237
 7580SOL    HW234377   2.318   2.009   2.480  0.1192 -0.4806 -0.0308
 7581SOL     OW34378   1.201   4.572   7.318  0.2928  0.2965 -0.6548
 7581SOL    HW134379   1.187   4.634   7.247 -0.5497 -0.4049 -1.1090
 7581SOL    HW234380   1.296   4.566   7.320  0.4131  1.6040 -2.5783
 7582SOL     OW34381   3.234   3.020  16.752  0.1153  0.1432  0.7675
 7582SOL    HW134382   3.238   3.004  16.657 -1.9167  1.2113  0.4997
 7582SOL    HW234383   3.323   2.996  16.778  0.6877  3.3633  1.8046
 7583SOL     OW34384   3.759   4.495   9.649  0.3824  0.2891  0.0073
 7583SOL    HW134385   3.746   4.484   9.743  1.0933 -1.3047 -0.0830
 7583SOL    HW234386   3.826   4.429   9.632  1.8858  2.4364 -2.4288
 7584SOL     OW34387   2.499   2.834  16.013 -0.2603 -0.1878 -0.0212
 7584SOL    HW134388   2.476   2.915  15.969 -1.5628  0.1731  1.3342
 7584SOL    HW234389   2.531   2.876  16.092 -3.5215  1.2920  0.4701
 7585SOL     OW34390   2.480   1.588  10.241  0.5360  0.6305  0.7330
 7585SOL    HW134391   2.449   1.498  10.233 -0.6859  0.9530  1.8300
 7585SOL    HW234392   2.414   1.639  10.289  0.1021  0.3137  0.4777
 7586SOL     OW34393   2.455   2.953   8.734 -0.4306 -0.3533  0.2784
 7586SOL    HW134394   2.437   2.859   8.738  0.2248 -0.5311 -0.9481
 7586SOL    HW234395   2.550   2.951   8.746 -0.3602  0.7538 -0.0624
 7587SOL     OW34396   1.234   4.222   6.274  0.7627  0.0992 -0.4882
 7587SOL    HW134397   1.318   4.268   6.270  0.5071  0.4542 -1.7931
 7587SOL    HW234398   1.177   4.297   6.290  3.7634  1.9680  1.6235
 7588SOL     OW34399   3.822   4.660   3.900  0.0659  0.0660  0.1995
 7588SOL    HW134400   3.774   4.616   3.830 -0.3104  2.3780 -0.9811
 7588SOL    HW234401   3.855   4.737   3.852  2.8082 -1.1174  0.1604
 7589SOL     OW34402   0.567   3.085   1.879  0.0951  0.2838 -0.0253
 7589SOL    HW134403   0.634   3.058   1.942 -0.9704 -0.0433  0.9716
 7589SOL    HW234404   0.546   2.998   1.844  1.7165  0.3503 -1.1619
 7590SOL     OW34405   4.458   3.890   3.747 -0.4102  0.2946  0.1596
 7590SOL    HW134406   4.487   3.904   3.837 -2.7083 -1.1537  1.1037
 7590SOL    HW234407   4.377   3.939   3.751 -0.8199 -0.4123  0.5484
 7591SOL     OW34408   1.556   3.954   6.261  0.6316  0.0275  0.6623
 7591SOL    HW134409   1.473   3.947   6.214  1.0779  0.1585 -0.1335
 7591SOL    HW234410   1.577   3.860   6.262 -1.8879 -0.5512  0.5060
 7592SOL     OW34411   1.600   3.464   6.150  0.5714 -0.3630 -0.7271
 7592SOL    HW134412   1.541   3.395   6.183 -2.5125  1.8683 -1.5903
 7592SOL    HW234413   1.681   3.415   6.139  0.8081 -0.0243 -0.4909
 7593SOL     OW34414   2.035   4.725   3.037 -0.1303  0.1261  0.2471
 7593SOL    HW134415   2.025   4.664   3.110 -0.7396  0.5816  0.5494
 7593SOL    HW234416   2.026   4.680   2.953  0.1384  0.3744  0.0849
 7594SOL     OW34417   0.634   0.286   8.422  0.1387 -0.0579 -0.0323
 7594SOL    HW134418   0.689   0.268   8.346 -0.5671  1.8245 -0.9736
 7594SOL    HW234419   0.569   0.216   8.412  0.5021 -0.1791 -1.5158
 7595SOL     OW34420   1.862   4.454  12.931  0.1088 -0.5441 -0.1559
 7595SOL    HW134421   1.915   4.501  12.996 -1.4534  0.0200  0.7233
 7595SOL    HW234422   1.938   4.414  12.888  0.3362  0.4459 -0.6743
 7596SOL     OW34423   3.469   1.210   4.203  0.6498 -0.1518  0.1235
 7596SOL    HW134424   3.528   1.272   4.246 -0.8216  1.3668 -0.0609
 7596SOL    HW234425   3.453   1.261   4.124  0.9886  0.3012  0.3489
 7597SOL     OW34426   2.906   3.008   4.434 -0.9673  0.0244 -0.1855
 7597SOL    HW134427   2.885   3.090   4.389 -2.0178  0.4615  1.1159
 7597SOL    HW234428   2.864   2.935   4.387 -3.2520  0.2690  1.4966
 7598SOL     OW34429   4.224   2.403  10.886  0.2451 -0.3489  0.2737
 7598SOL    HW134430   4.271   2.432  10.964  1.1058 -0.3905 -0.2335
 7598SOL    HW234431   4.270   2.459  10.824  0.5389  0.3537  1.1240
 7599SOL     OW34432   2.692   3.419   7.715  0.1612 -0.2743  0.2171
 7599SOL    HW134433   2.768   3.473   7.694 -0.1104 -0.3569 -0.9883
 7599SOL    HW234434   2.730   3.375   7.790  0.6327 -1.9520 -1.0090
 7600SOL     OW34435   4.019   1.149   9.383 -0.3951 -0.9582  0.5890
 7600SOL    HW134436   3.955   1.077   9.386 -2.2006  0.5985 -0.8008
 7600SOL    HW234437   4.078   1.137   9.458 -0.8221 -0.5211  0.9986
 7601SOL     OW34438   0.837   3.871  16.642  0.6201 -0.0749 -0.4059
 7601SOL    HW134439   0.746   3.864  16.613  1.0017  1.0621 -1.8928
 7601SOL    HW234440   0.882   3.802  16.593  2.8332 -0.7285  2.5269
 7602SOL     OW34441   2.550   3.164   7.932 -0.2936 -0.2020  0.3371
 7602SOL    HW134442   2.490   3.208   7.992 -0.9335  0.2185 -0.5991
 7602SOL    HW234443   2.636   3.203   7.942 -1.1742  1.6541  0.6435
 7603SOL     OW34444   3.953   0.039   7.425  0.1612 -0.1307 -0.2645
 7603SOL    HW134445   3.873   0.015   7.471 -0.2258  0.5664 -0.5715
 7603SOL    HW234446   3.939   4.719   7.351 -1.6820 -0.2921  0.2199
 7604SOL     OW34447   4.425   2.942   3.569  0.0443 -0.2957  0.0615
 7604SOL    HW134448   4.477   2.914   3.494  1.7829 -1.3739  1.6932
 7604SOL    HW234449   4.351   2.881   3.568 -0.7913  0.6748  2.0112
 7605SOL     OW34450   0.471   0.118  13.385  0.0356  0.2167  0.1333
 7605SOL    HW134451   0.386   0.100  13.344 -0.3360  0.4129  0.8200
 7605SOL    HW234452   0.442   0.119  13.476 -2.1938  4.4707 -0.6433
 7606SOL     OW34453   3.382   2.069   7.649  0.5167  0.2703 -0.2061
 7606SOL    HW134454   3.398   2.024   7.566 -4.4879 -0.3008 -0.8480
 7606SOL    HW234455   3.419   2.156   7.632 -0.8386  0.4801 -2.0096
 7607SOL     OW34456   2.751   3.803  16.567  0.3869 -0.3187 -0.2676
 7607SOL    HW134457   2.715   3.848  16.643  3.1846 -0.0875  0.9092
 7607SOL    HW234458   2.678   3.742  16.554 -0.3691  0.1041  2.0031
 7608SOL     OW34459   3.345   3.078   5.610 -0.5060 -0.0034 -0.7127
 7608SOL    HW134460   3.398   3.157   5.620 -0.9453  0.2601 -0.4842
 7608SOL    HW234461   3.421   3.019   5.613 -0.9969 -0.5959 -0.0055
 7609SOL     OW34462   2.158   4.421   9.135 -0.0129  0.2838  0.2734
 7609SOL    HW134463   2.226   4.361   9.168  1.7410  3.3616  2.2215
 7609SOL    HW234464   2.083   4.362   9.136 -0.0527  0.3065 -1.3783
 7610SOL     OW34465   2.693   1.744   3.091 -0.0855 -0.4534 -0.7956
 7610SOL    HW134466   2.681   1.827   3.045  1.1181 -0.4221 -1.0651
 7610SOL    HW234467   2.769   1.755   3.148  0.6287 -0.9194 -1.6666
 7611SOL     OW34468   0.238   3.333   5.092  0.4282  0.8172  0.2940
 7611SOL    HW134469   0.305   3.273   5.060 -0.3277  0.9749 -1.5473
 7611SOL    HW234470   0.183   3.349   5.016  0.6331  1.2187  0.2296
 7612SOL     OW34471   0.149   0.133  12.016  0.2196 -0.6212 -0.3675
 7612SOL    HW134472   0.090   0.063  11.989 -0.6580  0.0442 -0.1745
 7612SOL    HW234473   0.212   0.125  11.944 -0.0000 -0.4776 -0.5744
 7613SOL     OW34474   1.987   1.212  11.398  0.0313  0.0192 -0.1320
 7613SOL    HW134475   2.052   1.147  11.373  0.2595 -0.3264  1.3652
 7613SOL    HW234476   1.911   1.191  11.344 -0.2357 -1.6489  0.8796
 7614SOL     OW34477   2.660   2.582   5.777  0.1473 -0.0978  0.5337
 7614SOL    HW134478   2.600   2.508   5.767  1.9527 -1.2783 -1.4719
 7614SOL    HW234479   2.685   2.600   5.686  2.5000 -1.0860  1.0160
 7615SOL     OW34480   0.099   1.101  13.166  0.3402  0.7442 -0.2092
 7615SOL    HW134481   0.063   1.050  13.093  0.7538  2.0077 -1.3008
 7615SOL    HW234482   0.031   1.169  13.164 -0.5236 -0.0784  1.3958
 7616SOL     OW34483   4.521   4.370   3.744  0.3237  0.2407 -0.0800
 7616SOL    HW134484   4.437   4.378   3.698  1.0299 -0.8178 -1.5608
 7616SOL    HW234485   4.559   4.315   3.675 -1.2648 -0.3330 -0.5046
 7617SOL     OW34486   1.615   3.460   0.873 -0.2880 -0.2464  0.2286
 7617SOL    HW134487   1.644   3.551   0.883  1.6686 -0.9749  1.3073
 7617SOL    HW234488   1.563   3.471   0.793  1.3442 -0.5484 -0.8725
 7618SOL     OW34489   1.148   4.023  13.159  0.1611  0.2648 -0.4182
 7618SOL    HW134490   1.241   4.041  13.144  0.4765 -1.6009 -0.6690
 7618SOL    HW234491   1.125   3.968  13.084 -0.8454  1.9659 -1.3713
 7619SOL     OW34492   3.883   0.805   1.102 -0.4874  0.0981 -0.0276
 7619SOL    HW134493   3.829   0.881   1.124 -3.3605 -2.3748  1.3293
 7619SOL    HW234494   3.968   0.848   1.089 -0.2175 -0.2712  0.5113
 7620SOL     OW34495   3.565   3.343   5.523  0.1941 -0.1059 -0.2661
 7620SOL    HW134496   3.497   3.329   5.588 -0.9120  0.5839 -1.2621
 7620SOL    HW234497   3.598   3.253   5.520 -0.8805 -0.5027 -0.1464
 7621SOL     OW34498   2.753   3.926  13.805 -0.4157 -0.3718 -0.0673
 7621SOL    HW134499   2.843   3.936  13.837 -1.1720 -1.2268  2.3239
 7621SOL    HW234500   2.708   3.950  13.886  0.0912  1.3299 -0.2933
 7622SOL     OW34501   1.414   2.589   6.103  0.0642 -0.4198 -0.9237
 7622SOL    HW134502   1.368   2.507   6.118 -0.3679  0.1957  1.1392
 7622SOL    HW234503   1.353   2.624   6.037  0.4306  1.8022 -0.0876
 7623SOL     OW34504   3.767   3.127   2.617  0.1103  0.3193 -0.3266
 7623SOL    HW134505   3.835   3.079   2.570  0.0122 -0.3436  0.2089
 7623SOL    HW234506   3.702   3.059   2.635 -0.3317  0.6650 -0.6122
 7624SOL     OW34507   1.403   1.860   5.433 -0.5733  0.0706  0.6633
 7624SOL    HW134508   1.403   1.767   5.458 -1.8224 -0.1770 -0.2335
 7624SOL    HW234509   1.491   1.873   5.399 -0.0097  1.6263  2.7100
 7625SOL     OW34510   1.482   0.276   1.518 -0.5621  0.0059 -0.0485
 7625SOL    HW134511   1.403   0.229   1.545 -1.0679  0.6204 -0.4461
 7625SOL    HW234512   1.472   0.286   1.424  1.2359  0.8270 -0.1454
 7626SOL     OW34513   4.475   0.152   2.554  0.9965 -0.4746  0.6534
 7626SOL    HW134514   4.549   0.195   2.512  0.9256 -2.5673 -1.6229
 7626SOL    HW234515   4.437   0.092   2.490  2.0613  0.1949 -0.5910
 7627SOL     OW34516   4.150   0.349   5.221  0.0056  0.8378 -0.4394
 7627SOL    HW134517   4.064   0.377   5.252  0.5561  0.5261  1.3314
 7627SOL    HW234518   4.205   0.423   5.246 -0.9061  1.4345 -0.1732
 7628SOL     OW34519   3.437   2.937   8.843  0.1553  0.1899 -0.1502
 7628SOL    HW134520   3.453   2.883   8.920 -2.8271  2.0185  1.7715
 7628SOL    HW234521   3.524   2.941   8.802  0.6499  1.6402  1.0238
 7629SOL     OW34522   2.880   3.983   2.030  1.1479  0.7745  0.2167
 7629SOL    HW134523   2.904   3.951   1.943  1.7233  2.2658 -0.1694
 7629SOL    HW234524   2.816   3.921   2.064  1.3887  0.3403 -0.1148
 7630SOL     OW34525   1.684   0.969   5.516  0.2436  0.0146 -0.2255
 7630SOL    HW134526   1.625   0.895   5.531 -1.4517  1.2830 -0.6375
 7630SOL    HW234527   1.750   0.929   5.459  1.2240 -1.6366  2.0689
 7631SOL     OW34528   4.466   2.267   7.112 -0.4968 -0.1807 -0.0676
 7631SOL    HW134529   4.546   2.291   7.065 -0.5819  0.1123 -0.0646
 7631SOL    HW234530   4.507   2.263   7.198 -0.3188  2.8973 -0.0014
 7632SOL     OW34531   3.787   1.445  17.058  0.4746  0.2230 -0.1501
 7632SOL    HW134532   3.822   1.530  17.030  0.6278  0.8056  1.8413
 7632SOL    HW234533   3.743   1.415  16.978  1.6825  2.2525 -1.5613
 7633SOL     OW34534   4.685   0.569  11.826 -0.1849  0.4640 -0.6959
 7633SOL    HW134535   4.736   0.488  11.836 -0.0690  0.7592  1.0683
 7633SOL    HW234536   4.653   0.580  11.916 -1.2127 -0.8273 -0.8967
 7634SOL     OW34537   0.041   1.567   6.656  0.0689 -0.3459  0.1896
 7634SOL    HW134538   4.713   1.589   6.591 -0.3607 -0.8798  0.4516
 7634SOL    HW234539   0.005   1.481   6.677 -1.8333  0.1633 -0.9327
 7635SOL     OW34540   0.307   3.935   3.185 -0.2662  0.2747  0.3690
 7635SOL    HW134541   0.288   4.025   3.212 -1.4964  0.2869 -0.4900
 7635SOL    HW234542   0.218   3.899   3.190  0.1169 -0.5224  1.4240
 7636SOL     OW34543   2.133   3.071   7.117  0.5685 -0.2333  0.5123
 7636SOL    HW134544   2.164   3.037   7.034  0.8675  0.2069  0.4383
 7636SOL    HW234545   2.205   3.059   7.180  0.3992  2.2215  1.1984
 7637SOL     OW34546   2.069   2.405  13.139 -0.0003  0.5829 -0.5641
 7637SOL    HW134547   2.051   2.431  13.230 -2.7960 -0.1508 -0.8898
 7637SOL    HW234548   2.080   2.313  13.162  0.3928  0.9396  0.6701
 7638SOL     OW34549   3.923   2.321   3.534 -0.6794 -0.6150 -0.2368
 7638SOL    HW134550   3.959   2.410   3.540  1.4222 -1.6569  2.6395
 7638SOL    HW234551   3.838   2.351   3.500 -1.2156 -1.5732  0.2604
 7639SOL     OW34552   3.021   2.037   6.170 -0.6113  0.4594 -0.2237
 7639SOL    HW134553   3.058   2.039   6.082 -3.4736 -0.1093 -1.4621
 7639SOL    HW234554   2.990   2.126   6.186 -0.9082  0.2279  0.5022
 7640SOL     OW34555   0.871   1.295   9.967 -0.0982  0.0950  0.6623
 7640SOL    HW134556   0.893   1.262  10.054 -0.0121  2.7937  1.6742
 7640SOL    HW234557   0.839   1.385   9.976  0.4394  0.1847  1.6412
 7641SOL     OW34558   3.147   2.627   1.605  0.0537  0.0103 -0.1264
 7641SOL    HW134559   3.103   2.705   1.638  4.9117  3.2100 -1.2434
 7641SOL    HW234560   3.236   2.653   1.582 -0.3472  1.3434 -0.1488
 7642SOL     OW34561   4.207   1.303   6.708 -0.4122  0.6559 -0.0538
 7642SOL    HW134562   4.253   1.336   6.785  2.7750 -1.6469 -0.9776
 7642SOL    HW234563   4.162   1.226   6.742 -1.2401  0.4625 -1.5488
 7643SOL     OW34564   4.153   1.267   9.742  0.0961 -0.0925 -0.6117
 7643SOL    HW134565   4.219   1.222   9.689 -0.0477 -1.5710  0.4649
 7643SOL    HW234566   4.120   1.202   9.803 -0.0948 -0.9636 -1.6494
 7644SOL     OW34567   3.979   0.891  17.411 -0.4176  0.4501  0.0873
 7644SOL    HW134568   4.040   0.910  17.482  0.5392 -0.7436 -0.4247
 7644SOL    HW234569   4.042   0.906  17.340 -0.4942 -0.2359 -0.1235
 7645SOL     OW34570   2.137   0.068   7.612  0.1269 -0.1459  0.4678
 7645SOL    HW134571   2.083   0.066   7.691 -2.0329 -0.1821 -0.9970
 7645SOL    HW234572   2.073   0.011   7.569 -1.4788  3.1546 -1.5903
 7646SOL     OW34573   2.841   2.866   7.425  0.0203  0.4972 -0.3123
 7646SOL    HW134574   2.840   2.955   7.390 -0.5703  0.5866 -0.0636
 7646SOL    HW234575   2.913   2.831   7.372  1.7167  2.4755  0.6965
 7647SOL     OW34576   0.895   4.130   9.306  0.1171 -0.1698  0.4811
 7647SOL    HW134577   0.882   4.159   9.397  0.9102  1.2556  0.1505
 7647SOL    HW234578   0.852   4.046   9.319 -1.6597  0.8587  1.2847
 7648SOL     OW34579   3.370   0.709  16.106 -0.3659  0.4123 -0.5245
 7648SOL    HW134580   3.367   0.730  16.199  0.3368  0.2919 -0.4715
 7648SOL    HW234581   3.297   0.765  16.081 -0.8772  0.7524  1.6888
 7649SOL     OW34582   0.474   3.430  10.001 -0.3510 -0.0046  0.2944
 7649SOL    HW134583   0.563   3.396   9.991  0.7067  2.4203  1.4230
 7649SOL    HW234584   0.473   3.487   9.925 -1.3112  1.4806  1.4262
 7650SOL     OW34585   4.334   2.590  12.106  0.1858  0.3296  0.1072
 7650SOL    HW134586   4.285   2.672  12.105  1.2835  0.9861 -0.1405
 7650SOL    HW234587   4.257   2.533  12.114  0.3673  0.0092 -0.4473
 7651SOL     OW34588   3.067   1.433  17.358 -0.3455 -0.0496  0.5782
 7651SOL    HW134589   3.144   1.407  17.409 -0.2636 -0.9808 -0.0102
 7651SOL    HW234590   3.117   1.495  17.304  1.9762 -1.8055  0.6909
 7652SOL     OW34591   2.872   1.175   5.027 -0.6488  0.0350 -1.0872
 7652SOL    HW134592   2.967   1.175   5.015 -0.9575  1.5146 -3.2720
 7652SOL    HW234593   2.862   1.259   5.072  1.8175  0.9205 -2.1955
 7653SOL     OW34594   0.115   1.793   2.853 -0.1213 -0.1799  0.1564
 7653SOL    HW134595   0.076   1.718   2.807 -0.0176 -0.5646  0.6938
 7653SOL    HW234596   0.177   1.829   2.790 -0.0694  1.6327  1.2520
 7654SOL     OW34597   0.036   1.284   3.899  0.4218 -0.2455  0.4288
 7654SOL    HW134598   0.022   1.269   3.805 -3.6570 -0.3136  1.0478
 7654SOL    HW234599   4.712   1.354   3.917 -0.2312 -0.5939 -0.4736
 7655SOL     OW34600   3.762   4.692   8.093  0.5708  0.5399  0.2882
 7655SOL    HW134601   3.818   4.724   8.022  1.7358  1.0076  1.4019
 7655SOL    HW234602   3.728   0.034   8.134 -0.9576 -0.7606  1.5727
 7656SOL     OW34603   3.149   2.714   5.287  0.2620  0.1499 -0.5036
 7656SOL    HW134604   3.079   2.709   5.352  4.3218 -2.6757  3.7141
 7656SOL    HW234605   3.106   2.742   5.207  1.1870  0.3167 -0.9509
 7657SOL     OW34606   0.316   3.574   6.019 -0.0903  1.0364  0.0868
 7657SOL    HW134607   0.305   3.641   6.087 -0.0047 -0.3870  1.5013
 7657SOL    HW234608   0.225   3.557   5.993 -0.0985  0.1784  0.6829
 7658SOL     OW34609   3.312   0.859   9.416  0.1152  0.0220 -0.7019
 7658SOL    HW134610   3.251   0.922   9.455 -0.7026 -0.7060 -0.8128
 7658SOL    HW234611   3.395   0.898   9.443 -0.4371  1.2780 -0.8044
 7659SOL     OW34612   3.662   0.310   7.925 -0.3576  0.2111  0.2840
 7659SOL    HW134613   3.583   0.287   7.877 -0.3218  0.8606 -0.0925
 7659SOL    HW234614   3.734   0.296   7.863 -0.8760  2.8873 -0.8946
 7660SOL     OW34615   1.923   4.111   2.128 -0.3225  0.1085 -0.2643
 7660SOL    HW134616   2.008   4.154   2.139  0.3063 -0.9337 -1.0499
 7660SOL    HW234617   1.943   4.022   2.156 -1.4094 -0.8429 -2.5000
 7661SOL     OW34618   2.837   0.305  14.987 -0.4397 -0.2654 -0.1483
 7661SOL    HW134619   2.824   0.222  14.942  1.7325 -0.4413 -0.4557
 7661SOL    HW234620   2.931   0.299  15.001 -0.6494  0.9073  1.7838
 7662SOL     OW34621   3.172   4.520   3.155  0.0137  0.2865 -0.3674
 7662SOL    HW134622   3.202   4.594   3.102 -0.2900  0.3456 -0.4524
 7662SOL    HW234623   3.195   4.538   3.246 -2.0311  1.1469 -0.0238
 7663SOL     OW34624   4.554   1.784   5.137  0.0534 -0.6180 -0.2878
 7663SOL    HW134625   4.588   1.732   5.209  0.4893 -0.1715 -0.1662
 7663SOL    HW234626   4.462   1.769   5.158 -0.8291  2.4626 -1.9361
 7664SOL     OW34627   0.881   1.973  11.000  0.1823 -0.0870  0.3207
 7664SOL    HW134628   0.907   1.951  11.090 -0.2407 -0.9280  0.2342
 7664SOL    HW234629   0.790   1.946  11.010 -0.2368  0.7469 -1.3260
 7665SOL     OW34630   0.210   3.149   7.848  0.8999 -0.7815 -0.1648
 7665SOL    HW134631   0.275   3.185   7.788  0.1230  0.1771 -0.4209
 7665SOL    HW234632   0.133   3.203   7.833  1.4146 -0.1807 -0.6090
 7666SOL     OW34633   3.598   2.235   4.298  0.0114 -0.2870 -0.2245
 7666SOL    HW134634   3.615   2.148   4.262 -2.0444 -0.5852 -0.5025
 7666SOL    HW234635   3.666   2.222   4.363  1.8297  2.6335 -1.5303
 7667SOL     OW34636   1.706   3.158   4.781 -0.7075 -0.3102  0.3259
 7667SOL    HW134637   1.773   3.213   4.821  0.2098 -1.3966  0.2867
 7667SOL    HW234638   1.679   3.101   4.853 -0.8832  0.1025  0.5862
 7668SOL     OW34639   3.676   1.926   7.230  0.3626 -0.0952 -0.9074
 7668SOL    HW134640   3.606   1.926   7.165  0.3651  1.3124 -0.9202
 7668SOL    HW234641   3.634   1.905   7.314  1.4423 -2.4734 -0.9771
 7669SOL     OW34642   4.062   0.841   4.694  0.6489  0.0575  0.1762
 7669SOL    HW134643   4.131   0.887   4.647  0.3635 -0.1271 -0.4256
 7669SOL    HW234644   3.980   0.886   4.674 -0.0678 -1.0842  0.5596
 7670SOL     OW34645   3.255   3.878   4.420  0.2050 -0.4451 -0.1592
 7670SOL    HW134646   3.339   3.923   4.421 -0.1561  0.3159 -2.6387
 7670SOL    HW234647   3.248   3.847   4.330  1.5235  2.4516 -1.2467
 7671SOL     OW34648   2.044   0.383   9.946  0.0233 -0.0322  0.0247
 7671SOL    HW134649   2.075   0.305   9.994  0.6369 -1.6076 -2.9682
 7671SOL    HW234650   2.029   0.447  10.016  1.4005  0.3155 -0.0045
 7672SOL     OW34651   1.468   3.090   6.614  0.2951 -0.3312  0.1502
 7672SOL    HW134652   1.413   3.152   6.566  0.8552 -0.5947 -0.8340
 7672SOL    HW234653   1.543   3.149   6.623 -0.8869  1.3562 -0.9768
 7673SOL     OW34654   2.891   1.885   8.515 -0.0394 -0.9269  0.2661
 7673SOL    HW134655   2.816   1.881   8.456 -1.1773 -0.9201  1.6947
 7673SOL    HW234656   2.885   1.812   8.577 -1.3194 -0.3522  0.8242
 7674SOL     OW34657   2.436   1.984  15.267 -0.1450  0.2335 -0.1472
 7674SOL    HW134658   2.485   2.036  15.203 -0.6428  1.0120  0.1040
 7674SOL    HW234659   2.429   1.896  15.230  0.3905 -0.5538  1.6002
 7675SOL     OW34660   2.285   3.200   3.946  0.0860 -0.5587 -0.2066
 7675SOL    HW134661   2.221   3.272   3.948 -0.6002 -1.1959  0.9019
 7675SOL    HW234662   2.229   3.129   3.914  1.5206 -0.7208 -2.3714
 7676SOL     OW34663   3.730   4.043  11.337  0.1062  0.2329  0.3968
 7676SOL    HW134664   3.768   4.130  11.332  1.9877 -0.7097 -1.9791
 7676SOL    HW234665   3.651   4.050  11.390 -1.1169  1.2417 -1.5485
 7677SOL     OW34666   1.881   3.648   6.369 -0.4577 -0.3750 -0.6919
 7677SOL    HW134667   1.789   3.674   6.373 -0.0365  0.9523  0.5631
 7677SOL    HW234668   1.898   3.696   6.288 -0.0645  1.2799  0.3841
 7678SOL     OW34669   0.435   2.421   2.477  0.0287 -0.4867  0.3640
 7678SOL    HW134670   0.458   2.381   2.393 -0.3238 -0.4443  0.2477
 7678SOL    HW234671   0.438   2.344   2.534  1.0576 -1.0655 -0.4775
 7679SOL     OW34672   4.682   4.370   9.785 -0.1037  0.2924  0.3374
 7679SOL    HW134673   0.012   4.333   9.841  0.8073 -0.2826 -1.1814
 7679SOL    HW234674   4.728   4.443   9.745  0.7620 -0.8950 -0.8146
 7680SOL     OW34675   0.342   1.174   5.283 -0.3253 -0.6107 -0.0174
 7680SOL    HW134676   0.321   1.252   5.334 -1.1798 -2.7645  2.9189
 7680SOL    HW234677   0.253   1.142   5.269 -1.1347  0.3704  2.9897
 7681SOL     OW34678   2.642   3.424  16.181 -1.3251 -0.0437 -0.0508
 7681SOL    HW134679   2.588   3.346  16.196  1.3752 -1.3361  2.8711
 7681SOL    HW234680   2.605   3.455  16.099 -2.9939 -0.4977  0.5263
 7682SOL     OW34681   3.499   4.014   4.457  0.1350  0.0341  0.1011
 7682SOL    HW134682   3.581   3.965   4.447 -0.4014 -0.4991 -1.7110
 7682SOL    HW234683   3.520   4.065   4.535 -0.5472  2.4286 -1.2709
 7683SOL     OW34684   4.442   1.353   6.520 -0.1750 -0.0200 -0.3726
 7683SOL    HW134685   4.496   1.282   6.557  0.0909  0.2565 -0.2297
 7683SOL    HW234686   4.361   1.335   6.568 -1.0254  1.4095 -1.2926
 7684SOL     OW34687   2.766   0.235   3.812  0.5572 -0.2401 -0.1099
 7684SOL    HW134688   2.787   0.188   3.731 -0.5400 -0.2057 -0.4149
 7684SOL    HW234689   2.670   0.227   3.814  0.6608 -0.9762  1.7049
 7685SOL     OW34690   0.195   4.231  10.249 -0.2043 -0.8407 -0.1889
 7685SOL    HW134691   0.204   4.161  10.314  1.1438 -1.1316 -0.6860
 7685SOL    HW234692   0.251   4.188  10.184 -1.0750 -1.9800 -0.1854
 7686SOL     OW34693   3.216   1.086   3.839  0.1687 -0.2643  0.3363
 7686SOL    HW134694   3.237   1.006   3.791 -1.9412 -0.4699 -0.2205
 7686SOL    HW234695   3.209   1.050   3.928 -0.5026  2.1190  1.2282
 7687SOL     OW34696   2.771   3.460   9.157 -0.5916 -0.5318 -0.5219
 7687SOL    HW134697   2.813   3.537   9.119 -1.5377 -0.2574 -1.0055
 7687SOL    HW234698   2.756   3.490   9.246  0.5617 -0.3762 -0.3799
 7688SOL     OW34699   2.875   2.161   4.541 -0.2665 -0.8255 -0.9009
 7688SOL    HW134700   2.786   2.126   4.546  0.1275 -1.6342  0.4649
 7688SOL    HW234701   2.931   2.103   4.592 -0.7506  0.8319  1.5414
 7689SOL     OW34702   2.542   3.339   9.378  0.4049  0.0659 -0.1517
 7689SOL    HW134703   2.494   3.262   9.408 -1.9856  1.7386  0.3043
 7689SOL    HW234704   2.549   3.321   9.284 -2.2679  0.4388 -0.4074
 7690SOL     OW34705   4.575   3.946   8.778  0.3528  0.1301 -0.6469
 7690SOL    HW134706   4.514   3.940   8.705 -0.9731  2.1123  0.2936
 7690SOL    HW234707   4.637   4.001   8.728  2.1715 -0.2166  1.2340
 7691SOL     OW34708   1.794   2.432  15.879  0.6520 -0.4352  0.3729
 7691SOL    HW134709   1.730   2.362  15.870  0.8027 -0.1917 -2.7152
 7691SOL    HW234710   1.752   2.497  15.822 -0.8797 -1.9966 -0.2459
 7692SOL     OW34711   3.984   2.560   4.682 -0.4383  0.1098 -0.0927
 7692SOL    HW134712   4.047   2.606   4.625  0.3083 -0.8456 -0.0413
 7692SOL    HW234713   4.030   2.477   4.694  0.3503  0.6607  0.6834
 7693SOL     OW34714   1.659   4.167   2.119  0.0515 -0.1076  0.1497
 7693SOL    HW134715   1.752   4.146   2.114  0.7766  2.7034  2.5355
 7693SOL    HW234716   1.662   4.252   2.161 -1.2079 -0.0366  0.1086
 7694SOL     OW34717   1.583   1.825   7.064 -0.7072 -0.1817  0.2404
 7694SOL    HW134718   1.574   1.846   7.157  0.0747 -0.7801  0.4557
 7694SOL    HW234719   1.505   1.866   7.027 -0.0795  0.2648 -0.5876
 7695SOL     OW34720   3.712   3.021  12.802 -0.4012 -0.4015  0.7861
 7695SOL    HW134721   3.787   3.072  12.770 -1.0041 -0.1490 -0.2470
 7695SOL    HW234722   3.757   2.942  12.833  2.1038  1.0078  0.7911
 7696SOL     OW34723   4.231   0.628   6.432  0.2747  0.6914  0.8361
 7696SOL    HW134724   4.259   0.582   6.353  1.1070  1.1030  0.8933
 7696SOL    HW234725   4.170   0.694   6.400  2.4183  1.4292 -1.7346
 7697SOL     OW34726   0.151   2.809  17.500 -0.1963  0.0904 -0.0351
 7697SOL    HW134727   0.123   2.843  17.414  2.4482  1.0470 -0.5135
 7697SOL    HW234728   0.233   2.766  17.475  0.5421  0.0954  2.4489
 7698SOL     OW34729   3.698   0.338   5.076  0.9216  0.2175  0.2099
 7698SOL    HW134730   3.649   0.418   5.096 -0.0847 -0.0899 -1.0206
 7698SOL    HW234731   3.740   0.375   4.998  1.9846  1.2504  1.2785
 7699SOL     OW34732   2.906   3.320   9.501 -0.3056 -0.3907  0.3361
 7699SOL    HW134733   2.976   3.261   9.473 -0.4861 -0.6425  0.4204
 7699SOL    HW234734   2.843   3.260   9.539 -0.0635 -2.1486 -2.0845
 7700SOL     OW34735   1.212   3.890   7.008  0.1235 -0.0475 -0.8098
 7700SOL    HW134736   1.119   3.871   7.021 -0.0729 -0.8125 -3.2561
 7700SOL    HW234737   1.237   3.924   7.094 -0.3456 -2.2880  0.2209
 7701SOL     OW34738   2.768   2.537   3.806  0.2961  0.2060 -0.2933
 7701SOL    HW134739   2.741   2.461   3.755 -2.4255  1.0222 -0.1217
 7701SOL    HW234740   2.818   2.488   3.871  1.8678  1.8108 -0.2706
 7702SOL     OW34741   3.015   4.661   0.310 -0.2264 -0.0205  0.3911
 7702SOL    HW134742   3.050   4.705   0.232  0.1427 -0.4927  0.2918
 7702SOL    HW234743   3.040   4.570   0.296 -0.8764 -0.1300 -0.0437
 7703SOL     OW34744   0.395   0.961   9.084 -0.1458  0.2848  0.0358
 7703SOL    HW134745   0.452   1.038   9.078  1.4606 -0.8086  1.1487
 7703SOL    HW234746   0.427   0.911   9.010 -0.0227 -3.5004  2.6428
 7704SOL     OW34747   3.335   2.975  16.490  0.6271  0.1745 -0.6725
 7704SOL    HW134748   3.359   2.947  16.401 -1.0255  0.7773 -1.3036
 7704SOL    HW234749   3.387   3.054  16.501 -1.6223  1.2426  2.0749
 7705SOL     OW34750   2.001   3.994  11.764  0.3660  0.2522  0.1282
 7705SOL    HW134751   2.083   3.944  11.756 -0.4766 -0.8207 -1.7458
 7705SOL    HW234752   1.956   3.980  11.680  0.7937 -2.7394  0.3810
 7706SOL     OW34753   0.867   4.484   3.059 -0.1105 -0.4617  0.0873
 7706SOL    HW134754   0.914   4.460   3.139  0.7452  0.0547 -0.2566
 7706SOL    HW234755   0.783   4.447   3.083 -0.8235  1.1251  0.0492
 7707SOL     OW34756   1.596   4.311   1.847 -0.0150  0.2279 -0.6105
 7707SOL    HW134757   1.650   4.273   1.916 -2.2325  0.2424  1.1233
 7707SOL    HW234758   1.508   4.291   1.876  0.2928  0.5894  0.5778
 7708SOL     OW34759   0.794   1.797   7.236 -0.6859  0.1614  0.0766
 7708SOL    HW134760   0.730   1.861   7.206  1.0476  2.3362  1.0003
 7708SOL    HW234761   0.822   1.836   7.319 -3.0989 -0.6379  1.2624
 7709SOL     OW34762   3.187   0.489  11.260  0.1125 -0.1226  0.3156
 7709SOL    HW134763   3.206   0.475  11.352  0.9546 -0.0606  0.1507
 7709SOL    HW234764   3.093   0.474  11.266  0.1039  1.3354  3.7947
 7710SOL     OW34765   2.315   4.138   6.107 -0.1216 -0.1985  0.2657
 7710SOL    HW134766   2.333   4.088   6.187 -1.8391 -1.6325 -0.2536
 7710SOL    HW234767   2.220   4.149   6.102 -0.0293 -0.4480 -2.2207
 7711SOL     OW34768   3.437   0.013  11.440  0.3716  0.1393 -0.0441
 7711SOL    HW134769   3.380   4.698  11.386 -2.2990  1.6424  1.2959
 7711SOL    HW234770   3.517   4.700  11.432 -0.7145 -1.3770 -1.1476
 7712SOL     OW34771   0.500   0.655   7.838  0.3061  0.5214  0.1200
 7712SOL    HW134772   0.543   0.663   7.753  1.9798 -1.3361  0.7837
 7712SOL    HW234773   0.576   0.632   7.892 -0.1072 -2.0949 -0.4275
 7713SOL     OW34774   1.606   1.593   7.457  0.1209  0.1123 -0.1008
 7713SOL    HW134775   1.569   1.678   7.433 -0.5020  0.2331  1.2748
 7713SOL    HW234776   1.615   1.565   7.366  1.4292 -3.4010  1.1107
 7714SOL     OW34777   4.064   0.481   5.659  0.0259  0.4123 -0.7292
 7714SOL    HW134778   4.047   0.417   5.728 -1.0866  1.4922 -0.0022
 7714SOL    HW234779   4.145   0.447   5.622  0.2358  0.1590 -0.0253
 7715SOL     OW34780   4.086   0.808   9.696  0.9071 -0.0072  0.0550
 7715SOL    HW134781   4.125   0.888   9.660 -1.0401  1.0398  0.2336
 7715SOL    HW234782   4.036   0.839   9.772  0.8776  1.7521 -0.6781
 7716SOL     OW34783   2.558   3.036   7.450  0.2946 -0.0840 -0.3721
 7716SOL    HW134784   2.646   3.067   7.430  0.1071  1.0640  0.5932
 7716SOL    HW234785   2.521   3.099   7.512 -1.4001 -0.9595 -0.4795
 7717SOL     OW34786   3.959   0.827  11.208 -0.1066  0.2202 -0.1337
 7717SOL    HW134787   4.040   0.799  11.251  0.5347  2.5899  0.2152
 7717SOL    HW234788   3.968   0.920  11.227 -1.5909  0.4606 -0.6316
 7718SOL     OW34789   2.822   0.741   5.386  0.0504  0.5740  0.2423
 7718SOL    HW134790   2.828   0.776   5.475 -0.1267  0.7056  0.2029
 7718SOL    HW234791   2.751   0.787   5.340 -0.0448 -0.4971 -0.6883
 7719SOL     OW34792   0.693   2.096   7.451  0.1102 -0.1750  0.1383
 7719SOL    HW134793   0.702   2.064   7.541  2.7125 -0.1989 -0.1496
 7719SOL    HW234794   0.631   2.032   7.414 -0.4776  0.6889 -0.3701
 7720SOL     OW34795   1.114   0.990   5.283  0.8972  0.0762 -0.5314
 7720SOL    HW134796   1.173   0.923   5.319 -0.1427 -0.3457  0.3556
 7720SOL    HW234797   1.043   0.994   5.347  0.7946  0.2307 -0.6552
 7721SOL     OW34798   3.632   2.157   9.450  0.8744  0.0253 -0.2541
 7721SOL    HW134799   3.600   2.078   9.406  1.4393 -0.1708 -0.3241
 7721SOL    HW234800   3.715   2.120   9.482  0.8194 -1.6769 -2.0397
 7722SOL     OW34801   1.244   1.459  15.155 -0.3426 -0.0400  0.0325
 7722SOL    HW134802   1.283   1.413  15.080  1.3970 -0.9074  1.4704
 7722SOL    HW234803   1.299   1.537  15.150 -0.2941  0.0336  1.6562
 7723SOL     OW34804   0.360   4.103   2.027 -0.0916  0.2147 -0.1241
 7723SOL    HW134805   0.294   4.154   1.981 -2.0134 -0.8995  1.3816
 7723SOL    HW234806   0.353   4.154   2.108 -0.2039 -1.9449  1.2262
 7724SOL     OW34807   3.491   2.471   8.085 -0.1859  0.4533 -0.1243
 7724SOL    HW134808   3.439   2.533   8.035 -2.1387 -1.2021 -0.1572
 7724SOL    HW234809   3.582   2.488   8.060 -0.7900  2.5089 -0.8790
 7725SOL     OW34810   0.890   3.340  17.528  0.1162  0.5093  0.1027
 7725SOL    HW134811   0.970   3.381  17.560  0.4634 -0.7616  0.8887
 7725SOL    HW234812   0.842   3.319  17.608  0.9810 -2.5311 -0.1817
 7726SOL     OW34813   2.464   0.496  17.395 -0.0339  0.5521 -0.5298
 7726SOL    HW134814   2.503   0.570  17.348 -0.3862  0.5506 -0.8217
 7726SOL    HW234815   2.493   0.516  17.484 -2.3413 -0.5352  0.4457
 7727SOL     OW34816   0.172   1.252  15.594  0.0752 -0.0828  0.3365
 7727SOL    HW134817   0.228   1.328  15.607 -0.9550  0.5552  1.0649
 7727SOL    HW234818   0.246   1.197  15.569 -0.7303 -0.4087 -1.3688
 7728SOL     OW34819   4.039   0.473  12.093  0.0025 -0.2170 -0.0222
 7728SOL    HW134820   3.951   0.477  12.132  1.1067 -1.7726  2.6162
 7728SOL    HW234821   4.077   0.552  12.132 -0.6268  0.9211 -1.7164
 7729SOL     OW34822   2.361   1.551  17.447  0.2430 -0.0003  0.7145
 7729SOL    HW134823   2.379   1.549  17.541  3.9430  1.9016  0.0543
 7729SOL    HW234824   2.451   1.567  17.418  0.0286  1.2750  0.7846
 7730SOL     OW34825   3.927   2.028   2.403 -0.1953 -0.3010 -0.3539
 7730SOL    HW134826   3.992   2.038   2.333  0.5061 -1.9185  0.0618
 7730SOL    HW234827   3.978   2.064   2.476 -0.4704 -2.4543  0.9094
 7731SOL     OW34828   3.731   0.757   6.062  0.2934  0.1757 -0.1563
 7731SOL    HW134829   3.806   0.698   6.058  0.4639  0.3272  0.7925
 7731SOL    HW234830   3.755   0.800   5.980  0.2260  0.8540  0.1792
 7732SOL     OW34831   2.890   4.569   8.467 -0.3292 -0.2484  0.4495
 7732SOL    HW134832   2.955   4.557   8.398  1.0817  0.4916  1.6674
 7732SOL    HW234833   2.809   4.567   8.416  2.2079 -2.6172 -3.4584
 7733SOL     OW34834   3.289   1.767  12.154 -0.5486 -0.3291  0.0833
 7733SOL    HW134835   3.259   1.824  12.083 -0.0823 -1.9653 -1.4157
 7733SOL    HW234836   3.376   1.798  12.179 -0.8189  0.6245 -0.1579
 7734SOL     OW34837   3.861   2.172   8.034 -0.3996  0.6664  0.3625
 7734SOL    HW134838   3.921   2.110   7.992 -0.0334  0.6112  0.9642
 7734SOL    HW234839   3.793   2.177   7.967  0.4947  1.1217 -0.5008
 7735SOL     OW34840   4.343   1.898  17.092  0.0955  0.2897 -0.1803
 7735SOL    HW134841   4.283   1.826  17.070 -0.8912  1.2231 -0.5345
 7735SOL    HW234842   4.282   1.935  17.155  1.0056  2.0944 -0.3629
 7736SOL     OW34843   1.351   2.351   4.437  0.3222  0.6526  0.6036
 7736SOL    HW134844   1.286   2.377   4.372  0.1533 -3.3932 -0.8031
 7736SOL    HW234845   1.295   2.354   4.515 -1.3363 -0.6306 -0.5216
 7737SOL     OW34846   3.086   3.391  17.045  0.3392 -0.7134  0.1502
 7737SOL    HW134847   3.122   3.309  17.011  3.1119  0.7971 -0.5086
 7737SOL    HW234848   3.146   3.449  16.998 -2.3384  1.5311 -0.4891
 7738SOL     OW34849   3.191   1.576  13.219 -0.5754 -0.1799 -0.2026
 7738SOL    HW134850   3.207   1.588  13.125  1.1539  0.0770  0.1142
 7738SOL    HW234851   3.203   1.670  13.231 -0.9698 -0.3826  1.7386
 7739SOL     OW34852   4.356   3.527   9.339  0.1892  0.0510 -0.1745
 7739SOL    HW134853   4.372   3.516   9.433  2.8852 -0.5323 -0.7050
 7739SOL    HW234854   4.441   3.569   9.323  0.4128 -0.5930 -0.6554
 7740SOL     OW34855   0.400   3.510   1.451  0.2854 -0.7049 -0.3753
 7740SOL    HW134856   0.318   3.463   1.435 -0.1194 -1.1302  2.8322
 7740SOL    HW234857   0.443   3.528   1.368 -4.3413 -0.8741 -2.8083
 7741SOL     OW34858   2.736   2.903   8.746 -0.7395 -0.8486  0.4201
 7741SOL    HW134859   2.784   2.878   8.826 -1.0510  1.6834  1.4031
 7741SOL    HW234860   2.759   2.831   8.687 -0.0162 -0.1825 -0.1124
 7742SOL     OW34861   2.907   1.321   2.256  0.4220  0.3499  0.2600
 7742SOL    HW134862   2.853   1.245   2.236  0.0229  0.4506  0.9640
 7742SOL    HW234863   2.839   1.381   2.226 -0.6745 -0.3692  1.3051
 7743SOL     OW34864   1.713   2.266   1.021  0.1498 -0.2319  0.0386
 7743SOL    HW134865   1.740   2.346   1.066 -1.6099  0.5452 -0.2926
 7743SOL    HW234866   1.638   2.289   0.966  0.0480 -1.9432 -0.5451
 7744SOL     OW34867   3.505   1.571   8.743  0.0211 -0.0697 -0.0566
 7744SOL    HW134868   3.467   1.659   8.750 -0.3234 -0.4176  2.5740
 7744SOL    HW234869   3.478   1.525   8.823 -0.5979  2.2301  1.0896
 7745SOL     OW34870   3.931   2.547   9.723  0.1278  0.6324 -0.3635
 7745SOL    HW134871   4.000   2.498   9.679  0.5808  0.8083  0.1506
 7745SOL    HW234872   3.961   2.540   9.814  2.4341  1.3110 -1.0901
 7746SOL     OW34873   1.388   0.779   1.897  0.4841  0.1987  0.9903
 7746SOL    HW134874   1.315   0.717   1.888 -0.1473  0.8795  1.4134
 7746SOL    HW234875   1.413   0.820   1.814 -1.2201 -1.1062 -0.1732
 7747SOL     OW34876   0.920   2.319   3.326 -0.1630  0.2552 -0.4137
 7747SOL    HW134877   0.913   2.313   3.230 -1.4599 -4.3768 -0.0041
 7747SOL    HW234878   0.858   2.391   3.342 -1.4791 -1.2595  1.2250
 7748SOL     OW34879   4.509   3.227   4.044  0.1053 -0.1742 -0.0188
 7748SOL    HW134880   4.511   3.144   3.996  4.2422  1.0831 -2.0206
 7748SOL    HW234881   4.417   3.247   4.059  0.0121 -1.5860  1.3385
 7749SOL     OW34882   3.287   0.914   0.160  0.2430  0.3807 -0.7126
 7749SOL    HW134883   3.265   0.999   0.198  1.2945  0.3340  0.0017
 7749SOL    HW234884   3.202   0.873   0.175  0.9007 -0.2032  1.3771
 7750SOL     OW34885   3.866   0.268   5.700 -0.2324  0.6831  0.3128
 7750SOL    HW134886   3.876   0.219   5.619  0.8379  0.7286  0.4119
 7750SOL    HW234887   3.775   0.299   5.699 -0.2284  0.7123  0.7792
 7751SOL     OW34888   1.314   4.680   4.895 -0.4925  0.4745 -0.4184
 7751SOL    HW134889   1.371   4.603   4.887 -2.1092 -0.8180  0.5200
 7751SOL    HW234890   1.228   4.639   4.883 -0.6970  0.2854  1.6473
 7752SOL     OW34891   2.768   0.883   5.604 -0.4311 -0.5396  0.0587
 7752SOL    HW134892   2.682   0.923   5.593 -0.0248  0.2052 -0.3626
 7752SOL    HW234893   2.762   0.835   5.686 -0.3973  0.1159  0.4436
 7753SOL     OW34894   1.797   4.273   3.089  0.1639 -0.1546 -0.7136
 7753SOL    HW134895   1.785   4.245   2.998 -0.1574 -0.0003 -0.7177
 7753SOL    HW234896   1.883   4.315   3.088  0.2468 -0.3177 -0.1141
 7754SOL     OW34897   3.162   3.422   7.022  0.0694  0.2037 -0.4137
 7754SOL    HW134898   3.145   3.330   7.043  0.3138  0.2147 -0.1542
 7754SOL    HW234899   3.251   3.439   7.054 -0.3903  0.1464  0.8852
 7755SOL     OW34900   1.760   1.862   7.574 -0.0627 -0.3716  0.1803
 7755SOL    HW134901   1.680   1.834   7.618 -1.6271  0.6728 -1.9998
 7755SOL    HW234902   1.733   1.943   7.530 -0.5318 -0.0235  1.1115
 7756SOL     OW34903   4.595   4.351   7.116 -0.1536  0.1576 -0.1977
 7756SOL    HW134904   4.515   4.353   7.063  0.6282  2.3426 -1.2957
 7756SOL    HW234905   4.554   4.326   7.199 -0.7218  1.0543 -0.2030
 7757SOL     OW34906   3.872   2.594   4.929 -0.0154  0.1774  0.1798
 7757SOL    HW134907   3.874   2.507   4.968 -1.5168  0.5433  1.0670
 7757SOL    HW234908   3.902   2.578   4.839  1.2904 -1.3913  0.8859
 7758SOL     OW34909   1.149   2.875  10.748 -0.1077  0.0792 -0.1502
 7758SOL    HW134910   1.094   2.852  10.822 -1.7234 -1.1536 -1.7170
 7758SOL    HW234911   1.164   2.796  10.695 -0.6101 -0.2239  0.1602
 7759SOL     OW34912   2.110   0.854   4.995  0.1672 -0.3243  0.0122
 7759SOL    HW134913   2.171   0.879   5.065  1.5853  0.2061 -1.4210
 7759SOL    HW234914   2.140   0.905   4.920 -2.7238  1.7741  0.3133
 7760SOL     OW34915   4.442   4.581   2.837 -0.5870  0.0577 -0.2282
 7760SOL    HW134916   4.357   4.617   2.863 -0.0818  1.3445 -0.3417
 7760SOL    HW234917   4.482   4.658   2.797  0.6638 -2.2030 -3.2644
 7761SOL     OW34918   3.362   1.097   1.617  0.2585 -0.5814 -0.9457
 7761SOL    HW134919   3.378   1.190   1.635  2.8069 -1.3349  0.7481
 7761SOL    HW234920   3.268   1.108   1.600  0.0461 -1.7175 -0.5231
 7762SOL     OW34921   2.829   4.443   2.356 -0.0394  0.1137  0.2193
 7762SOL    HW134922   2.812   4.497   2.279 -0.1963 -1.8002 -1.0962
 7762SOL    HW234923   2.893   4.501   2.397 -0.5068  0.0033  1.1078
 7763SOL     OW34924   1.122   2.229   9.390 -0.0333  0.4115 -0.2123
 7763SOL    HW134925   1.073   2.147   9.385  0.0348  0.3564  0.0542
 7763SOL    HW234926   1.058   2.295   9.361 -0.9419  0.4443  1.8630
 7764SOL     OW34927   1.059   4.062   9.087  0.4898  0.0047  0.0925
 7764SOL    HW134928   1.055   4.087   8.995 -1.5726 -1.2604 -0.1749
 7764SOL    HW234929   0.973   4.089   9.121  0.2680 -0.5133 -0.0477
 7765SOL     OW34930   2.477   2.291  11.011 -0.0697  0.1063  0.2342
 7765SOL    HW134931   2.500   2.338  10.930  0.0717 -1.2512 -0.5285
 7765SOL    HW234932   2.394   2.247  10.994 -2.2757  4.1126  0.7612
 7766SOL     OW34933   0.254   0.660   8.328 -0.5813 -0.4192  0.5005
 7766SOL    HW134934   0.260   0.755   8.319  0.4313 -0.1784  3.6027
 7766SOL    HW234935   0.345   0.647   8.355  0.4763  1.0377 -2.2878
 7767SOL     OW34936   3.106   3.955   2.163  0.3023 -0.1283 -0.0587
 7767SOL    HW134937   3.141   4.045   2.163 -2.5468  0.9764 -1.0138
 7767SOL    HW234938   3.021   3.971   2.123 -0.2869 -1.8216  0.5154
 7768SOL     OW34939   2.939   1.894   2.523 -0.3321  0.4632  0.2087
 7768SOL    HW134940   2.872   1.916   2.457 -1.4931 -1.7812  0.6447
 7768SOL    HW234941   3.005   1.846   2.473  0.3646  0.4541  1.1487
 7769SOL     OW34942   2.023   0.923   8.619  0.4001 -0.2973  0.1043
 7769SOL    HW134943   1.997   0.874   8.697 -0.2633 -1.7575 -1.0259
 7769SOL    HW234944   2.064   0.995   8.665 -0.7079  0.8875 -0.7452
 7770SOL     OW34945   1.954   0.226   4.548 -0.0055  0.1294 -0.9407
 7770SOL    HW134946   1.892   0.157   4.526 -0.3350 -0.2242  1.1520
 7770SOL    HW234947   1.897   0.304   4.547 -0.2435 -0.0360  0.3532
 7771SOL     OW34948   1.660   3.856   2.306 -0.0279 -0.9889  0.1916
 7771SOL    HW134949   1.595   3.823   2.368 -0.4951 -0.3026  0.0621
 7771SOL    HW234950   1.743   3.849   2.353  0.8990 -1.1511 -1.4632
 7772SOL     OW34951   4.048   2.109   1.835  0.1150 -0.4817  0.0592
 7772SOL    HW134952   4.049   2.170   1.761  0.3009 -0.3802  0.1463
 7772SOL    HW234953   3.956   2.107   1.861  0.4757  0.4067  1.3973
 7773SOL     OW34954   2.736   2.070   7.366  0.1178 -0.0657 -0.4186
 7773SOL    HW134955   2.808   2.097   7.423 -1.0441  0.1442  0.9352
 7773SOL    HW234956   2.657   2.114   7.396  0.8804  1.2642 -0.3625
 7774SOL     OW34957   3.997   3.213  16.290 -0.4769 -0.2988  0.6777
 7774SOL    HW134958   4.059   3.186  16.222 -1.1229  1.6905 -0.7011
 7774SOL    HW234959   4.016   3.153  16.362  0.4457 -0.1691  0.5530
 7775SOL     OW34960   3.536   2.285   7.593 -0.1181 -0.1060 -0.5487
 7775SOL    HW134961   3.472   2.279   7.522  1.5641 -0.9089 -1.9937
 7775SOL    HW234962   3.550   2.379   7.589 -2.3652  0.3380  1.9165
 7776SOL     OW34963   1.565   0.741   5.248  0.5680  0.2063 -0.4520
 7776SOL    HW134964   1.517   0.720   5.327  0.5157  0.8668 -0.3106
 7776SOL    HW234965   1.598   0.657   5.215 -2.0703 -0.3475 -1.7226
 7777SOL     OW34966   0.720   1.221   9.734 -0.0286  0.0327  0.0786
 7777SOL    HW134967   0.667   1.229   9.813  0.3792  0.8042  0.2696
 7777SOL    HW234968   0.797   1.258   9.777  0.1335 -0.8877  0.5964
 7778SOL     OW34969   4.702   0.011   7.395  0.2618 -0.0395  0.0470
 7778SOL    HW134970   4.654   4.672   7.423  1.1730 -0.2220  1.1153
 7778SOL    HW234971   4.659   0.077   7.449  3.3350  0.8022  1.4827
 7779SOL     OW34972   1.188   4.415   9.651 -0.7140 -0.3239  0.2655
 7779SOL    HW134973   1.245   4.340   9.668 -0.2481 -0.3850 -1.5245
 7779SOL    HW234974   1.231   4.474   9.713 -0.3228 -0.8931  0.5410
 7780SOL     OW34975   3.915   2.817   1.503 -0.2679 -0.1279  0.4856
 7780SOL    HW134976   3.860   2.876   1.451 -1.4090  0.2991  2.1998
 7780SOL    HW234977   3.940   2.869   1.579  0.2038  0.7583 -0.2658
 7781SOL     OW34978   3.682   3.540  16.402  0.5436 -0.4269 -0.1110
 7781SOL    HW134979   3.682   3.500  16.314  1.7888  1.3494 -0.9079
 7781SOL    HW234980   3.742   3.487  16.454  1.4453 -0.6141 -1.3465
 7782SOL     OW34981   0.537   4.726   9.945  0.1757 -0.5412 -0.5602
 7782SOL    HW134982   0.536   4.633   9.921 -1.2369 -0.8402  0.6214
 7782SOL    HW234983   0.552   4.721  10.039  1.0757  1.7748 -0.5766
 7783SOL     OW34984   2.560   0.570   3.037  0.3572 -0.0168  0.4046
 7783SOL    HW134985   2.474   0.528   3.038 -0.5136  1.7599 -2.2773
 7783SOL    HW234986   2.526   0.658   3.049 -0.7472 -0.4441  0.4292
 7784SOL     OW34987   1.302   2.264  12.207 -0.3304 -0.1669 -0.6131
 7784SOL    HW134988   1.347   2.327  12.264 -0.3326  0.4159 -1.2541
 7784SOL    HW234989   1.347   2.183  12.230 -1.0575  0.1455  1.8818
 7785SOL     OW34990   1.714   3.904   9.751  0.1057  0.1544 -0.0505
 7785SOL    HW134991   1.706   3.975   9.814 -0.1314 -0.5098  0.6732
 7785SOL    HW234992   1.619   3.896   9.743 -0.0739  1.0148  1.2651
 7786SOL     OW34993   3.250   0.382   1.273  0.2056 -0.4874  0.7377
 7786SOL    HW134994   3.215   0.432   1.199 -0.0582 -0.8226  0.6377
 7786SOL    HW234995   3.316   0.330   1.227  0.4878 -0.3952  1.0343
 7787SOL     OW34996   2.557   1.301   0.698  0.2314 -0.2142 -0.2583
 7787SOL    HW134997   2.588   1.240   0.765 -1.4913 -0.6772  0.1126
 7787SOL    HW234998   2.569   1.251   0.617 -0.2826 -0.4327 -0.1954
 7788SOL     OW34999   2.536   0.958   1.440 -0.0684 -0.4642  0.3616
 7788SOL    HW135000   2.460   1.007   1.410  0.4644  0.7210  0.9717
 7788SOL    HW235001   2.507   0.867   1.455  0.1636 -0.6194 -0.1210
 7789SOL     OW35002   2.277   3.512   1.137  0.3613 -0.3340  0.6030
 7789SOL    HW135003   2.225   3.591   1.124  0.8364 -0.0758  0.2885
 7789SOL    HW235004   2.357   3.533   1.090  0.7046 -2.1386  0.3737
 7790SOL     OW35005   1.145   1.531  16.606  0.2402  0.0334  0.3360
 7790SOL    HW135006   1.068   1.532  16.549  0.0856  0.6244  0.5617
 7790SOL    HW235007   1.188   1.451  16.573  0.5970 -0.0367  0.9748
 7791SOL     OW35008   3.940   2.198   1.267  0.0459  0.1571  0.1509
 7791SOL    HW135009   3.847   2.217   1.260  0.0261  0.1458  0.3819
 7791SOL    HW235010   3.972   2.288   1.278  0.1230  0.0833  0.5220
 7792SOL     OW35011   0.856   1.264   1.242 -0.6893  0.0189 -0.2435
 7792SOL    HW135012   0.817   1.243   1.327 -2.3087 -0.0400 -1.0066
 7792SOL    HW235013   0.895   1.180   1.218 -2.5303 -0.4781 -1.4549
 7793SOL     OW35014   4.592   1.602  16.185  0.2988  0.1565 -0.1736
 7793SOL    HW135015   4.562   1.636  16.269  0.3615  0.1339 -0.1428
 7793SOL    HW235016   4.641   1.525  16.215  0.7337  0.1684 -0.8540
 7794SOL     OW35017   0.287   3.750   7.202 -0.0967 -0.1119 -0.5767
 7794SOL    HW135018   0.328   3.766   7.287 -1.2077  1.4329 -0.3373
 7794SOL    HW235019   0.202   3.790   7.220 -0.4302 -0.7539 -0.7127
 7795SOL     OW35020   3.346   3.038   8.554 -1.0440 -0.2188 -0.0701
 7795SOL    HW135021   3.441   3.051   8.559 -1.0072 -0.5341  0.0315
 7795SOL    HW235022   3.318   3.029   8.645  0.4888  3.1348  0.7300
 7796SOL     OW35023   1.965   1.032   2.728 -0.6059 -0.0860 -0.4511
 7796SOL    HW135024   1.871   1.051   2.726 -0.8847 -1.2495  1.8472
 7796SOL    HW235025   1.983   1.031   2.634 -0.7630  0.2563 -0.4854
 7797SOL     OW35026   1.387   1.686  15.174 -0.3868 -0.0390 -0.3338
 7797SOL    HW135027   1.455   1.704  15.239  1.0469 -2.6828 -1.0850
 7797SOL    HW235028   1.348   1.770  15.151  0.4825  0.1707 -1.0162
 7798SOL     OW35029   0.963   1.379  11.459  0.0701  0.4726  0.4478
 7798SOL    HW135030   1.046   1.336  11.438 -0.0507 -0.2098  1.3334
 7798SOL    HW235031   0.956   1.457  11.404  0.4746  0.6020  0.5802
 7799SOL     OW35032   3.159   1.853  17.076 -0.3513 -0.5029 -0.8212
 7799SOL    HW135033   3.188   1.909  17.003 -2.2838  0.5529 -0.7869
 7799SOL    HW235034   3.214   1.886  17.147 -0.0050 -2.2017 -0.3086
 7800SOL     OW35035   0.906   4.072   2.236  0.1531 -0.1969  0.2227
 7800SOL    HW135036   0.987   4.086   2.188 -0.2357  1.9917  0.1991
 7800SOL    HW235037   0.918   3.989   2.282 -0.8726 -0.4162  0.0924
 7801SOL     OW35038   0.923   1.753  12.619 -0.3958  0.5320  0.3959
 7801SOL    HW135039   0.906   1.825  12.680  0.2346  0.8609  0.1777
 7801SOL    HW235040   0.934   1.803  12.538 -0.1588  0.8683  0.6369
 7802SOL     OW35041   2.561   0.347   5.133 -0.4628  0.4207 -0.2509
 7802SOL    HW135042   2.655   0.330   5.126 -0.5453 -0.8778  1.8237
 7802SOL    HW235043   2.525   0.267   5.170  0.1070  0.1272 -0.3389
 7803SOL     OW35044   1.995   1.295  10.308  0.2101 -0.1892 -0.3157
 7803SOL    HW135045   1.971   1.230  10.375 -1.4292 -1.0871 -1.7667
 7803SOL    HW235046   2.084   1.313  10.336  0.0878  0.0763 -0.0952
 7804SOL     OW35047   0.931   2.796   7.290 -0.0267 -0.3871 -0.0539
 7804SOL    HW135048   0.919   2.789   7.385  0.1969 -0.9753 -0.0666
 7804SOL    HW235049   0.842   2.808   7.255  1.1430  0.7511 -2.5826
 7805SOL     OW35050   1.516   1.195   9.063 -0.5319  0.4359  0.1933
 7805SOL    HW135051   1.551   1.196   8.974  0.5441 -0.3448  0.6064
 7805SOL    HW235052   1.473   1.280   9.070 -1.2405  0.1499 -0.7844
 7806SOL     OW35053   2.872   1.102  11.921  0.2454  0.3379  0.0467
 7806SOL    HW135054   2.857   1.045  11.996  2.0480 -0.3900 -0.1452
 7806SOL    HW235055   2.964   1.086  11.900 -0.0868 -0.8858 -0.4692
 7807SOL     OW35056   2.174   2.687   7.114 -0.3822 -0.0615 -0.0489
 7807SOL    HW135057   2.258   2.681   7.160  0.2688 -0.5275 -1.2949
 7807SOL    HW235058   2.144   2.596   7.116 -2.8662  0.7188 -2.4904
 7808SOL     OW35059   1.515   2.765   6.538  0.2480 -0.3462  0.2843
 7808SOL    HW135060   1.496   2.853   6.571 -0.3119  0.4477 -2.1172
 7808SOL    HW235061   1.498   2.712   6.616 -1.3185 -0.0988  0.1169
 7809SOL     OW35062   3.197   1.505   4.748 -0.4275 -0.2639 -0.0510
 7809SOL    HW135063   3.211   1.585   4.697 -1.7068  0.1106  0.1850
 7809SOL    HW235064   3.127   1.474   4.691 -0.4230  2.3895 -1.5116
 7810SOL     OW35065   2.096   0.276   6.697 -0.6354  0.2119 -0.1626
 7810SOL    HW135066   2.092   0.182   6.712 -1.5760  0.6661  2.4943
 7810SOL    HW235067   2.110   0.287   6.603 -0.8017  1.5172 -0.0444
 7811SOL     OW35068   4.504   0.317  11.765  0.2843  0.2727  0.1513
 7811SOL    HW135069   4.419   0.361  11.760 -0.1455 -0.4042  1.2900
 7811SOL    HW235070   4.559   0.386  11.728  1.6754 -1.3618 -0.8394
 7812SOL     OW35071   4.159   0.261   0.995 -0.1596  0.3183 -0.4611
 7812SOL    HW135072   4.137   0.354   1.003 -0.3829  0.2300 -0.0279
 7812SOL    HW235073   4.079   0.226   0.954  0.2226 -1.6395  0.4570
 7813SOL     OW35074   1.867   0.205  16.009 -0.4888 -0.1274 -0.1102
 7813SOL    HW135075   1.951   0.242  15.984 -0.8575  1.2422  0.6958
 7813SOL    HW235076   1.898   0.128  16.057 -2.0347 -0.3149  0.6048
 7814SOL     OW35077   4.716   4.691   2.576 -0.0771 -0.3348 -0.8470
 7814SOL    HW135078   4.710   0.008   2.499 -1.3134 -0.2011 -0.6509
 7814SOL    HW235079   0.052   4.731   2.621 -0.2876  0.2234 -1.0004
 7815SOL     OW35080   3.099   2.871   4.569  0.1195  0.6035 -0.1169
 7815SOL    HW135081   3.163   2.942   4.558 -0.2379  1.1080  1.1120
 7815SOL    HW235082   3.021   2.912   4.531 -0.5499 -1.7840 -1.3170
 7816SOL     OW35083   0.318   1.746   4.847 -0.2509 -0.3811 -0.3383
 7816SOL    HW135084   0.253   1.691   4.804 -1.6003 -0.8210  2.3095
 7816SOL    HW235085   0.265   1.795   4.909 -0.5156  2.6276 -2.9544
 7817SOL     OW35086   3.258   4.122   6.931 -0.1530 -0.0604 -0.4683
 7817SOL    HW135087   3.328   4.073   6.887  0.2481 -0.0345  0.1481
 7817SOL    HW235088   3.188   4.124   6.865 -0.7221 -0.4051  0.1245
 7818SOL     OW35089   3.220   4.039   1.764 -0.1801 -0.2148  0.5102
 7818SOL    HW135090   3.149   4.095   1.734  0.4741  0.8957  1.0485
 7818SOL    HW235091   3.255   4.086   1.839 -0.0718 -1.2578  1.1175
 7819SOL     OW35092   0.909   2.132   9.745 -0.1771 -0.0100  0.0752
 7819SOL    HW135093   0.898   2.065   9.677 -0.5291  1.9783 -1.8186
 7819SOL    HW235094   0.977   2.104   9.806 -1.9949 -2.3492  1.0418
 7820SOL     OW35095   2.812   2.176   5.067 -0.3162  0.0050  0.3477
 7820SOL    HW135096   2.880   2.222   5.019  2.4094 -3.3875  0.9663
 7820SOL    HW235097   2.847   2.088   5.049 -0.5655  0.3328 -1.6772
 7821SOL     OW35098   1.453   0.470   1.788  0.0101 -0.2161  0.1119
 7821SOL    HW135099   1.519   0.536   1.810  0.4546 -0.7018  0.2437
 7821SOL    HW235100   1.473   0.397   1.847 -0.7906 -0.5646 -0.0458
 7822SOL     OW35101   2.698   4.084   0.877 -0.4006 -0.0188  0.4465
 7822SOL    HW135102   2.715   4.081   0.971  0.8784  2.2751  0.3044
 7822SOL    HW235103   2.736   4.000   0.851  0.7249  0.3410  0.9272
 7823SOL     OW35104   3.532   0.440  11.756 -0.8153  0.3172 -0.6538
 7823SOL    HW135105   3.513   0.362  11.808  2.2885 -0.7113 -1.0478
 7823SOL    HW235106   3.556   0.497  11.830 -0.0261 -1.2948  0.3217
 7824SOL     OW35107   4.551   3.958   6.462 -0.0357 -0.4197 -0.5329
 7824SOL    HW135108   4.479   3.898   6.482 -0.5379  0.0708 -0.8363
 7824SOL    HW235109   4.612   3.943   6.533 -1.9274 -1.4567  0.8749
 7825SOL     OW35110   2.194   1.847  13.914  0.2181  0.4348 -0.3088
 7825SOL    HW135111   2.258   1.783  13.884 -0.2497 -0.4876  0.6781
 7825SOL    HW235112   2.112   1.798  13.916  0.3501  0.1535 -2.4089
 7826SOL     OW35113   1.081   4.194   6.617  0.5519 -0.2322  0.3322
 7826SOL    HW135114   1.133   4.264   6.577 -2.5513  2.2862  0.6937
 7826SOL    HW235115   1.145   4.175   6.686  0.6923 -1.3872 -0.1247
 7827SOL     OW35116   1.050   3.777  17.314  0.5443  0.2025 -0.5159
 7827SOL    HW135117   1.105   3.701  17.335 -1.1326 -0.9669 -0.3381
 7827SOL    HW235118   1.095   3.824  17.243  0.6876  1.0777  0.1548
 7828SOL     OW35119   0.406   2.593   7.321 -0.0994 -0.0246 -0.0265
 7828SOL    HW135120   0.361   2.509   7.320  2.1282 -1.2253  0.5587
 7828SOL    HW235121   0.358   2.632   7.393  1.5858  1.8325  0.0856
 7829SOL     OW35122   2.606   0.501   7.799 -0.6373 -0.1096 -0.1553
 7829SOL    HW135123   2.594   0.550   7.880  1.3911  0.8449 -0.4303
 7829SOL    HW235124   2.542   0.537   7.738  0.9546  0.2711 -1.5928
 7830SOL     OW35125   1.485   0.699  16.598  0.4941 -0.1841  0.3066
 7830SOL    HW135126   1.440   0.662  16.673  1.3360  0.6547  1.2223
 7830SOL    HW235127   1.490   0.617  16.548 -2.6759  0.4896 -1.0853
 7831SOL     OW35128   2.307   4.681   4.703 -0.2407  0.0033 -0.1110
 7831SOL    HW135129   2.230   4.627   4.684  0.1892 -1.0190  1.0238
 7831SOL    HW235130   2.303   0.002   4.628  1.5010  2.0763  1.4517
 7832SOL     OW35131   1.018   3.647   1.608 -0.5109  0.2654 -0.2264
 7832SOL    HW135132   1.025   3.742   1.617 -3.3230  0.6451 -2.2392
 7832SOL    HW235133   0.945   3.621   1.665  0.2228 -0.1638  0.5245
 7833SOL     OW35134   3.501   3.274   2.544 -0.5294 -0.4303 -0.1443
 7833SOL    HW135135   3.451   3.351   2.517  0.1463  0.4740  1.2069
 7833SOL    HW235136   3.441   3.238   2.609  1.1922 -2.0112  0.5838
 7834SOL     OW35137   4.116   3.309   8.998 -0.1430  0.0680 -0.2830
 7834SOL    HW135138   4.180   3.380   9.010  1.8660 -1.8905  0.5358
 7834SOL    HW235139   4.031   3.342   9.025 -0.2662 -1.1204  0.7905
 7835SOL     OW35140   2.154   4.383   3.751  0.6989 -0.0241 -0.2325
 7835SOL    HW135141   2.159   4.355   3.659  0.1324 -0.3328 -0.1680
 7835SOL    HW235142   2.070   4.342   3.773  0.4828 -0.2031 -1.3762
 7836SOL     OW35143   2.215   1.620   2.368  0.4505 -0.0548 -0.7692
 7836SOL    HW135144   2.263   1.679   2.310  0.4854  1.1363  0.4610
 7836SOL    HW235145   2.268   1.541   2.356 -0.1006 -0.1630 -2.5550
 7837SOL     OW35146   1.117   2.742   3.987  0.5664  0.6211 -0.2181
 7837SOL    HW135147   1.113   2.749   3.891 -0.9732  0.5695 -0.1588
 7837SOL    HW235148   1.085   2.827   4.015 -3.5440 -1.6487  1.8367
 7838SOL     OW35149   0.955   3.887   7.405  0.6070 -0.4638 -0.6393
 7838SOL    HW135150   0.986   3.977   7.415 -1.6272  0.4177 -1.6817
 7838SOL    HW235151   0.979   3.853   7.491  0.1123 -1.4102 -0.8814
 7839SOL     OW35152   2.057   2.704  14.535 -0.1882  0.1925 -0.2472
 7839SOL    HW135153   2.093   2.617  14.551  0.1223  0.7231  1.9650
 7839SOL    HW235154   2.038   2.698  14.441  0.5895 -0.8243 -0.3287
 7840SOL     OW35155   3.999   2.407   2.455  0.5011 -0.0482 -0.2721
 7840SOL    HW135156   4.062   2.478   2.441 -0.3815  0.6492 -0.6975
 7840SOL    HW235157   4.065   2.338   2.457  1.7065  1.0740 -1.0168
 7841SOL     OW35158   2.823   1.346   6.765  0.2668 -0.0023 -0.2129
 7841SOL    HW135159   2.737   1.384   6.780  0.0460 -0.8320  0.5450
 7841SOL    HW235160   2.867   1.431   6.753 -0.7675  0.3234 -1.7751
 7842SOL     OW35161   1.030   0.393   7.468  0.1140  0.2867 -0.3362
 7842SOL    HW135162   1.063   0.480   7.492  1.9807 -1.1519  2.3633
 7842SOL    HW235163   1.050   0.389   7.375  0.8737 -0.5665 -0.1381
 7843SOL     OW35164   3.197   1.648   7.947  0.0303  0.3928  0.1686
 7843SOL    HW135165   3.277   1.599   7.929 -0.8782 -0.9554 -0.2516
 7843SOL    HW235166   3.173   1.686   7.862 -2.3353  1.0848  1.1442
 7844SOL     OW35167   3.661   3.147   3.697 -0.2747 -1.0346  0.4565
 7844SOL    HW135168   3.667   3.188   3.784 -0.4202 -1.0328  0.4660
 7844SOL    HW235169   3.596   3.080   3.715 -0.0891 -0.6904  2.4907
 7845SOL     OW35170   0.430   4.587   5.695 -0.1723  0.3655  0.3317
 7845SOL    HW135171   0.519   4.557   5.675 -0.7095 -2.4809  2.1032
 7845SOL    HW235172   0.397   4.587   5.605  0.4680  1.5116  0.1010
 7846SOL     OW35173   2.644   0.576   6.959  0.0703  0.4588 -0.3016
 7846SOL    HW135174   2.711   0.516   6.993 -0.5817  1.4181  2.6823
 7846SOL    HW235175   2.576   0.583   7.026 -1.0499 -0.4637 -1.3596
 7847SOL     OW35176   2.937   0.585   5.027  0.2596 -0.0229 -0.1182
 7847SOL    HW135177   2.924   0.527   5.102  3.4213  0.0824  0.5313
 7847SOL    HW235178   2.944   0.518   4.959 -1.9462 -0.2353 -0.1236
 7848SOL     OW35179   1.962   4.110  12.416 -0.1081 -0.0277  0.4700
 7848SOL    HW135180   1.875   4.123  12.379  0.0858 -0.0377  0.0136
 7848SOL    HW235181   1.939   4.095  12.508  0.2888  0.2810  0.6191
 7849SOL     OW35182   2.616   0.483  13.580  0.1084  0.8899  0.5291
 7849SOL    HW135183   2.652   0.567  13.553  2.5171 -0.4179 -0.2978
 7849SOL    HW235184   2.640   0.490  13.672 -0.9349  1.5128  0.7589
 7850SOL     OW35185   3.569   0.708  12.548  0.5103 -0.4513 -0.6072
 7850SOL    HW135186   3.570   0.702  12.453 -2.1609 -0.5175 -0.6289
 7850SOL    HW235187   3.515   0.785  12.567  0.4525 -1.2003  2.3293
 7851SOL     OW35188   2.993   3.419  10.326  0.5586  0.1162  0.6332
 7851SOL    HW135189   3.043   3.488  10.283 -1.5776  1.0754 -0.3526
 7851SOL    HW235190   2.999   3.348  10.262  0.3551  1.0400 -0.4131
 7852SOL     OW35191   0.687   1.239   9.471  0.1132  0.1621  0.2547
 7852SOL    HW135192   0.648   1.152   9.478  0.8514  0.1924  4.4554
 7852SOL    HW235193   0.730   1.249   9.556  0.6616 -0.6657  0.0706
 7853SOL     OW35194   3.202   2.815  13.988  0.2135 -0.2796  0.7599
 7853SOL    HW135195   3.226   2.908  13.991 -1.9954  0.2392  2.3915
 7853SOL    HW235196   3.279   2.786  13.940  0.2421 -0.5265  0.9562
 7854SOL     OW35197   1.618   3.629   4.840 -0.0335 -0.1462  0.3286
 7854SOL    HW135198   1.659   3.690   4.778 -0.3408 -2.2560 -1.9597
 7854SOL    HW235199   1.680   3.558   4.858  0.1090 -0.2876 -0.7150
 7855SOL     OW35200   0.504   3.658  13.404  0.0432 -0.0263  0.2251
 7855SOL    HW135201   0.478   3.568  13.425 -2.1948  0.3118 -1.1029
 7855SOL    HW235202   0.594   3.646  13.374  0.5666 -0.1079  1.7843
 7856SOL     OW35203   0.978   4.308   9.562 -0.3061  0.5714  0.0505
 7856SOL    HW135204   1.063   4.331   9.600 -1.0228  1.1099  1.2824
 7856SOL    HW235205   0.920   4.342   9.629 -1.5775  0.2680 -0.8743
 7857SOL     OW35206   1.946   1.274   8.805  0.0110  0.3455  0.2420
 7857SOL    HW135207   1.986   1.360   8.793 -1.2154  0.9678  0.5531
 7857SOL    HW235208   2.014   1.221   8.764 -1.1408  0.4163 -1.7565
 7858SOL     OW35209   3.940   3.116  10.790 -0.1072  0.5151 -0.4304
 7858SOL    HW135210   3.933   3.088  10.699 -0.1134  2.3133 -0.9832
 7858SOL    HW235211   3.905   3.039  10.835  0.2130  1.6463  1.8105
 7859SOL     OW35212   1.994   1.785   2.572 -0.2470 -0.1569 -0.0269
 7859SOL    HW135213   2.022   1.700   2.537  1.1653 -0.6295  2.2241
 7859SOL    HW235214   2.080   1.817   2.599  0.3406 -1.8118  0.0690
 7860SOL     OW35215   2.407   2.691   7.263  0.1074 -0.1584 -0.3979
 7860SOL    HW135216   2.501   2.699   7.247  0.1592 -1.3321 -0.7218
 7860SOL    HW235217   2.420   2.672   7.356 -0.8943  0.8949 -0.0389
 7861SOL     OW35218   2.826   3.268  16.980  0.4325  0.5881  0.5694
 7861SOL    HW135219   2.846   3.178  17.004 -0.2380  0.1264 -0.6409
 7861SOL    HW235220   2.902   3.316  17.013  1.3088  0.5977 -1.4497
 7862SOL     OW35221   4.585   3.274   5.516  0.2436 -0.4454  0.3698
 7862SOL    HW135222   4.559   3.210   5.450  0.8130  0.8218 -1.0933
 7862SOL    HW235223   4.638   3.329   5.458  0.3225  0.6766  1.4900
 7863SOL     OW35224   2.459   1.777   3.703 -0.0363  0.1234 -1.1204
 7863SOL    HW135225   2.542   1.825   3.700  0.3184 -0.4285  0.2311
 7863SOL    HW235226   2.392   1.824   3.653 -0.7296 -0.6512 -0.9109
 7864SOL     OW35227   0.426   3.693   9.503  0.0068  0.5498  0.5742
 7864SOL    HW135228   0.513   3.662   9.527  0.0718 -0.0858 -0.5149
 7864SOL    HW235229   0.433   3.788   9.517 -2.1115  0.4680  2.0792
 7865SOL     OW35230   1.443   3.413   8.259 -0.1889  0.3795  0.7182
 7865SOL    HW135231   1.397   3.488   8.223 -0.0736 -0.7792 -1.8583
 7865SOL    HW235232   1.501   3.461   8.318  1.2075 -2.2904  1.5334
 7866SOL     OW35233   3.499   2.501   3.072  0.5797  0.6264 -0.3531
 7866SOL    HW135234   3.518   2.594   3.064 -0.1787  0.5472 -3.1008
 7866SOL    HW235235   3.476   2.496   2.979 -0.6586  2.2055 -0.1322
 7867SOL     OW35236   4.031   1.903   5.491  0.0310 -0.4719 -0.6156
 7867SOL    HW135237   4.029   1.954   5.572 -1.5225 -2.2734  0.4698
 7867SOL    HW235238   4.060   1.975   5.435  4.6237 -1.2227  0.8200
 7868SOL     OW35239   0.007   2.371   7.963 -0.5072 -1.0514 -0.7712
 7868SOL    HW135240   4.737   2.277   7.980 -0.2853 -1.1942 -1.4706
 7868SOL    HW235241   4.685   2.403   8.030  0.7365 -0.6311  0.1652
 7869SOL     OW35242   4.294   3.337   7.417  0.6260 -0.0718 -0.1684
 7869SOL    HW135243   4.249   3.381   7.345 -2.2537 -3.8762 -0.7047
 7869SOL    HW235244   4.251   3.252   7.412  0.8750 -0.1956 -0.2295
 7870SOL     OW35245   0.201   2.457   6.550  0.1211 -0.2137 -0.0715
 7870SOL    HW135246   0.148   2.510   6.491 -2.4548  1.6800  3.8735
 7870SOL    HW235247   0.170   2.371   6.521 -1.1827 -0.1788  1.2264
 7871SOL     OW35248   1.349   4.268  10.187 -0.6029  0.6496  0.1579
 7871SOL    HW135249   1.278   4.244  10.127  0.9637 -1.5857 -0.8033
 7871SOL    HW235250   1.384   4.349  10.149 -1.8290  1.1037  0.0009
 7872SOL     OW35251   2.061   2.074   5.947 -0.1745 -0.9758 -0.2386
 7872SOL    HW135252   2.050   1.980   5.959 -2.9899 -0.3535  2.0657
 7872SOL    HW235253   2.010   2.084   5.867  2.2136  1.1758 -1.5026
 7873SOL     OW35254   2.910   1.720   3.249 -0.0428  0.7448  0.1188
 7873SOL    HW135255   2.907   1.651   3.315  3.1318  1.3258  0.8440
 7873SOL    HW235256   2.971   1.678   3.189 -0.6109 -1.4777  1.1017
 7874SOL     OW35257   0.281   3.368   5.671 -0.6206  0.0213 -0.1586
 7874SOL    HW135258   0.210   3.357   5.734 -2.8161  3.5279 -1.9438
 7874SOL    HW235259   0.258   3.440   5.612  0.5260  0.3779 -0.1770
 7875SOL     OW35260   3.505   0.421   5.900  0.3917 -0.1115 -0.3283
 7875SOL    HW135261   3.496   0.340   5.851  3.1902  0.3444 -1.5682
 7875SOL    HW235262   3.562   0.460   5.835  1.5753  0.1678  0.8697
 7876SOL     OW35263   3.157   1.039   9.546  0.1924  0.0575  0.4454
 7876SOL    HW135264   3.113   1.008   9.625 -0.0504 -1.6584 -0.3714
 7876SOL    HW235265   3.172   1.131   9.571 -1.0729  0.1587  0.8071
 7877SOL     OW35266   0.766   0.300   7.332  0.4126 -0.4043  0.0431
 7877SOL    HW135267   0.860   0.319   7.330  0.2322  0.7274  2.1759
 7877SOL    HW235268   0.748   0.250   7.253 -2.9091 -0.7753  1.0414
 7878SOL     OW35269   1.654   1.135   2.007 -0.0203 -0.2788 -0.9240
 7878SOL    HW135270   1.652   1.099   1.918  0.9886  1.3369 -1.5894
 7878SOL    HW235271   1.673   1.054   2.055 -2.1297 -0.8608 -1.0484
 7879SOL     OW35272   1.882   3.828   0.671 -0.0884 -0.7718  0.4465
 7879SOL    HW135273   1.973   3.805   0.651  0.6063  1.7537  0.7231
 7879SOL    HW235274   1.890   3.909   0.721 -2.3452  0.3693 -1.0611
 7880SOL     OW35275   1.244   3.768   9.848 -0.4258  0.5947 -0.6693
 7880SOL    HW135276   1.238   3.723   9.764  2.4683  1.6997 -1.4935
 7880SOL    HW235277   1.193   3.712   9.906  0.4797  1.7270  1.2481
 7881SOL     OW35278   2.291   3.741   8.027  0.2553 -0.2656 -0.1191
 7881SOL    HW135279   2.302   3.772   8.117  2.3073  0.3960 -0.6023
 7881SOL    HW235280   2.211   3.789   8.005  0.0285 -0.5676  0.0544
 7882SOL     OW35281   2.416   0.211   5.343  0.0973  0.3034  1.1057
 7882SOL    HW135282   2.346   0.244   5.287  0.8344 -1.0140 -0.5863
 7882SOL    HW235283   2.374   0.211   5.429  0.2735  2.0165  1.1984
 7883SOL     OW35284   4.191   3.634   3.796 -0.1673  0.4099  0.1411
 7883SOL    HW135285   4.279   3.602   3.775  1.3924  2.7946  3.1415
 7883SOL    HW235286   4.175   3.705   3.734 -2.3124 -0.1149  0.0874
 7884SOL     OW35287   2.700   4.677   2.562  0.1858 -0.4975  0.3385
 7884SOL    HW135288   2.753   0.005   2.606 -0.6724  0.2871  0.1834
 7884SOL    HW235289   2.765   4.617   2.525  0.9972  0.7570 -0.2786
 7885SOL     OW35290   0.454   0.812  15.427  0.2747 -0.1551  0.0359
 7885SOL    HW135291   0.377   0.806  15.483 -0.9074  2.6036 -1.2639
 7885SOL    HW235292   0.444   0.723  15.395  0.7756  0.1423 -0.9460
 7886SOL     OW35293   1.160   2.346   6.797 -0.5306  0.0768  0.4409
 7886SOL    HW135294   1.154   2.441   6.791 -1.2851  0.0274  0.4556
 7886SOL    HW235295   1.147   2.337   6.892  0.3484 -0.0385  0.5489
 7887SOL     OW35296   4.600   2.714   4.567 -0.6141  0.2432 -0.8140
 7887SOL    HW135297   4.601   2.685   4.475  1.5284 -0.0292 -0.7171
 7887SOL    HW235298   4.684   2.760   4.574 -0.7219 -0.0318  1.9939
 7888SOL     OW35299   0.321   3.392   8.414  0.2463  0.5687 -0.7679
 7888SOL    HW135300   0.289   3.382   8.324 -0.5468  2.2013 -0.6511
 7888SOL    HW235301   0.380   3.318   8.432 -0.4366 -0.2183 -1.7595
 7889SOL     OW35302   0.514   0.805   7.451  0.3306  0.3893 -0.9211
 7889SOL    HW135303   0.583   0.747   7.418  2.0723  0.7817  2.1217
 7889SOL    HW235304   0.442   0.741   7.452  1.9675 -1.3928  0.8486
 7890SOL     OW35305   2.524   3.208   3.465  0.1160  0.3533  0.0628
 7890SOL    HW135306   2.459   3.170   3.524  1.0923 -0.3437  0.6898
 7890SOL    HW235307   2.580   3.131   3.451  0.7296  0.7251  0.4397
 7891SOL     OW35308   1.367   1.945   6.912 -0.7216 -0.0601 -0.0123
 7891SOL    HW135309   1.373   1.996   6.993 -3.1589  2.0904 -1.1977
 7891SOL    HW235310   1.364   2.014   6.847 -1.8905 -2.0600 -2.0790
 7892SOL     OW35311   4.626   0.402  10.812  0.0855 -0.0470  0.3235
 7892SOL    HW135312   4.537   0.402  10.777 -0.6116  1.6612  2.0914
 7892SOL    HW235313   4.605   0.430  10.901  0.9354 -0.0968  0.5378
 7893SOL     OW35314   0.868   4.630   7.292  0.0386  0.0444  0.4504
 7893SOL    HW135315   0.890   4.711   7.247 -0.5241 -1.0330 -1.7803
 7893SOL    HW235316   0.851   4.577   7.214  1.0779 -0.2753  0.4380
 7894SOL     OW35317   2.862   0.425   7.062  0.1611 -0.0247 -0.5182
 7894SOL    HW135318   2.859   0.395   7.153 -1.9799 -1.0057 -0.9058
 7894SOL    HW235319   2.926   0.495   7.076 -0.1170  0.1328 -0.0390
 7895SOL     OW35320   1.399   2.096   3.252 -0.2741 -0.3037  0.2440
 7895SOL    HW135321   1.492   2.073   3.253 -0.1623  0.1554  0.3561
 7895SOL    HW235322   1.355   2.042   3.187 -0.7081 -1.0033  1.1085
 7896SOL     OW35323   1.355   0.857   6.026 -0.2285 -0.1763  0.1852
 7896SOL    HW135324   1.297   0.791   5.987  1.5426 -1.4980 -0.1885
 7896SOL    HW235325   1.303   0.937   6.022 -0.7967 -0.4505  1.8275
 7897SOL     OW35326   0.640   2.059   8.793 -0.3059  0.0170 -0.1836
 7897SOL    HW135327   0.651   2.022   8.881  1.0718 -0.4116 -0.5403
 7897SOL    HW235328   0.545   2.067   8.784 -0.1142  1.8401 -0.6050
 7898SOL     OW35329   0.420   1.949   5.250 -0.1729  0.2034 -0.0541
 7898SOL    HW135330   0.489   1.968   5.314  0.4223 -1.3779 -0.2168
 7898SOL    HW235331   0.465   1.988   5.175 -0.5566  4.4349  1.8949
 7899SOL     OW35332   1.011   1.577   8.294  0.2582  0.4685  0.5810
 7899SOL    HW135333   1.033   1.493   8.252 -1.0964  0.3678  0.0611
 7899SOL    HW235334   1.093   1.598   8.338  0.9149  1.2884 -1.0600
 7900SOL     OW35335   1.440   1.100  13.897  0.4559  0.4235 -0.0559
 7900SOL    HW135336   1.453   1.154  13.819  2.2099 -0.0562 -0.0985
 7900SOL    HW235337   1.393   1.026  13.858  1.1132  0.1483 -0.3256
 7901SOL     OW35338   4.185   2.912   5.214  0.6578  0.0601  0.3922
 7901SOL    HW135339   4.151   2.917   5.124  2.1614 -1.8358 -0.2604
 7901SOL    HW235340   4.134   2.839   5.247  0.9014 -0.0932  0.4279
 7902SOL     OW35341   2.146   2.747  17.694 -0.0131 -0.3474 -0.0482
 7902SOL    HW135342   2.131   2.795   0.023 -0.1882  0.9710 -0.8588
 7902SOL    HW235343   2.230   2.783  17.665  0.3153  0.2040  1.5610
 7903SOL     OW35344   0.672   1.299   6.236 -0.1764  0.0211  0.4655
 7903SOL    HW135345   0.758   1.284   6.276  0.3832  1.3917 -0.2215
 7903SOL    HW235346   0.690   1.362   6.166 -1.9840 -0.1323 -0.1362
 7904SOL     OW35347   3.195   2.168  12.080 -0.4558  0.3998 -0.2008
 7904SOL    HW135348   3.146   2.161  12.162  2.1328 -0.6590  1.2762
 7904SOL    HW235349   3.172   2.258  12.060  2.4789  1.7337  2.2846
 7905SOL     OW35350   2.299   3.786  17.716  0.0081 -0.0939 -0.2038
 7905SOL    HW135351   2.252   3.743   0.035 -0.8259 -0.8998 -1.2125
 7905SOL    HW235352   2.384   3.751  17.742 -0.0020 -0.4719 -0.6648
 7906SOL     OW35353   4.352   1.073  17.064 -0.0637 -0.5943  0.5945
 7906SOL    HW135354   4.288   1.021  17.114 -2.6237  2.2365  0.1954
 7906SOL    HW235355   4.364   1.005  16.998 -1.7567 -1.0517  0.7760
 7907SOL     OW35356   0.555   0.738   6.436  0.0889  0.3535  0.4142
 7907SOL    HW135357   0.600   0.778   6.510 -1.8672 -0.4773  2.0494
 7907SOL    HW235358   0.501   0.680   6.490 -0.3266  0.3100 -0.0436
 7908SOL     OW35359   1.837   0.268   3.650 -0.9045 -0.2959 -0.4620
 7908SOL    HW135360   1.926   0.303   3.654 -1.1561  0.4196 -1.1050
 7908SOL    HW235361   1.826   0.258   3.745 -1.2909  0.4001 -0.4294
 7909SOL     OW35362   2.607   2.161   6.751  0.7922  0.0948  0.2911
 7909SOL    HW135363   2.668   2.174   6.824  1.4470  0.6521 -0.3532
 7909SOL    HW235364   2.522   2.142   6.790  1.6492  2.4228  3.3387
 7910SOL     OW35365   2.233   3.301   4.265  0.0183  0.6076 -0.5608
 7910SOL    HW135366   2.170   3.315   4.194  0.9988  1.0327 -1.3566
 7910SOL    HW235367   2.216   3.209   4.286  2.9321  0.0873 -0.4970
 7911SOL     OW35368   1.447   4.233   2.437  0.6260 -0.1235  0.5035
 7911SOL    HW135369   1.455   4.148   2.480  0.6967 -0.0526  0.6292
 7911SOL    HW235370   1.487   4.296   2.496 -1.8109  0.8609  1.1222
 7912SOL     OW35371   3.833   4.195   6.745 -0.1036  0.1790  0.7666
 7912SOL    HW135372   3.888   4.247   6.686 -1.7114  0.9890 -0.0381
 7912SOL    HW235373   3.744   4.198   6.708 -0.5223  0.8594  1.8471
 7913SOL     OW35374   1.993   0.329   8.471  0.2014 -0.6921 -0.2439
 7913SOL    HW135375   2.087   0.337   8.483  0.4593 -2.3115 -1.1792
 7913SOL    HW235376   1.981   0.235   8.462 -3.7646 -0.1679 -0.6518
 7914SOL     OW35377   0.504   0.064   2.780  0.4062 -0.2498  0.6256
 7914SOL    HW135378   0.467   0.044   2.866 -0.8493  0.4215  0.2372
 7914SOL    HW235379   0.514   4.712   2.754 -1.6815 -0.1861 -0.3090
 7915SOL     OW35380   1.280   1.323  14.756 -0.0619 -0.3758  0.2200
 7915SOL    HW135381   1.370   1.330  14.789  0.3889 -4.6214 -0.1428
 7915SOL    HW235382   1.253   1.232  14.771  0.2620 -0.9341 -2.5355
 7916SOL     OW35383   0.453   3.048   1.525  0.0001 -0.3562 -0.7703
 7916SOL    HW135384   0.417   3.110   1.588 -1.6904 -1.0470 -1.0565
 7916SOL    HW235385   0.410   2.963   1.539 -0.6720  0.1987  0.5610
 7917SOL     OW35386   3.623   4.281   2.282  0.2374 -0.0135 -0.1301
 7917SOL    HW135387   3.715   4.303   2.268  0.5750 -1.2334  0.2037
 7917SOL    HW235388   3.619   4.263   2.376  0.0117 -1.4238 -0.4150
 7918SOL     OW35389   1.166   3.201   6.650 -0.2989 -0.1597  0.6081
 7918SOL    HW135390   1.233   3.238   6.593 -1.6247  0.7659 -0.3562
 7918SOL    HW235391   1.118   3.153   6.582  0.4840  1.0411 -0.8015
 7919SOL     OW35392   4.077   1.190   3.011 -0.1366  0.2201 -0.3671
 7919SOL    HW135393   4.077   1.118   3.074  0.1661  0.7975  0.2960
 7919SOL    HW235394   4.158   1.177   2.963 -2.1971 -0.9924 -3.4999
 7920SOL     OW35395   3.370   2.629   0.040 -0.2451  0.0954  0.0170
 7920SOL    HW135396   3.309   2.664  17.727 -2.3465 -0.4128  1.7249
 7920SOL    HW235397   3.360   2.534   0.036  2.1796 -0.1597  0.1670
 7921SOL     OW35398   1.632   3.193   3.611 -0.0236  0.4332 -0.2232
 7921SOL    HW135399   1.643   3.100   3.593  0.2335  0.1878  1.2367
 7921SOL    HW235400   1.542   3.201   3.579  0.1993 -1.5773 -1.3839
 7922SOL     OW35401   3.843   2.887  10.841  0.4286 -0.8745 -0.1276
 7922SOL    HW135402   3.862   2.820  10.775 -0.4653 -0.3911 -0.8743
 7922SOL    HW235403   3.774   2.839  10.886 -0.0286 -1.0883 -1.0455
 7923SOL     OW35404   1.559   4.160  11.175 -0.0620 -0.1881 -0.1249
 7923SOL    HW135405   1.589   4.242  11.136 -0.1883  0.0276  0.2292
 7923SOL    HW235406   1.564   4.183  11.268 -0.6342 -1.6698  0.2711
 7924SOL     OW35407   2.590   0.218   2.514 -0.6297  0.1816 -0.0159
 7924SOL    HW135408   2.628   0.179   2.435  0.2604  1.2744 -0.1274
 7924SOL    HW235409   2.628   0.159   2.580 -3.0924 -3.9561 -2.2558
 7925SOL     OW35410   1.614   1.571  17.722 -0.9993 -0.2155 -0.1808
 7925SOL    HW135411   1.612   1.623  17.641 -1.6997  1.9905  1.2689
 7925SOL    HW235412   1.695   1.604   0.007  0.3311 -1.7508 -1.6833
 7926SOL     OW35413   4.276   3.009   4.913  0.3364  0.4744  0.6675
 7926SOL    HW135414   4.367   2.984   4.927  0.1764  0.0397  0.9361
 7926SOL    HW235415   4.229   2.928   4.934 -0.3472  0.6088 -0.3305
 7927SOL     OW35416   3.278   2.578   6.071 -0.5613 -0.4633  0.2927
 7927SOL    HW135417   3.244   2.614   5.989 -0.2551 -0.4008  0.1951
 7927SOL    HW235418   3.239   2.490   6.067 -2.8922  0.5647  0.6267
 7928SOL     OW35419   3.319   4.642   2.528 -0.3433 -0.5713 -0.7960
 7928SOL    HW135420   3.309   4.572   2.592 -0.8633  0.8627  0.6923
 7928SOL    HW235421   3.316   4.591   2.447 -0.3199 -1.8283 -0.0148
 7929SOL     OW35422   3.398   3.588  15.358  0.5705 -0.3483  0.7541
 7929SOL    HW135423   3.435   3.600  15.445  0.8752 -0.6819  0.6684
 7929SOL    HW235424   3.340   3.515  15.377 -2.0167  1.1311 -1.4895
 7930SOL     OW35425   4.442   4.280   2.495  0.3832  0.6364 -0.2062
 7930SOL    HW135426   4.430   4.353   2.434  0.4438  1.1460  0.3854
 7930SOL    HW235427   4.498   4.307   2.569 -0.0462  0.9759 -0.0037
 7931SOL     OW35428   1.130   1.326  13.001 -0.0982 -0.1244 -0.3214
 7931SOL    HW135429   1.217   1.339  13.038  0.0445 -1.3640 -0.2282
 7931SOL    HW235430   1.148   1.250  12.945  1.5222  0.0566 -0.0426
 7932SOL     OW35431   1.572   3.708   8.373 -0.4005  0.1229 -0.2071
 7932SOL    HW135432   1.492   3.756   8.395  0.8525  2.0079  0.2752
 7932SOL    HW235433   1.595   3.658   8.452  1.5084 -1.3254 -1.6996
 7933SOL     OW35434   1.644   3.254   1.897 -0.0224  0.2711 -0.4939
 7933SOL    HW135435   1.553   3.240   1.926  0.7374 -0.1923  1.6919
 7933SOL    HW235436   1.672   3.330   1.949  2.0555 -2.3516  2.1903
 7934SOL     OW35437   3.561   4.032   5.295  0.1328  0.2609  0.2066
 7934SOL    HW135438   3.619   4.034   5.218 -0.6157  0.0288 -0.3583
 7934SOL    HW235439   3.522   3.947   5.274  0.5200 -0.2440  1.5412
 7935SOL     OW35440   1.857   2.045   9.291  0.8251 -0.1387 -0.3657
 7935SOL    HW135441   1.792   2.014   9.355  0.4834 -1.0677 -1.1604
 7935SOL    HW235442   1.808   2.109   9.239 -1.6411 -0.4916  1.5412
 7936SOL     OW35443   1.962   3.403   6.947  0.2743 -0.1386 -0.0257
 7936SOL    HW135444   1.874   3.406   6.908 -0.0055 -0.5026  0.5817
 7936SOL    HW235445   1.968   3.310   6.969 -2.6336 -0.6858 -1.4508
 7937SOL     OW35446   0.938   4.482  16.285  0.2753 -0.4189 -0.1495
 7937SOL    HW135447   0.893   4.424  16.346 -2.6436 -0.0664 -1.9395
 7937SOL    HW235448   0.939   4.558  16.344  1.4373 -0.6460  0.1187
 7938SOL     OW35449   0.308   3.473   8.860 -0.0683  0.4847  0.1919
 7938SOL    HW135450   0.215   3.459   8.839 -0.0311  0.6161 -0.0634
 7938SOL    HW235451   0.329   3.524   8.782  0.0005  0.2265  0.0430
 7939SOL     OW35452   1.729   2.647  10.925 -0.0866  0.0174 -0.4351
 7939SOL    HW135453   1.731   2.653  11.020  0.3655 -0.7890 -0.3970
 7939SOL    HW235454   1.753   2.738  10.906 -1.2035  0.4345  0.1308
 7940SOL     OW35455   1.368   2.062   9.904  0.1066  0.0120  0.2343
 7940SOL    HW135456   1.445   2.011   9.882 -0.5234 -0.8299 -0.0110
 7940SOL    HW235457   1.330   2.070   9.816 -0.5779 -1.4212  0.4051
 7941SOL     OW35458   4.007   0.353   4.016  1.2138  0.2300  0.0776
 7941SOL    HW135459   4.036   0.360   4.107  0.1318  0.3361  0.4190
 7941SOL    HW235460   4.001   0.447   3.998  2.9644  0.7051  2.0429
 7942SOL     OW35461   2.155   2.639   3.125  0.8352  0.2205 -0.6956
 7942SOL    HW135462   2.095   2.572   3.091  1.4392 -0.7143  0.0423
 7942SOL    HW235463   2.142   2.711   3.065  2.1026  2.7564  2.0716
 7943SOL     OW35464   0.114   3.811   5.571 -0.5863 -0.2837 -0.0851
 7943SOL    HW135465   0.168   3.887   5.590 -0.7145 -0.3629  0.5953
 7943SOL    HW235466   0.095   3.793   5.663 -0.0309 -1.3782 -0.1801
 7944SOL     OW35467   2.672   4.338   6.642 -0.6384  0.0938 -0.7215
 7944SOL    HW135468   2.589   4.291   6.650 -0.6517  0.0632 -1.0495
 7944SOL    HW235469   2.713   4.256   6.618 -1.9202  0.1360 -3.0649
 7945SOL     OW35470   2.938   3.004   2.049  0.0891  0.4282  0.5415
 7945SOL    HW135471   2.954   2.911   2.063  0.3573  0.2628 -0.8960
 7945SOL    HW235472   3.017   3.031   2.003  0.3491 -3.0928 -1.0484
 7946SOL     OW35473   1.662   1.827   6.024 -0.0245 -0.3930  0.0273
 7946SOL    HW135474   1.623   1.740   6.035  0.0655 -0.2911  1.1046
 7946SOL    HW235475   1.589   1.876   5.987 -1.3229 -1.8554  0.6658
 7947SOL     OW35476   1.368   2.521   0.786  0.1351 -0.2248  0.0484
 7947SOL    HW135477   1.285   2.549   0.826  0.7299  0.0128  1.1273
 7947SOL    HW235478   1.365   2.531   0.691  1.5950 -0.7155 -0.0546
 7948SOL     OW35479   0.021   0.003   4.231  1.1235  0.0545  0.1566
 7948SOL    HW135480   0.088   0.014   4.163 -0.2134 -2.0249 -1.5145
 7948SOL    HW235481   0.006   0.096   4.247 -1.9068 -0.4734  0.3427
 7949SOL     OW35482   1.392   0.531   4.225 -0.7989 -0.2226  0.0311
 7949SOL    HW135483   1.412   0.613   4.272 -0.9965 -0.1716  0.0230
 7949SOL    HW235484   1.466   0.526   4.164  0.0841 -3.0690  1.3800
 7950SOL     OW35485   0.925   3.824   3.385  0.4777  0.5519 -1.0690
 7950SOL    HW135486   0.832   3.806   3.372  0.8421 -1.0825 -1.2881
 7950SOL    HW235487   0.920   3.896   3.449  1.6919 -0.6912  0.4292
 7951SOL     OW35488   1.266   0.504  17.631 -0.2334  0.0829  0.4501
 7951SOL    HW135489   1.348   0.524  17.677 -0.6671  0.6874  0.9563
 7951SOL    HW235490   1.238   0.425  17.676  3.9486 -0.8886  1.3933
 7952SOL     OW35491   2.395   0.227   3.913  0.3646  0.3315 -0.5689
 7952SOL    HW135492   2.325   0.285   3.940  0.1305 -0.2051 -0.0177
 7952SOL    HW235493   2.426   0.287   3.846  0.1843  0.5645 -0.4422
 7953SOL     OW35494   1.981   2.303   5.166 -0.1532 -0.1573  0.0033
 7953SOL    HW135495   2.047   2.339   5.106  1.4523  1.1230  2.5112
 7953SOL    HW235496   1.897   2.327   5.127 -0.0876  0.8488  0.4724
 7954SOL     OW35497   0.178   1.842   5.279  0.0144  0.7488  0.3980
 7954SOL    HW135498   0.270   1.868   5.286  0.4549 -1.1478  1.8764
 7954SOL    HW235499   0.134   1.907   5.333 -2.3234 -1.5752  1.2789
 7955SOL     OW35500   4.357   4.657  16.052 -0.5652 -0.1908  0.0882
 7955SOL    HW135501   4.275   4.679  16.008  1.0171  1.3183 -2.0808
 7955SOL    HW235502   4.354   4.703  16.136 -2.5265  0.8130 -0.5177
 7956SOL     OW35503   3.295   1.269   9.659  0.3771  0.1955  0.1174
 7956SOL    HW135504   3.347   1.334   9.705  0.8775 -0.9100  1.1265
 7956SOL    HW235505   3.284   1.327   9.584  0.7857  0.8354  0.5619
 7957SOL     OW35506   1.546   2.947   8.782  0.7567 -0.0602  1.2321
 7957SOL    HW135507   1.542   3.032   8.738  1.3180  0.0313  1.3624
 7957SOL    HW235508   1.628   2.954   8.830  2.0798  0.0587 -1.0868
 7958SOL     OW35509   4.520   4.366   2.120 -0.1285  0.4570  0.2830
 7958SOL    HW135510   4.476   4.281   2.112  0.3975  0.4138 -2.3184
 7958SOL    HW235511   4.473   4.395   2.198  1.8835 -0.4730  1.8310
 7959SOL     OW35512   4.314   3.251   7.121 -0.4391  0.5882  0.2840
 7959SOL    HW135513   4.402   3.284   7.137  0.1939 -1.3106  0.6925
 7959SOL    HW235514   4.313   3.218   7.031 -2.2990  0.1597  0.4538
 7960SOL     OW35515   2.561   1.661   8.025 -0.4091  0.0298  0.1979
 7960SOL    HW135516   2.484   1.658   8.082  0.0281 -0.8332  0.7365
 7960SOL    HW235517   2.612   1.588   8.060 -1.8655 -0.7781  0.6119
 7961SOL     OW35518   4.362   0.735   6.862  0.0493 -0.3004 -0.6011
 7961SOL    HW135519   4.401   0.775   6.784  1.7446 -2.7888 -1.0329
 7961SOL    HW235520   4.328   0.662   6.810  0.0824  0.0607 -1.1322
 7962SOL     OW35521   1.331   4.630  14.279 -0.1657 -0.6080  0.3715
 7962SOL    HW135522   1.304   4.544  14.244 -1.4843 -0.0395 -0.0200
 7962SOL    HW235523   1.335   4.686  14.201 -1.9315 -1.5173 -0.3973
 7963SOL     OW35524   4.660   3.170   4.473 -0.1874  0.4197  0.0272
 7963SOL    HW135525   4.683   3.089   4.426  1.4895  0.4452  0.7985
 7963SOL    HW235526   0.007   3.208   4.495 -0.7326  0.5608  1.8414
 7964SOL     OW35527   2.959   1.920   8.950  0.0595  0.4626 -0.7505
 7964SOL    HW135528   3.020   1.870   8.897 -0.1864  1.5210 -2.0215
 7964SOL    HW235529   2.871   1.884   8.951 -0.7213  2.3990  1.2100
 7965SOL     OW35530   3.029   4.691   8.700 -0.1201 -0.5713 -0.0490
 7965SOL    HW135531   2.973   4.623   8.663 -2.4124  1.6332 -0.6621
 7965SOL    HW235532   3.110   4.641   8.695 -0.5253 -1.0981 -1.2935
 7966SOL     OW35533   2.043   0.194   5.495  0.1742 -0.2792 -0.2218
 7966SOL    HW135534   2.136   0.177   5.514 -0.0913 -0.2614  1.1534
 7966SOL    HW235535   2.039   0.118   5.437  0.9919  0.5240 -1.3313
 7967SOL     OW35536   3.595   2.689   5.866  0.1177 -0.3081  0.0345
 7967SOL    HW135537   3.571   2.684   5.958  1.5513  1.5003  0.5200
 7967SOL    HW235538   3.540   2.757   5.826  1.3756  0.9294  0.3883
 7968SOL     OW35539   4.524   3.687   0.095 -0.0169  0.1659 -0.1794
 7968SOL    HW135540   4.563   3.600   0.083 -1.6257 -0.6878  0.7642
 7968SOL    HW235541   4.561   3.720   0.013 -0.8397  0.2557 -0.5159
 7969SOL     OW35542   1.814   3.464   0.565  0.5035 -0.1755  0.3154
 7969SOL    HW135543   1.860   3.486   0.646  2.1736  1.0367 -0.9612
 7969SOL    HW235544   1.875   3.504   0.502  0.1592  2.1189  1.4300
 7970SOL     OW35545   1.685   4.375  16.657  0.0150  0.5506 -0.3236
 7970SOL    HW135546   1.775   4.372  16.623 -0.0671  0.8789 -0.5694
 7970SOL    HW235547   1.642   4.424  16.587 -1.3991 -0.7368 -0.3649
 7971SOL     OW35548   4.014   3.903  11.657 -0.1636 -0.1732 -0.1883
 7971SOL    HW135549   3.982   3.864  11.576 -2.0817 -1.1060  1.0458
 7971SOL    HW235550   4.010   3.996  11.633 -3.2354  0.2674  2.1523
 7972SOL     OW35551   1.369   4.222   9.706 -0.0696 -0.7346 -0.3462
 7972SOL    HW135552   1.353   4.162   9.632  1.5293  0.9675 -2.0653
 7972SOL    HW235553   1.444   4.271   9.670  0.9018 -1.5664  0.5556
 7973SOL     OW35554   4.330   4.598   7.266  0.1510 -0.2582 -0.2040
 7973SOL    HW135555   4.267   4.526   7.263  0.1225 -0.2340 -0.1830
 7973SOL    HW235556   4.344   4.597   7.361 -0.3825  0.5169 -0.1146
 7974SOL     OW35557   2.442   2.731   3.327 -0.0254  0.0684 -0.1607
 7974SOL    HW135558   2.496   2.781   3.266 -0.1266  0.2343 -0.1132
 7974SOL    HW235559   2.505   2.659   3.328 -0.0010  0.1066  1.0318
 7975SOL     OW35560   2.004   0.269   1.611 -0.1659  0.6389  0.2818
 7975SOL    HW135561   1.947   0.286   1.536  0.1129 -1.4575 -0.3846
 7975SOL    HW235562   1.949   0.202   1.652  0.5382  1.0683  1.9161
 7976SOL     OW35563   1.709   4.147   6.141  0.0903  0.2745  0.2603
 7976SOL    HW135564   1.755   4.179   6.219  0.5266  1.0130 -0.3056
 7976SOL    HW235565   1.666   4.074   6.186 -0.4888 -0.7241 -1.9028
 7977SOL     OW35566   4.588   4.542   7.545  0.8022  0.2883 -0.1432
 7977SOL    HW135567   4.540   4.611   7.591 -1.2124 -0.5790 -0.9386
 7977SOL    HW235568   4.576   4.463   7.597  2.9903 -0.5486 -0.9317
 7978SOL     OW35569   1.897   3.282   9.849  0.3097 -0.5008 -0.2584
 7978SOL    HW135570   1.954   3.315   9.919  0.3792  1.5049 -1.2653
 7978SOL    HW235571   1.840   3.218   9.892 -0.5051  0.6840  0.4394
 7979SOL     OW35572   3.069   1.161   9.030 -0.0467  0.1080  0.2028
 7979SOL    HW135573   3.091   1.153   9.123 -1.8863 -0.5627  0.5860
 7979SOL    HW235574   3.157   1.175   8.996  0.4734 -3.5784  0.0882
 7980SOL     OW35575   2.637   1.898   5.050  0.1980 -0.0993 -0.1066
 7980SOL    HW135576   2.673   1.905   5.139  0.5519 -1.3681 -0.1607
 7980SOL    HW235577   2.580   1.976   5.047  1.0451  0.5204 -0.2063
 7981SOL     OW35578   1.714   1.563  13.695  0.1950  0.0960  0.3520
 7981SOL    HW135579   1.679   1.596  13.612 -0.2836 -1.7972 -0.1928
 7981SOL    HW235580   1.691   1.640  13.747 -1.3024 -0.6183  0.7594
 7982SOL     OW35581   1.571   0.106  13.669 -0.0076  0.0400 -0.5703
 7982SOL    HW135582   1.522   0.027  13.647  0.1713 -0.5817  1.2958
 7982SOL    HW235583   1.621   0.064  13.740  2.0368  2.0653 -0.8062
 7983SOL     OW35584   3.344   0.917   6.457  0.0364  0.3777  0.3059
 7983SOL    HW135585   3.361   0.836   6.506 -0.3033  0.9135  1.3213
 7983SOL    HW235586   3.366   0.984   6.522  1.0443  2.3485 -2.0981
 7984SOL     OW35587   3.861   0.938   9.364  0.2540 -0.6031  0.3688
 7984SOL    HW135588   3.905   0.865   9.322  0.8633 -0.3660  0.6053
 7984SOL    HW235589   3.779   0.933   9.314  0.9612  1.6131 -1.0013
 7985SOL     OW35590   1.898   0.432   2.904  0.0250  0.5144 -0.2271
 7985SOL    HW135591   1.916   0.352   2.954 -2.2035 -0.3723 -0.8032
 7985SOL    HW235592   1.822   0.456   2.958 -1.4801  1.3176 -2.7215
 7986SOL     OW35593   2.394   1.712  16.884 -0.2678  0.4059 -0.1708
 7986SOL    HW135594   2.408   1.655  16.960  1.0625  2.1690  0.9181
 7986SOL    HW235595   2.311   1.677  16.852 -0.6980  1.3200 -0.0606
 7987SOL     OW35596   0.493   0.664  11.909  0.1143  0.4177 -0.1460
 7987SOL    HW135597   0.588   0.668  11.898  0.4911 -1.6970  2.2611
 7987SOL    HW235598   0.487   0.714  11.991 -0.4460  0.2906 -0.1142
 7988SOL     OW35599   2.290   4.181   8.813  0.4639 -0.4254  0.1100
 7988SOL    HW135600   2.330   4.265   8.834  1.2857 -1.1711  1.5116
 7988SOL    HW235601   2.300   4.180   8.718 -1.7293 -0.9856 -0.1245
 7989SOL     OW35602   3.301   3.862   2.579 -0.0743 -0.0412 -0.2259
 7989SOL    HW135603   3.219   3.890   2.539  0.8486  0.3084 -1.8622
 7989SOL    HW235604   3.307   3.922   2.653  2.1888 -1.6856  0.9488
 7990SOL     OW35605   3.037   3.705  12.775  0.6455  0.1577  0.1999
 7990SOL    HW135606   3.125   3.693  12.811 -0.3791  0.1528  2.7125
 7990SOL    HW235607   2.984   3.682  12.851  0.3756 -0.7469 -0.2644
 7991SOL     OW35608   2.935   2.000   1.599  0.1963  0.1830  0.0786
 7991SOL    HW135609   3.024   2.031   1.614 -0.1313  0.9914  0.3900
 7991SOL    HW235610   2.886   2.057   1.658 -0.9687  0.3713 -1.0601
 7992SOL     OW35611   4.714   4.231   8.025 -0.1540 -0.1692  0.1063
 7992SOL    HW135612   4.728   4.156   8.084  1.2330  1.3443  1.6789
 7992SOL    HW235613   0.052   4.283   8.046  0.3836 -0.2384 -1.6948
 7993SOL     OW35614   2.732   3.686  14.327 -0.3692  0.3036  0.3902
 7993SOL    HW135615   2.712   3.624  14.257  1.9575 -0.4595  0.4194
 7993SOL    HW235616   2.664   3.649  14.382  0.2589 -0.7161  0.4696
 7994SOL     OW35617   0.114   3.313   1.611  0.3108  0.2863 -0.1172
 7994SOL    HW135618   0.131   3.304   1.517 -0.5210 -1.9108 -0.0576
 7994SOL    HW235619   0.108   3.408   1.620 -3.4064 -0.1519  2.0541
 7995SOL     OW35620   0.994   4.675   6.869  0.2416 -0.0748  0.2103
 7995SOL    HW135621   0.909   4.680   6.825  0.0034  1.0586  0.7992
 7995SOL    HW235622   1.017   4.583   6.878 -0.5791 -0.3202 -0.2509
 7996SOL     OW35623   2.967   0.056  10.111  0.2739  0.3943  0.0730
 7996SOL    HW135624   2.974   0.152  10.108 -0.4574  0.3879 -1.9978
 7996SOL    HW235625   2.960   0.035  10.204  0.4591 -0.7363 -0.1677
 7997SOL     OW35626   3.637   0.013   8.473  0.2700  0.0321  0.0818
 7997SOL    HW135627   3.677   4.692   8.409 -0.2556 -2.1679  1.7644
 7997SOL    HW235628   3.544   0.009   8.451  0.2574 -2.3141  0.5257
 7998SOL     OW35629   4.016   0.288   4.291 -0.2382 -0.5277 -0.2517
 7998SOL    HW135630   4.004   0.205   4.245  0.5627  0.5695 -2.4437
 7998SOL    HW235631   4.006   0.269   4.385 -1.4965  0.1153 -0.2640
 7999SOL     OW35632   0.407   2.901   7.601 -0.1986  0.1725 -0.1390
 7999SOL    HW135633   0.368   2.829   7.552  3.1686 -1.3078 -0.6182
 7999SOL    HW235634   0.327   2.934   7.642 -0.1920 -0.6503  0.5305
 8000SOL     OW35635   0.524   0.070   3.475  0.0313 -0.0221 -0.3655
 8000SOL    HW135636   0.480   0.005   3.529  0.4108  0.7903  0.9368
 8000SOL    HW235637   0.608   0.059   3.519 -0.7331  0.8346  1.3157
 8001SOL     OW35638   4.072   4.451   8.233  0.3772 -0.0229  0.3341
 8001SOL    HW135639   4.133   4.511   8.276 -0.8193  1.6541 -0.3256
 8001SOL    HW235640   4.060   4.497   8.150  2.3156  0.3309  0.2427
 8002SOL     OW35641   3.530   0.060   7.755 -0.1976  0.2872  0.9450
 8002SOL    HW135642   3.499   4.736   7.821 -0.3772 -0.0453  0.5467
 8002SOL    HW235643   3.485   0.140   7.784 -0.0795  0.5843  0.3072
 8003SOL     OW35644   1.311   0.861   8.974 -0.5568 -0.1678  0.0014
 8003SOL    HW135645   1.324   0.935   9.033  1.0103 -0.3326 -0.1630
 8003SOL    HW235646   1.215   0.864   8.963 -0.2854  1.3867 -1.9018
 8004SOL     OW35647   1.986   0.186   5.803  0.0770 -0.6807  0.5933
 8004SOL    HW135648   2.077   0.210   5.783 -0.0906  0.0851  0.7231
 8004SOL    HW235649   1.990   0.096   5.772  3.2948 -0.4868  0.4438
 8005SOL     OW35650   2.295   4.118   3.335  0.5596  0.0961 -0.4254
 8005SOL    HW135651   2.309   4.104   3.429 -0.4925  1.4276 -0.0718
 8005SOL    HW235652   2.358   4.059   3.294  1.4204  1.1557 -0.6507
 8006SOL     OW35653   4.186   4.381   7.222  0.2857 -0.0856 -0.4014
 8006SOL    HW135654   4.182   4.300   7.273  1.1290  0.1982  0.1000
 8006SOL    HW235655   4.197   4.351   7.132 -1.0107 -0.6604 -0.3819
 8007SOL     OW35656   1.061   0.699   5.431 -0.3087 -0.7280 -0.8122
 8007SOL    HW135657   1.132   0.751   5.468 -0.8826  1.1167 -2.3401
 8007SOL    HW235658   1.006   0.668   5.503 -1.4771 -0.4082 -1.5646
 8008SOL     OW35659   0.308   4.521   1.410 -0.3692  0.0341 -0.1487
 8008SOL    HW135660   0.328   4.466   1.334 -0.0888  0.2326 -0.2187
 8008SOL    HW235661   0.312   4.458   1.482 -3.0984  0.9442  0.8217
 8009SOL     OW35662   1.529   3.128   7.830 -0.1350 -0.0756  0.1023
 8009SOL    HW135663   1.434   3.143   7.833  0.1065  1.4127  0.2945
 8009SOL    HW235664   1.566   3.215   7.845  1.2401 -0.3860 -1.6071
 8010SOL     OW35665   0.831   3.559  11.467  0.1534 -0.5075 -0.2356
 8010SOL    HW135666   0.755   3.564  11.410  0.3614 -0.1094 -0.4760
 8010SOL    HW235667   0.793   3.503  11.535 -0.6090  0.7651  0.3852
 8011SOL     OW35668   0.930   3.079   4.317 -0.7735  0.1023  0.2451
 8011SOL    HW135669   0.982   3.112   4.390 -1.2231 -0.6059  0.8905
 8011SOL    HW235670   0.892   2.999   4.353 -1.1428  1.0333  1.9346
 8012SOL     OW35671   4.439   0.368   8.104 -0.2943  0.3169  0.3558
 8012SOL    HW135672   4.405   0.452   8.134 -0.6042  1.0307 -1.9339
 8012SOL    HW235673   4.406   0.368   8.014  0.7405 -1.0992 -0.0121
 8013SOL     OW35674   2.426   2.439   3.669 -0.1323 -0.3509 -0.1626
 8013SOL    HW135675   2.507   2.393   3.644 -1.0293 -1.8875 -0.2491
 8013SOL    HW235676   2.376   2.441   3.588 -0.7078 -2.4986  0.1516
 8014SOL     OW35677   1.077   2.004   2.031  0.2051 -0.0935 -0.3621
 8014SOL    HW135678   1.125   1.924   2.009  1.9523  0.5150  1.2117
 8014SOL    HW235679   1.092   2.067   1.960  1.1856 -1.3490 -1.2813
 8015SOL     OW35680   3.801   3.498   7.387  0.1805 -0.4537 -0.6796
 8015SOL    HW135681   3.788   3.568   7.324 -1.0310 -0.7855 -0.8051
 8015SOL    HW235682   3.713   3.498   7.425  0.1933 -0.8132 -0.6458
 8016SOL     OW35683   0.894   2.831  15.664 -0.5324 -0.6543  0.8769
 8016SOL    HW135684   0.962   2.892  15.694 -0.5757  0.6439 -1.6731
 8016SOL    HW235685   0.909   2.840  15.570 -1.7075 -0.0307  0.7483
 8017SOL     OW35686   2.557   1.961   1.946  0.2321  0.0011 -0.3582
 8017SOL    HW135687   2.507   1.884   1.972 -0.2914 -0.3102 -2.2986
 8017SOL    HW235688   2.492   2.028   1.965  1.8706  1.4270  0.2893
 8018SOL     OW35689   1.346   2.057   3.518 -0.4257 -0.0384 -0.1596
 8018SOL    HW135690   1.340   2.076   3.424 -3.1557 -1.6059 -0.2939
 8018SOL    HW235691   1.439   2.073   3.533 -0.3735 -0.0055 -0.5221
 8019SOL     OW35692   3.346   0.448   8.163 -0.2157 -0.4083  0.3023
 8019SOL    HW135693   3.293   0.439   8.084 -0.8683  0.1117  0.6801
 8019SOL    HW235694   3.396   0.527   8.142  1.3257 -1.0064  1.7177
 8020SOL     OW35695   4.412   3.444   2.045 -0.0778  0.4441  0.2253
 8020SOL    HW135696   4.397   3.432   2.138 -0.3230  2.1242  0.4075
 8020SOL    HW235697   4.371   3.530   2.031 -0.4562 -0.1390 -2.2124
 8021SOL     OW35698   3.125   4.092   7.159 -0.0360 -1.1732  0.1113
 8021SOL    HW135699   3.144   4.168   7.213  0.3677 -0.0978 -1.5386
 8021SOL    HW235700   3.175   4.117   7.081  2.0778 -0.7701  1.6048
 8022SOL     OW35701   1.824   2.812   7.877  0.2671  0.0523 -0.2663
 8022SOL    HW135702   1.821   2.874   7.804  0.2769  1.4252  0.8885
 8022SOL    HW235703   1.901   2.834   7.930 -1.6604 -0.0690  2.6126
 8023SOL     OW35704   0.901   0.950   9.308  0.5774  0.1702 -0.1487
 8023SOL    HW135705   0.952   0.885   9.259  1.9760  1.7780 -0.8274
 8023SOL    HW235706   0.962   1.022   9.322  2.6528 -1.5941  0.0380
 8024SOL     OW35707   2.996   0.700   0.652 -0.5382  0.4375 -0.3129
 8024SOL    HW135708   2.972   0.615   0.616 -0.5800 -0.0057  0.7876
 8024SOL    HW235709   2.928   0.759   0.619  2.2525  3.6996 -0.2847
 8025SOL     OW35710   1.832   0.495  17.311  0.2473  0.0896  0.0224
 8025SOL    HW135711   1.817   0.407  17.277 -1.1123 -0.8346  3.0043
 8025SOL    HW235712   1.914   0.526  17.274 -0.4732  0.0574 -1.6352
 8026SOL     OW35713   3.240   4.004   9.450  0.0243  0.1398 -0.2145
 8026SOL    HW135714   3.306   4.036   9.512 -0.7531 -0.5221  0.9432
 8026SOL    HW235715   3.263   4.040   9.364  1.9867  1.5151  0.8738
 8027SOL     OW35716   3.266   2.169  13.851  0.4071 -0.5022  0.5039
 8027SOL    HW135717   3.276   2.213  13.767  1.4478 -1.3404  0.1816
 8027SOL    HW235718   3.341   2.205  13.897 -0.3570  1.9198 -0.1753
 8028SOL     OW35719   0.385   0.192   7.239 -0.1986 -0.7212  0.4917
 8028SOL    HW135720   0.347   0.117   7.284 -0.8373  0.0144  1.1631
 8028SOL    HW235721   0.415   0.255   7.304 -1.4998  1.7876 -1.3545
 8029SOL     OW35722   4.364   2.135   4.799  0.3631 -0.1890  0.5330
 8029SOL    HW135723   4.456   2.138   4.827  0.3030 -0.6189  0.7891
 8029SOL    HW235724   4.357   2.043   4.772  1.2269 -0.2419  0.4856
 8030SOL     OW35725   3.332   1.043   7.514  0.1601 -0.1852  0.2144
 8030SOL    HW135726   3.256   0.990   7.537  0.4835 -0.0986  1.5212
 8030SOL    HW235727   3.349   1.101   7.589  0.1754  0.4775 -0.3085
 8031SOL     OW35728   3.737   0.881   7.467 -0.1132 -0.1036 -0.4097
 8031SOL    HW135729   3.749   0.976   7.464 -1.6461  0.0366 -2.0876
 8031SOL    HW235730   3.799   0.852   7.401  0.3752  1.4594 -0.6315
 8032SOL     OW35731   3.158   4.623   5.241 -0.4013 -0.3192  0.0135
 8032SOL    HW135732   3.180   4.706   5.199 -1.2546 -0.8015 -1.3933
 8032SOL    HW235733   3.065   4.629   5.261 -0.4392  2.3459 -0.9790
 8033SOL     OW35734   2.154   0.552   2.958 -0.0570  0.0007  0.2532
 8033SOL    HW135735   2.210   0.496   2.904  0.9529  0.8358  0.4261
 8033SOL    HW235736   2.068   0.516   2.937  0.3164 -1.0418  0.5216
 8034SOL     OW35737   1.897   2.460  16.668 -0.1739 -0.2162  0.7757
 8034SOL    HW135738   1.894   2.460  16.764 -1.5482  0.4026  0.7289
 8034SOL    HW235739   1.816   2.506  16.647  0.9173  1.7790  0.9240
 8035SOL     OW35740   2.277   1.627   7.780 -0.4275 -0.3109  0.0511
 8035SOL    HW135741   2.231   1.662   7.704  0.5056 -1.4068 -1.0151
 8035SOL    HW235742   2.292   1.698   7.843  2.3737  0.2885 -1.2885
 8036SOL     OW35743   2.957   1.740  15.484  0.5448  0.0836 -0.0147
 8036SOL    HW135744   2.895   1.718  15.414 -0.0076  2.2223 -0.1779
 8036SOL    HW235745   2.964   1.652  15.522 -0.2339  0.9192  2.0600
 8037SOL     OW35746   3.012   1.019   5.775  0.5411 -0.2419  0.0832
 8037SOL    HW135747   2.982   1.074   5.847  0.4922 -0.6989  0.4125
 8037SOL    HW235748   2.978   0.933   5.800  1.3410 -0.7618 -0.6020
 8038SOL     OW35749   0.644   1.958  16.490  1.2045 -0.0003 -0.1814
 8038SOL    HW135750   0.670   2.047  16.468 -0.2283  0.5724  0.4749
 8038SOL    HW235751   0.552   1.960  16.514  1.1136  0.0996 -0.5437
 8039SOL     OW35752   0.514   2.765   2.888 -0.3274  0.1460  0.7496
 8039SOL    HW135753   0.601   2.794   2.917 -1.8657  3.2302  2.3397
 8039SOL    HW235754   0.523   2.670   2.894  0.8985  0.2575  0.6643
 8040SOL     OW35755   3.416   4.096   2.862  0.4375  0.1522  0.4122
 8040SOL    HW135756   3.400   4.124   2.952  1.0982 -0.4695  0.7235
 8040SOL    HW235757   3.341   4.130   2.812  0.9202  0.3745 -0.1532
 8041SOL     OW35758   4.068   3.876   3.584  0.1923 -0.4947  0.9535
 8041SOL    HW135759   4.153   3.863   3.541 -0.3620 -1.4681  0.1777
 8041SOL    HW235760   4.090   3.937   3.655  0.6290 -1.2702  1.4987
 8042SOL     OW35761   2.018   1.440   2.388 -0.5081  0.6325 -0.0033
 8042SOL    HW135762   2.063   1.524   2.378 -0.1310  0.4501  0.1651
 8042SOL    HW235763   1.952   1.457   2.321 -0.8781  1.4919  0.5722
 8043SOL     OW35764   3.551   4.296  16.448 -0.4143  0.2775  0.5069
 8043SOL    HW135765   3.571   4.230  16.382 -2.6804 -1.1419  1.2220
 8043SOL    HW235766   3.534   4.373  16.394 -2.7555 -0.7917 -0.3198
 8044SOL     OW35767   0.531   3.549   4.489  0.1073 -0.2773 -0.6470
 8044SOL    HW135768   0.510   3.461   4.457 -0.0661  0.0778 -1.5118
 8044SOL    HW235769   0.625   3.534   4.489  0.3642  1.3724  1.0466
 8045SOL     OW35770   2.969   4.689   6.115 -0.7930  0.2199 -0.7937
 8045SOL    HW135771   3.061   4.704   6.135 -0.6710  0.3993 -1.4877
 8045SOL    HW235772   2.932   4.694   6.203 -0.7732  0.8980 -0.8270
 8046SOL     OW35773   1.145   3.364  15.481 -0.4971  0.0071 -0.3809
 8046SOL    HW135774   1.239   3.358  15.498 -0.7649  1.3305  1.5273
 8046SOL    HW235775   1.126   3.455  15.502  1.5427 -0.1609  2.1532
 8047SOL     OW35776   3.741   1.767  12.779  0.0312 -0.1477 -0.3697
 8047SOL    HW135777   3.804   1.695  12.783 -0.2779 -0.3856  0.2189
 8047SOL    HW235778   3.761   1.800  12.692  0.7901 -0.6383 -0.3798
 8048SOL     OW35779   0.309   0.093   8.922  0.6197 -0.0699  0.2416
 8048SOL    HW135780   0.318   0.187   8.940 -0.1819 -0.0371  0.4757
 8048SOL    HW235781   0.308   0.059   9.011 -1.9931 -0.7964 -0.0585
 8049SOL     OW35782   2.753   4.356   6.353  0.1638  0.0923  0.1219
 8049SOL    HW135783   2.785   4.403   6.431 -1.7411 -0.1760  1.0515
 8049SOL    HW235784   2.830   4.309   6.319 -0.3898 -1.0724  0.4774
 8050SOL     OW35785   1.159   2.529   8.827  0.0005  0.0779  0.3813
 8050SOL    HW135786   1.251   2.536   8.852  0.2630  0.0724 -0.5846
 8050SOL    HW235787   1.157   2.469   8.752  1.3829 -0.9998  1.2035
 8051SOL     OW35788   1.368   4.044   6.601  0.3514  0.4344 -0.1139
 8051SOL    HW135789   1.324   4.086   6.675  0.9714  1.7350 -0.4942
 8051SOL    HW235790   1.300   4.060   6.535 -0.7783 -1.6124  0.5336
 8052SOL     OW35791   0.857   3.337  16.537  0.3501  0.2186 -0.1598
 8052SOL    HW135792   0.773   3.326  16.581 -0.5054  2.6971 -1.1834
 8052SOL    HW235793   0.916   3.361  16.608 -0.7810  1.3997  0.3691
 8053SOL     OW35794   3.496   3.269   6.850  0.3076 -0.0087  0.3861
 8053SOL    HW135795   3.467   3.359   6.868  1.2613  0.4855 -0.5487
 8053SOL    HW235796   3.591   3.276   6.842  0.3645  0.3694  1.3648
 8054SOL     OW35797   1.454   4.438   4.914 -0.1269  0.4300 -0.1163
 8054SOL    HW135798   1.470   4.382   4.838 -0.0469  1.5590 -0.9216
 8054SOL    HW235799   1.379   4.398   4.957 -2.1203  1.9307 -2.1889
 8055SOL     OW35800   1.413   3.483   0.701  0.0646 -0.0191 -0.2365
 8055SOL    HW135801   1.324   3.507   0.725  0.4282  2.3815 -1.3206
 8055SOL    HW235802   1.437   3.570   0.669  2.4908 -0.6826 -0.2170
 8056SOL     OW35803   4.341   1.246   8.470  0.4675  0.3133 -0.2492
 8056SOL    HW135804   4.353   1.239   8.565  0.5904  0.8000 -0.2311
 8056SOL    HW235805   4.422   1.288   8.443  0.1614 -1.2389 -3.5230
 8057SOL     OW35806   4.027   1.958  12.881 -0.2961  0.2005 -0.1814
 8057SOL    HW135807   4.009   1.923  12.793  1.1778 -0.6277 -0.1554
 8057SOL    HW235808   4.119   1.983  12.874 -0.3706  0.7957  1.0641
 8058SOL     OW35809   2.078   1.051   7.402 -0.1580  0.1596 -0.4616
 8058SOL    HW135810   2.008   1.115   7.388  1.4346  1.7378 -1.2599
 8058SOL    HW235811   2.139   1.077   7.333  1.9581  1.1588  1.8178
 8059SOL     OW35812   3.791   0.620  11.310  0.0700 -0.3852  0.5902
 8059SOL    HW135813   3.824   0.606  11.399  1.4724 -0.9582 -0.0214
 8059SOL    HW235814   3.828   0.707  11.302 -4.2907  1.3361 -0.8924
 8060SOL     OW35815   2.846   2.337  16.885 -0.0701  0.0210 -0.5300
 8060SOL    HW135816   2.901   2.413  16.867  0.8738 -0.4354  0.3735
 8060SOL    HW235817   2.757   2.371  16.877 -0.4748 -0.6776  0.9006
 8061SOL     OW35818   2.459   1.218   7.959  0.8287 -0.0325 -0.0908
 8061SOL    HW135819   2.421   1.280   7.896  1.1667  1.6173  1.3302
 8061SOL    HW235820   2.420   1.138   7.923  1.3429 -0.9018  1.2903
 8062SOL     OW35821   3.942   3.693   0.820 -0.3331  0.0291  0.0006
 8062SOL    HW135822   3.899   3.611   0.796  0.2037 -0.0271 -0.7717
 8062SOL    HW235823   4.026   3.655   0.845 -0.3046  0.3878  0.4507
 8063SOL     OW35824   0.800   1.724   5.478  0.2960  0.3761 -0.5728
 8063SOL    HW135825   0.718   1.684   5.507  0.8457 -2.1455 -2.5696
 8063SOL    HW235826   0.861   1.671   5.530  0.4250 -0.5290 -1.6543
 8064SOL     OW35827   1.839   2.435   6.379  0.1501 -0.1021  0.5209
 8064SOL    HW135828   1.835   2.386   6.461  1.1625  1.5434  1.5660
 8064SOL    HW235829   1.769   2.496   6.401  0.7539  0.5010  0.7731
 8065SOL     OW35830   0.997   2.703   3.214 -0.6515 -0.4848  0.4102
 8065SOL    HW135831   0.908   2.710   3.248 -1.5776 -2.8939 -1.5372
 8065SOL    HW235832   0.978   2.633   3.152 -0.3277 -0.6668  0.5136
 8066SOL     OW35833   3.147   1.886  15.339 -0.2694  0.0254  0.5758
 8066SOL    HW135834   3.212   1.822  15.314  1.6284  2.2257 -0.1286
 8066SOL    HW235835   3.089   1.837  15.398  0.8520 -0.0504  1.6156
 8067SOL     OW35836   0.250   0.717  15.126 -0.3500 -0.2153 -0.1829
 8067SOL    HW135837   0.248   0.807  15.095 -1.9046  0.0843  0.7867
 8067SOL    HW235838   0.192   0.671  15.066 -0.6290  1.3271 -1.0868
 8068SOL     OW35839   4.606   0.632   2.124 -0.3298  0.1174 -0.5623
 8068SOL    HW135840   4.701   0.631   2.140 -0.7249 -1.9396  1.5458
 8068SOL    HW235841   4.586   0.564   2.060  1.2185 -0.6515 -0.2345
 8069SOL     OW35842   2.213   3.388  15.344 -0.2785 -0.2411 -0.1685
 8069SOL    HW135843   2.267   3.466  15.355 -1.6974  0.8242 -0.8306
 8069SOL    HW235844   2.188   3.379  15.436 -0.4007 -0.5100 -0.2287
 8070SOL     OW35845   4.037   1.614   6.653  0.2139  0.1455 -0.4462
 8070SOL    HW135846   4.075   1.691   6.695 -0.3076  0.0101  0.2549
 8070SOL    HW235847   3.981   1.654   6.587 -0.0559 -0.8855 -0.8506
 8071SOL     OW35848   4.701   2.684   4.879 -0.3901  0.0550  0.1128
 8071SOL    HW135849   4.674   2.690   4.787  3.6330 -0.2965 -1.0662
 8071SOL    HW235850   0.030   2.620   4.859 -1.0651 -1.1855  1.7225
 8072SOL     OW35851   1.314   3.562   6.444  0.1454  0.0333 -0.0846
 8072SOL    HW135852   1.257   3.616   6.389  0.4491 -0.5565 -0.9753
 8072SOL    HW235853   1.338   3.622   6.515  2.8647 -0.5777 -0.5068
 8073SOL     OW35854   0.754   0.006   6.664 -0.5943 -0.0787 -0.2933
 8073SOL    HW135855   0.677   0.011   6.722  0.1739  0.1439  0.7139
 8073SOL    HW235856   0.740   0.087   6.615  1.5669  0.5985  0.2098
 8074SOL     OW35857   3.910   0.014   6.034  0.3946 -0.1423  0.2066
 8074SOL    HW135858   3.979   4.720   5.977  1.7526  2.2033  0.5493
 8074SOL    HW235859   3.869   4.675   6.074  0.0417  1.0616  2.1672
 8075SOL     OW35860   2.391   3.588   4.751 -0.8734  0.3181 -0.0555
 8075SOL    HW135861   2.415   3.599   4.659 -1.9127 -0.3251 -0.4103
 8075SOL    HW235862   2.457   3.532   4.792  0.2640  2.1311  0.5923
 8076SOL     OW35863   0.105   0.876   8.060  0.6179 -0.4003  0.0735
 8076SOL    HW135864   0.097   0.970   8.049  3.0966 -0.1499  0.5902
 8076SOL    HW235865   0.151   0.849   7.981 -1.8642  0.2963 -1.6102
 8077SOL     OW35866   2.523   2.080  10.769 -0.9107  0.2980 -0.2815
 8077SOL    HW135867   2.558   2.020  10.835 -1.2509  1.3928  0.8954
 8077SOL    HW235868   2.588   2.063  10.701 -0.8127 -2.9045  0.5899
 8078SOL     OW35869   0.188   1.709   7.615 -0.5501 -0.5150  0.0326
 8078SOL    HW135870   0.118   1.751   7.663  0.1785  0.6564  0.0592
 8078SOL    HW235871   0.233   1.778   7.566  1.0390 -0.5188  1.5127
 8079SOL     OW35872   1.089   3.125   4.535 -0.0713  0.1342  0.2973
 8079SOL    HW135873   1.122   3.214   4.542  1.1124 -0.4026  1.5814
 8079SOL    HW235874   1.101   3.098   4.627 -1.9546 -0.3836  0.3790
 8080SOL     OW35875   4.718   0.230   8.165 -0.1621  0.2292  1.1598
 8080SOL    HW135876   4.684   0.319   8.158  1.4160  0.8327  1.3036
 8080SOL    HW235877   4.729   0.207   8.072 -1.1484 -2.0549  1.5944
 8081SOL     OW35878   0.367   0.161   6.971  0.7454  0.6576  0.3550
 8081SOL    HW135879   0.357   0.177   7.065  1.2453 -0.6106  0.6217
 8081SOL    HW235880   0.449   0.202   6.943  1.5864 -0.8648  0.5612
 8082SOL     OW35881   2.906   0.326   4.203  0.2409 -0.0314 -0.3608
 8082SOL    HW135882   2.975   0.394   4.206  0.8166 -0.6732  0.7068
 8082SOL    HW235883   2.833   0.384   4.180 -0.5626 -0.7811  0.3312
 8083SOL     OW35884   1.063   4.449  17.453 -0.2849 -0.1287 -0.3871
 8083SOL    HW135885   1.146   4.489  17.428 -0.9975  1.0487 -0.9145
 8083SOL    HW235886   1.017   4.446  17.369  0.1340 -0.1175 -0.6162
 8084SOL     OW35887   1.287   1.022  17.411 -0.8533 -0.1255 -0.6190
 8084SOL    HW135888   1.304   1.047  17.321  1.2754  0.7855  0.0490
 8084SOL    HW235889   1.359   1.067  17.454 -1.6401  0.2546  0.3231
 8085SOL     OW35890   0.197   1.318   6.911  0.1828 -0.0356 -0.0825
 8085SOL    HW135891   0.108   1.349   6.895  1.0956  1.9205 -1.4178
 8085SOL    HW235892   0.184   1.223   6.918 -1.7575  0.2326 -0.1675
 8086SOL     OW35893   1.322   0.539   4.652  0.2215 -0.1309 -0.2361
 8086SOL    HW135894   1.269   0.463   4.672 -1.4649  1.0313 -0.3023
 8086SOL    HW235895   1.363   0.565   4.735  1.4832 -1.0717 -0.5707
 8087SOL     OW35896   4.064   4.160   5.506  0.0635  0.5084 -0.3470
 8087SOL    HW135897   4.080   4.079   5.458  0.7565  0.0081  0.7301
 8087SOL    HW235898   4.006   4.130   5.576 -1.0076  1.3455 -0.8804
 8088SOL     OW35899   2.758   0.336   6.523  0.5657  0.1465 -0.3072
 8088SOL    HW135900   2.797   0.330   6.611  1.9628 -0.4380 -0.9781
 8088SOL    HW235901   2.762   0.432   6.513 -2.7181  0.0166 -2.6031
 8089SOL     OW35902   1.748   2.568  10.337 -0.0754  0.3538 -0.7540
 8089SOL    HW135903   1.686   2.510  10.382 -0.8349  1.3679 -0.4960
 8089SOL    HW235904   1.691   2.644  10.331  1.3754  1.5990  1.3373
 8090SOL     OW35905   3.466   3.675  11.406 -0.3341  0.1621  0.4829
 8090SOL    HW135906   3.447   3.719  11.323  1.5838 -0.0055 -0.0575
 8090SOL    HW235907   3.498   3.748  11.458 -1.4246  0.1658  1.1243
 8091SOL     OW35908   2.106   4.350  16.807 -0.5717  0.0711 -0.5986
 8091SOL    HW135909   2.069   4.331  16.720 -0.3208 -0.6440 -0.5484
 8091SOL    HW235910   2.073   4.280  16.863  0.5373 -1.7742 -2.2384
 8092SOL     OW35911   2.993   0.358   2.927 -0.4769  0.2835  0.0587
 8092SOL    HW135912   2.928   0.410   2.878  1.5400  2.5425 -0.2430
 8092SOL    HW235913   3.010   0.428   2.991 -0.4047 -0.2018  0.5735
 8093SOL     OW35914   1.113   1.715   6.273  0.2884  0.7799  0.1887
 8093SOL    HW135915   1.179   1.658   6.311  0.3580  0.6513 -0.1241
 8093SOL    HW235916   1.029   1.678   6.300  0.1562  3.8168  3.9981
 8094SOL     OW35917   0.070   0.691   1.089  0.2920  0.1052 -0.2145
 8094SOL    HW135918   0.145   0.652   1.044  0.9625  0.3754  0.6851
 8094SOL    HW235919   0.110   0.778   1.099 -0.5728  0.4459  0.3026
 8095SOL     OW35920   4.560   3.456   6.101 -0.3580 -0.5633 -0.5014
 8095SOL    HW135921   4.489   3.400   6.071 -0.7325 -0.5678  0.4071
 8095SOL    HW235922   4.595   3.479   6.014 -0.5110 -1.7364 -0.8813
 8096SOL     OW35923   3.690   2.018  12.604 -0.8722  0.4316  0.2527
 8096SOL    HW135924   3.644   1.943  12.565 -0.2502 -0.2241  0.7736
 8096SOL    HW235925   3.777   1.981  12.589 -1.0849  0.3087 -0.7173
 8097SOL     OW35926   3.920   1.249   5.122 -0.0593  0.0165  0.0078
 8097SOL    HW135927   3.853   1.211   5.066 -0.7120  3.0697 -1.2852
 8097SOL    HW235928   3.977   1.279   5.052 -1.8140  0.7897 -1.0780
 8098SOL     OW35929   1.156   1.138   9.378  0.6139  0.3948  0.6940
 8098SOL    HW135930   1.223   1.104   9.438  1.0862  0.0737 -0.0258
 8098SOL    HW235931   1.146   1.229   9.408 -0.7755  0.7780 -0.9924
 8099SOL     OW35932   2.680   3.158  11.450  0.6930  0.2870  0.2854
 8099SOL    HW135933   2.678   3.244  11.409  1.1141 -0.0969 -0.5443
 8099SOL    HW235934   2.701   3.183  11.540 -1.5421 -0.6403  1.0400
 8100SOL     OW35935   4.497   2.898   1.631  0.6809  0.2238 -0.0680
 8100SOL    HW135936   4.517   2.990   1.619 -0.7490  0.4886 -0.4323
 8100SOL    HW235937   4.584   2.875   1.662  0.1133 -3.4819 -1.1727
 8101SOL     OW35938   1.071   2.017   0.597 -0.2125 -0.0372  0.4450
 8101SOL    HW135939   1.036   2.016   0.508 -0.7967 -1.2157  0.6807
 8101SOL    HW235940   1.166   2.016   0.584 -0.6298  1.5236 -2.8648
 8102SOL     OW35941   3.828   0.028   5.249 -0.0379 -0.1115 -0.0521
 8102SOL    HW135942   3.873   4.683   5.233 -0.4415  0.0941 -2.2758
 8102SOL    HW235943   3.752   0.022   5.191  1.0780  1.2849 -1.6754
 8103SOL     OW35944   0.832   2.911   5.144  0.3460 -0.2650  0.1823
 8103SOL    HW135945   0.919   2.874   5.128  0.5576  0.6554 -0.7522
 8103SOL    HW235946   0.866   2.996   5.173  1.2081 -1.1983  1.9148
 8104SOL     OW35947   2.058   3.937   3.572  0.5986 -0.2146 -0.4746
 8104SOL    HW135948   2.074   3.895   3.487  0.6440 -0.2532 -0.4467
 8104SOL    HW235949   2.149   3.947   3.598  1.0698  0.1499 -2.2562
 8105SOL     OW35950   1.812   3.910   8.925 -0.4193 -0.2777 -0.3845
 8105SOL    HW135951   1.855   3.834   8.886 -1.1488 -0.0668 -1.5942
 8105SOL    HW235952   1.736   3.861   8.955  0.2070 -0.8237  0.2970
 8106SOL     OW35953   2.324   1.105   8.993  0.2264 -0.0142  0.6262
 8106SOL    HW135954   2.383   1.041   8.952  0.6314  0.9284 -0.2576
 8106SOL    HW235955   2.314   1.077   9.084 -1.4624 -1.6308 -0.0594
 8107SOL     OW35956   2.075   2.135  13.199 -0.3547  0.3262 -0.3485
 8107SOL    HW135957   2.167   2.138  13.223 -0.2846 -1.4375 -0.4026
 8107SOL    HW235958   2.063   2.047  13.234 -0.4171  0.3615 -0.2802
 8108SOL     OW35959   0.358   0.962  12.370 -0.5608 -0.3377  0.3940
 8108SOL    HW135960   0.347   0.949  12.276  0.7129  0.0809  0.1786
 8108SOL    HW235961   0.285   0.907  12.397 -0.4374  0.0720  1.5423
 8109SOL     OW35962   3.237   0.572   4.492 -0.1731  0.3997 -0.1725
 8109SOL    HW135963   3.166   0.626   4.526 -1.3500 -1.9701  1.1732
 8109SOL    HW235964   3.229   0.499   4.554  0.5473 -0.6803 -1.3527
 8110SOL     OW35965   2.240   4.039   9.979  0.1111  0.2290  0.6737
 8110SOL    HW135966   2.235   4.019  10.073  0.7557 -0.9087  0.4709
 8110SOL    HW235967   2.295   3.971   9.939  0.8375  0.8278  0.6683
 8111SOL     OW35968   3.536   1.046   7.832  0.5159  0.0331  0.6553
 8111SOL    HW135969   3.590   0.967   7.831 -1.3858 -1.2454 -0.2228
 8111SOL    HW235970   3.549   1.076   7.742 -1.2993 -1.0917  0.0197
 8112SOL     OW35971   2.684   3.671  12.907 -0.1626  0.0582  0.0984
 8112SOL    HW135972   2.775   3.663  12.936 -0.5071 -1.4726  0.7522
 8112SOL    HW235973   2.640   3.588  12.926 -1.1216  0.7704  1.0060
 8113SOL     OW35974   1.005   4.363  13.943  0.5963 -0.1741  0.2121
 8113SOL    HW135975   0.966   4.354  14.030 -0.1306  1.0499  0.0172
 8113SOL    HW235976   0.926   4.375  13.891  1.9605 -1.5164 -2.1518
 8114SOL     OW35977   0.489   1.682   5.253  0.3041  0.0109  0.7479
 8114SOL    HW135978   0.467   1.695   5.346  0.6775 -1.7544  1.0970
 8114SOL    HW235979   0.468   1.772   5.232 -0.6137  0.1688  2.3254
 8115SOL     OW35980   0.753   2.966   2.041  0.0681  0.0677 -0.5466
 8115SOL    HW135981   0.825   2.914   2.006 -0.5311 -1.3450  0.3515
 8115SOL    HW235982   0.799   2.996   2.120 -1.1247 -2.4474  1.0818
 8116SOL     OW35983   0.268   4.213   4.088  0.3098  0.4644  0.1385
 8116SOL    HW135984   0.238   4.299   4.116  0.0404  0.5511 -0.4238
 8116SOL    HW235985   0.185   4.164   4.089 -0.6158  2.0154 -0.0524
 8117SOL     OW35986   3.959   4.068   2.735  0.8002  0.5680  0.6162
 8117SOL    HW135987   3.872   4.029   2.750  0.1901  1.8131  0.2688
 8117SOL    HW235988   3.951   4.154   2.696  0.3603  0.0576 -0.4163
 8118SOL     OW35989   0.138   0.964   1.157 -0.5672 -0.0802 -0.0139
 8118SOL    HW135990   0.170   1.035   1.101  0.8368 -2.5192 -2.3351
 8118SOL    HW235991   0.053   0.999   1.182  0.5282  1.5224  1.4576
 8119SOL     OW35992   4.456   2.401   9.535 -0.3548 -0.2555 -0.9699
 8119SOL    HW135993   4.445   2.306   9.529  1.4970 -0.4818 -0.5403
 8119SOL    HW235994   4.476   2.410   9.442  2.8931  1.7247 -0.0506
 8120SOL     OW35995   1.603   4.458   5.319  0.3013  0.2105 -0.4067
 8120SOL    HW135996   1.550   4.444   5.397  1.4331  0.2916  0.3763
 8120SOL    HW235997   1.584   4.376   5.274 -1.9482  0.4151  0.1680
 8121SOL     OW35998   3.750   3.340  16.206  0.0578  0.0670  0.5545
 8121SOL    HW135999   3.808   3.364  16.134 -0.0863 -0.3393  0.3080
 8121SOL    HW236000   3.811   3.288  16.258  2.0198 -1.3004 -3.1082
 8122SOL     OW36001   0.603   3.633   2.750 -0.4365 -0.0930  0.2167
 8122SOL    HW136002   0.621   3.650   2.842 -0.3054  2.0769 -0.2054
 8122SOL    HW236003   0.525   3.687   2.736  0.5719  1.4347  0.5940
 8123SOL     OW36004   2.831   4.239   7.742  0.0988 -0.1715 -0.4471
 8123SOL    HW136005   2.758   4.219   7.684 -1.1072  0.7418  0.7480
 8123SOL    HW236006   2.786   4.304   7.796 -2.3567 -1.1849 -1.2946
 8124SOL     OW36007   1.718   0.944   8.024 -0.3877 -0.2082  0.0575
 8124SOL    HW136008   1.793   0.889   8.045  0.3746  1.2376  1.1783
 8124SOL    HW236009   1.758   0.987   7.949  2.0316 -0.9238  0.9236
 8125SOL     OW36010   0.410   3.053   4.255 -0.6924 -0.4754  0.0932
 8125SOL    HW136011   0.352   2.991   4.299 -0.3134 -1.0096 -0.1443
 8125SOL    HW236012   0.488   2.997   4.246 -0.3629 -0.0892  0.5297
 8126SOL     OW36013   0.658   1.980   5.391  0.6527  0.6591 -0.1948
 8126SOL    HW136014   0.701   2.043   5.450 -1.5075 -0.1002  2.1959
 8126SOL    HW236015   0.730   1.919   5.375  0.2985  0.3333 -0.5205
 8127SOL     OW36016   0.542   0.034  13.015 -0.0522  0.0844 -0.4906
 8127SOL    HW136017   0.482   4.717  13.065 -1.0785  0.5565 -1.1961
 8127SOL    HW236018   0.625   0.009  13.054  0.0507  0.6850 -0.3252
 8128SOL     OW36019   0.089   0.491   7.788  0.6402  0.2812 -0.2201
 8128SOL    HW136020   0.132   0.572   7.763  2.2530 -0.7415 -0.7643
 8128SOL    HW236021   0.027   0.532   7.848 -0.9893 -0.6283 -1.2848
 8129SOL     OW36022   4.059   0.614   7.641  0.2160 -0.7244 -0.2455
 8129SOL    HW136023   3.998   0.647   7.707  0.6320  0.7589 -0.6160
 8129SOL    HW236024   4.035   0.680   7.576 -0.1540 -2.4653 -1.8840
 8130SOL     OW36025   2.089   3.010   2.362  0.6964 -0.7699  0.2490
 8130SOL    HW136026   2.108   2.962   2.442  1.0243 -1.8877 -0.4934
 8130SOL    HW236027   2.164   2.974   2.314  1.1014  0.1604  0.1919
 8131SOL     OW36028   3.933   2.461   1.292 -0.1564  0.2072 -0.0460
 8131SOL    HW136029   3.848   2.505   1.300 -0.9637 -1.4131  0.3603
 8131SOL    HW236030   3.989   2.537   1.303 -0.1325 -0.1380  2.2449
 8132SOL     OW36031   2.025   2.874   8.073  0.2966 -0.0320 -0.7907
 8132SOL    HW136032   1.949   2.824   8.100 -0.8505  1.6551 -0.8620
 8132SOL    HW236033   2.093   2.811   8.098  0.4008 -1.1482 -3.8646
 8133SOL     OW36034   3.473   0.180  13.685  0.3795 -0.1122  0.3864
 8133SOL    HW136035   3.467   0.249  13.619 -1.0174 -0.0025  0.6195
 8133SOL    HW236036   3.533   0.217  13.749  0.1262 -3.1670  2.4389
 8134SOL     OW36037   0.966   3.669   3.083  0.0281 -0.0220  0.2998
 8134SOL    HW136038   0.984   3.644   3.174 -1.2954 -0.6675  0.3934
 8134SOL    HW236039   0.974   3.582   3.045  0.5268  0.3751 -0.4967
 8135SOL     OW36040   3.254   1.315   1.739 -0.8407 -0.4780  0.4321
 8135SOL    HW136041   3.186   1.382   1.748  0.1105  0.6424 -0.7830
 8135SOL    HW236042   3.332   1.370   1.728 -1.7330  0.4267 -1.4729
 8136SOL     OW36043   4.012   0.720   6.736  0.1694  0.1967  0.5800
 8136SOL    HW136044   3.981   0.766   6.814  1.6565 -0.9309  1.8505
 8136SOL    HW236045   3.950   0.747   6.669 -0.1260 -0.0968  0.7354
 8137SOL     OW36046   1.210   2.849   3.117  0.3456 -0.3465  0.3066
 8137SOL    HW136047   1.191   2.943   3.123 -0.2386 -0.5496  1.6171
 8137SOL    HW236048   1.125   2.815   3.144 -0.8458  1.4762 -1.0767
 8138SOL     OW36049   1.459   0.083   8.824  0.8284  0.0811 -0.2615
 8138SOL    HW136050   1.507   0.000   8.821  0.4259 -0.2166  1.8921
 8138SOL    HW236051   1.409   0.087   8.742 -1.7360 -0.2297  1.3082
 8139SOL     OW36052   2.209   1.044   4.788  0.2903  0.0924 -0.3921
 8139SOL    HW136053   2.147   1.097   4.838  1.1040  0.3714  0.3048
 8139SOL    HW236054   2.192   1.078   4.700  1.0397  0.3913 -0.4208
 8140SOL     OW36055   4.348   4.154   4.540 -0.0452 -0.5661 -0.1203
 8140SOL    HW136056   4.313   4.128   4.625 -1.6247  1.3937 -0.1733
 8140SOL    HW236057   4.439   4.173   4.563 -0.8739  2.3268  0.7064
 8141SOL     OW36058   2.424   2.206  13.898  0.5248 -0.6817 -0.6792
 8141SOL    HW136059   2.497   2.259  13.866  1.5382 -1.0377  1.0590
 8141SOL    HW236060   2.455   2.167  13.979  2.0429 -3.3330 -2.5324
 8142SOL     OW36061   0.032   1.976  11.770  0.0633 -0.4817  0.2932
 8142SOL    HW136062   0.027   2.025  11.852 -0.0252  0.4375 -0.2613
 8142SOL    HW236063   4.723   2.024  11.703  1.5842  2.2609  1.1913
 8143SOL     OW36064   0.620   1.418   2.914  0.1725  0.4769  0.6193
 8143SOL    HW136065   0.581   1.356   2.977  0.9246 -1.0791 -0.4465
 8143SOL    HW236066   0.617   1.364   2.835  0.8263 -1.3882  1.8525
 8144SOL     OW36067   2.049   3.345   6.286  0.4041 -0.0347  0.3766
 8144SOL    HW136068   1.976   3.376   6.232  0.8845  1.1505  0.4188
 8144SOL    HW236069   2.115   3.360   6.218  0.3148 -1.0501  0.0600
 8145SOL     OW36070   4.350   2.892   4.046 -0.2517 -0.2438 -0.3727
 8145SOL    HW136071   4.395   2.949   3.984  0.4409  0.8947  1.1669
 8145SOL    HW236072   4.380   2.803   4.025  0.3253 -0.4280  1.2214
 8146SOL     OW36073   4.558   3.299  17.510 -0.3758  0.3686 -0.0043
 8146SOL    HW136074   4.538   3.221  17.458 -2.3746 -0.4511  2.0448
 8146SOL    HW236075   4.555   3.363  17.438 -0.0067  1.4072  0.9084
 8147SOL     OW36076   0.350   2.477  17.425 -0.8639 -0.2205 -0.4240
 8147SOL    HW136077   0.366   2.517  17.339  2.0322  0.2075  0.3150
 8147SOL    HW236078   0.261   2.442  17.416 -0.4048 -1.1154 -1.5204
 8148SOL     OW36079   2.289   1.651   5.986 -0.3932 -0.2277 -0.0514
 8148SOL    HW136080   2.346   1.725   5.965 -1.5750  0.5396 -0.5549
 8148SOL    HW236081   2.294   1.592   5.911 -4.0800 -1.2030  0.5036
 8149SOL     OW36082   1.747   0.115   8.588 -0.2477  0.2333  0.2701
 8149SOL    HW136083   1.690   0.091   8.661 -0.8339  0.9156  0.0431
 8149SOL    HW236084   1.730   0.040   8.531  2.7674  0.5020 -0.9694
 8150SOL     OW36085   1.882   3.409   0.831  0.1939 -0.2735 -0.2001
 8150SOL    HW136086   1.913   3.319   0.821  2.6309  0.5417  0.0324
 8150SOL    HW236087   1.790   3.391   0.851 -0.1217  0.3230 -1.1052
 8151SOL     OW36088   3.211   2.785  16.308  0.0242  0.2473  0.1994
 8151SOL    HW136089   3.283   2.733  16.274  0.3419  0.6443  0.2635
 8151SOL    HW236090   3.222   2.751  16.396  0.8358  3.0313  1.1830
 8152SOL     OW36091   1.466   2.177   7.626  0.1819  0.0744 -0.1878
 8152SOL    HW136092   1.373   2.198   7.636  0.0181 -0.6197 -0.2463
 8152SOL    HW236093   1.485   2.114   7.695  3.6645 -0.9370 -2.0802
 8153SOL     OW36094   2.656   1.635   5.038  0.1574  0.4948  0.0621
 8153SOL    HW136095   2.656   1.694   4.963 -0.0875  1.8619  1.1506
 8153SOL    HW236096   2.620   1.694   5.104  0.7190  2.4628 -1.4163
 8154SOL     OW36097   4.619   3.005   2.877 -0.0195 -0.4837 -0.1983
 8154SOL    HW136098   4.623   2.922   2.828  1.5009 -0.7348  0.3438
 8154SOL    HW236099   4.602   3.059   2.800  1.0745  1.3768  0.8666
 8155SOL     OW36100   2.431   1.480   5.011  0.1917  0.1525 -0.1665
 8155SOL    HW136101   2.377   1.559   5.017 -0.0183  0.2018 -2.8167
 8155SOL    HW236102   2.517   1.518   4.998 -0.7708  2.1799 -0.6074
 8156SOL     OW36103   0.907   2.146   8.430 -0.1893 -0.2864  0.1790
 8156SOL    HW136104   0.828   2.103   8.462 -0.8516 -0.1869 -1.2948
 8156SOL    HW236105   0.954   2.151   8.513  0.2036 -0.2970 -0.0433
 8157SOL     OW36106   2.797   2.364   8.973  0.1052  0.0174  0.6705
 8157SOL    HW136107   2.888   2.372   9.001 -0.0741 -1.7185  1.7444
 8157SOL    HW236108   2.812   2.273   8.947  1.2411  0.0048  1.3489
 8158SOL     OW36109   1.138   1.871   0.300 -0.7847 -0.2397 -0.1163
 8158SOL    HW136110   1.050   1.846   0.269 -0.7455 -0.3057 -0.1758
 8158SOL    HW236111   1.147   1.966   0.306 -2.6223 -0.0896  0.2420
 8159SOL     OW36112   2.290   3.216   8.880 -0.3158 -0.4006  0.0399
 8159SOL    HW136113   2.279   3.137   8.827 -1.1429  1.3177 -2.3598
 8159SOL    HW236114   2.294   3.284   8.812 -0.9525  0.3589  0.7697
 8160SOL     OW36115   3.548   3.098   3.332 -0.0215  0.5049  0.2807
 8160SOL    HW136116   3.642   3.092   3.348  0.1148 -0.7766 -1.0629
 8160SOL    HW236117   3.543   3.193   3.344 -1.7496  0.2269  1.5800
 8161SOL     OW36118   0.240   3.921   7.984  0.4180  0.0306  0.2667
 8161SOL    HW136119   0.286   3.837   7.983 -3.3187 -2.0791  1.7522
 8161SOL    HW236120   0.291   3.974   7.924 -2.0757  1.4836 -0.5497
 8162SOL     OW36121   2.668   1.011   7.402  0.3724  0.1645 -0.2660
 8162SOL    HW136122   2.646   1.096   7.364  2.3410  1.3042  1.1651
 8162SOL    HW236123   2.709   0.970   7.326  0.3948 -0.0149 -0.1586
 8163SOL     OW36124   2.862   0.559   8.812 -0.0445 -0.5161  0.6699
 8163SOL    HW136125   2.916   0.501   8.758  0.2052 -0.1315  0.5057
 8163SOL    HW236126   2.820   0.502   8.876  1.6965 -1.6719  0.7926
 8164SOL     OW36127   1.397   4.535   8.849  0.2806  0.0966 -0.3599
 8164SOL    HW136128   1.378   4.526   8.943 -0.5155  2.0443 -0.3469
 8164SOL    HW236129   1.323   4.580   8.810  0.0581  0.4005  0.4082
 8165SOL     OW36130   3.230   2.282   0.819  0.1084 -0.2077  0.5200
 8165SOL    HW136131   3.146   2.278   0.864  0.8500 -0.4119  1.8738
 8165SOL    HW236132   3.232   2.371   0.785  1.9377 -0.3176  0.3653
 8166SOL     OW36133   3.396   1.324  11.657  0.5658  0.1547 -0.1748
 8166SOL    HW136134   3.407   1.388  11.727  2.2881 -3.0633  2.5247
 8166SOL    HW236135   3.486   1.303  11.632  0.6095  0.8870 -0.6038
 8167SOL     OW36136   2.829   3.446   4.967  0.6568 -0.0324  0.6836
 8167SOL    HW136137   2.910   3.427   4.919  0.3853  1.0442 -0.1809
 8167SOL    HW236138   2.848   3.539   4.975  2.4803 -0.3344 -0.0811
 8168SOL     OW36139   2.931   2.241   2.747 -0.0651  0.0293 -0.0708
 8168SOL    HW136140   3.005   2.197   2.704  2.0633  2.7988  0.7040
 8168SOL    HW236141   2.927   2.204   2.835 -2.8586  0.1591 -0.1482
 8169SOL     OW36142   2.873   1.469   7.133  0.3131 -0.0689 -0.0735
 8169SOL    HW136143   2.886   1.564   7.133 -1.8163  0.2351 -2.4669
 8169SOL    HW236144   2.791   1.461   7.181  1.2330  2.0403  1.8589
 8170SOL     OW36145   3.048   4.401   6.078  0.3361  0.0484 -0.1494
 8170SOL    HW136146   3.130   4.395   6.028 -0.2661 -1.2163 -0.9667
 8170SOL    HW236147   3.019   4.491   6.063 -0.2905  0.0087  0.8156
 8171SOL     OW36148   4.495   4.074  10.440  0.5671  0.3579 -0.2467
 8171SOL    HW136149   4.420   4.020  10.415 -0.1019  0.9691  0.4094
 8171SOL    HW236150   4.564   4.018  10.407  1.4220  1.3310 -0.1132
 8172SOL     OW36151   1.670   2.763   9.121  0.4622 -0.2530  0.1308
 8172SOL    HW136152   1.656   2.856   9.105  1.4414 -0.4784 -2.1282
 8172SOL    HW236153   1.754   2.765   9.165  0.4320  2.7812  0.0740
 8173SOL     OW36154   3.184   3.193   0.714  0.0005  0.4099 -0.2173
 8173SOL    HW136155   3.200   3.229   0.627  2.0597  0.8754  0.3554
 8173SOL    HW236156   3.208   3.259   0.779  1.1489 -0.9628  0.7695
 8174SOL     OW36157   1.454   0.829   4.359 -0.1514  0.6081 -0.8531
 8174SOL    HW136158   1.511   0.903   4.378 -1.1999  1.6216 -1.6407
 8174SOL    HW236159   1.387   0.832   4.426 -0.6378 -0.5871 -1.2817
 8175SOL     OW36160   4.115   1.521   8.207  0.1843  0.4165  0.1960
 8175SOL    HW136161   4.094   1.483   8.292 -0.4860  1.5545  0.5468
 8175SOL    HW236162   4.209   1.538   8.211  0.1757  0.6374 -0.4700
 8176SOL     OW36163   0.418   4.249   2.286 -0.0184 -0.0827  0.0725
 8176SOL    HW136164   0.454   4.338   2.289 -0.8298  0.2955 -1.3981
 8176SOL    HW236165   0.499   4.201   2.306 -0.0135 -0.3951 -0.6820
 8177SOL     OW36166   1.276   4.379  14.170 -0.0268 -0.9001 -0.0991
 8177SOL    HW136167   1.276   4.363  14.076  0.6095 -0.3466 -0.1979
 8177SOL    HW236168   1.239   4.295  14.198 -1.9210  0.2776  0.9004
 8178SOL     OW36169   2.539   2.391  11.777  0.2055 -0.2892  0.0530
 8178SOL    HW136170   2.503   2.327  11.716  0.0421  0.4246 -0.5988
 8178SOL    HW236171   2.628   2.356  11.786 -0.7882 -2.5538  0.9817
 8179SOL     OW36172   1.886   2.004   8.267  0.4362 -0.1216  0.2692
 8179SOL    HW136173   1.804   1.959   8.288 -2.0518  3.2038 -2.4338
 8179SOL    HW236174   1.857   2.093   8.285 -1.5420 -1.1943  2.2734
 8180SOL     OW36175   3.334   1.313   1.092 -0.5882 -0.3823 -0.3565
 8180SOL    HW136176   3.267   1.381   1.092  0.2171  0.4266 -1.0033
 8180SOL    HW236177   3.366   1.331   1.181  1.9242  1.3987 -1.5949
 8181SOL     OW36178   3.849   0.501   0.236 -0.4194  0.0635  0.1248
 8181SOL    HW136179   3.763   0.536   0.212 -0.9259 -0.0192  1.8185
 8181SOL    HW236180   3.909   0.576   0.241  1.0907 -1.1755  0.8818
 8182SOL     OW36181   3.828   4.001   4.379 -0.1393 -0.3179  0.2621
 8182SOL    HW136182   3.841   4.060   4.454 -2.1579  0.5534 -0.0727
 8182SOL    HW236183   3.861   4.046   4.302 -2.3864  0.5859 -0.1854
 8183SOL     OW36184   1.609   4.510  17.419  0.2000  0.4139 -0.4219
 8183SOL    HW136185   1.520   4.492  17.450  0.8160 -2.5144 -0.2979
 8183SOL    HW236186   1.616   4.597  17.458 -0.1904 -0.2950  1.2399
 8184SOL     OW36187   3.292   3.293   4.227  0.1971 -0.3854  0.1799
 8184SOL    HW136188   3.271   3.239   4.151 -0.9933  0.7494 -0.2993
 8184SOL    HW236189   3.299   3.376   4.179 -1.4936  0.2361  1.0193
 8185SOL     OW36190   3.980   4.335   7.883 -0.3771  0.0697  0.3608
 8185SOL    HW136191   3.975   4.296   7.971 -0.8056 -2.9677 -0.9957
 8185SOL    HW236192   3.991   4.428   7.900 -1.7191  0.5216 -1.2357
 8186SOL     OW36193   2.163   1.850   4.610  0.1295 -0.2659 -0.2442
 8186SOL    HW136194   2.173   1.914   4.681  0.4413 -0.9400  0.3158
 8186SOL    HW236195   2.162   1.915   4.540 -1.2144  0.3085  0.3105
 8187SOL     OW36196   3.122   0.198   3.229 -0.4780  0.1464  0.7107
 8187SOL    HW136197   3.193   0.214   3.291  0.1750 -0.5815  0.1480
 8187SOL    HW236198   3.157   0.263   3.168  0.0757 -2.3833 -1.6683
 8188SOL     OW36199   3.564   3.556  10.321  0.1802  0.3242  0.1313
 8188SOL    HW136200   3.573   3.490  10.252 -1.8009  0.2835 -0.0917
 8188SOL    HW236201   3.514   3.503  10.382 -1.1359 -0.2061 -1.4166
 8189SOL     OW36202   4.678   1.428   8.156  0.1620 -0.3037 -0.2066
 8189SOL    HW136203   4.640   1.465   8.076 -0.1732 -2.4313 -1.0301
 8189SOL    HW236204   4.729   1.503   8.189  0.2916 -1.2851  1.8053
 8190SOL     OW36205   2.561   1.694   2.318  0.0443 -0.7517  0.4934
 8190SOL    HW136206   2.512   1.749   2.379  1.0002  0.5406  0.0935
 8190SOL    HW236207   2.518   1.719   2.236 -2.3099 -0.1460  1.9282
 8191SOL     OW36208   0.043   3.547   5.941  0.4775 -0.0533  0.3143
 8191SOL    HW136209   0.067   3.639   5.928 -1.2193  0.0874 -1.7736
 8191SOL    HW236210   0.059   3.512   5.854  2.3380 -0.4188  0.8147
 8192SOL     OW36211   0.270   3.766  15.305 -0.8299  0.2719  0.1609
 8192SOL    HW136212   0.328   3.816  15.247  0.1547 -0.6457  0.3532
 8192SOL    HW236213   0.296   3.808  15.387 -0.3660 -0.0148  0.1612
 8193SOL     OW36214   0.760   0.729   5.488  0.1326  0.2417  0.0161
 8193SOL    HW136215   0.801   0.779   5.418  1.3717  1.1435  1.3908
 8193SOL    HW236216   0.762   0.642   5.448  0.6300  0.2531  0.0201
 8194SOL     OW36217   1.234   0.004  11.672 -0.6036 -0.4164 -0.1103
 8194SOL    HW136218   1.282   0.084  11.650 -2.2665  0.7687  0.5694
 8194SOL    HW236219   1.294   4.716  11.742  0.2654  1.5310 -0.1206
 8195SOL     OW36220   4.596   2.658   4.236  0.4886  0.5707  0.0477
 8195SOL    HW136221   4.671   2.602   4.257 -0.4618 -0.5343  0.5573
 8195SOL    HW236222   4.636   2.717   4.173  0.9575  2.0119  1.6916
 8196SOL     OW36223   1.777   1.534  10.893  0.4407 -0.5360 -0.0721
 8196SOL    HW136224   1.833   1.590  10.945  0.4130 -0.4816 -0.1008
 8196SOL    HW236225   1.717   1.508  10.963 -1.4151 -2.1495 -2.2576
 8197SOL     OW36226   2.157   0.888   3.331 -0.5182 -0.2772  0.0778
 8197SOL    HW136227   2.154   0.872   3.425 -0.5921 -0.0831  0.1079
 8197SOL    HW236228   2.249   0.872   3.309 -0.3891  0.2817  0.1955
 8198SOL     OW36229   4.615   4.625  14.243  0.1506 -0.0429  0.6699
 8198SOL    HW136230   4.574   4.666  14.167  1.4104 -0.1383 -0.0639
 8198SOL    HW236231   4.685   4.681  14.276 -0.6694  1.6703 -0.4684
 8199SOL     OW36232   1.067   4.306  16.698  0.4537  0.9423  0.4750
 8199SOL    HW136233   1.057   4.390  16.653 -1.3719  0.6156  0.2537
 8199SOL    HW236234   1.112   4.254  16.632 -1.7040 -1.8479  1.1953
 8200SOL     OW36235   0.162   3.889   0.695  0.2156  0.3779  0.2315
 8200SOL    HW136236   0.195   3.979   0.696 -1.1134  0.8891 -0.6454
 8200SOL    HW236237   0.070   3.914   0.706  0.1380  0.0620  0.3000
 8201SOL     OW36238   2.342   0.641   5.320 -1.1570  0.3261 -0.7629
 8201SOL    HW136239   2.303   0.576   5.261  1.1047 -1.2867 -0.4594
 8201SOL    HW236240   2.427   0.671   5.286  0.8347 -3.1644  1.1007
 8202SOL     OW36241   1.786   0.762   6.702  0.0771 -0.0378  0.3484
 8202SOL    HW136242   1.777   0.681   6.654  0.0086  1.0941 -1.5335
 8202SOL    HW236243   1.882   0.756   6.696 -0.1468 -2.5762 -0.5309
 8203SOL     OW36244   4.430   1.780   8.582 -0.2525 -0.1189  0.5242
 8203SOL    HW136245   4.352   1.745   8.626  0.6676 -1.4333  1.1162
 8203SOL    HW236246   4.465   1.700   8.542  2.1627  1.3656 -0.2615
 8204SOL     OW36247   1.717   3.491  14.603  0.1505  0.1723 -0.5981
 8204SOL    HW136248   1.739   3.557  14.538 -0.5693 -0.9410 -1.9739
 8204SOL    HW236249   1.652   3.534  14.659 -0.4318 -0.1250 -1.0554
 8205SOL     OW36250   3.137   2.528   8.552 -0.2634 -0.2325 -0.0302
 8205SOL    HW136251   3.174   2.547   8.466  0.7753  1.9541  0.9175
 8205SOL    HW236252   3.181   2.444   8.568  0.9283  0.4077  0.0350
 8206SOL     OW36253   1.046   1.674   4.632 -0.5248 -0.0755  0.2143
 8206SOL    HW136254   1.100   1.668   4.711 -0.9474  0.9035  0.5732
 8206SOL    HW236255   1.100   1.623   4.571  0.2507 -1.8105  2.3613
 8207SOL     OW36256   0.194   3.924  14.227 -0.3036 -0.0976  0.2966
 8207SOL    HW136257   0.123   3.887  14.281 -0.3924  2.9046  2.2235
 8207SOL    HW236258   0.259   3.860  14.257  0.5458 -0.7998 -3.1033
 8208SOL     OW36259   0.466   2.196   5.488 -0.4193  0.1211 -0.6405
 8208SOL    HW136260   0.505   2.109   5.478  2.0714  1.3771 -1.5990
 8208SOL    HW236261   0.505   2.235   5.566  0.2981 -0.4892 -0.6945
 8209SOL     OW36262   1.815   3.712   3.182 -0.4389 -0.3378  0.1474
 8209SOL    HW136263   1.760   3.743   3.110  0.2663 -3.4741 -1.7398
 8209SOL    HW236264   1.775   3.629   3.209  0.4183 -1.2983 -1.5276
 8210SOL     OW36265   4.508   4.497   3.404 -0.3095  0.5301  0.3176
 8210SOL    HW136266   4.552   4.423   3.362 -1.4945 -0.1188  0.2197
 8210SOL    HW236267   4.453   4.447   3.465  1.4320 -1.2595  0.4251
 8211SOL     OW36268   0.989   4.404  14.574  0.7476 -0.0885  0.3182
 8211SOL    HW136269   1.084   4.408  14.561  1.3771 -1.9461  4.4322
 8211SOL    HW236270   0.972   4.314  14.544 -2.1257 -0.9846  4.6083
 8212SOL     OW36271   3.232   1.873   1.279 -0.5242  0.1128 -0.3205
 8212SOL    HW136272   3.269   1.936   1.340  1.1447  0.0286 -1.2567
 8212SOL    HW236273   3.251   1.792   1.326 -1.4313 -0.6265 -1.2147
 8213SOL     OW36274   0.783   0.166   4.974 -0.1824 -0.4654 -0.3401
 8213SOL    HW136275   0.708   0.163   5.033 -0.7130  0.7925 -0.9662
 8213SOL    HW236276   0.849   0.137   5.037 -0.4405 -0.1165  0.0860
 8214SOL     OW36277   2.139   3.988   0.481 -0.2017  0.7458 -0.0630
 8214SOL    HW136278   2.186   4.059   0.526  0.5159 -0.0218  0.3815
 8214SOL    HW236279   2.122   4.037   0.400  0.9701  1.8544  0.3546
 8215SOL     OW36280   3.831   4.029   3.914  0.1246  0.1781 -0.1574
 8215SOL    HW136281   3.901   3.988   3.965 -1.6449 -1.1417  1.2546
 8215SOL    HW236282   3.875   4.114   3.912  2.4586 -1.0373  0.0313
 8216SOL     OW36283   0.348   0.401   8.826  0.0709 -0.1733 -0.2478
 8216SOL    HW136284   0.311   0.475   8.875 -1.2191  0.1405 -1.6996
 8216SOL    HW236285   0.427   0.438   8.785 -0.1849  0.0270 -0.5582
 8217SOL     OW36286   4.124   0.221  10.367 -0.2088 -0.4490 -0.0198
 8217SOL    HW136287   4.142   0.271  10.447 -0.4686 -0.6563  0.1692
 8217SOL    HW236288   4.207   0.178  10.347  0.0276 -0.3124  0.6707
 8218SOL     OW36289   0.004   1.779   3.125 -0.3380 -0.0546  0.5659
 8218SOL    HW136290   0.002   1.818   3.213 -0.2404  0.4889  0.3275
 8218SOL    HW236291   0.083   1.818   3.088  0.6510 -0.1886  2.4990
 8219SOL     OW36292   4.295   4.720   2.413  0.1330  0.0639 -0.2935
 8219SOL    HW136293   4.220   4.729   2.472  0.6476  1.1629  0.1856
 8219SOL    HW236294   4.265   0.049   2.352  1.2219 -1.7242 -2.8202
 8220SOL     OW36295   2.501   3.887   6.778  0.3030 -0.2128  0.3427
 8220SOL    HW136296   2.592   3.860   6.787  0.6099  0.0035 -2.3536
 8220SOL    HW236297   2.454   3.862   6.858  0.8206 -1.2120  0.3363
 8221SOL     OW36298   1.226   1.072   7.496  0.7535  0.1034  0.0849
 8221SOL    HW136299   1.179   1.037   7.572  0.3575 -0.0894 -0.2521
 8221SOL    HW236300   1.318   1.087   7.518  1.4367 -1.0611 -1.9400
 8222SOL     OW36301   3.708   2.427   7.918  0.5175 -0.5492  0.4061
 8222SOL    HW136302   3.723   2.485   7.844 -0.0833 -0.7898  0.0894
 8222SOL    HW236303   3.717   2.341   7.876 -2.5744 -0.8310  0.3199
 8223SOL     OW36304   4.069   0.185   3.440 -0.0834 -0.5772 -0.7646
 8223SOL    HW136305   4.103   0.125   3.374  0.8818 -0.7765 -0.0878
 8223SOL    HW236306   4.040   0.264   3.393 -0.6257 -0.5645 -0.4153
 8224SOL     OW36307   0.253   1.350   8.228  0.0285  0.2354 -0.1921
 8224SOL    HW136308   0.339   1.312   8.243 -0.8225 -1.2258  1.0778
 8224SOL    HW236309   0.204   1.332   8.309  1.6065  0.3852  0.7898
 8225SOL     OW36310   3.856   4.127  14.574 -0.0903 -0.1909 -1.1088
 8225SOL    HW136311   3.946   4.103  14.593  0.6318  2.4600 -1.1266
 8225SOL    HW236312   3.856   4.222  14.589 -0.0695 -0.2635 -0.6523
 8226SOL     OW36313   2.761   3.058   9.497  0.4822 -0.7610 -0.0022
 8226SOL    HW136314   2.747   2.964   9.488 -2.0444 -0.3282 -0.5822
 8226SOL    HW236315   2.758   3.089   9.406  0.5528  0.2621  0.3421
 8227SOL     OW36316   2.696   1.812   1.721 -0.1723 -0.0676 -0.4446
 8227SOL    HW136317   2.785   1.844   1.706 -0.7159  0.6357 -2.0417
 8227SOL    HW236318   2.675   1.857   1.803 -1.8489 -0.8024 -0.4699
 8228SOL     OW36319   3.125   4.675  13.491  0.6249 -0.3937  0.4786
 8228SOL    HW136320   3.214   4.700  13.515 -0.3420  3.1215  0.4034
 8228SOL    HW236321   3.133   4.651  13.399 -0.6065 -1.6527  0.6850
 8229SOL     OW36322   2.426   4.299   3.727 -0.4747 -0.2878 -0.5022
 8229SOL    HW136323   2.338   4.330   3.746 -0.6202 -0.5156 -0.8036
 8229SOL    HW236324   2.429   4.222   3.783  0.6029 -0.3123 -0.5926
 8230SOL     OW36325   0.260   3.340  11.089 -0.3808 -0.2487 -0.5656
 8230SOL    HW136326   0.172   3.369  11.112 -0.5391 -0.6939 -0.6098
 8230SOL    HW236327   0.315   3.380  11.156  0.2745 -1.4536 -0.3875
 8231SOL     OW36328   1.067   2.784  15.038  0.0117  0.6078 -0.2074
 8231SOL    HW136329   1.093   2.876  15.040 -0.9475  0.8294  1.9195
 8231SOL    HW236330   0.972   2.792  15.045 -0.0937 -1.5192  0.7954
 8232SOL     OW36331   2.762   2.509  12.737 -0.7335  0.0843  0.3844
 8232SOL    HW136332   2.856   2.521  12.719 -0.6186  1.0426  1.6030
 8232SOL    HW236333   2.739   2.535  12.827 -1.1294 -1.1634  0.6444
 8233SOL     OW36334   1.106   0.008   5.684  0.0818  0.2085  0.6257
 8233SOL    HW136335   1.191   4.703   5.695 -0.5248 -1.3936 -0.9394
 8233SOL    HW236336   1.048   4.680   5.721 -1.5550  0.7835 -0.8928
 8234SOL     OW36337   0.218   0.433  16.962 -0.0680 -0.5703 -0.3531
 8234SOL    HW136338   0.179   0.346  16.964 -1.5308  0.1198  0.9962
 8234SOL    HW236339   0.294   0.403  17.012 -0.6703  0.1363  0.9852
 8235SOL     OW36340   1.289   4.250   9.097  0.1665  0.5841 -0.0465
 8235SOL    HW136341   1.301   4.280   9.187 -0.8437  1.5180 -0.2302
 8235SOL    HW236342   1.197   4.222   9.101 -0.5540  3.1521  1.0709
 8236SOL     OW36343   0.755   0.826  10.332 -0.3842 -0.2198 -0.1400
 8236SOL    HW136344   0.790   0.773  10.404  0.8967  0.0723 -0.5305
 8236SOL    HW236345   0.705   0.753  10.295 -2.4449  0.9206  0.4475
 8237SOL     OW36346   4.156   3.699   4.077  0.2646  0.0834  0.0801
 8237SOL    HW136347   4.180   3.676   3.987 -0.5279 -0.0828 -0.0940
 8237SOL    HW236348   4.232   3.661   4.121  0.0719  0.3823  0.6669
 8238SOL     OW36349   0.020   3.137  16.286 -0.0943 -0.1254  0.5487
 8238SOL    HW136350   0.015   3.187  16.205 -0.8017  0.8610  1.2031
 8238SOL    HW236351   0.017   3.047  16.252 -0.0552  0.3398 -0.6589
 8239SOL     OW36352   2.871   4.091   9.987 -0.5703 -0.0112  0.1203
 8239SOL    HW136353   2.919   4.064  10.065  0.6652 -0.7584 -0.9144
 8239SOL    HW236354   2.801   4.144  10.025 -0.8286 -0.4591  0.2680
 8240SOL     OW36355   2.621   2.149   8.247  0.0118 -0.3860 -0.5749
 8240SOL    HW136356   2.609   2.231   8.293  1.0963 -0.7979  0.4375
 8240SOL    HW236357   2.694   2.166   8.187  1.8060  0.0982  1.7385
 8241SOL     OW36358   2.406   3.480   2.554 -0.0206  0.2034 -0.2251
 8241SOL    HW136359   2.483   3.459   2.501  1.8013  2.4060  1.6104
 8241SOL    HW236360   2.344   3.422   2.509  0.3898 -1.0226  0.8141
 8242SOL     OW36361   3.022   2.166  17.242 -0.5109 -0.1278  0.3649
 8242SOL    HW136362   2.976   2.247  17.219  0.1222  0.3824  0.9178
 8242SOL    HW236363   3.096   2.198  17.292  0.2737 -1.8394  0.3148
 8243SOL     OW36364   0.797   4.362   0.321 -0.2900 -0.2018 -0.2053
 8243SOL    HW136365   0.705   4.386   0.310  0.0405  1.4766  0.7866
 8243SOL    HW236366   0.806   4.373   0.415  0.6671 -0.2540 -0.2869
 8244SOL     OW36367   4.408   0.638   8.156  0.4260 -0.0621  0.6592
 8244SOL    HW136368   4.466   0.686   8.216  2.9924 -1.7402 -0.4568
 8244SOL    HW236369   4.323   0.674   8.179 -0.2554 -1.4607  0.2986
 8245SOL     OW36370   0.400   2.949  13.099 -0.1267 -0.2942 -0.2016
 8245SOL    HW136371   0.486   2.984  13.123  0.3082 -0.4698 -1.5028
 8245SOL    HW236372   0.409   2.854  13.103 -0.5555 -0.3318 -0.1708
 8246SOL     OW36373   0.795   1.446  10.681  0.2400 -0.2337  0.0310
 8246SOL    HW136374   0.751   1.531  10.687 -1.1439 -1.0000  0.8418
 8246SOL    HW236375   0.819   1.428  10.771  1.8300  0.3163 -0.2945
 8247SOL     OW36376   3.496   0.333   5.448  0.0869  0.6760  0.2532
 8247SOL    HW136377   3.587   0.308   5.462 -0.4102 -1.2662  0.0265
 8247SOL    HW236378   3.484   0.295   5.361 -0.5356  0.2766  0.5159
 8248SOL     OW36379   0.712   4.047   1.316  0.2371  0.0661  0.6949
 8248SOL    HW136380   0.774   3.995   1.265 -0.4362  0.2997 -0.3404
 8248SOL    HW236381   0.629   4.030   1.273  0.9117  0.5269 -0.7759
 8249SOL     OW36382   3.171   2.958   5.961  0.3107  0.7685 -0.4108
 8249SOL    HW136383   3.166   2.864   5.978 -1.4133  1.1727  1.4000
 8249SOL    HW236384   3.121   3.002   6.030  0.5029  0.4164 -0.0480
 8250SOL     OW36385   2.618   2.687  15.742  0.7915 -0.0892 -0.1798
 8250SOL    HW136386   2.542   2.728  15.782  1.4255  0.9388 -0.0428
 8250SOL    HW236387   2.661   2.642  15.815 -2.3684 -1.1012  1.0580
 8251SOL     OW36388   3.113   1.523   2.130 -0.1676  0.4604 -0.6169
 8251SOL    HW136389   3.086   1.547   2.041  4.0524 -0.0862 -2.0741
 8251SOL    HW236390   3.141   1.432   2.120  1.7517  0.6748  2.6200
 8252SOL     OW36391   0.682   0.950   8.722 -0.0516 -0.0704 -0.3867
 8252SOL    HW136392   0.732   0.869   8.729  1.0780  0.7199  0.7535
 8252SOL    HW236393   0.752   1.010   8.748  0.1353 -0.7933  0.8078
 8253SOL     OW36394   3.812   1.162   5.962  0.2241  0.1315  0.0768
 8253SOL    HW136395   3.866   1.222   6.014 -0.5172  0.4153  0.5266
 8253SOL    HW236396   3.816   1.199   5.874 -1.5476  4.0138  1.6132
 8254SOL     OW36397   1.537   0.317   1.212  0.3024 -0.0398 -0.4114
 8254SOL    HW136398   1.475   0.335   1.142  1.2318  2.7359 -0.5125
 8254SOL    HW236399   1.536   0.223   1.196  0.3753 -0.0585 -0.3045
 8255SOL     OW36400   1.303   1.051   4.080 -0.4877 -0.5908 -0.5029
 8255SOL    HW136401   1.393   1.035   4.051  0.8948  2.0539  2.3442
 8255SOL    HW236402   1.269   1.107   4.011  0.0724 -0.9435 -1.0656
 8256SOL     OW36403   4.119   4.412  15.530 -1.0143 -0.4237 -0.6038
 8256SOL    HW136404   4.109   4.498  15.491  0.4290 -0.4640 -1.0951
 8256SOL    HW236405   4.199   4.379  15.488 -1.8061 -2.8943 -0.2175
 8257SOL     OW36406   1.411   0.147   8.005 -0.4823  0.0003  0.4162
 8257SOL    HW136407   1.497   0.119   8.036  1.6216  1.4198 -4.1606
 8257SOL    HW236408   1.358   0.119   8.079 -2.3634  0.6673 -0.6701
 8258SOL     OW36409   3.789   3.923   9.081 -0.4975 -0.5351 -0.4471
 8258SOL    HW136410   3.790   3.936   9.176 -1.2248  0.3272 -0.5552
 8258SOL    HW236411   3.767   4.015   9.065 -0.1984 -0.2689  0.6660
 8259SOL     OW36412   1.917   1.189   9.833  0.2656  0.5920  0.3987
 8259SOL    HW136413   1.906   1.243   9.911  1.3549  1.5042 -0.0673
 8259SOL    HW236414   2.002   1.227   9.810  0.5298  0.7430  1.6241
 8260SOL     OW36415   2.799   3.506   6.232 -0.4740  0.4839  0.1563
 8260SOL    HW136416   2.873   3.464   6.277  0.1466 -1.2714 -2.4802
 8260SOL    HW236417   2.742   3.538   6.302 -0.8196  1.1930 -0.4504
 8261SOL     OW36418   1.682   4.249  12.856 -0.3485 -0.0033 -0.0539
 8261SOL    HW136419   1.758   4.212  12.812 -1.3423 -0.3483 -1.4894
 8261SOL    HW236420   1.729   4.316  12.905 -1.8340  0.1741  1.1576
 8262SOL     OW36421   4.691   3.943   1.445 -0.0272  0.4341  0.6627
 8262SOL    HW136422   4.716   4.035   1.438  0.4145  0.1365 -1.9785
 8262SOL    HW236423   4.614   3.940   1.501 -0.3315 -1.4395  0.1637
 8263SOL     OW36424   4.729   4.426   8.541 -0.3641  0.7065 -0.1821
 8263SOL    HW136425   4.720   4.371   8.464 -1.0742  1.9755 -1.0051
 8263SOL    HW236426   0.084   4.442   8.554 -0.2858  0.8416 -0.9168
 8264SOL     OW36427   2.850   2.374   3.240 -0.1439 -0.0586  0.1056
 8264SOL    HW136428   2.942   2.367   3.266 -0.1476  0.6454  0.3395
 8264SOL    HW236429   2.817   2.308   3.301 -1.8387  2.1044  1.5370
 8265SOL     OW36430   3.995   3.267   0.908  0.1638  0.0815  0.4872
 8265SOL    HW136431   3.936   3.320   0.854  0.5843 -1.7271 -1.7433
 8265SOL    HW236432   4.074   3.240   0.861 -1.2301  0.7529 -2.2712
 8266SOL     OW36433   1.426   3.371  16.958  0.5796 -0.4290  0.7372
 8266SOL    HW136434   1.429   3.336  16.869  0.5604  1.3685  0.0458
 8266SOL    HW236435   1.433   3.281  16.991 -2.8199 -1.4632 -1.3697
 8267SOL     OW36436   3.076   1.808   5.236 -0.3857  0.4897  0.4894
 8267SOL    HW136437   3.090   1.787   5.328 -2.8202 -0.8927  0.5457
 8267SOL    HW236438   3.092   1.902   5.235  0.5189  0.3366  0.5663
 8268SOL     OW36439   3.379   3.591   8.840  0.7033  0.1334 -0.3631
 8268SOL    HW136440   3.426   3.570   8.920 -0.0935 -1.2449 -0.2574
 8268SOL    HW236441   3.392   3.511   8.789  2.8549  0.1734  0.1512
 8269SOL     OW36442   0.267   3.158   1.746  0.0888 -0.4237  0.2742
 8269SOL    HW136443   0.211   3.105   1.804  1.9495 -0.0456  2.3948
 8269SOL    HW236444   0.204   3.200   1.688  0.0908 -0.8309 -0.0208
 8270SOL     OW36445   1.812   2.500   4.498  0.1251 -0.0279  0.3275
 8270SOL    HW136446   1.742   2.500   4.432  0.9601  0.4583 -0.5559
 8270SOL    HW236447   1.879   2.551   4.453  0.1508 -0.1385  0.2412
 8271SOL     OW36448   2.303   4.271   2.882  0.1678  0.3642 -0.4509
 8271SOL    HW136449   2.338   4.234   2.801 -0.6965 -0.4412 -0.4709
 8271SOL    HW236450   2.257   4.191   2.910  1.3310 -0.0213  0.3837
 8272SOL     OW36451   3.665   1.894  10.697 -0.2515 -0.2250  0.7145
 8272SOL    HW136452   3.644   1.814  10.746  2.3296 -1.5646 -0.3755
 8272SOL    HW236453   3.587   1.902  10.641  1.3281 -0.1958 -1.4836
 8273SOL     OW36454   2.854   1.286   2.740 -0.1376 -0.3182 -0.6498
 8273SOL    HW136455   2.920   1.238   2.789 -0.2743 -0.2774 -0.4294
 8273SOL    HW236456   2.869   1.252   2.652  3.4421 -0.7154  0.1166
 8274SOL     OW36457   4.276   1.820   7.182  1.2584 -0.4067  0.0233
 8274SOL    HW136458   4.220   1.834   7.105 -0.1542  0.8129  1.2617
 8274SOL    HW236459   4.243   1.737   7.217  4.1998 -1.0981  1.1607
 8275SOL     OW36460   4.045   2.040   8.243  0.0150  0.5310  0.5299
 8275SOL    HW136461   3.955   2.040   8.277 -0.8678 -2.9405 -1.8077
 8275SOL    HW236462   4.022   2.027   8.152  1.5570 -0.2936  0.2635
 8276SOL     OW36463   0.780   3.004   6.755  0.5309  0.2727  0.0593
 8276SOL    HW136464   0.840   3.079   6.760  1.7373 -0.7159  0.4716
 8276SOL    HW236465   0.755   2.982   6.845  0.0055 -0.9753 -0.3915
 8277SOL     OW36466   3.306   0.540   7.897 -0.2701 -0.1664 -0.3237
 8277SOL    HW136467   3.235   0.538   7.833 -0.7027  1.1076  0.1309
 8277SOL    HW236468   3.317   0.634   7.912  3.0765 -0.4279 -0.9603
 8278SOL     OW36469   0.033   3.772   5.322  0.0499  0.0755  0.0753
 8278SOL    HW136470   4.680   3.784   5.345  0.6692  1.6784  1.7254
 8278SOL    HW236471   0.079   3.787   5.405 -1.1222  1.0742  0.5470
 8279SOL     OW36472   3.130   2.646   5.840 -0.0213 -0.2869  0.0224
 8279SOL    HW136473   3.109   2.567   5.790 -1.6914  0.4493 -0.4422
 8279SOL    HW236474   3.043   2.682   5.860  0.0503 -0.1161  0.0258
 8280SOL     OW36475   4.184   3.179   2.351  0.6355  0.3395 -0.4774
 8280SOL    HW136476   4.245   3.106   2.339 -0.9417 -1.1899  0.7993
 8280SOL    HW236477   4.245   3.252   2.362  1.8659 -0.9331  1.1840
 8281SOL     OW36478   3.922   4.337   2.605  0.0207 -0.0519  0.3363
 8281SOL    HW136479   3.858   4.407   2.611  0.1632  0.1062  0.0073
 8281SOL    HW236480   3.942   4.339   2.511 -0.1547 -2.7866  0.2316
 8282SOL     OW36481   1.476   1.220   6.958 -0.1123  0.3042  0.6139
 8282SOL    HW136482   1.402   1.270   6.992 -2.6257 -0.8556 -3.1838
 8282SOL    HW236483   1.526   1.281   6.904 -1.8988  1.9215  0.7813
 8283SOL     OW36484   0.172   0.926  14.568  0.3418 -0.0399 -0.5469
 8283SOL    HW136485   0.136   0.954  14.652 -2.2182 -0.9399 -1.3553
 8283SOL    HW236486   0.093   0.921  14.514 -0.0031  1.7375 -0.2122
 8284SOL     OW36487   2.943   2.765   8.288 -0.8116  0.4289 -0.2687
 8284SOL    HW136488   2.864   2.711   8.295 -0.5662  0.0213 -0.6322
 8284SOL    HW236489   3.010   2.705   8.255 -0.2854  1.2877 -0.7901
 8285SOL     OW36490   2.308   0.948   5.140 -0.0158  0.2029  0.4169
 8285SOL    HW136491   2.383   0.890   5.154  0.5765  0.5329 -1.3841
 8285SOL    HW236492   2.344   1.032   5.111  0.0654  0.0249  0.0052
 8286SOL     OW36493   4.462   3.889   1.603  0.0496 -0.5247  0.2496
 8286SOL    HW136494   4.422   3.811   1.565 -1.3936  1.6985 -2.9285
 8286SOL    HW236495   4.505   3.859   1.682  1.0332 -1.9024 -0.8100
 8287SOL     OW36496   1.787   3.405   3.500 -0.3336  0.6317 -0.0331
 8287SOL    HW136497   1.824   3.376   3.417  2.7656 -1.4188  2.0100
 8287SOL    HW236498   1.760   3.319   3.533 -0.2409  0.5956 -0.0488
 8288SOL     OW36499   2.224   0.097   4.188 -0.1566  0.3453 -0.4531
 8288SOL    HW136500   2.177   0.060   4.114 -3.4473 -0.7961  2.2199
 8288SOL    HW236501   2.150   0.121   4.244  1.7133  1.1507  1.7187
 8289SOL     OW36502   2.227   3.649   9.687  0.5196 -0.3790  0.1566
 8289SOL    HW136503   2.174   3.569   9.690 -2.0539  1.2873 -1.0613
 8289SOL    HW236504   2.280   3.627   9.611  2.6604 -0.2292  1.6055
 8290SOL     OW36505   3.977   2.842   2.802 -0.2179 -0.0099 -0.7032
 8290SOL    HW136506   4.001   2.755   2.769  0.7179 -0.0093 -0.0121
 8290SOL    HW236507   4.009   2.901   2.733  2.4011  0.0220  0.5600
 8291SOL     OW36508   2.853   3.406   2.275  0.0840 -0.0860 -0.0118
 8291SOL    HW136509   2.879   3.485   2.228 -0.6842  0.4224  0.4130
 8291SOL    HW236510   2.838   3.348   2.201  3.1132  0.8511 -1.3373
 8292SOL     OW36511   3.000   0.179   6.310  0.5323  0.1322 -0.0093
 8292SOL    HW136512   2.969   0.263   6.345  0.5594 -0.2646  0.9763
 8292SOL    HW236513   3.027   0.143   6.395 -2.9591 -0.4197  0.8818
 8293SOL     OW36514   0.414   3.805   6.469 -0.5394 -0.0175  0.8478
 8293SOL    HW136515   0.503   3.780   6.493  0.0880  0.8838 -0.5218
 8293SOL    HW236516   0.381   3.824   6.557 -0.9227 -0.6795  0.8465
 8294SOL     OW36517   1.158   1.436   7.195 -0.4285 -0.3664  0.2782
 8294SOL    HW136518   1.204   1.520   7.187 -2.9058  0.8321 -1.4701
 8294SOL    HW236519   1.090   1.448   7.128 -0.8717  1.4716  1.0505
 8295SOL     OW36520   2.790   4.009   7.405 -0.1371  0.1368 -0.0093
 8295SOL    HW136521   2.746   4.090   7.379  0.4555  1.1847  2.2317
 8295SOL    HW236522   2.810   4.023   7.497  0.6323 -1.3910  0.0597
 8296SOL     OW36523   2.625   4.628   9.260 -0.0185  0.1648 -0.1534
 8296SOL    HW136524   2.579   4.634   9.345  0.8764 -0.4935  0.3775
 8296SOL    HW236525   2.712   4.639   9.297  0.7263 -1.3469 -1.5060
 8297SOL     OW36526   0.208   4.422   3.097 -0.0498 -0.1739  0.2055
 8297SOL    HW136527   0.282   4.393   3.044 -0.2360 -1.7746  0.8164
 8297SOL    HW236528   0.146   4.455   3.032  0.7267  0.6631 -0.1060
 8298SOL     OW36529   1.074   2.786   3.720 -0.4189 -0.2663 -0.2917
 8298SOL    HW136530   1.061   2.731   3.643  0.9893 -1.7757  0.5421
 8298SOL    HW236531   1.048   2.869   3.679 -0.1460  1.2274  2.4986
 8299SOL     OW36532   0.812   4.559   4.462  0.6587  0.1261 -0.5480
 8299SOL    HW136533   0.789   4.591   4.549  2.8224  0.5651 -0.1386
 8299SOL    HW236534   0.735   4.511   4.431  0.6164 -0.1376 -0.0246
 8300SOL     OW36535   2.576   2.648  12.582  0.6346 -0.0171 -0.2988
 8300SOL    HW136536   2.495   2.640  12.633  0.8089 -1.7722 -0.3251
 8300SOL    HW236537   2.631   2.613  12.651 -1.1239  2.1328  2.2230
 8301SOL     OW36538   2.078   1.225   5.807 -0.0581 -0.4301 -0.0507
 8301SOL    HW136539   2.149   1.241   5.869 -0.6154 -1.3270  0.8225
 8301SOL    HW236540   2.084   1.131   5.796  0.2188 -0.2925 -0.9926
 8302SOL     OW36541   0.131   1.958  14.758 -0.2632 -0.0419  0.4913
 8302SOL    HW136542   0.216   1.922  14.732 -0.2079  0.3341  0.1578
 8302SOL    HW236543   0.070   1.920  14.695 -1.4183  4.0551 -0.8065
 8303SOL     OW36544   1.923   3.453  15.250  0.1149 -0.0890 -0.5584
 8303SOL    HW136545   1.880   3.374  15.218 -1.6193  0.9587 -0.7911
 8303SOL    HW236546   1.990   3.458  15.181 -0.7044 -0.7187 -1.3957
 8304SOL     OW36547   4.264   4.602   3.365  0.0688  0.6273  0.3533
 8304SOL    HW136548   4.359   4.591   3.376 -0.0273 -0.4637  0.1594
 8304SOL    HW236549   4.230   4.529   3.417  0.3016  0.4682  0.2825
 8305SOL     OW36550   3.319   2.211   4.008  0.1228 -0.1416  0.4354
 8305SOL    HW136551   3.345   2.269   4.079  1.4778  1.1567 -1.1236
 8305SOL    HW236552   3.248   2.157   4.043 -0.2569 -0.9580 -1.6226
 8306SOL     OW36553   4.101   0.492  15.688 -0.5606 -0.0088  0.8226
 8306SOL    HW136554   4.175   0.549  15.711  0.5755 -0.9658 -0.4111
 8306SOL    HW236555   4.046   0.498  15.766 -1.1432 -2.6233  0.5887
 8307SOL     OW36556   2.753   2.137   7.893  0.0480  0.3794  0.1168
 8307SOL    HW136557   2.695   2.062   7.900 -0.0394  0.4894  0.5981
 8307SOL    HW236558   2.809   2.110   7.966 -1.5515  0.2029  1.2762
 8308SOL     OW36559   2.042   0.210   9.635  0.6606  0.0552  0.0121
 8308SOL    HW136560   1.954   0.215   9.597  0.4468 -0.5495  0.4205
 8308SOL    HW236561   2.070   0.301   9.642  0.0207  0.1044  2.0868
 8309SOL     OW36562   0.015   2.395  14.299 -0.4546  0.3773  0.3004
 8309SOL    HW136563   0.066   2.324  14.338 -0.2022 -0.2544 -1.1674
 8309SOL    HW236564   4.680   2.378  14.357 -1.5680 -0.0155 -1.2146
 8310SOL     OW36565   0.067   2.877   4.586  0.1812 -0.4654 -0.1758
 8310SOL    HW136566   0.097   2.953   4.637  0.5964  0.8399 -2.3546
 8310SOL    HW236567   0.119   2.889   4.507 -1.2994  1.6290 -0.8346
 8311SOL     OW36568   0.589   3.565   8.129  0.2296  0.0957 -0.1110
 8311SOL    HW136569   0.580   3.633   8.197  0.6698  1.7485 -1.6977
 8311SOL    HW236570   0.684   3.562   8.115 -0.0805 -0.9368 -1.9321
 8312SOL     OW36571   3.357   1.578   5.551  0.0779  0.4885  0.5848
 8312SOL    HW136572   3.289   1.525   5.509  1.4608 -0.9961  0.2226
 8312SOL    HW236573   3.427   1.514   5.564 -0.4105 -0.5408 -1.6831
 8313SOL     OW36574   1.955   1.902   3.402  0.4396 -0.0541 -0.3691
 8313SOL    HW136575   1.955   1.894   3.307  0.7100  2.5109 -0.5810
 8313SOL    HW236576   1.923   1.817   3.435 -0.1767  0.1549 -0.4304
 8314SOL     OW36577   4.538   1.907   7.209 -0.0454 -0.6699  0.0297
 8314SOL    HW136578   4.558   1.946   7.124 -1.0280 -1.2055 -0.4439
 8314SOL    HW236579   4.443   1.899   7.197  0.5847 -5.0622 -2.1725
 8315SOL     OW36580   4.672   1.049   6.088 -0.2368 -0.3881  0.0524
 8315SOL    HW136581   4.613   1.048   6.013 -1.4582  3.5022  0.9428
 8315SOL    HW236582   4.609   1.034   6.158 -1.5585 -1.3568 -1.3505
 8316SOL     OW36583   0.224   4.247  16.725  0.0382  0.0553  0.0909
 8316SOL    HW136584   0.230   4.336  16.760  0.3598 -0.4801  1.3844
 8316SOL    HW236585   0.296   4.192  16.757 -0.4052  0.2972  1.5201
 8317SOL     OW36586   4.437   1.372  17.029  0.1514 -0.6352  0.7692
 8317SOL    HW136587   4.474   1.327  16.954 -1.2771 -0.2910 -0.1457
 8317SOL    HW236588   4.380   1.432  16.980  0.3144 -0.1876  1.1294
 8318SOL     OW36589   1.958   0.492   6.379 -0.1640 -0.2210 -0.1454
 8318SOL    HW136590   2.011   0.420   6.414 -1.7423 -0.8220  0.9890
 8318SOL    HW236591   1.868   0.465   6.397 -0.2794 -0.6939 -1.4550
 8319SOL     OW36592   1.311   1.238   6.667 -0.4811  0.3611  0.1105
 8319SOL    HW136593   1.364   1.198   6.598 -0.9611  1.3362 -0.8135
 8319SOL    HW236594   1.369   1.313   6.680  0.9051 -0.4452 -1.3537
 8320SOL     OW36595   1.297   1.035   2.047 -0.3646  0.3122  0.6605
 8320SOL    HW136596   1.365   0.971   2.026 -0.9057 -1.0416  3.1426
 8320SOL    HW236597   1.224   0.976   2.065  0.3667 -0.3613  1.4038
 8321SOL     OW36598   1.780   0.364   5.804 -0.2361 -0.5795  0.2745
 8321SOL    HW136599   1.803   0.430   5.739  0.1784 -0.5382  0.4606
 8321SOL    HW236600   1.857   0.308   5.803  1.2519  1.4825 -2.4256
 8322SOL     OW36601   2.137   0.272   3.291  0.0220 -0.4386  0.3975
 8322SOL    HW136602   2.123   0.367   3.295  0.1546 -0.4712  1.5101
 8322SOL    HW236603   2.187   0.259   3.371  0.4536  1.7838  0.5049
 8323SOL     OW36604   1.006   3.086  14.378 -0.1404  0.3634 -0.1094
 8323SOL    HW136605   0.978   2.998  14.350  0.2322  0.7245 -1.5978
 8323SOL    HW236606   1.091   3.068  14.419  0.3553 -0.1766 -1.3603
 8324SOL     OW36607   3.629   4.677  13.404  0.1169 -0.1880  0.2138
 8324SOL    HW136608   3.585   4.677  13.319  0.7572  2.0080 -0.1131
 8324SOL    HW236609   3.702   4.736  13.384 -2.1481  2.0868 -1.2453
 8325SOL     OW36610   4.416   3.705   3.218  0.5474 -0.3618 -0.2081
 8325SOL    HW136611   4.417   3.709   3.122 -0.0725 -0.0646 -0.1994
 8325SOL    HW236612   4.499   3.745   3.246  0.6094 -0.3170 -0.4550
 8326SOL     OW36613   2.565   0.487   4.444 -0.6175  0.2132 -0.1613
 8326SOL    HW136614   2.560   0.574   4.483  2.9818 -0.0989  1.0104
 8326SOL    HW236615   2.539   0.432   4.517 -0.8189  1.0908  0.4220
 8327SOL     OW36616   4.734   2.111   4.693 -0.4569  0.0239 -0.6577
 8327SOL    HW136617   0.071   2.149   4.647  0.6083 -2.3808 -0.8989
 8327SOL    HW236618   4.729   2.019   4.670 -0.6688  0.0125 -0.5570
 8328SOL     OW36619   1.076   3.203   6.034  0.3262  0.7209 -0.1251
 8328SOL    HW136620   1.027   3.145   5.977  1.2728 -2.3327  2.1797
 8328SOL    HW236621   1.035   3.287   6.013  0.4189  0.2947 -2.0184
 8329SOL     OW36622   0.314   0.279   6.253  0.3563 -1.2142 -0.7882
 8329SOL    HW136623   0.310   0.247   6.343  0.1236 -0.6369 -0.5906
 8329SOL    HW236624   0.356   0.211   6.201  0.7810 -0.7667 -1.0382
 8330SOL     OW36625   2.159   4.731  13.462  0.7150  0.2508  0.0723
 8330SOL    HW136626   2.196   0.041  13.389 -1.8339 -2.0987 -2.7523
 8330SOL    HW236627   2.064   0.001  13.456  1.0514  2.4916 -1.9182
 8331SOL     OW36628   0.098   2.926   8.628 -0.1202 -0.1584  0.4993
 8331SOL    HW136629   0.077   2.991   8.560  1.0323  1.2476  1.4729
 8331SOL    HW236630   0.178   2.969   8.658  0.0369 -0.0668 -0.0431
 8332SOL     OW36631   0.390   4.165  16.025 -0.3252  0.1310  0.5608
 8332SOL    HW136632   0.356   4.080  16.054 -0.7607  0.2369  0.3579
 8332SOL    HW236633   0.406   4.215  16.105 -1.3581  0.1197  0.7837
 8333SOL     OW36634   4.663   2.716   5.159  0.3824  0.5024  0.0135
 8333SOL    HW136635   4.679   2.725   5.065  1.8597 -2.0597  0.0154
 8333SOL    HW236636   4.580   2.763   5.158  0.9235  1.4493 -1.3120
 8334SOL     OW36637   3.239   1.471   9.478  0.5337  0.0943  0.6859
 8334SOL    HW136638   3.163   1.527   9.489 -0.8149 -1.8689  1.4612
 8334SOL    HW236639   3.299   1.539   9.509 -0.1111  1.6841 -1.5185
 8335SOL     OW36640   4.080   3.833   5.875  0.3721  0.3755  0.4001
 8335SOL    HW136641   4.169   3.802   5.857 -0.1720 -0.2536 -1.2783
 8335SOL    HW236642   4.107   3.890   5.947 -0.6415  3.4925 -1.7332
 8336SOL     OW36643   2.127   3.394   6.666 -0.7634 -0.2273 -0.3034
 8336SOL    HW136644   2.104   3.356   6.751  2.9888 -4.3130 -1.1182
 8336SOL    HW236645   2.190   3.330   6.632 -0.2291  0.3588 -0.4235
 8337SOL     OW36646   0.623   3.587   8.559  0.4605 -0.3590 -1.0805
 8337SOL    HW136647   0.621   3.501   8.518 -0.5611 -0.5971 -0.5509
 8337SOL    HW236648   0.531   3.592   8.588  0.1093  0.3339 -2.3358
 8338SOL     OW36649   0.326   3.238  15.621 -0.1993  0.7930  0.0709
 8338SOL    HW136650   0.392   3.305  15.601  1.1336 -0.5665 -0.0892
 8338SOL    HW236651   0.302   3.211  15.532  1.5789 -0.3109 -0.0669
 8339SOL     OW36652   0.677   2.722  13.368 -0.9602 -0.7247  0.5754
 8339SOL    HW136653   0.606   2.781  13.343 -1.8531 -1.4792  1.2970
 8339SOL    HW236654   0.736   2.723  13.293 -1.1617  0.5716  0.4433
 8340SOL     OW36655   4.267   3.241  13.418 -0.4230 -0.9657  0.0076
 8340SOL    HW136656   4.278   3.179  13.490  0.0101 -2.1027 -1.0303
 8340SOL    HW236657   4.358   3.264  13.401 -0.3144 -0.8948  0.7167
 8341SOL     OW36658   1.177   4.714   7.061  0.1532  0.1231  0.3122
 8341SOL    HW136659   1.236   4.642   7.037 -0.2935  0.1118 -0.7747
 8341SOL    HW236660   1.112   4.708   6.991 -0.6842 -1.9964  1.2787
 8342SOL     OW36661   2.684   3.166  13.120  0.4251  0.2763  0.5237
 8342SOL    HW136662   2.697   3.190  13.028 -2.3577  0.5564  0.1993
 8342SOL    HW236663   2.589   3.171  13.129  0.0606 -0.4318 -2.6435
 8343SOL     OW36664   1.238   2.841   6.714  0.7285  0.6086  0.3318
 8343SOL    HW136665   1.253   2.933   6.694  0.0389  0.7122  0.3003
 8343SOL    HW236666   1.210   2.811   6.627  1.2178 -0.1399  0.4374
 8344SOL     OW36667   0.278   4.375   9.736 -0.0170  0.0612  0.3000
 8344SOL    HW136668   0.330   4.307   9.780  0.1751  1.7316  2.6555
 8344SOL    HW236669   0.227   4.410   9.809 -0.8570 -0.8268  0.1531
 8345SOL     OW36670   1.890   2.562  13.883 -0.0780  0.6308  0.2552
 8345SOL    HW136671   1.938   2.512  13.949 -0.4178  0.9320  0.7302
 8345SOL    HW236672   1.909   2.655  13.895 -0.0684  0.5681  0.7246
 8346SOL     OW36673   4.686   4.308   3.316  0.6383  0.0539 -0.8952
 8346SOL    HW136674   4.673   4.251   3.241  0.9419 -1.6008  0.3082
 8346SOL    HW236675   0.008   4.377   3.287  1.8244 -0.7928 -0.4432
 8347SOL     OW36676   3.255   3.906  12.848  0.0109 -0.5396  0.2406
 8347SOL    HW136677   3.296   3.957  12.777 -1.2830 -0.5088 -0.4846
 8347SOL    HW236678   3.326   3.846  12.871  1.1010  1.2876  1.6401
 8348SOL     OW36679   2.116   3.078  10.154  0.2916 -0.7873 -0.3490
 8348SOL    HW136680   2.048   3.146  10.148 -0.4541 -1.5869 -0.9099
 8348SOL    HW236681   2.096   3.064  10.247  1.4493 -0.4195 -0.0444
 8349SOL     OW36682   1.881   3.590   9.241  0.0505 -0.2153 -0.1505
 8349SOL    HW136683   1.817   3.658   9.261  0.0051 -0.0639 -0.8140
 8349SOL    HW236684   1.832   3.534   9.180 -1.4896 -1.4770  2.2732
 8350SOL     OW36685   4.615   2.772   3.117 -0.0623 -0.3260 -0.6730
 8350SOL    HW136686   4.648   2.859   3.139  0.7407 -0.7441 -0.2043
 8350SOL    HW236687   4.667   2.715   3.173 -0.4939 -0.9460 -0.9054
 8351SOL     OW36688   2.518   4.557   5.462  0.2716 -0.2850 -0.0598
 8351SOL    HW136689   2.463   4.480   5.474 -2.8531  2.2155  1.4995
 8351SOL    HW236690   2.477   4.594   5.384  1.9974 -0.1061 -0.8840
 8352SOL     OW36691   2.657   4.265   7.164 -0.7234 -0.2325  0.1649
 8352SOL    HW136692   2.729   4.202   7.156  0.6517  1.2862  0.6680
 8352SOL    HW236693   2.652   4.306   7.078  1.5057 -0.0022  0.1633
 8353SOL     OW36694   2.117   4.718   3.507 -0.7371  0.0902  0.0860
 8353SOL    HW136695   2.027   0.009   3.492 -0.5552  1.1013  0.9928
 8353SOL    HW236696   2.134   0.024   3.590  4.7678  0.6670 -1.3454
 8354SOL     OW36697   1.740   2.951  15.252  0.4131 -0.5132 -0.2015
 8354SOL    HW136698   1.684   2.918  15.182  1.2502  0.5384 -1.3705
 8354SOL    HW236699   1.729   3.045  15.238  0.2528 -0.9200 -2.8645
 8355SOL     OW36700   3.992   1.460   4.277  0.7173  0.5477 -0.5315
 8355SOL    HW136701   3.994   1.554   4.294  0.7513  0.7194 -1.4679
 8355SOL    HW236702   4.025   1.454   4.187  1.4513 -2.5102 -0.0395
 8356SOL     OW36703   4.639   4.104   2.001 -0.2011  0.6356 -0.2200
 8356SOL    HW136704   4.624   4.017   2.037 -0.8145  0.7000 -0.3104
 8356SOL    HW236705   4.569   4.106   1.935  0.9121 -2.7480 -1.4742
 8357SOL     OW36706   4.336   1.372   5.042 -0.4130 -0.2114  0.3340
 8357SOL    HW136707   4.400   1.440   5.020 -2.2400  0.7753 -1.8908
 8357SOL    HW236708   4.390   1.293   5.041 -1.3399 -0.8332 -0.6886
 8358SOL     OW36709   1.196   3.997   2.222  0.2491 -0.0044  0.2277
 8358SOL    HW136710   1.276   3.988   2.169 -0.9081 -2.0999 -1.1825
 8358SOL    HW236711   1.213   4.090   2.234  0.2873  0.5413 -3.8253
 8359SOL     OW36712   3.022   1.295  11.796  0.0475 -0.6169 -0.0262
 8359SOL    HW136713   2.935   1.261  11.815 -0.3461  1.1010  1.2382
 8359SOL    HW236714   3.033   1.353  11.871  0.4254  0.8536 -1.2084
 8360SOL     OW36715   4.168   2.209   2.352  0.1457 -0.0703 -0.1149
 8360SOL    HW136716   4.249   2.179   2.394 -0.3632  0.5256  1.2794
 8360SOL    HW236717   4.174   2.174   2.263 -0.3138 -3.9340  1.3557
 8361SOL     OW36718   0.944   0.563  12.537 -0.1712  0.0419  0.3626
 8361SOL    HW136719   0.988   0.500  12.594  1.9463  1.5547  0.3898
 8361SOL    HW236720   0.986   0.645  12.561  0.5422 -0.2588  0.1625
 8362SOL     OW36721   0.586   2.291   1.804 -0.2145 -0.5827 -0.4132
 8362SOL    HW136722   0.666   2.315   1.850 -0.2929 -3.5498  1.2812
 8362SOL    HW236723   0.603   2.207   1.761 -1.8741 -0.6237 -1.0066
 8363SOL     OW36724   0.856   2.401  13.716  0.7296  0.2898 -0.3577
 8363SOL    HW136725   0.911   2.427  13.642  2.5762  0.0064  0.8934
 8363SOL    HW236726   0.780   2.457  13.708  2.1594  1.9906 -1.9728
 8364SOL     OW36727   3.975   3.862  14.095  0.2508 -0.7071 -0.2145
 8364SOL    HW136728   3.963   3.791  14.031 -1.6691 -0.4000 -0.2194
 8364SOL    HW236729   4.037   3.919  14.049 -0.2671 -0.6732 -0.8842
 8365SOL     OW36730   0.481   4.469  17.279  0.2270 -0.5853  0.4785
 8365SOL    HW136731   0.537   4.469  17.357  2.0989  0.7544 -0.8300
 8365SOL    HW236732   0.423   4.545  17.288  1.3429  0.3478 -0.1675
 8366SOL     OW36733   0.732   0.712   9.086  0.4477 -0.0246  0.8286
 8366SOL    HW136734   0.701   0.641   9.030  2.3123  1.2605 -1.8499
 8366SOL    HW236735   0.717   0.686   9.177  0.8716 -1.7279  0.4076
 8367SOL     OW36736   3.307   3.151   3.991  0.0495 -0.0436  0.0305
 8367SOL    HW136737   3.299   3.157   3.896  0.0169  1.0949  0.1014
 8367SOL    HW236738   3.363   3.073   3.996  1.0815  0.8594  2.9443
 8368SOL     OW36739   2.738   3.125   5.397 -0.2438  0.2551 -0.2507
 8368SOL    HW136740   2.725   3.088   5.310 -1.8046 -0.2631  0.1925
 8368SOL    HW236741   2.707   3.215   5.386 -1.0163  0.0186 -0.0163
 8369SOL     OW36742   1.156   0.394   4.156  0.6424 -0.2223  0.1609
 8369SOL    HW136743   1.231   0.452   4.170  0.5653 -0.0553 -0.1246
 8369SOL    HW236744   1.183   0.347   4.077  0.2433  1.3743 -0.9252
 8370SOL     OW36745   2.422   0.715   8.603 -0.6156  0.3536  0.2233
 8370SOL    HW136746   2.503   0.721   8.553 -0.9800 -1.1675 -0.5558
 8370SOL    HW236747   2.451   0.738   8.691  0.9591 -0.8128  0.0018
 8371SOL     OW36748   0.222   2.446   1.359 -0.3952  0.4047 -0.4454
 8371SOL    HW136749   0.238   2.439   1.264 -0.2208 -0.7229 -0.3391
 8371SOL    HW236750   0.128   2.435   1.366 -0.6941  1.7850 -2.3249
 8372SOL     OW36751   2.452   0.575  17.071 -0.1470 -0.1590 -0.0148
 8372SOL    HW136752   2.542   0.600  17.049  0.0191  1.5666  2.7851
 8372SOL    HW236753   2.447   0.489  17.028 -1.5921 -1.1455  2.1015
 8373SOL     OW36754   1.539   2.601  15.115 -0.1582  0.2070 -0.3383
 8373SOL    HW136755   1.567   2.693  15.116 -1.6797  0.6392  2.1876
 8373SOL    HW236756   1.444   2.602  15.114 -0.1625  0.4119  0.3066
 8374SOL     OW36757   4.525   1.411   7.767  0.3307 -0.1486 -0.2800
 8374SOL    HW136758   4.431   1.395   7.777 -0.1803  1.7264 -1.9912
 8374SOL    HW236759   4.534   1.473   7.839  2.4542 -0.5466 -0.1957
 8375SOL     OW36760   0.029   2.041   7.594  0.3012  0.3023  0.1013
 8375SOL    HW136761   4.680   2.043   7.556 -0.6299  2.3971  2.3374
 8375SOL    HW236762   0.019   1.978   7.665  0.5609 -0.0434 -0.1702
 8376SOL     OW36763   2.823   3.611   9.384  0.5287  0.3458 -0.2134
 8376SOL    HW136764   2.886   3.677   9.412 -1.2009  1.6622  0.5237
 8376SOL    HW236765   2.773   3.592   9.464  1.1303 -1.8641 -0.3501
 8377SOL     OW36766   0.364   1.250  13.480 -0.3828 -0.1465 -0.3902
 8377SOL    HW136767   0.377   1.182  13.547  1.1249 -1.2590 -1.7813
 8377SOL    HW236768   0.431   1.312  13.508 -0.2576 -0.9331  1.0661
 8378SOL     OW36769   4.334   3.300   5.982 -0.0059  0.4382 -0.2521
 8378SOL    HW136770   4.299   3.212   5.969  0.0182  0.2878  0.6716
 8378SOL    HW236771   4.410   3.309   5.925  0.3085 -0.6947 -0.0168
 8379SOL     OW36772   0.045   0.876  13.456 -0.7445 -0.4469 -0.0943
 8379SOL    HW136773   0.073   0.945  13.517 -0.3629 -0.8195  0.1559
 8379SOL    HW236774   4.709   0.924  13.421  0.1820  0.9602 -0.1331
 8380SOL     OW36775   2.895   0.746  16.746 -0.2680 -0.1869 -0.5289
 8380SOL    HW136776   2.874   0.771  16.836  1.9934 -4.5798  1.2400
 8380SOL    HW236777   2.861   0.656  16.738 -2.6466  0.7187 -0.6259
 8381SOL     OW36778   3.129   0.292   5.452  0.0736  0.0823  0.1587
 8381SOL    HW136779   3.037   0.319   5.443  0.4914  1.1388 -0.9553
 8381SOL    HW236780   3.161   0.379   5.477 -2.5442  0.0083  3.7637
 8382SOL     OW36781   2.227   1.864   9.296 -0.5496  0.0762  0.1075
 8382SOL    HW136782   2.239   1.923   9.370 -3.6503 -0.0264  0.6569
 8382SOL    HW236783   2.313   1.880   9.256 -0.0648  1.8127  1.8150
 8383SOL     OW36784   1.715   0.337   4.457  0.0012 -0.6326  0.2155
 8383SOL    HW136785   1.687   0.292   4.537 -3.2925  1.1159  0.0136
 8383SOL    HW236786   1.658   0.413   4.466  0.7384 -0.1431  0.7960
 8384SOL     OW36787   0.244   3.306   8.167  0.0957  0.4141  0.2485
 8384SOL    HW136788   0.245   3.212   8.152 -1.4463  0.6501 -1.3577
 8384SOL    HW236789   0.179   3.335   8.103 -0.8617  0.7431  1.3637
 8385SOL     OW36790   3.534   4.028   5.582 -0.6279  0.2738  0.1448
 8385SOL    HW136791   3.460   4.088   5.594 -0.8084  0.2865 -1.0181
 8385SOL    HW236792   3.537   4.033   5.486 -1.7430  1.9392  0.1872
 8386SOL     OW36793   0.035   3.581   8.218  0.0291 -0.1771 -0.1365
 8386SOL    HW136794   0.123   3.611   8.241 -0.0271 -0.6928  0.7536
 8386SOL    HW236795   0.058   3.521   8.147 -1.1431  1.1193 -1.5893
 8387SOL     OW36796   3.983   1.807   9.939 -0.1112  0.6238  0.0909
 8387SOL    HW136797   3.989   1.723   9.985  2.7204  0.0305 -1.3479
 8387SOL    HW236798   4.006   1.873  10.005 -2.0967 -1.8667  3.2637
 8388SOL     OW36799   2.619   1.914   7.610  0.0809 -0.4083 -0.2371
 8388SOL    HW136800   2.564   1.981   7.569  1.6578  1.3662  0.5357
 8388SOL    HW236801   2.699   1.932   7.561 -0.7496 -1.9157 -2.1052
 8389SOL     OW36802   0.964   1.916  14.775  0.1251  0.5051 -0.0720
 8389SOL    HW136803   0.911   1.901  14.854 -0.0974 -1.1920 -0.5466
 8389SOL    HW236804   0.903   1.901  14.703 -0.8124  0.1974  0.7801
 8390SOL     OW36805   1.411   2.800   7.254 -0.0448  0.2517  0.1655
 8390SOL    HW136806   1.411   2.713   7.294 -0.2859 -0.1056 -0.6180
 8390SOL    HW236807   1.337   2.848   7.291 -1.4039 -1.6253 -0.1067
 8391SOL     OW36808   1.879   2.389   7.499  0.2037  0.2813  0.6232
 8391SOL    HW136809   1.808   2.356   7.443 -0.3713 -1.0944  2.1770
 8391SOL    HW236810   1.892   2.473   7.455  1.1999  0.3451  1.0465
 8392SOL     OW36811   1.687   3.572   1.190  0.4180 -0.0384  0.3021
 8392SOL    HW136812   1.665   3.563   1.283  0.1334 -0.1499  0.2231
 8392SOL    HW236813   1.695   3.477   1.178  0.0802 -0.0072 -0.1626
 8393SOL     OW36814   1.490   1.209   6.100 -0.6454  0.2690 -0.0570
 8393SOL    HW136815   1.465   1.280   6.160  0.2783  1.9595 -1.6672
 8393SOL    HW236816   1.510   1.135   6.157 -1.6158 -1.2967 -1.7998
 8394SOL     OW36817   2.072   3.558   8.517  0.2463 -0.5502 -0.0921
 8394SOL    HW136818   2.132   3.484   8.503  0.4061 -0.1937 -1.2985
 8394SOL    HW236819   2.016   3.529   8.589 -0.1152 -0.4538 -0.3286
 8395SOL     OW36820   1.114   3.092  13.504 -0.1143 -0.2517  0.1287
 8395SOL    HW136821   1.181   3.059  13.444  0.4454  0.3200  0.4369
 8395SOL    HW236822   1.087   3.006  13.537 -0.1613 -0.2866 -0.0023
 8396SOL     OW36823   0.608   3.278   4.976  0.4772 -0.5146 -0.8559
 8396SOL    HW136824   0.609   3.267   4.881 -0.2124 -0.1387 -0.9034
 8396SOL    HW236825   0.566   3.195   5.000 -2.2618  1.0177 -0.3764
 8397SOL     OW36826   2.116   2.816   8.324 -0.2944 -0.2142 -0.1204
 8397SOL    HW136827   2.179   2.784   8.259  0.1999  0.9285 -0.1936
 8397SOL    HW236828   2.167   2.892   8.353 -1.8343 -0.0213  2.0864
 8398SOL     OW36829   3.074   3.661   8.107  0.4600 -0.1576 -0.2722
 8398SOL    HW136830   3.116   3.619   8.181  1.5774  1.8425  0.2254
 8398SOL    HW236831   3.000   3.696   8.157  0.7292  0.3996 -0.2639
 8399SOL     OW36832   1.926   3.056   0.333 -0.3078  0.2394 -0.3065
 8399SOL    HW136833   1.890   3.125   0.388  1.1179  1.4809 -0.9228
 8399SOL    HW236834   1.845   3.018   0.299  0.9936 -0.8280 -2.1866
 8400SOL     OW36835   3.485   3.115   7.432 -0.5675  0.4917  0.0991
 8400SOL    HW136836   3.538   3.165   7.370  2.2074 -0.0710  1.9888
 8400SOL    HW236837   3.439   3.182   7.481  0.2353 -0.1803  1.7618
 8401SOL     OW36838   3.229   3.614   6.744  0.4087  0.0001  0.7060
 8401SOL    HW136839   3.294   3.668   6.700 -0.5658  1.0016  0.4799
 8401SOL    HW236840   3.166   3.587   6.678 -0.1245  0.2840  1.0946
 8402SOL     OW36841   0.072   3.021   7.516 -0.2664  0.0211  0.3571
 8402SOL    HW136842   0.025   3.077   7.578 -0.7488 -1.4317  1.3071
 8402SOL    HW236843   0.064   2.942   7.571  0.9418 -0.8012 -0.6451
 8403SOL     OW36844   0.103   0.882   8.698 -0.0587 -0.2625 -0.4037
 8403SOL    HW136845   0.188   0.869   8.742 -0.3804  1.9420  0.8937
 8403SOL    HW236846   0.040   0.869   8.768  1.5695 -2.5857  0.6167
 8404SOL     OW36847   3.456   3.094   7.053 -0.1132 -0.3780  0.3218
 8404SOL    HW136848   3.367   3.066   7.074 -0.5914  1.3692  0.6186
 8404SOL    HW236849   3.447   3.156   6.981  1.4365 -0.5488 -0.0137
 8405SOL     OW36850   1.654   0.051   9.487 -0.7547  0.0561  0.6624
 8405SOL    HW136851   1.722   4.722   9.482  1.6526  2.5211  0.6268
 8405SOL    HW236852   1.648   0.089   9.399 -1.2892 -0.3257  0.5334
 8406SOL     OW36853   4.179   1.326  16.148  0.1509 -0.2941  0.7421
 8406SOL    HW136854   4.200   1.415  16.177 -1.7646  0.2968  0.3837
 8406SOL    HW236855   4.239   1.281  16.206  0.4655 -2.4394 -1.2287
 8407SOL     OW36856   3.267   3.482  16.839  0.4485  0.1048 -0.4324
 8407SOL    HW136857   3.356   3.464  16.807  0.1094 -1.3298 -0.5633
 8407SOL    HW236858   3.254   3.573  16.812 -0.1180 -0.0432 -0.6613
 8408SOL     OW36859   0.028   1.204   7.431 -0.5514 -0.3616  0.0381
 8408SOL    HW136860   0.010   1.180   7.522 -1.4769  0.0125 -0.0549
 8408SOL    HW236861   0.070   1.288   7.446 -0.2119 -0.8605  1.9784
 8409SOL     OW36862   4.359   3.568   4.245  0.1464 -0.2233 -0.1762
 8409SOL    HW136863   4.312   3.558   4.328 -0.8051  0.0874 -0.6789
 8409SOL    HW236864   4.383   3.475   4.243 -0.7326 -0.4688  0.4622
 8410SOL     OW36865   1.255   1.377   3.590 -0.2790 -0.6810 -0.2705
 8410SOL    HW136866   1.277   1.351   3.500  0.8358 -0.4253 -0.0678
 8410SOL    HW236867   1.300   1.459   3.608  0.1495 -1.2758  1.3238
 8411SOL     OW36868   4.001   3.842   7.420  0.3796 -0.1051 -0.0319
 8411SOL    HW136869   3.905   3.846   7.424  0.3255 -1.5856  0.0402
 8411SOL    HW236870   4.024   3.925   7.378  0.9640  0.0316  0.5708
 8412SOL     OW36871   0.822   0.971   9.008  0.0800 -0.3229 -0.0350
 8412SOL    HW136872   0.774   1.021   9.073  0.4361  0.1300 -0.1200
 8412SOL    HW236873   0.789   0.884   9.029 -0.9195 -0.4923 -2.3278
 8413SOL     OW36874   1.787   2.648   6.935 -0.9472  0.1888 -0.9391
 8413SOL    HW136875   1.857   2.710   6.954 -0.4719 -1.1726  1.7033
 8413SOL    HW236876   1.779   2.659   6.840 -1.0818 -0.5724 -1.0139
 8414SOL     OW36877   0.491   3.028   5.366 -0.1975  0.1797  0.0909
 8414SOL    HW136878   0.487   3.003   5.459  0.1436 -0.3147 -0.0261
 8414SOL    HW236879   0.475   2.941   5.328 -0.1002  0.1804  0.0500
 8415SOL     OW36880   0.903   0.538   8.851 -0.4948  0.4274  1.0305
 8415SOL    HW136881   0.880   0.624   8.815 -1.3584 -0.0704  0.4083
 8415SOL    HW236882   0.907   0.481   8.775  1.0921 -0.1066  1.5141
 8416SOL     OW36883   1.896   4.073  12.697  0.3213  0.3556 -0.1626
 8416SOL    HW136884   1.980   4.057  12.742 -0.8538  0.5544  2.0923
 8416SOL    HW236885   1.848   3.995  12.724 -0.5633  1.4549  1.4338
 8417SOL     OW36886   1.664   4.235   5.528  0.4049  0.1780 -0.1776
 8417SOL    HW136887   1.616   4.303   5.575 -1.8375 -0.9911 -0.7453
 8417SOL    HW236888   1.755   4.262   5.538  0.4627  0.1020 -0.4968
 8418SOL     OW36889   0.552   4.663  10.497  0.1836  0.7362  0.0072
 8418SOL    HW136890   0.461   4.677  10.474  1.2606  3.9907 -2.3034
 8418SOL    HW236891   0.554   4.644  10.591  2.1822  0.5558 -0.0757
 8419SOL     OW36892   1.164   4.460  13.155 -0.1425  0.1045 -0.6270
 8419SOL    HW136893   1.204   4.439  13.071 -0.5495  0.7946 -1.0037
 8419SOL    HW236894   1.071   4.438  13.143  0.1767 -0.9895 -1.0052
 8420SOL     OW36895   1.631   0.521   9.280  0.4874 -0.2558  0.0731
 8420SOL    HW136896   1.650   0.519   9.374  0.4089  0.5635  0.1088
 8420SOL    HW236897   1.556   0.580   9.289 -0.5894 -1.4834 -0.7450
 8421SOL     OW36898   4.593   0.663   4.377  0.2937 -0.0444 -0.6467
 8421SOL    HW136899   4.509   0.618   4.374  1.1254 -1.6701  0.2945
 8421SOL    HW236900   4.560   0.747   4.346  0.7113  0.0962 -0.7124
 8422SOL     OW36901   4.224   1.022  11.181  0.2425 -0.1541 -0.2211
 8422SOL    HW136902   4.133   1.043  11.203 -0.5162 -1.2925 -2.3069
 8422SOL    HW236903   4.277   1.097  11.208  0.2536  0.6322 -2.4381
 8423SOL     OW36904   1.183   1.046   4.865  0.4526 -0.5439 -0.2992
 8423SOL    HW136905   1.156   0.957   4.840  0.5364 -0.4750 -0.6358
 8423SOL    HW236906   1.102   1.071   4.909  0.7344  1.8744 -1.1963
 8424SOL     OW36907   2.400   0.641   6.066 -0.4923  0.2371 -0.1952
 8424SOL    HW136908   2.399   0.715   6.005  0.8653 -1.1132 -1.8462
 8424SOL    HW236909   2.352   0.676   6.142 -1.3152 -1.8733  0.2578
 8425SOL     OW36910   1.936   1.952   2.795  0.6015  0.2828 -0.8671
 8425SOL    HW136911   2.013   1.918   2.841  0.0431  0.6435  0.3455
 8425SOL    HW236912   1.930   1.881   2.731 -3.1873 -1.0996  0.9984
 8426SOL     OW36913   1.692   3.767   0.462  0.2478  0.1048  0.3730
 8426SOL    HW136914   1.749   3.817   0.405  0.4962 -1.7678 -1.0041
 8426SOL    HW236915   1.734   3.786   0.546  2.8831  1.8627 -1.3935
 8427SOL     OW36916   2.266   2.008   6.448  0.0128  0.1971  0.1476
 8427SOL    HW136917   2.199   2.075   6.442 -0.9960 -0.9867 -1.5923
 8427SOL    HW236918   2.230   1.946   6.384 -0.3180  0.0012  0.5193
 8428SOL     OW36919   4.090   2.078   2.889 -0.4736 -0.6233  0.3307
 8428SOL    HW136920   4.173   2.118   2.913  0.4282 -3.2457  1.5813
 8428SOL    HW236921   4.064   2.042   2.974  0.2349  0.8149  1.1648
 8429SOL     OW36922   3.877   3.394   9.435 -0.4475  0.2583  0.1794
 8429SOL    HW136923   3.954   3.405   9.379 -1.2295  1.3250 -0.6757
 8429SOL    HW236924   3.894   3.453   9.508 -0.7103 -1.9407  2.0377
 8430SOL     OW36925   0.413   0.600  15.297 -0.1330  0.5027 -0.1022
 8430SOL    HW136926   0.338   0.634  15.249 -0.9807 -1.4751 -0.1687
 8430SOL    HW236927   0.459   0.560  15.224 -1.5395  0.7468 -1.1064
 8431SOL     OW36928   4.682   0.501   3.281  0.2033  0.0411  0.5537
 8431SOL    HW136929   4.604   0.547   3.251  1.7518  1.6954 -0.9129
 8431SOL    HW236930   4.723   0.582   3.313 -2.3545  0.9618  1.5140
 8432SOL     OW36931   4.149   1.171   7.420  0.1882  0.4259  1.0068
 8432SOL    HW136932   4.139   1.098   7.359 -2.2399 -1.2841  3.4274
 8432SOL    HW236933   4.233   1.154   7.463  1.7403  0.7385 -1.8904
 8433SOL     OW36934   1.477   4.244   8.902  0.0789 -0.0965  0.0301
 8433SOL    HW136935   1.491   4.334   8.873 -1.1876 -0.4878 -1.8095
 8433SOL    HW236936   1.407   4.244   8.967  0.7943  1.9060  0.8084
 8434SOL     OW36937   4.025   4.529  16.962 -0.0619  0.3321  0.0535
 8434SOL    HW136938   4.016   4.582  16.883 -3.1556 -1.3088 -0.6846
 8434SOL    HW236939   3.958   4.462  16.949  0.8927 -0.3332 -1.4097
 8435SOL     OW36940   3.209   0.892   9.952  0.1043 -0.2403  0.0659
 8435SOL    HW136941   3.201   0.798   9.962  2.2995 -0.5435 -1.0897
 8435SOL    HW236942   3.178   0.913  10.040 -0.8599 -0.8775 -0.1219
 8436SOL     OW36943   4.514   4.593   9.874 -0.2339  0.4627 -0.0596
 8436SOL    HW136944   4.575   4.519   9.874  1.3456  1.7612  2.0439
 8436SOL    HW236945   4.437   4.546   9.843 -1.2396  1.7928  0.4115
 8437SOL     OW36946   2.037   1.138  15.831 -0.1167 -0.6180 -0.0404
 8437SOL    HW136947   2.000   1.057  15.867  0.8509 -0.6412  0.8899
 8437SOL    HW236948   1.958   1.179  15.796  0.9587  2.3144  1.0102
 8438SOL     OW36949   1.398   1.353   4.100 -0.3702  0.0898 -0.7896
 8438SOL    HW136950   1.313   1.387   4.075 -1.1620 -1.6580 -0.4632
 8438SOL    HW236951   1.399   1.293   4.026 -0.5221  1.6319 -2.0588
 8439SOL     OW36952   0.582   0.546   5.155  0.2084 -0.1960  0.3508
 8439SOL    HW136953   0.516   0.605   5.191 -0.0640 -1.3706  1.7472
 8439SOL    HW236954   0.623   0.521   5.238 -2.0526  0.2398  1.6113
 8440SOL     OW36955   0.652   2.269   9.624  0.1562 -0.6181 -0.0366
 8440SOL    HW136956   0.738   2.229   9.633  0.6851  0.2350 -1.3554
 8440SOL    HW236957   0.667   2.360   9.652  1.2938 -0.7222 -0.3198
 8441SOL     OW36958   1.500   3.208   6.180 -0.0373 -0.1600 -0.0168
 8441SOL    HW136959   1.493   3.223   6.085  0.4846  0.0539 -0.0257
 8441SOL    HW236960   1.409   3.181   6.193  0.2242 -1.2764 -0.4727
 8442SOL     OW36961   0.090   2.407   5.741  0.0357 -0.2539 -0.8443
 8442SOL    HW136962   0.158   2.388   5.676  1.4855 -0.0582  0.6035
 8442SOL    HW236963   0.143   2.372   5.813 -0.2804  2.0019  0.4717
 8443SOL     OW36964   2.422   0.606   6.483  0.3062 -0.1367  0.3581
 8443SOL    HW136965   2.396   0.557   6.561  2.1867 -0.7987  0.5608
 8443SOL    HW236966   2.500   0.656   6.505 -0.1709  0.2212  1.2487
 8444SOL     OW36967   0.489   1.355   6.960  1.1004 -0.0095  0.3078
 8444SOL    HW136968   0.492   1.279   6.902  0.3791 -0.1238  0.4242
 8444SOL    HW236969   0.454   1.309   7.036  2.0134  0.0776  0.7853
 8445SOL     OW36970   3.668   3.770   0.459 -0.3778  0.4982  0.2489
 8445SOL    HW136971   3.705   3.853   0.490  1.9052 -0.7676  0.8315
 8445SOL    HW236972   3.669   3.781   0.364  2.0924 -0.4419  0.1733
 8446SOL     OW36973   3.710   0.055   7.549 -0.0615 -0.2433  0.6907
 8446SOL    HW136974   3.642   0.032   7.486  0.5394  0.4844 -0.2236
 8446SOL    HW236975   3.665   0.035   7.631 -1.9816  0.5642 -0.1507
 8447SOL     OW36976   4.033   4.664   1.652 -0.5079  0.1592  0.4276
 8447SOL    HW136977   4.065   0.002   1.701  1.5809 -0.4101 -0.0259
 8447SOL    HW236978   4.080   4.675   1.569 -2.2123 -0.9493 -0.6751
 8448SOL     OW36979   2.562   2.865  15.388  0.4146 -0.1051  0.2632
 8448SOL    HW136980   2.585   2.831  15.302  1.1028 -1.4362  0.9552
 8448SOL    HW236981   2.468   2.880  15.380  0.6219  1.4761  0.9415
 8449SOL     OW36982   2.767   3.057   5.834  0.0369  0.0729  0.5323
 8449SOL    HW136983   2.809   3.122   5.891  2.7031  0.0521 -1.3924
 8449SOL    HW236984   2.679   3.095   5.832  0.5787  1.2978 -1.0583
 8450SOL     OW36985   1.923   2.830  10.250  0.4321  0.5045  0.5805
 8450SOL    HW136986   1.878   2.839  10.166 -1.0988  0.3323  1.3934
 8450SOL    HW236987   1.869   2.879  10.312  0.4510  0.7547  0.3980
 8451SOL     OW36988   2.476   1.161   1.945  0.0257 -0.0668 -0.1642
 8451SOL    HW136989   2.571   1.176   1.939  0.2967 -2.0839 -0.9919
 8451SOL    HW236990   2.473   1.087   1.884  0.7030  0.9769 -1.4710
 8452SOL     OW36991   1.251   0.632   8.807  0.3087 -0.2784  0.0694
 8452SOL    HW136992   1.303   0.700   8.850  0.8076 -0.9115  0.4523
 8452SOL    HW236993   1.168   0.666   8.839 -0.3095 -1.1371 -0.6252
 8453SOL     OW36994   3.189   2.858   9.616 -0.0347 -0.4939 -0.2565
 8453SOL    HW136995   3.132   2.917   9.664 -0.9177 -2.5167  1.2015
 8453SOL    HW236996   3.131   2.843   9.542 -0.5128 -0.9717  0.2116
 8454SOL     OW36997   3.894   1.606   3.042 -0.1737  0.5306  0.4105
 8454SOL    HW136998   3.821   1.619   3.103  0.6955 -0.5271  1.6735
 8454SOL    HW236999   3.860   1.645   2.962  1.7726 -1.1967 -1.2515
 8455SOL     OW37000   3.523   4.498  10.501  0.2279  0.1625 -0.0621
 8455SOL    HW137001   3.555   4.532  10.418 -2.9957  1.8796 -0.6234
 8455SOL    HW237002   3.453   4.436  10.482 -1.4726  1.8619  0.6203
 8456SOL     OW37003   3.000   3.663  17.115 -0.4083 -0.9225  0.6936
 8456SOL    HW137004   3.018   3.569  17.117 -2.9003 -1.4564 -2.5447
 8456SOL    HW237005   2.915   3.665  17.070 -0.3695 -1.7869  0.5743
 8457SOL     OW37006   2.392   0.219   9.399 -0.0469 -0.2278  0.2916
 8457SOL    HW137007   2.404   0.279   9.472  3.3599  0.1544 -0.5709
 8457SOL    HW237008   2.387   0.136   9.445  2.2748  0.8957  2.5709
 8458SOL     OW37009   2.466   3.473   4.251 -0.3485 -0.2210 -0.0362
 8458SOL    HW137010   2.520   3.436   4.321  1.9712 -0.0251 -1.7001
 8458SOL    HW237011   2.398   3.406   4.248 -0.6915  0.1803 -1.3350
 8459SOL     OW37012   4.026   2.713   5.361 -0.1394  0.6774 -0.6928
 8459SOL    HW137013   4.115   2.692   5.390 -0.5168 -0.5299 -0.4153
 8459SOL    HW237014   3.977   2.645   5.407  1.8235 -0.9182 -0.9556
 8460SOL     OW37015   3.705   1.109  17.135 -0.0364 -0.0257 -0.4669
 8460SOL    HW137016   3.617   1.145  17.132  0.2318  0.6725 -0.0578
 8460SOL    HW237017   3.710   1.100  17.230  3.9136 -0.9532 -0.7624
 8461SOL     OW37018   0.796   0.533   0.104  0.6241  0.3138 -0.1295
 8461SOL    HW137019   0.717   0.557   0.151  0.7022  1.4483 -0.5735
 8461SOL    HW237020   0.860   0.597   0.135 -0.3133 -0.9362  4.3743
 8462SOL     OW37021   1.769   2.651   3.493  0.0785 -0.0948 -0.3616
 8462SOL    HW137022   1.861   2.665   3.473  0.1848 -1.4137 -0.8339
 8462SOL    HW237023   1.721   2.693   3.422  2.0706  3.0900  0.1766
 8463SOL     OW37024   2.291   0.568   2.030 -0.1491  0.4801  0.5400
 8463SOL    HW137025   2.363   0.631   2.021  1.8270 -1.7699  0.8289
 8463SOL    HW237026   2.257   0.600   2.114  2.7179 -1.3537  2.3711
 8464SOL     OW37027   3.796   3.206   4.981 -0.4012 -0.1042  0.5889
 8464SOL    HW137028   3.815   3.118   4.949  1.0888  0.5162 -0.2481
 8464SOL    HW237029   3.851   3.220   5.058  1.0473  0.8001 -0.5917
 8465SOL     OW37030   4.625   1.393   4.239  0.3361  0.0605 -0.1490
 8465SOL    HW137031   4.700   1.338   4.218  0.5690  0.3079  0.0247
 8465SOL    HW237032   4.615   1.443   4.159  1.8936 -0.4829 -0.6751
 8466SOL     OW37033   4.104   0.804   5.363  0.0223 -0.6189 -0.2057
 8466SOL    HW137034   4.069   0.892   5.375 -0.5358 -0.7104 -1.1445
 8466SOL    HW237035   4.020   0.759   5.350  0.9208 -2.8030  1.6305
 8467SOL     OW37036   3.636   0.133   4.553  0.1053  0.6662 -0.2227
 8467SOL    HW137037   3.660   0.055   4.504 -2.1728 -0.4798  0.5131
 8467SOL    HW237038   3.599   0.095   4.633  0.9712 -0.9268 -0.5900
 8468SOL     OW37039   2.992   4.040   7.849  0.3808 -0.2252  0.0619
 8468SOL    HW137040   2.919   4.099   7.830  1.4966  1.4157  0.8794
 8468SOL    HW237041   2.967   4.012   7.937  0.2591  0.3876  0.2268
 8469SOL     OW37042   0.213   2.567   3.982 -0.4231 -0.0255 -0.9015
 8469SOL    HW137043   0.130   2.534   3.947 -0.3935 -1.5783  0.5115
 8469SOL    HW237044   0.259   2.601   3.905  1.4407  0.7572  0.5522
 8470SOL     OW37045   3.748   2.363   2.578  0.2269  0.1617 -0.0074
 8470SOL    HW137046   3.684   2.331   2.514  0.6251 -2.1865  0.7754
 8470SOL    HW237047   3.819   2.387   2.518 -0.4737  0.5281 -0.7133
 8471SOL     OW37048   1.471   1.719  16.623 -0.1152 -0.5308  0.3969
 8471SOL    HW137049   1.520   1.648  16.580  1.8951 -0.1396  2.0588
 8471SOL    HW237050   1.521   1.799  16.606  1.0903 -2.0127 -3.1056
 8472SOL     OW37051   2.332   3.056   3.587 -0.0655  0.6232  0.1437
 8472SOL    HW137052   2.355   2.963   3.587  0.2823  0.7221  3.2077
 8472SOL    HW237053   2.262   3.058   3.653  0.5911  0.0227  0.8700
 8473SOL     OW37054   2.669   2.447   4.459  0.0602 -0.2924  0.1773
 8473SOL    HW137055   2.623   2.518   4.416 -0.6609 -1.4425 -0.9411
 8473SOL    HW237056   2.749   2.454   4.407  0.6283  0.9765  1.2246
 8474SOL     OW37057   3.357   1.134   5.163  0.0447 -0.0091  0.0387
 8474SOL    HW137058   3.312   1.119   5.246  1.5349  0.8422  0.9993
 8474SOL    HW237059   3.426   1.196   5.187 -0.9048  1.2581 -0.5312
 8475SOL     OW37060   4.511   0.664  15.283  0.5171  0.0811 -0.1615
 8475SOL    HW137061   4.442   0.730  15.294  0.0150 -0.3741 -0.5862
 8475SOL    HW237062   4.508   0.669  15.188  1.6076  1.9203 -0.0991
 8476SOL     OW37063   1.728   1.096   4.848 -0.0570 -0.1245 -0.0029
 8476SOL    HW137064   1.656   1.151   4.816  0.6100  1.0534  0.5327
 8476SOL    HW237065   1.699   1.062   4.932  0.7071  0.8885  0.6648
 8477SOL     OW37066   1.601   2.941  12.732  0.1722 -0.1026 -0.1547
 8477SOL    HW137067   1.601   2.854  12.692  2.0108  0.1020 -0.5919
 8477SOL    HW237068   1.535   2.931  12.801  0.1852 -1.3153 -0.3313
 8478SOL     OW37069   3.719   2.329   2.072 -0.7415  0.0071  0.9028
 8478SOL    HW137070   3.810   2.344   2.097 -0.2576  0.5098 -1.1668
 8478SOL    HW237071   3.684   2.309   2.159 -1.6288  0.5381  0.6787
 8479SOL     OW37072   2.560   1.523  11.863  0.2635 -0.1904 -0.2403
 8479SOL    HW137073   2.630   1.576  11.826 -1.6288  0.7917 -2.3883
 8479SOL    HW237074   2.478   1.564  11.834 -0.4117 -0.8046  0.8083
 8480SOL     OW37075   2.332   0.806   4.739 -0.5767 -0.1277 -0.4567
 8480SOL    HW137076   2.251   0.754   4.742  0.4554 -1.7636 -1.0286
 8480SOL    HW237077   2.302   0.888   4.778  0.0974  0.9372 -2.1717
 8481SOL     OW37078   1.485   3.322   4.770 -0.2452  0.3997  0.3629
 8481SOL    HW137079   1.552   3.254   4.766 -0.4335  0.1593  1.2063
 8481SOL    HW237080   1.492   3.356   4.682 -2.1761  1.5447  0.6441
 8482SOL     OW37081   2.286   0.445   2.287 -0.2407 -0.0250  0.3758
 8482SOL    HW137082   2.359   0.419   2.231 -1.1930  2.3471 -1.9155
 8482SOL    HW237083   2.241   0.362   2.308 -1.0362  0.9564  2.5754
 8483SOL     OW37084   1.896   2.508   9.021  0.1114  0.1944  0.9708
 8483SOL    HW137085   1.838   2.482   8.950 -0.6092  0.6595  1.3882
 8483SOL    HW237086   1.939   2.583   8.980 -0.6467  0.3321  0.4296
 8484SOL     OW37087   4.174   1.342   0.777  0.8015 -0.6008  0.1400
 8484SOL    HW137088   4.243   1.364   0.839  1.0222 -0.0969 -0.2839
 8484SOL    HW237089   4.204   1.406   0.712  1.0279 -0.6368  0.2090
 8485SOL     OW37090   2.851   2.433   6.531 -0.0975 -0.1512  0.1678
 8485SOL    HW137091   2.770   2.428   6.583  0.4551 -0.4781  0.9978
 8485SOL    HW237092   2.826   2.488   6.457 -0.9482  1.1742  1.4223
 8486SOL     OW37093   2.122   2.710   9.667 -0.1230  0.5584  0.0740
 8486SOL    HW137094   2.112   2.700   9.761 -1.1304 -0.9991 -0.1919
 8486SOL    HW237095   2.189   2.646   9.644 -1.9059 -0.7061 -1.5886
 8487SOL     OW37096   2.219   4.107   7.528 -0.0559  0.4058 -0.1945
 8487SOL    HW137097   2.285   4.043   7.500 -0.3187  0.2301 -0.4044
 8487SOL    HW237098   2.139   4.057   7.514  2.1865 -2.5551 -2.4343
 8488SOL     OW37099   1.422   2.351   7.150 -0.1475 -0.6340 -0.9198
 8488SOL    HW137100   1.355   2.387   7.208 -0.3500 -1.2595 -0.7558
 8488SOL    HW237101   1.479   2.426   7.135  0.2416 -0.7656 -0.0603
 8489SOL     OW37102   0.236   3.196   7.361  0.2706 -0.3551 -0.1871
 8489SOL    HW137103   0.152   3.153   7.375  0.4075 -0.2936  0.7802
 8489SOL    HW237104   0.259   3.154   7.278  0.9920  0.6018 -0.4651
 8490SOL     OW37105   1.980   0.529   5.080  0.3594 -0.3830 -0.0741
 8490SOL    HW137106   2.075   0.537   5.093  0.1470  0.7345  0.8352
 8490SOL    HW237107   1.973   0.434   5.070 -2.4701 -0.2664  0.8663
 8491SOL     OW37108   0.010   2.233  15.882  0.2271  0.0022  0.0059
 8491SOL    HW137109   0.081   2.257  15.823  0.9879 -0.6802  0.6511
 8491SOL    HW237110   4.715   2.321  15.894 -0.1159 -0.2490  0.9051
 8492SOL     OW37111   1.027   4.126   4.187  0.4619  0.0017  0.3617
 8492SOL    HW137112   1.009   4.214   4.154 -2.3906 -0.3522  0.9780
 8492SOL    HW237113   0.951   4.078   4.156 -0.3194  0.8180  1.0351
 8493SOL     OW37114   2.935   2.614  17.109 -0.1948 -0.4290 -0.1053
 8493SOL    HW137115   3.005   2.659  17.062  0.5241  0.8372  2.2127
 8493SOL    HW237116   2.861   2.671  17.088 -1.5074 -1.8149  0.6935
 8494SOL     OW37117   1.342   3.629   8.534  0.2712 -0.1262  0.4633
 8494SOL    HW137118   1.289   3.588   8.603 -2.0914  1.5367 -0.3728
 8494SOL    HW237119   1.386   3.695   8.587  0.4747  0.0247  0.1019
 8495SOL     OW37120   3.656   0.701   4.763 -0.1875 -0.1272 -0.4160
 8495SOL    HW137121   3.564   0.728   4.771 -0.5849 -1.4031 -0.6930
 8495SOL    HW237122   3.694   0.788   4.756  0.2512 -0.0075  3.2006
 8496SOL     OW37123   2.755   2.021   2.317 -0.3906 -0.1672 -0.1441
 8496SOL    HW137124   2.765   1.947   2.256  1.2272  0.9773 -1.2734
 8496SOL    HW237125   2.673   2.056   2.283 -1.2677 -1.0436  1.0827
 8497SOL     OW37126   0.569   4.012  10.064 -0.5298  1.0735 -0.1266
 8497SOL    HW137127   0.605   3.926  10.087 -3.1531 -0.3322 -1.1378
 8497SOL    HW237128   0.641   4.073  10.077 -0.4864  0.8843  0.5421
 8498SOL     OW37129   1.536   0.773   5.615 -0.0077 -0.0343  0.0135
 8498SOL    HW137130   1.586   0.709   5.564  1.3259  1.2402 -0.2822
 8498SOL    HW237131   1.514   0.731   5.698 -0.0236 -0.5055 -0.2282
 8499SOL     OW37132   1.228   4.146   6.851 -0.2667 -0.4455  0.4054
 8499SOL    HW137133   1.226   4.065   6.902 -2.1392 -0.8965 -0.3737
 8499SOL    HW237134   1.299   4.189   6.899 -0.1140  1.7771 -1.7784
 8500SOL     OW37135   4.445   0.252   5.685  0.9176  0.3325  0.7492
 8500SOL    HW137136   4.480   0.310   5.752  1.2869  0.5689  0.3550
 8500SOL    HW237137   4.392   0.314   5.636 -1.7868 -0.7126  2.3584
 8501SOL     OW37138   1.937   3.246   2.044 -0.4917  0.3354 -0.1273
 8501SOL    HW137139   1.856   3.283   2.078 -1.1439 -2.3091  1.1963
 8501SOL    HW237140   1.907   3.165   2.002  0.6228 -0.7905  1.2669
 8502SOL     OW37141   2.199   1.654  11.147  0.0929  0.2469 -0.2774
 8502SOL    HW137142   2.239   1.675  11.231  1.5964 -0.0121 -0.9260
 8502SOL    HW237143   2.196   1.559  11.141  0.1965  0.2030  0.3540
 8503SOL     OW37144   2.859   3.155  13.319 -0.4155  0.0420 -0.4820
 8503SOL    HW137145   2.946   3.152  13.279 -0.6479  0.5751 -1.0371
 8503SOL    HW237146   2.807   3.163  13.239 -0.9007  1.0004 -0.0769
 8504SOL     OW37147   4.350   0.496  12.772  0.0892  0.2971 -0.8504
 8504SOL    HW137148   4.313   0.489  12.684 -0.5692  1.3520 -0.6584
 8504SOL    HW237149   4.434   0.542  12.766  0.5187 -0.2138  1.4485
 8505SOL     OW37150   1.733   2.943   2.555 -0.1296  0.0201 -0.2150
 8505SOL    HW137151   1.667   2.874   2.547  0.9688 -0.9687 -0.7321
 8505SOL    HW237152   1.695   3.000   2.622  1.5240  0.7409  0.1102
 8506SOL     OW37153   1.476   1.086   1.722  0.1375  0.8332  0.5430
 8506SOL    HW137154   1.570   1.105   1.713 -0.1119  2.2959  1.0638
 8506SOL    HW237155   1.443   1.173   1.745  1.6207  2.0916 -2.0108
 8507SOL     OW37156   1.115   0.546  14.249 -0.0646 -0.5803  0.3742
 8507SOL    HW137157   1.118   0.491  14.326 -0.7198 -0.6645  0.3362
 8507SOL    HW237158   1.144   0.487  14.179  0.9584 -0.4515  0.6828
 8508SOL     OW37159   0.722   0.792  11.406  0.2159 -0.1743 -0.3499
 8508SOL    HW137160   0.641   0.745  11.423  0.4050  0.4811  2.4350
 8508SOL    HW237161   0.743   0.820  11.496  0.8854  0.4566 -0.6983
 8509SOL     OW37162   4.497   4.049  15.633  0.2543 -0.0712  0.7896
 8509SOL    HW137163   4.410   4.088  15.624  0.0322 -0.4554  1.2824
 8509SOL    HW237164   4.497   4.023  15.726  0.7237 -2.9471 -0.0078
 8510SOL     OW37165   2.468   4.730  12.830 -0.6785 -0.0503 -0.4082
 8510SOL    HW137166   2.464   4.678  12.910 -0.3033 -2.4159 -1.9412
 8510SOL    HW237167   2.537   4.681  12.783 -1.3875  0.2331 -1.7578
 8511SOL     OW37168   0.885   2.769   0.978 -0.1666 -0.1044  0.1719
 8511SOL    HW137169   0.935   2.697   1.017 -0.3120 -0.1794  0.2199
 8511SOL    HW237170   0.933   2.848   1.004  1.2143 -0.4260 -1.3876
 8512SOL     OW37171   2.226   2.314  13.427 -0.0423 -0.2064  0.4789
 8512SOL    HW137172   2.255   2.261  13.501  1.6657 -0.2296 -0.2158
 8512SOL    HW237173   2.291   2.287  13.362 -2.4279  0.9131 -2.3730
 8513SOL     OW37174   3.567   4.240   6.650  0.3807 -0.5764  0.6021
 8513SOL    HW137175   3.522   4.167   6.693  1.7503 -0.1820  2.6887
 8513SOL    HW237176   3.514   4.247   6.570 -0.0730  2.5234  1.1855
 8514SOL     OW37177   1.956   0.284   7.547  0.5081 -0.2186 -0.4374
 8514SOL    HW137178   1.986   0.193   7.556  0.9431 -0.3014 -2.7882
 8514SOL    HW237179   1.978   0.310   7.636 -1.4099 -0.4646  0.1117
 8515SOL     OW37180   4.148   3.099  12.546 -0.4789  0.3906  0.2116
 8515SOL    HW137181   4.160   3.193  12.532  0.1923  0.3583  0.5626
 8515SOL    HW237182   4.139   3.066  12.457 -0.4939  1.0254 -0.0182
 8516SOL     OW37183   1.557   0.541   8.995  0.1620 -0.2420 -0.3835
 8516SOL    HW137184   1.489   0.487   9.036  1.1591 -0.7216  0.6224
 8516SOL    HW237185   1.631   0.504   9.042  1.1866  1.9532 -0.3052
 8517SOL     OW37186   2.950   1.576   6.726  0.4298 -0.0422 -1.2394
 8517SOL    HW137187   2.978   1.602   6.638  0.5324  2.0543 -0.5787
 8517SOL    HW237188   2.952   1.660   6.771 -0.2265 -1.7309  1.9018
 8518SOL     OW37189   3.765   3.272   9.677 -0.4172 -0.2753  0.4162
 8518SOL    HW137190   3.724   3.186   9.669 -2.0998  0.5775 -0.0481
 8518SOL    HW237191   3.839   3.259   9.617 -0.5446  0.1918  0.1536
 8519SOL     OW37192   0.137   3.189  11.337 -0.1885 -0.1730  0.0981
 8519SOL    HW137193   0.203   3.157  11.398  1.8053 -0.9689 -2.4960
 8519SOL    HW237194   0.188   3.183  11.256  0.0405 -1.8231  0.3735
 8520SOL     OW37195   2.392   1.265   3.545  0.5014  0.0729  0.0213
 8520SOL    HW137196   2.332   1.336   3.523  0.1461 -0.1855  0.1567
 8520SOL    HW237197   2.427   1.245   3.458 -1.7021  0.8785 -1.0443
 8521SOL     OW37198   3.526   0.313   6.491  0.1999  0.6920  0.0269
 8521SOL    HW137199   3.574   0.385   6.449  1.4986 -0.3501 -0.2653
 8521SOL    HW237200   3.523   0.348   6.580 -1.3093  0.4752  0.0703
 8522SOL     OW37201   4.534   1.500   7.064  0.1190  0.1041 -0.0730
 8522SOL    HW137202   4.488   1.454   7.134  1.2844 -1.2663 -0.2099
 8522SOL    HW237203   4.575   1.560   7.127  1.4450  1.2082 -1.9971
 8523SOL     OW37204   2.977   0.985   4.013 -0.8588  0.5794  0.1808
 8523SOL    HW137205   2.888   1.004   4.039 -0.7749  1.2383 -0.0179
 8523SOL    HW237206   3.002   1.071   3.979  0.7073 -0.3415 -1.0518
 8524SOL     OW37207   1.736   0.507   7.675  0.1564  0.1707  0.5176
 8524SOL    HW137208   1.675   0.448   7.719  1.3739 -1.7351 -0.3562
 8524SOL    HW237209   1.771   0.552   7.752 -1.0470 -0.1786  1.2649
 8525SOL     OW37210   3.642   1.027   2.852 -0.0631  0.0198 -0.1633
 8525SOL    HW137211   3.659   1.094   2.786  0.2508  2.9828  2.9389
 8525SOL    HW237212   3.606   1.072   2.928 -0.9274 -0.0145 -0.5504
 8526SOL     OW37213   4.503   1.735   8.876  0.3265  0.4452 -0.3482
 8526SOL    HW137214   4.564   1.709   8.945  0.6208  0.4324 -0.6169
 8526SOL    HW237215   4.523   1.828   8.868  3.5202 -0.5744 -4.0319
 8527SOL     OW37216   0.023   1.736  16.004  0.3387  0.0829  0.4115
 8527SOL    HW137217   4.735   1.827  16.018 -1.2831 -0.2420 -0.5449
 8527SOL    HW237218   4.699   1.695  16.065  0.8885 -1.0810  0.2002
 8528SOL     OW37219   4.484   0.572   0.430  0.2865 -0.0666  0.1344
 8528SOL    HW137220   4.394   0.547   0.414  0.1274  0.9785 -0.5638
 8528SOL    HW237221   4.524   0.494   0.391 -0.0180  0.5402 -1.3617
 8529SOL     OW37222   4.004   1.229   1.800  0.1122 -0.1344  0.1070
 8529SOL    HW137223   4.050   1.218   1.717  2.1158  2.3018  0.8895
 8529SOL    HW237224   4.035   1.161   1.858 -0.3273  0.1068  0.6233
 8530SOL     OW37225   3.666   3.099   5.496  0.0698  0.5254  0.5752
 8530SOL    HW137226   3.753   3.061   5.486  0.1007  0.4110  1.3216
 8530SOL    HW237227   3.627   3.016   5.522 -2.2051  0.4680 -2.9672
 8531SOL     OW37228   2.335   3.951   2.326 -0.0023 -0.0603  0.4667
 8531SOL    HW137229   2.425   3.966   2.354 -0.1107 -0.5271  1.0544
 8531SOL    HW237230   2.309   3.881   2.385  0.9734 -2.1643 -1.6134
 8532SOL     OW37231   3.477   2.738  12.041  0.1064 -0.4809  0.2133
 8532SOL    HW137232   3.384   2.735  12.061  0.0760  0.5526  0.2221
 8532SOL    HW237233   3.503   2.807  12.104 -1.4535 -0.4213  0.7826
 8533SOL     OW37234   0.438   1.406   2.032  0.1084  0.2531 -0.4259
 8533SOL    HW137235   0.531   1.418   2.053  0.2229 -1.2666 -0.0258
 8533SOL    HW237236   0.427   1.481   1.974  1.2339 -0.6112 -1.7712
 8534SOL     OW37237   1.338   1.069   5.612 -0.2858  0.0420  0.0559
 8534SOL    HW137238   1.371   1.102   5.696 -0.6146  2.1365 -0.6438
 8534SOL    HW237239   1.272   1.010   5.648 -1.8769  1.5049 -0.5284
 8535SOL     OW37240   3.041   0.602   6.855  0.3346 -0.3750  0.1554
 8535SOL    HW137241   2.990   0.648   6.921 -0.5909 -0.9359 -0.1648
 8535SOL    HW237242   3.107   0.551   6.901 -0.4071 -1.3518  0.1493
 8536SOL     OW37243   3.951   0.599   5.962  0.5499 -0.2709 -0.3023
 8536SOL    HW137244   3.973   0.517   6.006 -0.4471 -0.0276  0.6435
 8536SOL    HW237245   4.018   0.610   5.895  0.4084 -0.4926 -0.4807
 8537SOL     OW37246   1.354   2.875   5.185 -0.4365  0.3356  0.6397
 8537SOL    HW137247   1.409   2.867   5.107 -1.3113 -1.9403  0.2459
 8537SOL    HW237248   1.330   2.967   5.174  2.6042  1.0699  0.1333
 8538SOL     OW37249   1.856   1.985   8.845 -0.0704  0.1746  0.0467
 8538SOL    HW137250   1.765   1.982   8.875 -0.2750  1.0710 -0.5081
 8538SOL    HW237251   1.873   1.895   8.816 -1.9170 -0.3094  0.4667
 8539SOL     OW37252   4.045   2.102  14.445 -0.0356 -0.2982  0.3203
 8539SOL    HW137253   3.993   2.084  14.523  0.2991 -2.0421  0.1480
 8539SOL    HW237254   3.985   2.127  14.375 -1.7790 -3.1710  0.7990
 8540SOL     OW37255   2.367   3.350  16.050 -0.6023  0.0680  0.5878
 8540SOL    HW137256   2.291   3.374  15.997 -1.4814 -1.4867  1.1581
 8540SOL    HW237257   2.419   3.418  16.006 -2.7450  1.3168  0.0152
 8541SOL     OW37258   2.791   4.121   8.332  0.0109  0.6028 -0.0916
 8541SOL    HW137259   2.793   4.062   8.257 -0.9451  0.7118 -0.2003
 8541SOL    HW237260   2.783   4.207   8.290  0.8706  0.6308 -0.1845
 8542SOL     OW37261   2.971   0.138   6.600 -0.5135 -0.1918  0.2357
 8542SOL    HW137262   2.944   0.160   6.689  0.2950  0.3602  0.3381
 8542SOL    HW237263   3.063   0.163   6.604 -0.4615 -0.3017 -0.2403
 8543SOL     OW37264   2.966   2.190   3.706  0.1898  0.5235 -0.2706
 8543SOL    HW137265   3.032   2.257   3.724  0.3229 -0.0114  1.2700
 8543SOL    HW237266   2.958   2.131   3.781  2.5895  3.3934  2.2708
 8544SOL     OW37267   1.831   2.778   2.800 -0.2062  0.2102  0.0426
 8544SOL    HW137268   1.784   2.707   2.755  0.2498 -1.1785  1.7193
 8544SOL    HW237269   1.789   2.858   2.771  0.6114  0.2936 -0.9180
 8545SOL     OW37270   2.898   0.664   3.193  0.6695 -0.1941  0.6606
 8545SOL    HW137271   2.976   0.683   3.246 -0.0168  0.4692  1.4239
 8545SOL    HW237272   2.873   0.579   3.228  1.0451 -0.2713  0.7479
 8546SOL     OW37273   1.139   2.118   5.898  0.2256 -0.0085 -0.1213
 8546SOL    HW137274   1.181   2.195   5.859  1.2184 -0.8580 -0.7415
 8546SOL    HW237275   1.058   2.116   5.847  0.7133  1.7724 -0.9714
 8547SOL     OW37276   4.415   0.935   1.646  0.1896 -0.0147 -0.6588
 8547SOL    HW137277   4.405   0.845   1.679 -4.6386  0.1096 -1.8112
 8547SOL    HW237278   4.349   0.939   1.577 -1.3299 -0.7695  0.7445
 8548SOL     OW37279   1.057   2.066   9.039  0.0629 -0.3908 -1.1028
 8548SOL    HW137280   1.019   2.036   9.122 -1.6932  0.9522 -1.4299
 8548SOL    HW237281   0.986   2.127   9.023  0.0413  0.1380  1.0014
 8549SOL     OW37282   0.647   3.950  17.391 -0.7047  0.7570 -0.4756
 8549SOL    HW137283   0.726   3.974  17.342 -0.3806  1.6980  0.4955
 8549SOL    HW237284   0.675   3.971  17.480 -1.3690 -0.6011  0.0398
 8550SOL     OW37285   4.553   2.764   7.411  0.3053  0.0628  0.3997
 8550SOL    HW137286   4.514   2.682   7.443 -0.2515  0.1880  0.0377
 8550SOL    HW237287   4.540   2.811   7.494 -1.1498 -1.5119  1.0737
 8551SOL     OW37288   4.408   1.418   9.343 -0.0968 -0.4069  0.1412
 8551SOL    HW137289   4.364   1.378   9.268 -0.7926  2.9770 -1.2438
 8551SOL    HW237290   4.343   1.483   9.369  0.4939  0.3876 -0.3492
 8552SOL     OW37291   0.271   1.562   7.874 -0.6131  0.9330 -0.1550
 8552SOL    HW137292   0.249   1.631   7.811 -1.6656  1.4124  0.7256
 8552SOL    HW237293   0.184   1.555   7.914 -1.3904  1.2894 -1.7783
 8553SOL     OW37294   4.367   0.157   3.797  0.0341  0.5535 -0.1829
 8553SOL    HW137295   4.331   0.076   3.834 -0.9434  0.9090 -0.3565
 8553SOL    HW237296   4.415   0.191   3.873  0.4591 -1.7879  0.5973
 8554SOL     OW37297   3.650   2.795   9.520 -0.3007 -0.1652 -0.6714
 8554SOL    HW137298   3.573   2.745   9.546 -0.7349  0.7169 -0.2671
 8554SOL    HW237299   3.636   2.883   9.556  0.2092  0.1932 -1.3412
 8555SOL     OW37300   4.591   4.652   4.796 -0.3983 -0.7249  0.4257
 8555SOL    HW137301   4.513   4.697   4.828 -1.9339 -2.0013 -1.5540
 8555SOL    HW237302   4.642   4.646   4.877  2.3961  1.8630 -1.1037
 8556SOL     OW37303   2.189   0.607   7.807 -0.5180  0.0430  0.0634
 8556SOL    HW137304   2.264   0.666   7.806 -1.5695  1.3795 -0.1160
 8556SOL    HW237305   2.155   0.639   7.891  0.5469 -2.4276  1.4247
 8557SOL     OW37306   3.675   1.968   2.330  0.5555  0.0971 -0.0873
 8557SOL    HW137307   3.756   1.991   2.376 -0.6230  0.6389  1.7031
 8557SOL    HW237308   3.634   1.915   2.398 -0.6630 -0.6814 -1.4180
 8558SOL     OW37309   3.443   3.025   4.286  0.7718  0.0858  0.1059
 8558SOL    HW137310   3.452   3.072   4.203 -1.7160 -0.7504 -0.6696
 8558SOL    HW237311   3.533   3.012   4.314  0.0264 -1.6260  1.7419
 8559SOL     OW37312   0.271   1.725   2.258 -0.2140  0.4471  0.3954
 8559SOL    HW137313   0.306   1.800   2.210  0.3170  0.2864  0.5297
 8559SOL    HW237314   0.354   1.686   2.285  0.5562  1.2327 -0.8126
 8560SOL     OW37315   3.077   3.674   0.998  0.6941  0.3327 -0.6318
 8560SOL    HW137316   3.070   3.764   1.031 -1.1627  1.0166 -2.9065
 8560SOL    HW237317   3.019   3.624   1.056  1.9996  0.3366  0.6684
 8561SOL     OW37318   3.475   1.081   4.909  0.5276  0.6529 -0.2507
 8561SOL    HW137319   3.445   1.167   4.880  0.0623 -0.1407 -2.0987
 8561SOL    HW237320   3.431   1.067   4.993 -0.5369 -3.2643 -1.4556
 8562SOL     OW37321   3.610   1.310   7.133 -0.1722  0.4863 -0.1000
 8562SOL    HW137322   3.628   1.388   7.184  1.3776  1.6827 -2.5047
 8562SOL    HW237323   3.609   1.246   7.205 -1.8557  0.3941 -0.1978
 8563SOL     OW37324   3.250   4.424  12.341 -0.0439  0.1312  0.0505
 8563SOL    HW137325   3.332   4.432  12.390  0.5097 -1.0948 -0.6765
 8563SOL    HW237326   3.214   4.349  12.388  0.7939 -1.7883 -2.3869
 8564SOL     OW37327   3.051   1.685   6.493 -0.0272 -0.8877 -0.4559
 8564SOL    HW137328   3.131   1.725   6.529 -0.7263  0.7987 -0.7908
 8564SOL    HW237329   3.009   1.759   6.450  1.1948 -0.1173 -0.3344
 8565SOL     OW37330   2.198   4.150   1.246 -0.8031 -0.4050 -0.6275
 8565SOL    HW137331   2.206   4.211   1.319 -0.9766  3.7652 -4.0609
 8565SOL    HW237332   2.257   4.182   1.178 -0.7509 -0.7094 -0.7270
 8566SOL     OW37333   3.909   3.013   9.174  0.1377  0.4638  0.2205
 8566SOL    HW137334   3.982   3.029   9.234  1.5119  0.1580 -1.3801
 8566SOL    HW237335   3.949   3.046   9.094 -1.5510  0.7703 -0.4926
 8567SOL     OW37336   2.396   3.373   2.814 -0.1642  0.2992  0.1225
 8567SOL    HW137337   2.492   3.372   2.816 -0.1688  0.4257  0.3569
 8567SOL    HW237338   2.370   3.364   2.722 -1.0484  1.5452  0.2426
 8568SOL     OW37339   0.856   0.355   7.676  0.4747  0.1953 -0.0053
 8568SOL    HW137340   0.914   0.382   7.604  0.0609 -0.4693 -0.5928
 8568SOL    HW237341   0.816   0.276   7.638 -0.9715  0.6138  0.6367
 8569SOL     OW37342   1.969   2.038   4.153  0.1846  0.3269 -0.0927
 8569SOL    HW137343   1.923   2.122   4.154  0.1148  0.2668  1.6917
 8569SOL    HW237344   1.890   1.985   4.164  0.5721 -0.3853 -0.6731
 8570SOL     OW37345   1.636   4.527   6.561 -0.7932 -0.0866  0.6903
 8570SOL    HW137346   1.567   4.521   6.496  2.4155  0.5173 -2.7999
 8570SOL    HW237347   1.617   4.451   6.616 -0.2863  0.7082  1.9963
 8571SOL     OW37348   1.848   1.778  13.238  0.2534 -0.2126  0.3352
 8571SOL    HW137349   1.885   1.862  13.211 -0.9841 -0.0678 -0.8986
 8571SOL    HW237350   1.852   1.724  13.159  1.6832  1.2384 -0.5847
 8572SOL     OW37351   3.587   0.967   1.471 -0.8495  0.1175  0.3566
 8572SOL    HW137352   3.574   0.884   1.425 -2.2462  1.6270 -1.9922
 8572SOL    HW237353   3.500   1.004   1.485 -2.0674 -1.9927 -1.5892
 8573SOL     OW37354   2.998   1.342   8.238 -0.1085 -0.2707 -0.2824
 8573SOL    HW137355   3.019   1.353   8.145 -0.8850 -0.8192 -0.5232
 8573SOL    HW237356   3.031   1.420   8.282  1.5821  0.1481 -2.3269
 8574SOL     OW37357   1.623   1.278  17.110 -0.2161  0.1879 -0.2795
 8574SOL    HW137358   1.634   1.374  17.111  2.1896 -0.0891 -0.8613
 8574SOL    HW237359   1.711   1.267  17.074 -0.0003  1.1809 -0.0730
 8575SOL     OW37360   0.911   2.430   4.907 -0.3297  0.3170  0.0371
 8575SOL    HW137361   0.945   2.396   4.825 -0.0936  1.2920 -0.2767
 8575SOL    HW237362   0.975   2.396   4.970  0.9770 -0.3557 -1.6550
 8576SOL     OW37363   3.588   1.256   8.247 -0.1397 -0.3548  0.1355
 8576SOL    HW137364   3.545   1.296   8.322 -0.4293  0.6193 -0.5507
 8576SOL    HW237365   3.625   1.178   8.288  0.4064 -1.0107 -1.5826
 8577SOL     OW37366   0.543   1.984  15.537  0.0317  0.3330  0.0221
 8577SOL    HW137367   0.607   1.938  15.593  0.0658  0.6358  0.2313
 8577SOL    HW237368   0.532   1.913  15.474  2.2240  0.8165 -0.9181
 8578SOL     OW37369   4.639   1.314   1.636  0.0029  0.0955 -0.3711
 8578SOL    HW137370   4.734   1.310   1.643  0.0476  1.7021 -0.0540
 8578SOL    HW237371   4.620   1.396   1.681 -1.8948 -1.4416  1.6295
 8579SOL     OW37372   1.651   1.656   2.936 -0.2955 -0.4291  0.5256
 8579SOL    HW137373   1.658   1.672   3.030  2.8534  0.4978  0.1294
 8579SOL    HW237374   1.595   1.579   2.944 -0.5098 -0.4430 -1.0612
 8580SOL     OW37375   0.399   0.676  14.815  0.2425  0.1586 -0.5289
 8580SOL    HW137376   0.305   0.687  14.824  0.3333 -0.3728  1.0428
 8580SOL    HW237377   0.418   0.749  14.756  1.1527  0.5893  0.3048
 8581SOL     OW37378   0.028   0.815   2.773 -0.0765  0.0206 -0.1422
 8581SOL    HW137379   0.023   0.771   2.858 -1.1182  0.5171  0.0518
 8581SOL    HW237380   0.119   0.844   2.778 -0.0849  0.3492 -2.0281
 8582SOL     OW37381   2.312   3.940   3.635 -0.2138 -0.0778 -0.0806
 8582SOL    HW137382   2.386   3.880   3.643  1.2086  1.5387 -1.0108
 8582SOL    HW237383   2.335   4.018   3.686  3.1147 -1.0501 -0.1074
 8583SOL     OW37384   4.097   3.082  14.412 -0.5013  0.1304 -0.1294
 8583SOL    HW137385   4.035   3.095  14.484 -1.0155 -0.0542 -0.5410
 8583SOL    HW237386   4.136   2.996  14.424 -0.3437 -0.0192 -1.6558
 8584SOL     OW37387   4.435   2.138   3.157 -0.2598 -0.1334 -0.2867
 8584SOL    HW137388   4.494   2.210   3.181  0.9404 -1.3546  0.4935
 8584SOL    HW237389   4.436   2.152   3.063 -1.6624  2.4423  0.0827
 8585SOL     OW37390   2.253   3.606   3.414 -0.0699 -0.1057 -0.1402
 8585SOL    HW137391   2.308   3.682   3.434  0.9205 -0.8987  0.1567
 8585SOL    HW237392   2.269   3.539   3.480  2.8930 -1.0400 -1.7796
 8586SOL     OW37393   2.339   0.812   4.130  0.2444 -0.2964 -0.0950
 8586SOL    HW137394   2.282   0.735   4.134 -1.4429  0.9342 -0.4547
 8586SOL    HW237395   2.427   0.782   4.108 -0.5612 -0.1553 -3.5162
 8587SOL     OW37396   3.335   3.089   3.548 -0.5535  0.4973  0.0061
 8587SOL    HW137397   3.394   3.075   3.474  1.2806  1.4765  1.2944
 8587SOL    HW237398   3.368   3.022   3.608 -0.0483 -0.2869 -1.1494
 8588SOL     OW37399   0.879   3.895  11.096  0.2128 -0.1572 -0.3123
 8588SOL    HW137400   0.966   3.905  11.057  1.6616 -0.0415  2.9636
 8588SOL    HW237401   0.854   3.808  11.067  2.1661 -0.7455 -0.2331
 8589SOL     OW37402   0.235   1.614   5.848 -0.8787  0.7494  0.2247
 8589SOL    HW137403   0.302   1.546   5.844  1.2157  2.7706  0.9344
 8589SOL    HW237404   0.251   1.651   5.934 -2.0739 -0.4202  0.9624
 8590SOL     OW37405   1.542   3.564  14.775 -0.6910  0.0302 -0.2681
 8590SOL    HW137406   1.541   3.660  14.777 -2.6928  0.0187 -0.0260
 8590SOL    HW237407   1.532   3.536  14.866 -2.5680 -1.4107 -0.9165
 8591SOL     OW37408   3.515   0.495   9.298  0.4727 -0.5131  0.1189
 8591SOL    HW137409   3.540   0.525   9.211  0.1995  1.1672  0.6157
 8591SOL    HW237410   3.594   0.529   9.341  0.6792 -0.9696  0.1061
 8592SOL     OW37411   1.334   4.279   1.926  0.2713 -0.1173  0.7960
 8592SOL    HW137412   1.245   4.285   1.892 -0.8823 -0.1646  3.8418
 8592SOL    HW237413   1.332   4.335   2.003 -1.4551 -0.9587  1.3697
 8593SOL     OW37414   4.689   3.888   0.898  0.3142 -0.1323  0.4761
 8593SOL    HW137415   4.709   3.876   0.991  0.4761  1.6196  0.6784
 8593SOL    HW237416   4.724   3.805   0.867  2.4762  1.3321 -1.0875
 8594SOL     OW37417   1.094   1.500   5.472  0.2190 -0.2374 -0.2712
 8594SOL    HW137418   1.032   1.430   5.451  1.9074 -1.3199 -1.6620
 8594SOL    HW237419   1.072   1.523   5.562  2.0272  1.4140 -0.2361
 8595SOL     OW37420   1.086   2.325   5.079  0.6987 -0.5426 -0.2855
 8595SOL    HW137421   1.169   2.306   5.034  0.2595 -1.9477 -0.5134
 8595SOL    HW237422   1.112   2.392   5.143 -1.0646  0.6631 -0.8296
 8596SOL     OW37423   2.466   0.257  15.886 -0.0615  0.0369 -0.2878
 8596SOL    HW137424   2.406   0.264  15.812  0.0904 -0.9040 -0.4895
 8596SOL    HW237425   2.430   0.177  15.924 -0.1131  0.8435  1.3607
 8597SOL     OW37426   4.284   1.620   2.736  0.2403  0.2051 -0.1123
 8597SOL    HW137427   4.248   1.561   2.802  0.8378 -0.3391 -0.2747
 8597SOL    HW237428   4.224   1.693   2.745  1.6918  1.3676  0.1668
 8598SOL     OW37429   3.583   1.865   1.837  0.4673 -0.1596 -0.2563
 8598SOL    HW137430   3.551   1.792   1.784  1.1397 -0.6127 -0.0382
 8598SOL    HW237431   3.653   1.898   1.780  0.5337 -0.9900 -0.6480
 8599SOL     OW37432   3.575   3.282   0.509  0.6378  0.0588  0.8220
 8599SOL    HW137433   3.590   3.261   0.601  1.1244 -0.8558  0.5294
 8599SOL    HW237434   3.622   3.365   0.499  0.4843 -0.1357 -1.5796
 8600SOL     OW37435   1.916   1.248   4.163 -0.2420 -0.1114 -0.7038
 8600SOL    HW137436   1.881   1.274   4.248 -0.9952  1.3579 -1.4666
 8600SOL    HW237437   2.009   1.253   4.185 -0.6054  1.0066  0.5876
 8601SOL     OW37438   1.238   0.288  12.309 -0.2812 -0.2413  0.3117
 8601SOL    HW137439   1.252   0.383  12.309 -1.4849 -0.0611 -0.5061
 8601SOL    HW237440   1.147   0.274  12.282 -0.6803 -1.1379  2.0990
 8602SOL     OW37441   3.205   0.723   2.037 -0.4297 -0.1329  0.2902
 8602SOL    HW137442   3.265   0.758   2.104  1.1809  0.4167 -1.4224
 8602SOL    HW237443   3.138   0.705   2.102 -0.1995  0.1563  0.6107
 8603SOL     OW37444   0.815   1.966  12.772 -0.3394  0.1558  0.7951
 8603SOL    HW137445   0.776   2.044  12.732  1.9647  0.8588 -0.0808
 8603SOL    HW237446   0.860   2.013  12.842  0.4081  0.6829 -0.0417
 8604SOL     OW37447   0.162   3.042   8.175  0.6867 -0.9939  0.0709
 8604SOL    HW137448   0.097   3.014   8.111  0.0377  2.2724 -0.6817
 8604SOL    HW237449   0.216   2.964   8.188 -1.4710 -2.3612  0.7989
 8605SOL     OW37450   3.670   0.291   0.564 -0.2621  0.5708 -0.0188
 8605SOL    HW137451   3.627   0.296   0.650 -1.3654  1.0877 -0.6038
 8605SOL    HW237452   3.597   0.308   0.504 -1.7664  2.1943  2.2377
 8606SOL     OW37453   3.529   2.424   8.490  0.1592 -0.8164 -0.5778
 8606SOL    HW137454   3.555   2.408   8.581  0.8278 -1.4083 -0.8687
 8606SOL    HW237455   3.609   2.462   8.454  1.0379 -1.0758  1.1181
 8607SOL     OW37456   0.355   2.707  10.599  0.1180 -0.7969  0.5435
 8607SOL    HW137457   0.423   2.659  10.551 -1.2121  0.5662 -2.7081
 8607SOL    HW237458   0.404   2.773  10.649  1.9003 -1.9617  0.3685
 8608SOL     OW37459   1.800   4.483   8.960  0.3428  0.1999 -0.4664
 8608SOL    HW137460   1.854   4.431   8.901  1.0531 -0.5098  0.8191
 8608SOL    HW237461   1.811   4.446   9.047 -0.0049  1.5028  0.1399
 8609SOL     OW37462   3.332   1.267   8.798 -0.5395 -0.3380 -0.5342
 8609SOL    HW137463   3.326   1.177   8.831 -2.1417 -0.5043 -1.2609
 8609SOL    HW237464   3.414   1.287   8.844 -0.4268 -0.7015 -0.5785
 8610SOL     OW37465   2.732   3.773   5.290  0.7805 -0.4567 -0.2281
 8610SOL    HW137466   2.730   3.686   5.331  2.1544 -2.0513 -3.5170
 8610SOL    HW237467   2.742   3.826   5.370 -1.2978 -0.9715  0.3748
 8611SOL     OW37468   4.142   1.216  13.121 -0.4295  0.1687 -0.1094
 8611SOL    HW137469   4.220   1.259  13.086 -0.0343 -0.5526 -0.1275
 8611SOL    HW237470   4.189   1.171  13.191  0.5158 -0.4214 -1.1186
 8612SOL     OW37471   1.091   3.496   0.385  0.4582 -0.4162  0.0117
 8612SOL    HW137472   1.034   3.552   0.332  0.3221 -0.7113 -0.1616
 8612SOL    HW237473   1.051   3.410   0.367  1.6236 -1.2790  1.6095
 8613SOL     OW37474   3.205   0.798   4.896  0.0895  0.5171  0.1958
 8613SOL    HW137475   3.162   0.776   4.979 -1.5972  0.6999 -0.6219
 8613SOL    HW237476   3.133   0.841   4.851  0.1730  0.3146 -0.1247
 8614SOL     OW37477   3.855   2.952  17.595  0.1553 -0.3626  0.6809
 8614SOL    HW137478   3.875   2.887  17.662 -1.0594 -0.5070  0.9075
 8614SOL    HW237479   3.912   3.023  17.624 -1.7690  1.9813 -1.2715
 8615SOL     OW37480   1.782   0.725  16.222  0.8350 -0.3935  0.2141
 8615SOL    HW137481   1.771   0.694  16.132  1.2978 -0.9909  0.3627
 8615SOL    HW237482   1.839   0.801  16.210  0.4309 -0.0641  0.4278
 8616SOL     OW37483   3.301   0.236   8.478  0.5207  0.4344  0.6027
 8616SOL    HW137484   3.213   0.210   8.454 -0.1493  0.2826  3.2066
 8616SOL    HW237485   3.329   0.154   8.521 -1.2056 -0.9862 -0.9863
 8617SOL     OW37486   2.827   0.626   9.224  0.5936 -0.4641 -0.3791
 8617SOL    HW137487   2.797   0.637   9.314 -0.6485  2.5193 -1.1760
 8617SOL    HW237488   2.826   0.719   9.204  0.0486 -0.7642 -1.7897
 8618SOL     OW37489   0.976   3.465   5.956 -0.6162  0.7292 -0.0062
 8618SOL    HW137490   0.945   3.499   5.872  1.5479 -2.9168 -2.2770
 8618SOL    HW237491   0.895   3.476   6.005 -0.5710  2.0354 -0.2133
 8619SOL     OW37492   3.793   2.894   3.982  0.5906  0.4775  0.8645
 8619SOL    HW137493   3.726   2.963   3.985 -2.8017 -2.7411 -0.0886
 8619SOL    HW237494   3.821   2.887   4.073 -0.0499  3.5104  1.2929
 8620SOL     OW37495   4.088   1.528   1.663 -0.6180  0.3737 -0.4912
 8620SOL    HW137496   4.120   1.448   1.621 -1.7602  1.1817 -2.9189
 8620SOL    HW237497   4.162   1.579   1.696  0.1407 -0.3645 -1.0546
 8621SOL     OW37498   0.767   3.580   1.458 -0.6332  0.5067  0.2870
 8621SOL    HW137499   0.716   3.642   1.512 -2.3322 -0.4850 -0.1894
 8621SOL    HW237500   0.735   3.601   1.371 -0.4638  2.4128  0.6783
 8622SOL     OW37501   2.689   2.726   0.332  0.1445  0.3222 -0.1531
 8622SOL    HW137502   2.704   2.740   0.238 -1.2756 -1.3345 -0.6239
 8622SOL    HW237503   2.779   2.707   0.360  0.0549  1.6775  1.0447
 8623SOL     OW37504   1.725   0.662  13.496  0.7186 -0.7559  0.3384
 8623SOL    HW137505   1.764   0.705  13.421  0.5299 -1.0046  0.0951
 8623SOL    HW237506   1.797   0.676  13.558  0.1125  1.3126  0.5774
 8624SOL     OW37507   0.584   0.517  15.571 -0.2145  0.0105  0.3458
 8624SOL    HW137508   0.516   0.507  15.504  2.2352 -0.3298 -2.0379
 8624SOL    HW237509   0.662   0.501  15.518  0.8515 -1.7864  2.4685
 8625SOL     OW37510   1.429   0.257   4.336  0.2822 -0.2580  0.3119
 8625SOL    HW137511   1.420   0.349   4.314 -2.3394 -0.2728  1.3566
 8625SOL    HW237512   1.512   0.240   4.291 -0.3768 -0.1353 -0.9518
 8626SOL     OW37513   4.211   2.751   5.655  0.2795 -0.3118  0.2889
 8626SOL    HW137514   4.121   2.753   5.689  0.2405 -0.5804  0.2010
 8626SOL    HW237515   4.205   2.673   5.600 -1.3354 -0.3324  0.4784
 8627SOL     OW37516   3.390   4.238   4.377  0.4082 -0.4653  0.5712
 8627SOL    HW137517   3.451   4.275   4.313  1.2711 -1.5283  0.7895
 8627SOL    HW237518   3.446   4.174   4.421  0.7024 -1.0780 -0.6987
 8628SOL     OW37519   0.100   0.323   7.214 -0.3212  0.3536 -0.3243
 8628SOL    HW137520   0.116   0.343   7.306 -0.8145  0.4233 -0.2533
 8628SOL    HW237521   0.148   0.395   7.173  0.2606 -0.7242 -1.5509
 8629SOL     OW37522   2.466   0.537   6.765  0.0296  0.8910 -0.0674
 8629SOL    HW137523   2.551   0.531   6.809  0.0525  1.2829 -0.0560
 8629SOL    HW237524   2.443   0.447   6.746 -0.2320  1.1927 -1.2320
 8630SOL     OW37525   1.046   1.307   9.749  0.1662  0.5258  0.1127
 8630SOL    HW137526   1.125   1.254   9.761  1.1990  1.6317 -1.8007
 8630SOL    HW237527   0.995   1.295   9.829  1.5338 -0.6908  0.8044
 8631SOL     OW37528   1.505   0.088   5.484 -0.4173  0.4087  0.3519
 8631SOL    HW137529   1.568   0.136   5.537  0.4149 -0.2814 -0.0255
 8631SOL    HW237530   1.543   0.120   5.402 -0.7138  0.0340  0.0657
 8632SOL     OW37531   2.650   2.758   4.997  0.3349 -0.3030 -0.0515
 8632SOL    HW137532   2.735   2.793   4.969  0.1211 -0.9711 -1.5486
 8632SOL    HW237533   2.671   2.700   5.070  0.6492 -0.0176  0.0822
 8633SOL     OW37534   0.626   1.108   7.135  0.0715 -0.1962  0.0538
 8633SOL    HW137535   0.659   1.173   7.198  0.2481 -0.5956  0.3677
 8633SOL    HW237536   0.566   1.055   7.187  0.1570  0.2485  0.6034
 8634SOL     OW37537   4.695   0.451   4.109 -0.2398  0.1653 -0.5411
 8634SOL    HW137538   0.028   0.445   4.045 -0.5615  0.9940 -0.9807
 8634SOL    HW237539   4.694   0.545   4.125  1.2108 -0.0997  1.0770
 8635SOL     OW37540   1.424   1.761   4.482  0.7667 -0.1611  0.2027
 8635SOL    HW137541   1.500   1.763   4.425  1.1786 -3.5221  0.6803
 8635SOL    HW237542   1.421   1.856   4.497 -0.3718 -0.0081 -1.0292
 8636SOL     OW37543   0.208   0.641   5.205 -0.0737 -0.2412  0.0455
 8636SOL    HW137544   0.139   0.575   5.203  0.0173 -0.2735 -1.8751
 8636SOL    HW237545   0.266   0.592   5.264  0.3525  0.0540 -0.1305
 8637SOL     OW37546   2.521   3.271   3.209  0.0822  0.5449 -0.5445
 8637SOL    HW137547   2.514   3.275   3.304 -1.2605 -1.2972 -0.5547
 8637SOL    HW237548   2.429   3.278   3.182 -0.3424 -0.1127  0.7721
 8638SOL     OW37549   2.574   2.818  12.258 -0.4112  0.3679  0.2091
 8638SOL    HW137550   2.603   2.850  12.172 -3.5930  1.0601 -0.6074
 8638SOL    HW237551   2.661   2.810  12.295 -0.9143 -0.4276  1.2200
 8639SOL     OW37552   1.894   3.032   5.463 -0.0951  0.4802  0.5962
 8639SOL    HW137553   1.824   3.041   5.398  0.3219  1.0786  0.2390
 8639SOL    HW237554   1.971   3.059   5.413  0.1754  0.7236  1.1497
 8640SOL     OW37555   4.006   0.921   4.982 -0.4299  0.0908 -0.2316
 8640SOL    HW137556   4.021   1.012   4.955  0.6960  0.1761  0.6889
 8640SOL    HW237557   3.980   0.875   4.903 -1.5989  0.0171  0.2024
 8641SOL     OW37558   4.300   0.677  14.818  0.7003  0.1346  0.1900
 8641SOL    HW137559   4.240   0.730  14.765 -2.1875 -2.0393  1.2649
 8641SOL    HW237560   4.236   0.611  14.846 -1.2183  1.5413 -0.8720
 8642SOL     OW37561   0.531   0.775   3.660  0.3774 -0.1641 -0.3680
 8642SOL    HW137562   0.484   0.858   3.650  1.0732  0.3489  0.6858
 8642SOL    HW237563   0.581   0.769   3.579 -2.4223  0.3457 -2.1565
 8643SOL     OW37564   2.547   2.388   8.383 -0.1350  0.1759 -0.2494
 8643SOL    HW137565   2.582   2.360   8.467 -1.1726  0.7127  0.3636
 8643SOL    HW237566   2.454   2.367   8.393  0.3518  0.3577  4.3298
 8644SOL     OW37567   1.017   3.655  12.256  0.6417  0.2055  0.1423
 8644SOL    HW137568   1.021   3.720  12.186  1.2726  0.4857  0.4328
 8644SOL    HW237569   1.106   3.674  12.286  0.6251 -0.7628  0.7782
 8645SOL     OW37570   1.671   2.506   6.003  0.3627 -0.0822 -0.2199
 8645SOL    HW137571   1.607   2.436   6.016  1.9775 -1.5343 -0.0099
 8645SOL    HW237572   1.607   2.574   5.984 -0.4442 -0.7450  0.1235
 8646SOL     OW37573   0.353   3.137   6.296  0.1931  0.0247 -0.3276
 8646SOL    HW137574   0.372   3.178   6.380  2.3824  0.7593 -1.1768
 8646SOL    HW237575   0.263   3.168   6.287 -0.1617 -1.1320 -0.7555
 8647SOL     OW37576   0.276   1.092   3.851 -0.1096  0.0327 -0.4112
 8647SOL    HW137577   0.205   1.109   3.788  0.6265 -2.3833 -1.8922
 8647SOL    HW237578   0.220   1.078   3.927 -1.1002  1.3604 -0.9026
 8648SOL     OW37579   3.513   1.096   7.319 -0.0963 -0.0427 -0.0988
 8648SOL    HW137580   3.427   1.128   7.290  0.0143 -0.1896 -0.5977
 8648SOL    HW237581   3.481   1.036   7.386 -2.8984  1.1739 -0.3130
 8649SOL     OW37582   2.671   4.305   2.544  0.2067  0.1734 -0.4227
 8649SOL    HW137583   2.594   4.331   2.493 -0.1956  0.5652  0.3819
 8649SOL    HW237584   2.737   4.331   2.480  1.1675  1.8515  1.2405
 8650SOL     OW37585   3.534   2.904   2.812 -0.5373  0.5443  0.1819
 8650SOL    HW137586   3.471   2.860   2.755  1.0738 -0.9985 -0.3909
 8650SOL    HW237587   3.486   2.944   2.885 -1.3391 -2.8871  1.5179
 8651SOL     OW37588   2.443   4.393   0.151 -0.1634  0.2159 -0.2414
 8651SOL    HW137589   2.408   4.332   0.216 -0.5780  1.0225  0.2959
 8651SOL    HW237590   2.527   4.419   0.188 -0.0060  0.2755 -0.6452
 8652SOL     OW37591   3.918   4.426  11.527 -0.6610  0.4433  0.5390
 8652SOL    HW137592   3.964   4.506  11.499 -1.8422  1.3447  1.1853
 8652SOL    HW237593   3.858   4.470  11.587 -0.9867 -0.9599  1.2297
 8653SOL     OW37594   2.354   0.944   4.396  0.0904 -0.5163 -0.1417
 8653SOL    HW137595   2.360   0.898   4.312  1.8066  0.0305 -0.2987
 8653SOL    HW237596   2.422   0.893   4.440 -0.1345 -0.1152  0.6715
 8654SOL     OW37597   3.030   4.333   8.042  0.2148 -0.1552  0.4936
 8654SOL    HW137598   2.939   4.318   8.069  0.3764 -0.3800  0.9059
 8654SOL    HW237599   3.027   4.407   7.981 -0.0541 -2.4432 -2.3017
 8655SOL     OW37600   4.529   0.162  15.870  0.8578  0.3466 -0.1704
 8655SOL    HW137601   4.508   0.118  15.788  0.5039 -0.2434  0.2339
 8655SOL    HW237602   4.458   0.225  15.880 -0.0559 -0.6832 -0.1916
 8656SOL     OW37603   1.021   2.594   9.070  0.4939  0.1035 -0.3084
 8656SOL    HW137604   1.024   2.690   9.072 -0.2304  0.1142  0.2801
 8656SOL    HW237605   1.074   2.573   8.993 -0.2915  0.8482 -1.0720
 8657SOL     OW37606   3.494   3.052   7.737 -0.7916  0.3239  0.5661
 8657SOL    HW137607   3.444   2.973   7.715  0.0026 -0.2147  0.6974
 8657SOL    HW237608   3.422   3.114   7.736 -1.6041 -0.6530 -3.2201
 8658SOL     OW37609   1.067   3.867  12.108 -0.3615  0.2114 -0.0915
 8658SOL    HW137610   1.103   3.934  12.166  0.7456 -0.4593 -0.0006
 8658SOL    HW237611   1.011   3.923  12.054 -0.8166 -1.1903 -1.0914
 8659SOL     OW37612   0.801   1.987   6.116 -0.6990  0.2060  0.1334
 8659SOL    HW137613   0.798   2.072   6.074 -0.4728 -0.4839 -1.2904
 8659SOL    HW237614   0.896   1.977   6.128 -0.7024 -0.0456 -0.0563
 8660SOL     OW37615   2.993   4.505   0.775 -0.1993 -0.5683  0.4882
 8660SOL    HW137616   3.000   4.592   0.736 -0.7912 -1.2801 -1.2137
 8660SOL    HW237617   2.897   4.501   0.779 -0.2015 -0.7300  0.2777
 8661SOL     OW37618   3.011   4.472   4.031  0.3840  0.7709  0.0876
 8661SOL    HW137619   3.043   4.455   4.120 -0.2529 -0.7628  0.0124
 8661SOL    HW237620   3.046   4.561   4.022 -0.0115  0.6740 -2.2404
 8662SOL     OW37621   2.055   2.260  16.519  0.1127 -0.1168  0.5473
 8662SOL    HW137622   2.006   2.336  16.550  1.2672  0.2693  1.4480
 8662SOL    HW237623   2.121   2.294  16.458  2.2740  0.5489  3.2545
 8663SOL     OW37624   3.026   1.451   6.390  0.0615 -0.2742 -0.1307
 8663SOL    HW137625   2.992   1.531   6.428 -0.3567 -0.3373 -0.3729
 8663SOL    HW237626   3.110   1.493   6.369  0.6422 -1.5198 -0.3472
 8664SOL     OW37627   1.793   3.062  12.910  0.3234  0.1259 -0.4558
 8664SOL    HW137628   1.714   3.075  12.858 -0.3325 -0.4784  0.3799
 8664SOL    HW237629   1.818   3.154  12.921 -0.7486  0.5207 -1.3581
 8665SOL     OW37630   1.537   2.460   6.653  0.1869  0.1595 -0.2886
 8665SOL    HW137631   1.512   2.550   6.675  0.8228 -0.1069  1.5103
 8665SOL    HW237632   1.632   2.464   6.657  0.1449  2.9361 -2.2780
 8666SOL     OW37633   2.149   3.241   8.222 -0.0309 -0.3484  0.0983
 8666SOL    HW137634   2.127   3.334   8.221  3.3320  0.4651  1.8625
 8666SOL    HW237635   2.164   3.220   8.130  0.8359  1.5973 -0.1962
 8667SOL     OW37636   0.638   3.827   6.093 -0.5088 -0.1738 -0.2679
 8667SOL    HW137637   0.720   3.876   6.095 -0.8933  0.3998  1.8204
 8667SOL    HW237638   0.637   3.802   6.185 -2.0662 -1.6714 -0.6946
 8668SOL     OW37639   2.362   1.838   2.585 -0.5413  0.0622 -0.3407
 8668SOL    HW137640   2.333   1.747   2.577 -0.3053  0.2588 -3.3006
 8668SOL    HW237641   2.434   1.834   2.648 -0.0974 -1.9181 -0.9735
 8669SOL     OW37642   2.541   1.190   5.808 -0.7975  0.3370 -0.0706
 8669SOL    HW137643   2.489   1.240   5.745 -0.0765  0.1331 -0.8130
 8669SOL    HW237644   2.499   1.223   5.888  0.3561 -0.1447  0.7328
 8670SOL     OW37645   0.112   4.045   2.747 -0.0282  0.2158  0.4057
 8670SOL    HW137646   0.181   4.102   2.713 -0.5535  0.9863  0.6257
 8670SOL    HW237647   0.067   4.107   2.805 -2.0196 -1.3363  0.5333
 8671SOL     OW37648   1.402   4.479   9.351 -0.3890  0.4399  0.1130
 8671SOL    HW137649   1.398   4.552   9.412 -0.0523  0.9237 -0.4343
 8671SOL    HW237650   1.464   4.417   9.389 -0.3767 -0.4786 -1.3607
 8672SOL     OW37651   2.436   0.612  16.692 -0.2232 -0.5385  0.1492
 8672SOL    HW137652   2.394   0.532  16.660  0.2769 -1.6953  2.3616
 8672SOL    HW237653   2.361   0.670  16.683  0.4754  0.6920  2.3861
 8673SOL     OW37654   0.100   4.609   8.277 -0.3864  0.6719  0.2933
 8673SOL    HW137655   0.080   4.626   8.369 -1.8772  0.5193 -0.0090
 8673SOL    HW237656   0.139   4.689   8.243 -1.4807  0.6455 -1.0005
 8674SOL     OW37657   3.908   1.194   1.325  0.0954  0.3922  0.1740
 8674SOL    HW137658   3.879   1.225   1.411  0.3837  0.0601  0.3950
 8674SOL    HW237659   3.849   1.235   1.262  1.4350  0.5255 -0.9992
 8675SOL     OW37660   2.432   2.951   5.018  0.0171  0.4844  0.1833
 8675SOL    HW137661   2.515   2.911   5.045  0.8736  1.9469 -0.2753
 8675SOL    HW237662   2.407   2.990   5.101  1.2504  1.2615  0.1999
 8676SOL     OW37663   1.730   3.224   7.598 -0.5394  0.1808  0.2294
 8676SOL    HW137664   1.723   3.132   7.625 -1.0188  0.0818 -0.2374
 8676SOL    HW237665   1.822   3.238   7.620 -0.0991 -1.2449 -0.6727
 8677SOL     OW37666   2.069   3.505   8.210 -0.1235  0.3288  0.4659
 8677SOL    HW137667   2.018   3.524   8.131  1.8598 -1.4641 -1.2254
 8677SOL    HW237668   2.061   3.575   8.276  1.7513  1.3809 -0.4214
 8678SOL     OW37669   1.632   4.051   7.414  0.4646 -0.3035 -0.0747
 8678SOL    HW137670   1.613   3.968   7.458 -3.0983 -1.3230 -3.5169
 8678SOL    HW237671   1.683   4.096   7.482  0.7976 -0.3104 -0.3216
 8679SOL     OW37672   1.856   2.497  11.417  0.6978  0.3004  0.2846
 8679SOL    HW137673   1.812   2.522  11.498  0.3020 -0.2026  0.2233
 8679SOL    HW237674   1.824   2.551  11.345  2.3983 -0.9655 -1.4323
 8680SOL     OW37675   3.090   2.908   7.889  0.6376 -0.3374 -0.1488
 8680SOL    HW137676   3.051   2.830   7.929 -0.8421 -0.0305 -0.9732
 8680SOL    HW237677   3.109   2.964   7.963 -0.6309  0.3745 -0.3656
 8681SOL     OW37678   3.470   4.422  11.182  0.0042 -0.0959 -0.1438
 8681SOL    HW137679   3.485   4.395  11.273 -0.0666  1.4044  0.3122
 8681SOL    HW237680   3.392   4.369  11.163  0.5468 -0.6320 -0.9060
 8682SOL     OW37681   3.814   1.536   2.613 -0.5539  0.2980 -0.1992
 8682SOL    HW137682   3.748   1.495   2.558  0.4138 -0.8161 -0.5215
 8682SOL    HW237683   3.823   1.621   2.571  2.5068 -0.4479 -1.0972
 8683SOL     OW37684   3.225   2.531   2.292 -0.2540 -0.1950  0.5058
 8683SOL    HW137685   3.209   2.461   2.356 -3.0061  1.0401  1.1922
 8683SOL    HW237686   3.136   2.556   2.267  0.3909 -0.6305 -2.1913
 8684SOL     OW37687   1.794   3.162   0.982 -0.1798  0.1203 -0.1947
 8684SOL    HW137688   1.756   3.089   0.933  2.0020 -1.5583  0.6127
 8684SOL    HW237689   1.887   3.145   0.968 -0.3164 -0.7084 -0.1226
 8685SOL     OW37690   3.544   4.547   6.414 -0.8551 -0.4400 -0.0192
 8685SOL    HW137691   3.530   4.534   6.507 -0.7663 -0.4580 -0.0079
 8685SOL    HW237692   3.597   4.626   6.418 -1.9650  0.1401  2.6484
 8686SOL     OW37693   2.083   3.401   3.692  0.5848 -0.5255 -0.1601
 8686SOL    HW137694   2.035   3.481   3.714 -0.6454 -0.4777 -2.9762
 8686SOL    HW237695   2.019   3.346   3.646 -0.3359  0.3212  0.1009
 8687SOL     OW37696   3.249   2.207   4.382 -0.4549  0.2126  0.6441
 8687SOL    HW137697   3.319   2.227   4.444  1.7197 -0.6384 -1.5261
 8687SOL    HW237698   3.188   2.278   4.398 -0.8601 -0.3675  1.6726
 8688SOL     OW37699   1.532   1.829   6.467 -0.2132  0.3018  0.0797
 8688SOL    HW137700   1.555   1.922   6.473 -0.3166  0.3520 -0.3315
 8688SOL    HW237701   1.542   1.793   6.555  2.1890  2.0454  0.5232
 8689SOL     OW37702   2.284   1.070  15.814  0.2586 -0.2476 -0.3958
 8689SOL    HW137703   2.202   1.120  15.813 -0.2229 -1.0381 -0.7005
 8689SOL    HW237704   2.323   1.114  15.889  2.8771 -2.0237 -0.7346
 8690SOL     OW37705   1.340   4.410  17.326  0.2533  0.1921  0.2430
 8690SOL    HW137706   1.313   4.495  17.291  3.0817 -0.3676 -3.3884
 8690SOL    HW237707   1.419   4.388  17.276 -0.6425 -1.3615 -0.4948
 8691SOL     OW37708   1.348   2.659   9.213 -0.1027 -0.4684  0.2758
 8691SOL    HW137709   1.362   2.603   9.289  0.3967 -0.1678  0.4066
 8691SOL    HW237710   1.401   2.617   9.145 -1.6754 -1.8455 -0.0844
 8692SOL     OW37711   3.427   4.504  11.668 -0.0454  0.1340 -0.2065
 8692SOL    HW137712   3.411   4.594  11.697  0.0201 -0.1742  0.7812
 8692SOL    HW237713   3.379   4.449  11.730  2.8342 -0.9819  1.0383
 8693SOL     OW37714   4.710   0.125   0.555 -0.1934  0.1716  0.9200
 8693SOL    HW137715   4.721   0.213   0.518  0.2093 -0.4522 -0.4250
 8693SOL    HW237716   0.026   0.133   0.634  1.3121  0.0881 -0.1241
 8694SOL     OW37717   4.131   2.720   6.424 -0.3845  0.2886 -0.7042
 8694SOL    HW137718   4.179   2.797   6.455  0.1788 -0.4893  0.3683
 8694SOL    HW237719   4.144   2.727   6.330 -0.7948 -2.5722 -0.9982
 8695SOL     OW37720   1.671   3.424   9.705 -0.0410  0.3728 -0.4400
 8695SOL    HW137721   1.753   3.457   9.742 -1.8402  3.6359  0.7480
 8695SOL    HW237722   1.686   3.332   9.687  0.8017  0.5418 -0.5809
 8696SOL     OW37723   3.735   3.543   4.102  0.6645 -0.0607  0.1938
 8696SOL    HW137724   3.751   3.621   4.049  0.9551  0.4372  1.0170
 8696SOL    HW237725   3.683   3.487   4.044  0.8830 -0.7234  0.6352
 8697SOL     OW37726   3.249   2.235   1.730 -0.5622  0.2561  0.2568
 8697SOL    HW137727   3.339   2.234   1.697  0.0842 -0.6215  2.0768
 8697SOL    HW237728   3.260   2.158   1.785  2.4029  0.5600  0.0858
 8698SOL     OW37729   4.319   2.176   9.839  0.0957  0.0900 -0.1189
 8698SOL    HW137730   4.269   2.144   9.763  0.1791 -0.6293  0.1286
 8698SOL    HW237731   4.371   2.247   9.801  1.1868  0.5040  2.1859
 8699SOL     OW37732   2.660   3.096   3.040  0.1704 -0.1618  0.1719
 8699SOL    HW137733   2.678   3.148   2.962  0.6871  0.5190  0.7339
 8699SOL    HW237734   2.635   3.155   3.112  1.7639  0.0799  0.5319
 8700SOL     OW37735   4.340   2.581  11.716  0.2313  0.1282  0.5237
 8700SOL    HW137736   4.418   2.636  11.721  0.5228 -0.1509 -0.9862
 8700SOL    HW237737   4.330   2.566  11.622 -2.0717  1.0281  0.6181
 8701SOL     OW37738   4.385   0.126   8.172 -0.4469  0.1148  0.0860
 8701SOL    HW137739   4.314   0.165   8.223 -2.4638 -0.0675 -2.5307
 8701SOL    HW237740   4.445   0.199   8.161 -0.8823  0.8382  2.5926
 8702SOL     OW37741   2.960   2.781   3.971 -0.6627  0.3759  0.3702
 8702SOL    HW137742   3.052   2.803   3.957 -0.4154 -1.2709 -0.5965
 8702SOL    HW237743   2.960   2.685   3.970 -1.5160  0.3849 -0.2739
 8703SOL     OW37744   2.495   0.319   6.570 -0.8804  0.5029 -0.2860
 8703SOL    HW137745   2.588   0.342   6.562 -0.3687 -1.2938  0.5026
 8703SOL    HW237746   2.480   0.280   6.484  2.6691  1.0818 -1.1894
 8704SOL     OW37747   0.001   2.834   2.692  0.1746 -0.2102 -0.2064
 8704SOL    HW137748   0.056   2.913   2.688 -1.2377  0.7984  0.2850
 8704SOL    HW237749   0.057   2.757   2.687  1.7315  0.8508  0.9521
 8705SOL     OW37750   1.098   3.791   4.212 -0.0354  0.1618  1.1477
 8705SOL    HW137751   1.128   3.869   4.165  1.4939 -2.1481 -1.6669
 8705SOL    HW237752   1.115   3.729   4.142 -0.9197 -1.5738  2.4750
 8706SOL     OW37753   1.461   0.972   4.754 -0.2323 -0.0648 -0.1238
 8706SOL    HW137754   1.485   1.052   4.706  0.0515 -0.7083 -1.0490
 8706SOL    HW237755   1.406   1.002   4.826 -0.5414 -1.1880  0.1069
 8707SOL     OW37756   2.825   3.339   5.961 -0.3352 -0.0752 -0.4192
 8707SOL    HW137757   2.760   3.407   5.941  0.1182  0.2809 -0.6917
 8707SOL    HW237758   2.854   3.363   6.049 -3.3419  2.9197 -0.2494
 8708SOL     OW37759   2.346   1.377   2.362 -0.3741 -0.4240  0.0892
 8708SOL    HW137760   2.430   1.361   2.405  0.2531 -1.7197 -1.5992
 8708SOL    HW237761   2.334   1.298   2.310 -0.6949 -0.3249  0.0114
 8709SOL     OW37762   1.889   4.651  11.889 -0.2881  0.1346 -0.1339
 8709SOL    HW137763   1.926   4.615  11.969  0.9128  0.9760 -0.2998
 8709SOL    HW237764   1.908   0.004  11.911  2.5404 -0.6231  0.6524
 8710SOL     OW37765   4.228   4.198   8.142 -0.2426 -0.2958  0.2278
 8710SOL    HW137766   4.191   4.128   8.088 -0.6259  0.0453  0.0591
 8710SOL    HW237767   4.155   4.254   8.166 -1.7719 -2.5887  0.8924
 8711SOL     OW37768   1.654   2.089   6.847  0.3327  0.1198  0.4699
 8711SOL    HW137769   1.570   2.126   6.873 -0.3457 -1.9306  1.1928
 8711SOL    HW237770   1.712   2.107   6.922  1.0505 -0.9010  0.1641
 8712SOL     OW37771   3.504   2.049   6.369  0.3034 -0.0155 -0.1865
 8712SOL    HW137772   3.421   2.009   6.395  0.3005  1.1997  1.7156
 8712SOL    HW237773   3.482   2.067   6.278  1.1279  0.8773 -0.2178
 8713SOL     OW37774   1.988   0.759  14.923 -0.6376 -0.1972  0.0289
 8713SOL    HW137775   1.959   0.738  15.012 -0.8563 -0.9074 -0.2099
 8713SOL    HW237776   2.081   0.773  14.937 -0.7847  0.2362  0.5733
 8714SOL     OW37777   0.066   2.002   5.603 -0.4555  0.1204  0.0925
 8714SOL    HW137778   0.143   2.047   5.636 -0.5152  0.5161 -0.3046
 8714SOL    HW237779   0.059   2.062   5.529  2.3693  2.1530  1.4835
 8715SOL     OW37780   0.196   4.139  14.508  0.2050  1.0455  0.4090
 8715SOL    HW137781   0.183   4.198  14.582  0.7409 -1.3180  2.4010
 8715SOL    HW237782   0.172   4.057  14.552  0.1154  1.5710  1.3276
 8716SOL     OW37783   1.686   3.801   9.334 -0.3244 -0.8908 -0.0113
 8716SOL    HW137784   1.719   3.880   9.377 -0.1000  0.0342 -1.8448
 8716SOL    HW237785   1.600   3.780   9.369  0.7133 -1.9566  1.8526
 8717SOL     OW37786   2.441   2.032   8.963  0.6110 -0.2468 -0.2573
 8717SOL    HW137787   2.456   2.127   8.961  0.3114 -0.1402  1.7931
 8717SOL    HW237788   2.361   2.041   9.016  0.7734 -1.7012  0.2133
 8718SOL     OW37789   1.712   3.526   5.475 -0.2511 -0.0698 -0.2855
 8718SOL    HW137790   1.777   3.594   5.462 -1.6881  1.6222  1.3511
 8718SOL    HW237791   1.667   3.562   5.552 -0.3604  0.1058 -0.4340
 8719SOL     OW37792   3.117   3.715   6.003  0.1854  0.6074  0.0679
 8719SOL    HW137793   3.187   3.774   5.974 -0.2830  1.3941  0.5081
 8719SOL    HW237794   3.123   3.644   5.940  0.2620 -0.0701  0.8398
 8720SOL     OW37795   4.269   1.679   8.765 -0.9363  0.1323 -0.1390
 8720SOL    HW137796   4.248   1.613   8.831 -0.0628  2.9200  2.8913
 8720SOL    HW237797   4.345   1.712   8.812  0.0760 -2.3515 -0.0486
 8721SOL     OW37798   4.064   2.826   4.935 -0.6065  0.0105  0.5512
 8721SOL    HW137799   4.001   2.755   4.952  0.9047 -1.5283 -0.2206
 8721SOL    HW237800   3.994   2.891   4.929 -2.3784 -1.9112  0.2362
 8722SOL     OW37801   1.595   2.228  15.971 -0.1091 -0.5185 -0.5464
 8722SOL    HW137802   1.578   2.233  15.877 -1.2218  0.2954 -0.2948
 8722SOL    HW237803   1.540   2.300  16.001  0.9095  2.2280 -5.2838
 8723SOL     OW37804   3.509   3.586   8.532  0.5331  0.7963 -0.4707
 8723SOL    HW137805   3.535   3.678   8.539  0.4696  0.7800 -0.0244
 8723SOL    HW237806   3.421   3.600   8.497  0.6203  1.6011 -0.3716
 8724SOL     OW37807   3.382   2.313  13.666  0.6901  0.3573  0.1368
 8724SOL    HW137808   3.445   2.384  13.652 -0.7760  1.5467 -0.4319
 8724SOL    HW237809   3.412   2.258  13.594  0.4178 -1.1624  1.2018
 8725SOL     OW37810   3.549   2.232  16.973  0.0656 -0.0503  0.7077
 8725SOL    HW137811   3.523   2.246  17.064 -0.5510  1.2421  0.3395
 8725SOL    HW237812   3.633   2.278  16.980 -0.3574  0.9622 -0.7322
 8726SOL     OW37813   1.996   1.492   0.232 -0.0328 -0.5631  0.1396
 8726SOL    HW137814   1.933   1.526   0.168  0.2932 -2.2818 -1.1013
 8726SOL    HW237815   1.969   1.524   0.318 -0.0609  1.2859 -0.5563
 8727SOL     OW37816   0.160   1.041  12.154 -0.4513 -0.3417 -0.2753
 8727SOL    HW137817   0.163   0.946  12.143  0.8340 -0.3794  0.4551
 8727SOL    HW237818   0.095   1.041  12.225 -0.1723  2.3512 -0.0159
 8728SOL     OW37819   1.401   3.518   9.720 -0.1803  0.0042  0.6995
 8728SOL    HW137820   1.401   3.586   9.786  0.0685  0.6854 -0.0002
 8728SOL    HW237821   1.489   3.496   9.687 -0.4616  0.6687 -0.5049
 8729SOL     OW37822   4.415   4.720   7.660 -0.0522 -0.3815 -0.0371
 8729SOL    HW137823   4.366   0.022   7.589  0.6647 -0.8691 -0.8137
 8729SOL    HW237824   4.465   0.056   7.693 -3.3006  1.2277  1.1751
 8730SOL     OW37825   3.704   0.338   2.759  0.1488  0.4698  1.0085
 8730SOL    HW137826   3.638   0.330   2.689  0.0616 -0.1900  1.1688
 8730SOL    HW237827   3.728   0.427   2.731 -0.6072  0.7938  1.3763
 8731SOL     OW37828   0.817   1.226   5.765  0.3707 -0.5688  0.0060
 8731SOL    HW137829   0.743   1.211   5.705  0.1135  1.3571 -0.1639
 8731SOL    HW237830   0.827   1.137   5.798  1.4864 -0.4095  0.0916
 8732SOL     OW37831   3.077   1.650  16.276  0.1645 -0.0898  0.1648
 8732SOL    HW137832   3.123   1.627  16.357 -1.1361  0.2808  1.0135
 8732SOL    HW237833   3.116   1.737  16.271 -1.3636  0.5482 -0.6605
 8733SOL     OW37834   1.934   3.292   3.277 -0.1187 -0.6640  0.0839
 8733SOL    HW137835   1.984   3.220   3.317  1.7242 -0.2636 -1.4754
 8733SOL    HW237836   2.000   3.340   3.227  0.2188 -1.8444 -0.6321
 8734SOL     OW37837   1.718   0.559  15.036  0.1730 -0.5766  0.1793
 8734SOL    HW137838   1.778   0.619  15.081  0.2481 -1.1953  0.9114
 8734SOL    HW237839   1.667   0.612  14.976 -0.8797 -2.9834 -1.0423
 8735SOL     OW37840   2.180   2.418   5.740  0.2895  0.1722 -0.0314
 8735SOL    HW137841   2.195   2.352   5.673  2.2402 -1.2447  1.8151
 8735SOL    HW237842   2.153   2.358   5.809  0.7629  1.2719  1.1247
 8736SOL     OW37843   1.817   1.971   2.466 -0.5019  0.3135 -0.2136
 8736SOL    HW137844   1.855   1.918   2.536  1.6157  3.5296  1.0752
 8736SOL    HW237845   1.882   2.041   2.458 -1.7278  1.6768  1.7354
 8737SOL     OW37846   1.227   0.696  15.578 -0.1131 -0.0887 -0.0043
 8737SOL    HW137847   1.174   0.732  15.508  0.2508 -1.3831 -0.9494
 8737SOL    HW237848   1.167   0.712  15.651  1.9416  3.7511  0.8621
 8738SOL     OW37849   3.610   2.873   7.535  0.2761  0.1239 -0.3878
 8738SOL    HW137850   3.553   2.832   7.600 -0.8462  5.0455  1.7583
 8738SOL    HW237851   3.589   2.965   7.550  0.6187  0.1466 -0.0303
 8739SOL     OW37852   1.029   4.106  11.245  0.1637  0.4934 -0.0621
 8739SOL    HW137853   1.120   4.131  11.257  0.3591 -0.4171  0.3184
 8739SOL    HW237854   0.978   4.154  11.311  0.5943  1.0388 -0.1283
 8740SOL     OW37855   3.040   1.762   4.600 -0.1678 -0.0394 -0.4513
 8740SOL    HW137856   3.128   1.735   4.573  0.4411  1.1152  0.3838
 8740SOL    HW237857   2.992   1.760   4.517 -2.3177  2.5921  0.7530
 8741SOL     OW37858   1.888   0.279   5.100  0.1659  0.4336  0.7093
 8741SOL    HW137859   1.830   0.261   5.174 -1.5316 -0.5908 -0.8900
 8741SOL    HW237860   1.920   0.189   5.091  0.9489  0.8153 -0.3357
 8742SOL     OW37861   4.344   2.014   6.991  0.4586 -0.1257 -0.0250
 8742SOL    HW137862   4.390   2.091   7.024 -2.5054  1.5162  0.2226
 8742SOL    HW237863   4.252   2.029   7.012  0.4671  1.5504 -1.2618
 8743SOL     OW37864   0.600   2.215   3.504 -0.5155 -0.0688  0.2790
 8743SOL    HW137865   0.644   2.207   3.589  0.1117 -1.0025 -0.1350
 8743SOL    HW237866   0.512   2.250   3.522  0.0158  2.0269 -1.2878
 8744SOL     OW37867   1.173   1.727   9.462 -0.1532 -0.0275 -0.8403
 8744SOL    HW137868   1.240   1.686   9.516 -0.3565 -0.4538 -0.9180
 8744SOL    HW237869   1.116   1.650   9.461  1.0943 -0.9491 -0.9212
 8745SOL     OW37870   3.508   1.319  17.688 -0.4368 -0.3942 -0.2505
 8745SOL    HW137871   3.494   1.263  17.612  0.3318  0.4775 -1.0387
 8745SOL    HW237872   3.415   1.341  17.696 -0.0144  1.1365  0.4083
 8746SOL     OW37873   3.033   4.441   4.982  0.5543  0.2706 -0.0827
 8746SOL    HW137874   2.976   4.452   5.058 -2.7220  1.4658 -2.7283
 8746SOL    HW237875   3.042   4.346   4.972  1.5421  0.3588 -0.0217
 8747SOL     OW37876   0.780   0.823   8.239 -0.3312  0.2882 -0.4271
 8747SOL    HW137877   0.840   0.748   8.243 -0.2437  0.2417 -2.5955
 8747SOL    HW237878   0.812   0.875   8.313 -0.3959  1.5341 -1.2872
 8748SOL     OW37879   2.956   2.086   3.953 -0.1761 -0.2176 -0.0186
 8748SOL    HW137880   2.990   1.997   3.945  0.7748  0.2181 -0.7030
 8748SOL    HW237881   2.913   2.090   4.039  1.2103  0.4666  0.6331
 8749SOL     OW37882   3.862   3.024   2.279  0.0672  0.3367 -0.0346
 8749SOL    HW137883   3.894   3.064   2.359 -2.1786  1.4765  0.2844
 8749SOL    HW237884   3.838   2.944   2.325 -3.5526  1.2390 -0.3815
 8750SOL     OW37885   3.563   1.554   4.818  0.2950  0.2770  0.0865
 8750SOL    HW137886   3.603   1.638   4.841  2.7694 -1.0921  0.7682
 8750SOL    HW237887   3.492   1.587   4.764 -0.8011 -2.4565 -0.1611
 8751SOL     OW37888   3.880   0.413  10.825  0.2328 -0.2697 -0.2812
 8751SOL    HW137889   3.856   0.416  10.918  2.0611  0.8806  0.1518
 8751SOL    HW237890   3.937   0.337  10.819 -1.4193 -1.5177 -0.2191
 8752SOL     OW37891   0.366   4.472   5.104  0.1326  0.0231  0.0117
 8752SOL    HW137892   0.461   4.470   5.101  0.1636  0.5759  0.7467
 8752SOL    HW237893   0.362   4.407   5.174  0.8328 -0.3644 -0.3102
 8753SOL     OW37894   2.864   2.835   6.781 -0.0789 -0.3469 -0.4469
 8753SOL    HW137895   2.807   2.872   6.714 -0.1979  0.4939  0.1172
 8753SOL    HW237896   2.798   2.767   6.792  1.3677 -1.4715  1.2938
 8754SOL     OW37897   1.258   0.427   8.183  0.3641  0.0065 -0.5767
 8754SOL    HW137898   1.315   0.497   8.216 -1.4542  0.9247  0.6274
 8754SOL    HW237899   1.276   0.432   8.089 -1.2522  2.9186 -0.7432
 8755SOL     OW37900   0.781   1.554   7.394  0.0950 -0.4072  0.0281
 8755SOL    HW137901   0.738   1.616   7.452  0.7049 -0.0891  0.1373
 8755SOL    HW237902   0.764   1.592   7.308 -0.1607 -2.0313 -0.6475
 8756SOL     OW37903   4.097   3.018   6.961 -0.0852  0.3203  0.0984
 8756SOL    HW137904   4.037   3.091   6.944 -0.2682 -0.3265 -1.9777
 8756SOL    HW237905   4.183   3.059   6.953  1.3374 -2.3470  1.7299
 8757SOL     OW37906   2.374   0.269   2.665 -0.0011  0.4014  0.4571
 8757SOL    HW137907   2.447   0.261   2.604  0.7408  1.3054  1.2279
 8757SOL    HW237908   2.346   0.178   2.673 -0.3354  0.7814  3.5576
 8758SOL     OW37909   1.391   1.551   3.785  0.1791 -0.3574  0.5446
 8758SOL    HW137910   1.466   1.529   3.841  0.0477 -2.6771 -0.1861
 8758SOL    HW237911   1.378   1.640   3.819  0.2285 -0.5138  0.9778
 8759SOL     OW37912   0.991   2.334  13.943  0.4259  0.2467  0.0916
 8759SOL    HW137913   0.927   2.301  14.006 -0.4114 -0.6554 -1.2509
 8759SOL    HW237914   0.938   2.338  13.863  0.0830 -2.8551  0.1868
 8760SOL     OW37915   0.719   3.289   7.021 -0.0023  0.4070 -0.5112
 8760SOL    HW137916   0.645   3.240   6.984 -1.9807  1.8823  1.5087
 8760SOL    HW237917   0.772   3.307   6.944 -2.2201  0.5453 -2.0195
 8761SOL     OW37918   0.940   1.295   6.355 -0.2865 -0.1774  0.4133
 8761SOL    HW137919   0.963   1.388   6.356 -0.5677 -0.1031 -0.4046
 8761SOL    HW237920   1.025   1.271   6.318 -0.0110 -2.2948  2.4485
 8762SOL     OW37921   0.196   3.813   1.429  0.1501 -0.3640  0.2287
 8762SOL    HW137922   0.152   3.730   1.409  1.7385 -1.7780  2.5802
 8762SOL    HW237923   0.124   3.876   1.426  1.9947  1.7393  0.6006
 8763SOL     OW37924   0.110   0.835   5.364  0.0322  0.4532  0.3539
 8763SOL    HW137925   0.143   0.782   5.292  1.2116  0.2464  1.0384
 8763SOL    HW237926   0.043   0.781   5.406  0.9190  1.3422  2.9551
 8764SOL     OW37927   0.591   3.394   0.233  0.0720 -0.5611 -0.1826
 8764SOL    HW137928   0.577   3.478   0.189  0.5525 -0.8113 -0.8034
 8764SOL    HW237929   0.628   3.337   0.167 -0.3108 -0.0993 -0.7986
 8765SOL     OW37930   3.443   0.956   1.815 -0.4306  0.1825 -0.3227
 8765SOL    HW137931   3.412   1.017   1.748  1.1438  0.5524 -0.7142
 8765SOL    HW237932   3.401   0.873   1.790 -3.1968  1.3845  0.3450
 8766SOL     OW37933   3.593   4.567   8.991  0.4415 -0.1588 -0.2130
 8766SOL    HW137934   3.553   4.493   8.944  1.1552 -0.5069 -0.2675
 8766SOL    HW237935   3.650   4.521   9.052  1.9802  1.8613 -0.1367
 8767SOL     OW37936   4.721   2.111   9.386  0.3238  1.1371 -0.4431
 8767SOL    HW137937   4.662   2.105   9.461  0.5362  0.7521 -0.3074
 8767SOL    HW237938   4.665   2.088   9.312  1.3123  2.4921 -1.6116
 8768SOL     OW37939   2.314   0.234   2.094  0.1464  0.0863  0.4258
 8768SOL    HW137940   2.338   0.326   2.086 -0.3143  0.2769  1.2150
 8768SOL    HW237941   2.267   0.222   2.011  0.3313 -0.8491  0.4612
 8769SOL     OW37942   2.810   4.650   5.492 -0.8374 -0.1287 -0.4001
 8769SOL    HW137943   2.834   4.566   5.451 -1.0048 -0.8470  0.9687
 8769SOL    HW237944   2.715   4.639   5.492 -0.8078 -0.3906 -0.8644
 8770SOL     OW37945   3.790   2.941   4.951  0.3247 -0.4759 -0.8504
 8770SOL    HW137946   3.711   2.911   4.907 -0.6557 -0.0205  0.5982
 8770SOL    HW237947   3.782   2.889   5.031 -0.2348 -2.9194 -2.4842
 8771SOL     OW37948   2.297   0.823   1.114 -0.2960  0.0521 -0.3230
 8771SOL    HW137949   2.317   0.914   1.134  3.5989 -0.8843 -0.0259
 8771SOL    HW237950   2.319   0.773   1.192  1.9626  0.0672 -0.9442
 8772SOL     OW37951   1.177   2.619  13.312 -0.0182  0.0065  0.1884
 8772SOL    HW137952   1.200   2.617  13.219 -0.2390  0.8538  0.1149
 8772SOL    HW237953   1.252   2.667  13.347  0.6479  0.4406 -1.8763
 8773SOL     OW37954   3.134   4.394   6.951  1.0178  0.5394  0.3094
 8773SOL    HW137955   3.110   4.475   6.905 -2.2033 -0.0773  0.8755
 8773SOL    HW237956   3.218   4.372   6.912  0.6023 -1.4829  0.5829
 8774SOL     OW37957   1.364   2.943  11.544  0.4246 -0.4464  0.6919
 8774SOL    HW137958   1.285   2.903  11.508  0.7305 -0.9743  0.6102
 8774SOL    HW237959   1.411   2.878  11.596  0.1456 -0.0072  1.4959
 8775SOL     OW37960   4.014   4.186  11.604 -0.3422 -1.1032 -0.2788
 8775SOL    HW137961   3.993   4.272  11.569  1.1565 -0.6323 -0.0221
 8775SOL    HW237962   4.062   4.206  11.685  0.6250  1.3343 -1.4745
 8776SOL     OW37963   0.499   0.222   6.601 -0.0149  0.3776 -0.3505
 8776SOL    HW137964   0.536   0.293   6.548 -0.1915  1.9421  1.6434
 8776SOL    HW237965   0.480   0.155   6.535 -0.4163 -1.2916  1.4553
 8777SOL     OW37966   3.535   0.698  12.235  0.1793  0.5549  0.5406
 8777SOL    HW137967   3.466   0.634  12.253  0.1988 -0.0194 -1.3803
 8777SOL    HW237968   3.545   0.696  12.139  0.0456  0.7318  0.5239
 8778SOL     OW37969   0.573   2.342   5.672 -0.1175  0.3387  0.4989
 8778SOL    HW137970   0.582   2.360   5.578 -1.2742  0.1422  0.3509
 8778SOL    HW237971   0.652   2.386   5.703  1.1657 -0.2853 -1.9192
 8779SOL     OW37972   2.265   3.784   9.056 -0.7089  0.1861 -0.0693
 8779SOL    HW137973   2.255   3.804   9.149 -0.1567 -1.2171  0.2909
 8779SOL    HW237974   2.200   3.843   9.018 -0.1772  0.0539 -1.1679
 8780SOL     OW37975   4.103   1.863   5.902  0.0721  0.0706  0.2298
 8780SOL    HW137976   4.160   1.797   5.941  1.3859  0.7275 -0.5859
 8780SOL    HW237977   4.151   1.940   5.932 -0.9137  0.6481  0.3188
 8781SOL     OW37978   0.643   2.753   5.248 -0.0470 -0.1172  0.0098
 8781SOL    HW137979   0.711   2.694   5.280  0.9672  1.2711  0.4208
 8781SOL    HW237980   0.703   2.821   5.218  1.1963 -1.2425 -0.0369
 8782SOL     OW37981   4.720   2.931   9.312  0.0021 -0.0192 -0.3998
 8782SOL    HW137982   4.628   2.939   9.286 -0.0934 -2.2918 -0.7391
 8782SOL    HW237983   4.715   2.858   9.374 -1.7705  2.0000  1.8336
 8783SOL     OW37984   4.203   3.314   5.733  0.7732 -0.1566 -0.2441
 8783SOL    HW137985   4.236   3.343   5.648 -4.7821  2.1518 -1.5952
 8783SOL    HW237986   4.254   3.367   5.795  0.2567  0.2980 -0.2109
 8784SOL     OW37987   2.825   1.208   6.493 -0.2336  0.2625  0.3209
 8784SOL    HW137988   2.821   1.259   6.413 -1.5179 -0.3295 -0.0065
 8784SOL    HW237989   2.803   1.265   6.566 -2.3259  2.1353 -1.7835
 8785SOL     OW37990   1.006   1.156   2.457  0.3708 -0.6743 -0.4504
 8785SOL    HW137991   0.923   1.109   2.445  1.0858 -2.0825  0.0805
 8785SOL    HW237992   1.071   1.091   2.484  1.5778  0.0389 -1.6359
 8786SOL     OW37993   0.089   0.353   4.690 -0.9954  0.0803 -0.5085
 8786SOL    HW137994   0.141   0.304   4.627 -0.3438  1.8246 -1.3243
 8786SOL    HW237995   0.018   0.290   4.677 -1.5886  0.5995  0.2457
 8787SOL     OW37996   3.253   4.671  11.228  0.0828  0.6822 -0.0803
 8787SOL    HW137997   3.194   4.611  11.182  1.4603  0.3749 -1.4591
 8787SOL    HW237998   3.190   4.733  11.263 -1.4562 -1.1608  0.4273
 8788SOL     OW37999   1.495   3.990   4.307  0.0619 -0.0066 -0.0912
 8788SOL    HW138000   1.412   4.001   4.353  2.2520  1.9189  3.4953
 8788SOL    HW238001   1.490   4.037   4.224  1.2206  1.1261  0.4674
 8789SOL     OW38002   3.144   4.288   0.713  0.0005 -0.0386  0.0647
 8789SOL    HW138003   3.063   4.248   0.743  0.1818 -0.9970 -0.7135
 8789SOL    HW238004   3.147   4.379   0.742 -1.7036 -1.0296  3.2888
 8790SOL     OW38005   3.299   0.858   5.362 -0.1520 -0.0711 -0.0364
 8790SOL    HW138006   3.264   0.849   5.273 -0.8831  3.2700 -0.0773
 8790SOL    HW238007   3.273   0.949   5.380 -0.7245 -0.2172 -0.1250
 8791SOL     OW38008   3.676   0.186  10.130 -0.4482 -0.6411 -0.2881
 8791SOL    HW138009   3.676   0.196  10.034  0.6231 -1.7202 -0.3996
 8791SOL    HW238010   3.727   0.259  10.166  1.2547 -1.7500 -0.4369
 8792SOL     OW38011   1.615   1.142   7.168 -0.1642 -0.4047  0.2171
 8792SOL    HW138012   1.536   1.094   7.194 -1.1531  0.8730 -0.3893
 8792SOL    HW238013   1.574   1.180   7.090 -1.7506 -1.1606  0.6747
 8793SOL     OW38014   2.114   1.397  12.139  0.3729  0.2791 -0.3322
 8793SOL    HW138015   2.058   1.474  12.151 -0.9244 -0.4296 -1.8685
 8793SOL    HW238016   2.109   1.354  12.224 -2.2464 -1.9969 -1.6220
 8794SOL     OW38017   1.634   2.677   2.517  0.3657 -0.2382 -0.2711
 8794SOL    HW138018   1.651   2.589   2.551  0.2550 -0.5034 -0.9043
 8794SOL    HW238019   1.682   2.663   2.436  1.8547 -0.8228  0.7117
 8795SOL     OW38020   0.883   0.109   7.054  0.5465  0.0658  0.0655
 8795SOL    HW138021   0.944   0.042   7.024 -0.2027 -1.0779  1.0850
 8795SOL    HW238022   0.892   0.179   6.990  1.3565 -0.9798 -0.9622
 8796SOL     OW38023   1.315   3.521   9.421  0.0517  0.3644 -0.0285
 8796SOL    HW138024   1.408   3.502   9.427 -0.1853 -0.8693 -0.3137
 8796SOL    HW238025   1.280   3.432   9.411  0.5507  0.2572 -0.8652
 8797SOL     OW38026   1.388   1.732   8.201 -0.3074  0.2460  0.0449
 8797SOL    HW138027   1.350   1.720   8.288  1.1496 -0.4301  0.5857
 8797SOL    HW238028   1.393   1.648   8.156  2.6780  2.1776 -3.1683
 8798SOL     OW38029   2.159   3.751  14.771  0.2065  0.0795 -0.1560
 8798SOL    HW138030   2.170   3.777  14.863  1.4804 -3.5797  0.7065
 8798SOL    HW238031   2.152   3.656  14.768  1.4590 -0.0191  0.3407
 8799SOL     OW38032   2.981   2.594   3.529  0.0796 -0.1586 -0.0414
 8799SOL    HW138033   3.042   2.558   3.464 -0.4934 -1.7602  0.3316
 8799SOL    HW238034   3.006   2.549   3.610 -1.9744  0.0321  0.6892
 8800SOL     OW38035   2.727   3.961   5.084  0.4202  0.5374  1.1579
 8800SOL    HW138036   2.632   3.959   5.069 -0.0606  0.8954  4.3188
 8800SOL    HW238037   2.725   3.889   5.146  0.7370 -1.3448 -1.0165
 8801SOL     OW38038   3.451   3.409   5.261  0.5858 -0.7255  0.0126
 8801SOL    HW138039   3.522   3.398   5.324  0.0995  0.8704  0.8254
 8801SOL    HW238040   3.411   3.322   5.268 -1.1027 -0.2692 -3.8808
 8802SOL     OW38041   1.069   0.916  17.515  0.6892 -0.4676  0.3922
 8802SOL    HW138042   1.157   0.949  17.495  0.0736 -0.6230 -2.5349
 8802SOL    HW238043   1.017   0.993  17.493  0.5173 -0.6925  0.0184
 8803SOL     OW38044   4.538   1.454  12.926 -0.0573  0.3100 -0.1505
 8803SOL    HW138045   4.556   1.456  12.832  0.4766  0.9621 -0.0385
 8803SOL    HW238046   4.596   1.514  12.973  2.4799 -0.3828 -2.3664
 8804SOL     OW38047   0.538   4.009   5.216  0.4295 -0.4325  0.2761
 8804SOL    HW138048   0.569   3.972   5.299  0.2199 -1.8723 -0.2840
 8804SOL    HW238049   0.612   4.063   5.190 -0.5433  0.2525 -1.0827
 8805SOL     OW38050   0.197   2.865  10.467  0.0182  0.1670  0.4600
 8805SOL    HW138051   0.112   2.861  10.509  0.6476  0.1083  1.7379
 8805SOL    HW238052   0.251   2.810  10.524 -0.6045 -0.0249  0.8606
 8806SOL     OW38053   4.495   1.381   5.467 -0.0092 -0.0933 -0.1944
 8806SOL    HW138054   4.429   1.414   5.406 -1.9077 -0.1575  1.8202
 8806SOL    HW238055   4.568   1.443   5.463  0.3197 -0.3766  1.6018
 8807SOL     OW38056   4.559   1.384   3.151 -0.0995  0.2167 -0.2849
 8807SOL    HW138057   4.553   1.470   3.109 -1.2252 -0.5680 -1.7342
 8807SOL    HW238058   4.575   1.326   3.076  0.6721  1.0935 -0.8110
 8808SOL     OW38059   3.235   0.252   7.316  0.6871 -0.5354  0.3057
 8808SOL    HW138060   3.194   0.323   7.365  0.6685 -0.2701 -0.0995
 8808SOL    HW238061   3.255   0.205   7.397  1.0948 -0.3193  0.3289
 8809SOL     OW38062   1.594   2.398  10.492 -0.9519  0.2861  0.4525
 8809SOL    HW138063   1.615   2.355  10.575 -0.3425 -2.3201 -1.0169
 8809SOL    HW238064   1.538   2.336  10.445  0.6605  0.0125 -1.1252
 8810SOL     OW38065   0.774   3.793   4.452  0.1314 -0.0200 -0.2544
 8810SOL    HW138066   0.792   3.699   4.463 -0.4685  0.0987  1.7771
 8810SOL    HW238067   0.718   3.807   4.375  1.1686  0.4156 -0.9244
 8811SOL     OW38068   4.045   1.269   2.302  0.2772 -0.0352 -0.3290
 8811SOL    HW138069   4.082   1.351   2.271 -2.1263  0.5291 -1.6599
 8811SOL    HW238070   4.055   1.284   2.397 -0.4410  1.4394 -0.4926
 8812SOL     OW38071   0.735   3.419   7.855 -0.3661  0.3171 -0.4828
 8812SOL    HW138072   0.681   3.371   7.917 -0.6218  3.2304  1.5304
 8812SOL    HW238073   0.670   3.483   7.827 -1.1035  0.4009  1.5008
 8813SOL     OW38074   2.939   1.935   9.895  1.1505 -0.4131  0.7152
 8813SOL    HW138075   2.946   2.029   9.881 -0.5612 -0.2468  1.0669
 8813SOL    HW238076   2.886   1.929   9.974 -1.1947 -0.8906 -0.9016
 8814SOL     OW38077   3.220   4.599   9.080 -0.1292  0.1074  0.1110
 8814SOL    HW138078   3.304   4.577   9.119 -0.1280 -1.5380 -0.8272
 8814SOL    HW238079   3.162   4.534   9.119 -0.3756 -0.4150 -1.1158
 8815SOL     OW38080   4.527   1.771  14.359  0.7050 -0.0101  0.5256
 8815SOL    HW138081   4.469   1.736  14.427  1.4425 -3.4851 -0.6009
 8815SOL    HW238082   4.475   1.773  14.278 -0.2929 -3.2892  1.0692
 8816SOL     OW38083   0.798   1.659   4.370  0.2863  0.0557 -0.2488
 8816SOL    HW138084   0.797   1.599   4.445  3.0703 -0.2023 -0.4139
 8816SOL    HW238085   0.714   1.640   4.329 -0.3703  0.0729  1.0910
 8817SOL     OW38086   2.536   0.769   2.039  0.2575 -0.4346  0.4033
 8817SOL    HW138087   2.510   0.758   2.130  0.5456  1.6726  0.7546
 8817SOL    HW238088   2.627   0.739   2.044  0.3608 -0.1263  0.4062
 8818SOL     OW38089   0.904   4.089   1.511  0.1835 -0.1663 -0.1406
 8818SOL    HW138090   0.839   4.071   1.443  1.1651  0.7811 -1.3263
 8818SOL    HW238091   0.877   4.167   1.561  1.5038  0.2140 -0.0326
 8819SOL     OW38092   0.026   3.708   2.693  0.3973 -0.3831 -0.2432
 8819SOL    HW138093   4.738   3.630   2.645  1.4134 -0.8461 -0.0462
 8819SOL    HW238094   4.716   3.776   2.646 -0.3228  0.5285  1.8144
 8820SOL     OW38095   2.488   3.823   5.741 -0.3382 -0.4495  0.0341
 8820SOL    HW138096   2.575   3.807   5.778 -0.1595  0.7612  0.1361
 8820SOL    HW238097   2.449   3.738   5.761  0.7839 -0.7781  0.8092
 8821SOL     OW38098   4.686   1.964   6.170  0.3156 -0.1255  0.2115
 8821SOL    HW138099   0.022   1.912   6.201 -0.3826 -2.3091 -1.7274
 8821SOL    HW238100   4.703   1.974   6.077 -0.5832 -1.7309 -0.1240
 8822SOL     OW38101   0.936   2.414   8.037  0.0366  0.6130 -0.0355
 8822SOL    HW138102   0.877   2.488   8.022 -1.4991 -0.6439 -0.1341
 8822SOL    HW238103   1.022   2.450   8.059 -0.0425 -0.3353  1.8525
 8823SOL     OW38104   3.701   2.371   9.303 -0.3042  0.0300  0.2787
 8823SOL    HW138105   3.742   2.438   9.358 -1.2299  1.4620 -0.7793
 8823SOL    HW238106   3.672   2.296   9.355 -1.8762  0.5580  0.1612
 8824SOL     OW38107   4.318   3.262   9.280 -0.0262  0.0962 -0.3636
 8824SOL    HW138108   4.341   3.355   9.276  0.5471 -0.0554 -0.5788
 8824SOL    HW238109   4.224   3.272   9.293 -0.0569  0.2831 -0.7328
 8825SOL     OW38110   4.604   4.410   0.756 -0.2076  0.1990 -0.0437
 8825SOL    HW138111   4.681   4.466   0.751  0.1860 -0.2485  1.1876
 8825SOL    HW238112   4.560   4.442   0.835 -0.3582  2.0915 -0.8911
 8826SOL     OW38113   1.964   2.892   4.327  0.3122  0.2572 -0.0826
 8826SOL    HW138114   2.027   2.962   4.313  0.9347 -0.2839 -0.0240
 8826SOL    HW238115   1.930   2.887   4.238  0.6408 -1.1563 -0.1361
 8827SOL     OW38116   2.889   1.664  17.267 -0.5077  0.0103 -0.2442
 8827SOL    HW138117   2.953   1.648  17.337 -0.7775 -0.5856 -0.1348
 8827SOL    HW238118   2.906   1.758  17.258 -1.1919  0.0383 -1.2110
 8828SOL     OW38119   4.662   3.700  10.999  0.2485  0.0539  0.0667
 8828SOL    HW138120   4.584   3.651  10.974 -1.7099  3.8830 -1.1955
 8828SOL    HW238121   4.622   3.746  11.072  0.9954  0.0003  0.5176
 8829SOL     OW38122   3.197   1.085   4.549  0.0504 -0.2243  0.6814
 8829SOL    HW138123   3.105   1.091   4.574 -0.2587  0.6113 -0.6810
 8829SOL    HW238124   3.226   1.175   4.559  0.9312 -0.1405 -2.7643
 8830SOL     OW38125   4.305   4.625   8.279  0.4217 -0.0587 -0.0901
 8830SOL    HW138126   4.328   4.706   8.235  1.4091 -1.1476 -1.5911
 8830SOL    HW238127   4.374   4.617   8.345  1.1743 -1.7832 -1.0738
 8831SOL     OW38128   3.657   3.663   6.095 -0.2814 -0.1520 -0.1867
 8831SOL    HW138129   3.683   3.577   6.127  1.9081 -0.2743 -2.3194
 8831SOL    HW238130   3.594   3.639   6.027  1.7329 -0.5856 -1.8735
 8832SOL     OW38131   0.145   1.906   8.609  0.4480  0.0620 -0.2934
 8832SOL    HW138132   0.169   1.813   8.608  1.3904  0.2791  3.2841
 8832SOL    HW238133   0.219   1.953   8.571  0.9980 -0.5731 -0.0113
 8833SOL     OW38134   2.611   3.140  17.269  0.1583  0.3725  0.8575
 8833SOL    HW138135   2.642   3.049  17.264 -0.2313  0.3929 -1.9503
 8833SOL    HW238136   2.690   3.189  17.290  0.5112 -0.3347  1.2174
 8834SOL     OW38137   2.739   3.880   4.217  0.2244 -0.1732  0.0307
 8834SOL    HW138138   2.765   3.863   4.308  1.5860 -1.4572 -0.5865
 8834SOL    HW238139   2.829   3.879   4.183  0.3069 -1.1723  0.2684
 8835SOL     OW38140   4.688   3.821   1.186  0.4702 -0.1077  0.1769
 8835SOL    HW138141   4.682   3.885   1.257 -0.7315 -1.2920  1.1466
 8835SOL    HW238142   4.597   3.798   1.168  1.2246 -3.3975  0.7565
 8836SOL     OW38143   3.034   2.527  17.413  0.5657  0.0922  0.2433
 8836SOL    HW138144   2.964   2.464  17.394  0.4028  0.1823  0.5343
 8836SOL    HW238145   3.018   2.571  17.330 -1.3507  2.0509  1.6334
 8837SOL     OW38146   1.435   2.984  16.555 -0.1832 -0.3170  0.3465
 8837SOL    HW138147   1.408   2.902  16.513  0.4394 -0.6491  0.5999
 8837SOL    HW238148   1.465   3.037  16.481 -1.6266  0.9591  0.6838
 8838SOL     OW38149   3.487   2.806   1.116 -0.4339 -0.3748 -0.7065
 8838SOL    HW138150   3.473   2.785   1.209  1.1640 -2.9556 -1.0267
 8838SOL    HW238151   3.575   2.841   1.104  0.1590 -0.8288  2.1054
 8839SOL     OW38152   2.511   2.664   7.872  0.0579 -0.3617  0.3673
 8839SOL    HW138153   2.500   2.752   7.838 -1.6591 -0.0443  1.7665
 8839SOL    HW238154   2.438   2.622   7.827  0.7004 -2.2742  1.0682
 8840SOL     OW38155   2.746   1.519   9.457 -0.1277 -0.4649 -0.3583
 8840SOL    HW138156   2.661   1.558   9.477  2.0880  3.9278  0.3579
 8840SOL    HW238157   2.729   1.451   9.391 -3.4628  3.2912 -3.3145
 8841SOL     OW38158   0.200   1.281   7.673 -0.5547 -0.6928  0.2142
 8841SOL    HW138159   0.181   1.362   7.626  2.7693 -0.2117 -0.2796
 8841SOL    HW238160   0.294   1.293   7.681 -0.4166 -1.8697  0.3809
 8842SOL     OW38161   2.324   2.661  12.717 -0.3681  0.1180 -0.2420
 8842SOL    HW138162   2.319   2.751  12.748  0.3549 -0.3444  1.2353
 8842SOL    HW238163   2.320   2.613  12.800  2.4272  1.1580  0.5082
 8843SOL     OW38164   2.499   2.504   7.549 -0.3448  0.0485  0.2851
 8843SOL    HW138165   2.523   2.595   7.535  0.7796 -0.1710  0.7812
 8843SOL    HW238166   2.589   2.478   7.531  0.9265  2.7246  2.7479
 8844SOL     OW38167   3.482   0.887  17.455 -0.0670 -0.0548  0.1456
 8844SOL    HW138168   3.529   0.964  17.422 -3.1722  1.3288 -1.0656
 8844SOL    HW238169   3.399   0.916  17.494 -0.1041 -2.9658  2.2250
 8845SOL     OW38170   0.455   1.134   6.778  0.6290  0.2427  0.0839
 8845SOL    HW138171   0.387   1.080   6.817  0.3775  1.0081  0.6977
 8845SOL    HW238172   0.448   1.113   6.685  3.1349  0.4947 -0.1605
 8846SOL     OW38173   1.940   0.206   2.058 -0.6067 -0.2413 -0.6304
 8846SOL    HW138174   1.925   0.231   2.149 -2.1306 -2.0430 -0.3851
 8846SOL    HW238175   1.921   0.292   2.020 -2.2928  0.5625  2.0517
 8847SOL     OW38176   4.122   0.459  15.979 -1.0762  0.0256  0.2165
 8847SOL    HW138177   4.137   0.442  16.072 -1.5329  1.5216  0.5600
 8847SOL    HW238178   4.033   0.423  15.981 -0.2630 -1.9485  1.4587
 8848SOL     OW38179   2.187   3.412   5.274  0.2203  0.0651 -0.9420
 8848SOL    HW138180   2.196   3.420   5.179 -2.1474  0.1318 -1.1699
 8848SOL    HW238181   2.102   3.453   5.292 -0.6574 -1.5977 -1.2958
 8849SOL     OW38182   2.640   2.747   6.224  0.2570 -0.8106  0.1510
 8849SOL    HW138183   2.697   2.739   6.301 -0.3362  1.1444  0.8073
 8849SOL    HW238184   2.700   2.783   6.158 -0.5136 -0.2123 -0.2165
 8850SOL     OW38185   1.020   3.494   5.497 -0.1913  0.0216 -0.4342
 8850SOL    HW138186   1.110   3.482   5.467 -0.3809  1.3442 -1.5036
 8850SOL    HW238187   0.979   3.517   5.415  0.2933 -2.4296 -1.3669
 8851SOL     OW38188   0.348   0.881   3.378 -0.8710 -0.2780 -0.0749
 8851SOL    HW138189   0.385   0.921   3.456  0.9101  0.0383 -1.0822
 8851SOL    HW238190   0.365   0.788   3.394  1.3205  0.2394  0.6055
 8852SOL     OW38191   0.740   4.470  14.476  0.1676  0.3200  0.6715
 8852SOL    HW138192   0.803   4.530  14.514  1.2654 -0.0649 -0.5574
 8852SOL    HW238193   0.774   4.465  14.387 -0.5102  1.0172  0.3695
 8853SOL     OW38194   3.364   1.493   2.432  0.7140 -1.1501 -0.5886
 8853SOL    HW138195   3.421   1.456   2.365  2.6060 -0.0647  0.4055
 8853SOL    HW238196   3.279   1.458   2.405 -1.3045  2.9378  0.3552
 8854SOL     OW38197   1.710   2.668  16.577  0.1221  0.8719  0.2481
 8854SOL    HW138198   1.713   2.745  16.520  0.3717  0.9048  0.3041
 8854SOL    HW238199   1.650   2.710  16.639  1.2052  0.8491  1.3038
 8855SOL     OW38200   2.906   1.117   5.541  0.5030  0.3014 -0.2841
 8855SOL    HW138201   2.885   1.024   5.536  2.3101 -0.1553  0.5281
 8855SOL    HW238202   2.929   1.121   5.634 -3.5662 -0.5618  0.7792
 8856SOL     OW38203   2.338   1.572   5.283  0.6248 -0.7996  0.0946
 8856SOL    HW138204   2.325   1.590   5.190  3.0778  0.3508 -0.0311
 8856SOL    HW238205   2.295   1.643   5.330  1.5721 -0.8603  1.0635
 8857SOL     OW38206   0.512   0.430   7.356 -0.0990  0.4000  0.1970
 8857SOL    HW138207   0.596   0.387   7.373 -0.2515 -0.5844 -1.6678
 8857SOL    HW238208   0.540   0.505   7.304  0.9731  0.7168  1.2248
 8858SOL     OW38209   0.789   1.523   8.418 -0.1251 -0.2328  0.2147
 8858SOL    HW138210   0.716   1.550   8.362 -0.3820 -1.1468  0.1065
 8858SOL    HW238211   0.862   1.561   8.370 -0.0146 -0.4238  0.2354
 8859SOL     OW38212   3.194   0.876   9.163 -0.2512  0.3379 -0.2320
 8859SOL    HW138213   3.101   0.869   9.181  0.0597 -1.4210  0.6573
 8859SOL    HW238214   3.233   0.872   9.250  2.3309 -0.6562 -1.4364
 8860SOL     OW38215   0.728   0.481   5.396  0.3844  0.4261  0.0729
 8860SOL    HW138216   0.788   0.416   5.361  1.6399  1.4831  0.2525
 8860SOL    HW238217   0.728   0.457   5.489  1.9306 -0.7246 -0.2231
 8861SOL     OW38218   3.583   3.160   8.595 -0.2211  0.1566 -0.6019
 8861SOL    HW138219   3.629   3.176   8.512  0.2557 -0.1295 -0.3920
 8861SOL    HW238220   3.638   3.095   8.638  0.5721 -1.2896 -3.8045
 8862SOL     OW38221   2.217   4.403   0.450 -0.0545 -0.2339 -0.0703
 8862SOL    HW138222   2.185   4.343   0.382  0.1930  1.7530 -1.9457
 8862SOL    HW238223   2.196   4.487   0.408 -0.7571 -0.6047 -0.4568
 8863SOL     OW38224   3.410   1.616   5.147 -0.4244  0.4839 -0.2090
 8863SOL    HW138225   3.420   1.691   5.088 -0.2033  1.8556  1.5652
 8863SOL    HW238226   3.461   1.641   5.224 -0.8203 -2.8252  1.1019
 8864SOL     OW38227   1.595   4.437   4.227  0.3791 -0.0786 -0.6095
 8864SOL    HW138228   1.578   4.452   4.320 -0.9660 -1.8365 -0.5703
 8864SOL    HW238229   1.584   4.525   4.189 -2.4267 -0.3365 -0.3737
 8865SOL     OW38230   2.535   0.810  16.505 -0.0288 -0.0736 -0.3163
 8865SOL    HW138231   2.527   0.755  16.583 -1.4264  1.2815  0.5037
 8865SOL    HW238232   2.513   0.900  16.531  2.0660 -0.3162  2.2509
 8866SOL     OW38233   0.040   1.224   6.345  0.5058  0.5710  0.7175
 8866SOL    HW138234   4.696   1.182   6.370  0.0380  1.6997  1.0658
 8866SOL    HW238235   0.079   1.262   6.424  1.2388 -0.8738  1.0559
 8867SOL     OW38236   2.467   1.120   4.682  0.2806 -0.6513 -0.1191
 8867SOL    HW138237   2.455   1.215   4.682 -2.7129 -1.0272  1.2429
 8867SOL    HW238238   2.378   1.091   4.701  0.4013 -0.8744  0.0995
 8868SOL     OW38239   3.747   0.050   4.142 -0.0148 -0.3286 -0.1954
 8868SOL    HW138240   3.841   0.042   4.154  0.0828  0.2342 -0.5549
 8868SOL    HW238241   3.738   0.008   4.056 -2.4808 -1.1914  0.4852
 8869SOL     OW38242   0.463   1.448   1.530  0.2609 -0.6083  0.2764
 8869SOL    HW138243   0.412   1.497   1.594  0.7347  1.4747 -0.9289
 8869SOL    HW238244   0.410   1.453   1.450  0.8670 -0.3370 -0.1134
 8870SOL     OW38245   1.703   0.164   9.257  0.2893 -0.1342 -0.3400
 8870SOL    HW138246   1.629   0.189   9.201 -0.0843  0.0682  0.2418
 8870SOL    HW238247   1.734   0.102   9.192  3.9374 -0.6909  1.9698
 8871SOL     OW38248   2.026   1.429   2.702  0.2515  0.1925 -0.5235
 8871SOL    HW138249   1.958   1.399   2.763  0.7359  3.3329  1.5765
 8871SOL    HW238250   1.983   1.445   2.619 -0.4533  0.7006 -0.0643
 8872SOL     OW38251   4.096   2.483  12.180  0.3712  0.4221  0.6490
 8872SOL    HW138252   4.086   2.394  12.146 -0.3092  1.3638 -1.5953
 8872SOL    HW238253   4.025   2.486  12.243 -1.0047  1.4271 -0.9476
 8873SOL     OW38254   0.635   2.930   0.564  0.7518 -0.5379  0.1329
 8873SOL    HW138255   0.668   2.871   0.632  0.3976 -0.2664  0.5404
 8873SOL    HW238256   0.541   2.917   0.573  0.6842 -0.7402 -0.8296
 8874SOL     OW38257   2.990   2.467   7.392  0.5973 -0.4704 -0.2546
 8874SOL    HW138258   3.067   2.413   7.376  0.4716 -0.9942  0.8827
 8874SOL    HW238259   3.019   2.556   7.373 -0.5133  0.3098  1.6508
 8875SOL     OW38260   1.260   3.679   4.013 -0.7125 -0.3331 -0.6570
 8875SOL    HW138261   1.250   3.772   3.996  0.7413 -0.0500  0.0622
 8875SOL    HW238262   1.291   3.644   3.930 -0.3224 -0.6805 -0.3720
 8876SOL     OW38263   2.102   0.899   1.419  0.3482 -0.2544  0.1362
 8876SOL    HW138264   2.170   0.832   1.409 -0.0046 -0.7600  1.0818
 8876SOL    HW238265   2.156   0.977   1.434 -0.5655  0.6774 -1.5107
 8877SOL     OW38266   3.936   0.885   6.964 -0.2389 -0.8147 -1.0115
 8877SOL    HW138267   4.025   0.921   6.961 -0.5085  0.1370  2.3655
 8877SOL    HW238268   3.889   0.969   6.957 -0.6424 -0.9576  0.0241
 8878SOL     OW38269   0.350   0.492   5.713 -0.0880 -0.2013 -0.1883
 8878SOL    HW138270   0.359   0.540   5.795 -0.6060 -0.3783 -0.0296
 8878SOL    HW238271   0.437   0.459   5.689 -1.3750 -1.3554 -3.2194
 8879SOL     OW38272   4.123   0.917   5.994 -0.0614  0.0148 -0.2152
 8879SOL    HW138273   4.157   0.896   5.908  2.3003  0.3408  0.6411
 8879SOL    HW238274   4.124   1.012   6.006  1.6670 -0.2982  2.0395
 8880SOL     OW38275   2.990   0.742   8.082  0.0380  0.1070  0.8935
 8880SOL    HW138276   2.940   0.685   8.023 -0.4323  0.9802  0.4545
 8880SOL    HW238277   3.011   0.807   8.014 -1.8054  0.2584  0.4640
 8881SOL     OW38278   1.003   0.752   7.743 -0.2121 -0.3851 -0.1606
 8881SOL    HW138279   1.019   0.677   7.800 -2.7894  0.5085  1.7043
 8881SOL    HW238280   1.046   0.723   7.662 -0.3914 -1.5684  0.1663
 8882SOL     OW38281   1.969   0.135   7.806  0.1261 -0.0599 -0.1476
 8882SOL    HW138282   2.005   0.221   7.828 -0.0969  0.4195 -1.6367
 8882SOL    HW238283   1.917   0.116   7.884 -1.4089 -0.1603 -1.2033
 8883SOL     OW38284   3.561   4.669   9.806 -0.6754 -0.3428 -0.2464
 8883SOL    HW138285   3.572   4.580   9.774  1.8982  0.1929 -0.8778
 8883SOL    HW238286   3.628   4.679   9.873  0.7320  0.0851 -1.7070
 8884SOL     OW38287   3.662   0.577  14.084 -0.4436 -0.0204 -0.2446
 8884SOL    HW138288   3.745   0.560  14.041 -0.1888  1.0337 -0.1629
 8884SOL    HW238289   3.649   0.671  14.072  0.7273 -0.0426 -1.7199
 8885SOL     OW38290   0.400   4.143   7.839  0.5765  0.0225  0.1885
 8885SOL    HW138291   0.445   4.111   7.761 -0.1432 -0.1050 -0.1746
 8885SOL    HW238292   0.381   4.233   7.814  0.1759 -0.0280  0.3055
 8886SOL     OW38293   0.040   2.811  11.584  0.5878  0.0462  0.1106
 8886SOL    HW138294   0.099   2.867  11.534  1.5477 -1.2824 -0.2605
 8886SOL    HW238295   0.048   2.849  11.671 -2.2844 -2.5461  1.5187
 8887SOL     OW38296   0.272   4.694   5.897  0.1044 -0.0986  0.0880
 8887SOL    HW138297   0.317   4.648   5.827  2.0304 -1.1261  2.0061
 8887SOL    HW238298   0.347   0.001   5.935 -2.1322  2.3162  1.6674
 8888SOL     OW38299   1.220   2.852  12.838 -0.2101  0.2761 -0.4227
 8888SOL    HW138300   1.195   2.793  12.909  0.0744  0.5922 -0.0546
 8888SOL    HW238301   1.306   2.875  12.874  0.1664  0.7440 -1.6179
 8889SOL     OW38302   4.682   3.661   5.084  0.2955  0.2691  0.2274
 8889SOL    HW138303   0.032   3.630   5.066  0.9002  2.3113 -0.3951
 8889SOL    HW238304   4.700   3.724   5.153  0.5243 -0.4807  0.8457
 8890SOL     OW38305   4.113   4.109  13.953 -0.3056 -0.0474 -0.1026
 8890SOL    HW138306   4.177   4.079  14.017  0.2328  1.3964  0.0441
 8890SOL    HW238307   4.162   4.180  13.912  0.4622 -0.8332 -0.5373
 8891SOL     OW38308   1.341   4.477   2.101  0.3708 -0.7284 -0.4620
 8891SOL    HW138309   1.296   4.561   2.111  2.1156  0.1589 -0.0363
 8891SOL    HW238310   1.425   4.517   2.081  0.8627 -1.4832  0.1038
 8892SOL     OW38311   4.680   2.522   2.639 -0.0496 -0.9301  0.2114
 8892SOL    HW138312   4.689   2.556   2.728  0.1374  1.0974 -0.5874
 8892SOL    HW238313   0.029   2.535   2.601  0.0272 -0.2421  0.6237
 8893SOL     OW38314   2.233   1.073  16.425  0.0594  0.0008 -0.5461
 8893SOL    HW138315   2.321   1.078  16.461  0.3885  0.3978 -1.4055
 8893SOL    HW238316   2.224   1.158  16.382 -0.3078  0.7881  1.1198
 8894SOL     OW38317   3.450   3.725  11.142 -0.5686 -0.6087  0.3072
 8894SOL    HW138318   3.531   3.775  11.132 -0.9352 -0.4885 -2.0709
 8894SOL    HW238319   3.448   3.671  11.063 -1.7983  0.9255 -0.7141
 8895SOL     OW38320   3.463   2.619   3.656 -0.1507  0.2042  0.0018
 8895SOL    HW138321   3.485   2.527   3.645  1.0122  0.5502 -0.5390
 8895SOL    HW238322   3.523   2.663   3.596 -1.1349  1.9495  0.3001
 8896SOL     OW38323   0.479   4.612   7.187  0.3601  0.7121  0.2769
 8896SOL    HW138324   0.490   4.620   7.282 -0.3872 -0.2498  0.4321
 8896SOL    HW238325   0.512   4.700   7.165  0.1443  0.2263 -1.9815
 8897SOL     OW38326   3.651   1.874   9.556 -0.0536  0.5649 -0.1114
 8897SOL    HW138327   3.656   1.926   9.635  1.5008  0.9056 -0.4355
 8897SOL    HW238328   3.689   1.790   9.581 -2.2819  0.3554  2.6036
 8898SOL     OW38329   1.816   2.356  12.723 -0.5609  0.1677 -0.1003
 8898SOL    HW138330   1.838   2.449  12.720  2.0242 -0.4886 -1.0467
 8898SOL    HW238331   1.856   2.336  12.638 -1.9760 -0.5635 -0.5966
 8899SOL     OW38332   4.579   1.909   2.216 -0.0687 -0.0954  0.2478
 8899SOL    HW138333   4.491   1.891   2.248 -0.2019  0.2680  0.0938
 8899SOL    HW238334   4.608   1.822   2.190  0.6199  0.5619 -1.2246
 8900SOL     OW38335   1.626   4.031   2.840 -0.5656 -0.2716 -0.1428
 8900SOL    HW138336   1.659   4.036   2.750  2.3234  1.0975  0.9922
 8900SOL    HW238337   1.551   4.090   2.841  1.7377  2.5601  1.6451
 8901SOL     OW38338   3.836   1.978  16.727  0.1579 -0.1359 -0.3040
 8901SOL    HW138339   3.742   1.981  16.714  0.2627 -0.2106 -1.1018
 8901SOL    HW238340   3.851   1.883  16.723 -0.2336 -0.2369  0.7662
 8902SOL     OW38341   3.192   0.542   5.524  0.5049  0.3249 -0.8143
 8902SOL    HW138342   3.199   0.533   5.619 -3.5739 -0.7045 -0.6212
 8902SOL    HW238343   3.233   0.628   5.513 -0.3982  0.7584 -0.7489
 8903SOL     OW38344   4.209   0.507   9.257  0.6141  0.3746 -0.4018
 8903SOL    HW138345   4.303   0.525   9.258  0.7323 -0.2486 -0.3986
 8903SOL    HW238346   4.198   0.424   9.210 -0.3502  0.4720 -0.3465
 8904SOL     OW38347   4.277   2.523   7.342 -0.5749 -0.1113 -0.4392
 8904SOL    HW138348   4.283   2.542   7.436  1.6109  0.5453 -0.7090
 8904SOL    HW238349   4.318   2.603   7.307  2.3839 -1.5972 -0.3929
 8905SOL     OW38350   2.514   3.441   8.337 -0.1368  0.4721 -0.2257
 8905SOL    HW138351   2.454   3.451   8.263 -0.9071  1.4163  0.5191
 8905SOL    HW238352   2.520   3.346   8.350  0.8989  0.8663  2.1446
 8906SOL     OW38353   4.269   2.430   7.978 -0.1878 -0.4207 -0.3742
 8906SOL    HW138354   4.212   2.453   8.051  1.9654  2.4053  0.4171
 8906SOL    HW238355   4.203   2.397   7.917 -0.0859  0.3744 -0.9094
 8907SOL     OW38356   0.585   1.476   2.585 -0.3952 -0.5393 -0.1315
 8907SOL    HW138357   0.496   1.448   2.605 -0.8098  1.2990  0.5900
 8907SOL    HW238358   0.631   1.393   2.568 -0.7280 -0.5489 -0.9780
 8908SOL     OW38359   1.345   1.563   9.603  0.3021 -0.7286 -0.5937
 8908SOL    HW138360   1.357   1.607   9.687 -0.9620  0.6464 -1.1309
 8908SOL    HW238361   1.438   1.551   9.584  0.4745 -0.4093  0.0548
 8909SOL     OW38362   2.550   2.043   6.515 -0.0990 -0.1769 -0.2511
 8909SOL    HW138363   2.467   2.001   6.493  0.6678 -1.4539 -0.6801
 8909SOL    HW238364   2.542   2.068   6.607  2.1287 -0.5297  0.0178
 8910SOL     OW38365   2.856   1.544   9.099  0.1702 -0.2899  0.1157
 8910SOL    HW138366   2.773   1.575   9.062  0.5999  1.4564  0.6037
 8910SOL    HW238367   2.852   1.598   9.178  2.2829  2.5086 -1.7020
 8911SOL     OW38368   3.582   2.840  15.136 -0.0029 -0.1735 -0.0610
 8911SOL    HW138369   3.676   2.858  15.129  0.4846 -1.8378  2.2331
 8911SOL    HW238370   3.548   2.929  15.144  0.6974  0.2766 -2.0608
 8912SOL     OW38371   4.558   2.510   7.545  0.5484 -0.3051  0.2335
 8912SOL    HW138372   4.642   2.475   7.573  1.1173  1.6289  0.9399
 8912SOL    HW238373   4.508   2.507   7.626  0.4517  0.6670  0.2037
 8913SOL     OW38374   1.257   2.604  15.061  0.4101 -0.1308  0.7094
 8913SOL    HW138375   1.227   2.530  15.007  5.2795 -2.3192  0.9834
 8913SOL    HW238376   1.195   2.672  15.034 -0.0093 -0.9253 -0.3387
 8914SOL     OW38377   0.139   0.828  12.440  0.5207 -0.1555 -0.1661
 8914SOL    HW138378   0.071   0.773  12.478 -2.0345  1.2716 -2.7102
 8914SOL    HW238379   0.124   0.813  12.347 -0.5169 -0.9416  0.1250
 8915SOL     OW38380   0.340   1.435   6.686 -0.2317 -0.5247 -0.1736
 8915SOL    HW138381   0.422   1.392   6.663  1.0530  2.0055 -0.3653
 8915SOL    HW238382   0.330   1.419   6.780  1.4071  2.8350  0.5784
 8916SOL     OW38383   3.854   0.342   7.056  0.8048 -0.2465 -0.3975
 8916SOL    HW138384   3.845   0.351   6.961  0.9434 -1.9975 -0.5697
 8916SOL    HW238385   3.945   0.322   7.076  0.2394  0.3026  2.6978
 8917SOL     OW38386   4.401   3.044   2.328  0.3134  0.4425 -0.0553
 8917SOL    HW138387   4.452   2.966   2.305 -0.4784 -0.6249  1.7762
 8917SOL    HW238388   4.441   3.105   2.267  3.2199 -1.7169 -0.3055
 8918SOL     OW38389   0.998   0.649   2.825  0.1754 -0.4067 -0.9697
 8918SOL    HW138390   0.980   0.568   2.873  0.5515 -0.3292 -0.6995
 8918SOL    HW238391   1.081   0.676   2.864 -0.0417  0.0525 -0.8348
 8919SOL     OW38392   0.252   0.912  13.700 -0.1012  0.0781  0.0335
 8919SOL    HW138393   0.323   0.972  13.723 -0.7446  0.5532  0.8086
 8919SOL    HW238394   0.184   0.934  13.764 -0.4825  3.3299 -1.5018
 8920SOL     OW38395   0.512   0.249  10.641 -0.1933 -0.1109 -0.2998
 8920SOL    HW138396   0.567   0.184  10.686 -3.7548 -1.1741  2.5287
 8920SOL    HW238397   0.427   0.206  10.636 -1.3634  2.2393 -0.1429
 8921SOL     OW38398   1.608   1.722   9.397 -0.2766  0.6418 -0.3193
 8921SOL    HW138399   1.564   1.713   9.312  0.1281 -0.2079 -0.4469
 8921SOL    HW238400   1.580   1.638   9.434 -1.8101  1.4537  0.3366
 8922SOL     OW38401   3.289   2.821   6.776  0.1031 -0.3492 -0.3338
 8922SOL    HW138402   3.377   2.847   6.803  0.6042 -0.7179 -1.5940
 8922SOL    HW238403   3.284   2.738   6.823 -2.3110 -0.1588 -0.2664
 8923SOL     OW38404   0.260   3.802   6.239 -0.0930 -0.0043 -0.3637
 8923SOL    HW138405   0.240   3.892   6.213 -1.5435 -1.0181 -2.7233
 8923SOL    HW238406   0.322   3.813   6.311 -0.9208  0.1832  0.3230
 8924SOL     OW38407   0.442   0.016   6.444  0.2254 -0.2029  0.0971
 8924SOL    HW138408   0.406   4.701   6.514  0.9201  2.7516  2.7252
 8924SOL    HW238409   0.416   4.704   6.367  1.9079 -1.0231  0.0656
 8925SOL     OW38410   1.457   3.673   6.926 -0.3912 -0.0534  0.2266
 8925SOL    HW138411   1.374   3.672   6.973 -1.0280  0.2230 -0.9131
 8925SOL    HW238412   1.459   3.581   6.900  1.5835  0.8525 -2.8162
 8926SOL     OW38413   1.216   0.205   5.325 -0.3568 -0.1220  0.2238
 8926SOL    HW138414   1.274   0.197   5.400  0.9403  0.1323 -0.7539
 8926SOL    HW238415   1.284   0.201   5.257  0.2567  0.6752  0.7977
 8927SOL     OW38416   3.597   3.748   3.140 -0.1513 -0.1162 -0.5457
 8927SOL    HW138417   3.624   3.836   3.114 -0.6280 -0.3412 -1.8028
 8927SOL    HW238418   3.547   3.724   3.062  0.2472 -1.6029 -0.3419
 8928SOL     OW38419   2.161   1.547   9.957 -0.2308  0.2004  0.1402
 8928SOL    HW138420   2.101   1.614   9.990 -0.4060 -0.0579  0.3457
 8928SOL    HW238421   2.158   1.550   9.861 -0.6901  0.1808  0.1555
 8929SOL     OW38422   1.867   2.860  14.044  0.1033 -0.1681  0.1154
 8929SOL    HW138423   1.905   2.932  14.095  0.1431 -0.6878  0.8251
 8929SOL    HW238424   1.871   2.893  13.955 -0.3923  1.6209  0.7459
 8930SOL     OW38425   0.112   2.429   8.536 -0.1769 -0.0717  0.0222
 8930SOL    HW138426   0.036   2.404   8.483 -1.1978  0.7843  1.0796
 8930SOL    HW238427   0.083   2.518   8.558  0.2516  0.3368 -1.0518
 8931SOL     OW38428   0.884   0.698   4.148  0.4088 -0.6041  0.0136
 8931SOL    HW138429   0.869   0.618   4.197 -0.3378  1.0324  2.4710
 8931SOL    HW238430   0.846   0.763   4.208  0.4745 -0.3236 -0.2453
 8932SOL     OW38431   2.504   1.025   3.653  0.2279 -0.5224  0.2512
 8932SOL    HW138432   2.529   1.033   3.561 -3.5682  0.1429 -0.7613
 8932SOL    HW238433   2.439   1.095   3.659 -1.0746 -1.9463  2.8882
 8933SOL     OW38434   3.595   3.995  14.669  0.5874 -0.1930  0.0392
 8933SOL    HW138435   3.549   4.072  14.636 -1.4577 -0.9108  1.2301
 8933SOL    HW238436   3.684   4.009  14.637 -0.5432  1.4714 -2.3607
 8934SOL     OW38437   2.100   4.173   6.436  0.0374  0.6623  0.3457
 8934SOL    HW138438   2.111   4.080   6.415  0.2219  0.5735  0.8236
 8934SOL    HW238439   2.171   4.214   6.385  0.9546 -1.2246  0.0739
 8935SOL     OW38440   1.103   2.844   5.116 -0.4717  0.0775  0.3257
 8935SOL    HW138441   1.194   2.867   5.130 -0.7413  0.8174  0.9040
 8935SOL    HW238442   1.090   2.760   5.160 -2.0758 -0.8032 -1.8255
 8936SOL     OW38443   0.370   1.655   3.697  0.1240  0.4990  0.0677
 8936SOL    HW138444   0.376   1.559   3.688  2.8965  0.8889 -2.3574
 8936SOL    HW238445   0.403   1.663   3.786 -1.2701  0.9194  0.5565
 8937SOL     OW38446   2.511   4.415   6.142 -0.3361  0.2150  0.3081
 8937SOL    HW138447   2.596   4.409   6.185 -0.1085  1.5929  0.0649
 8937SOL    HW238448   2.536   4.340   6.088 -0.1030  1.5832 -1.4961
 8938SOL     OW38449   0.471   4.350   8.061  0.0921  0.3067 -0.0251
 8938SOL    HW138450   0.449   4.372   7.971  2.3193  4.1669  0.3925
 8938SOL    HW238451   0.565   4.364   8.066  0.2367 -0.2233 -1.4128
 8939SOL     OW38452   2.864   3.886   9.457 -0.0961 -0.0912  0.8811
 8939SOL    HW138453   2.841   3.869   9.366 -0.4382 -0.2508  0.9961
 8939SOL    HW238454   2.785   3.927   9.492 -1.3742 -0.4708 -1.5327
 8940SOL     OW38455   1.216   3.434   7.845  0.1464 -0.0166  0.2460
 8940SOL    HW138456   1.248   3.448   7.756  1.8325 -2.3386  0.5077
 8940SOL    HW238457   1.244   3.346   7.868  0.8953 -0.3725 -2.0700
 8941SOL     OW38458   1.465   0.638   2.839 -0.0350 -0.2382 -0.3509
 8941SOL    HW138459   1.507   0.656   2.756  2.1655 -0.7441  0.6565
 8941SOL    HW238460   1.436   0.548   2.822 -1.2707 -0.2640  1.7712
 8942SOL     OW38461   2.481   3.365  13.386 -0.2992 -0.6246 -0.6640
 8942SOL    HW138462   2.517   3.444  13.427 -0.1951 -2.5607  2.9914
 8942SOL    HW238463   2.517   3.296  13.441  2.7189  0.2452 -1.5895
 8943SOL     OW38464   2.716   3.739   0.988 -0.0988 -0.4906 -0.1847
 8943SOL    HW138465   2.780   3.743   0.917 -1.3545  2.6960 -1.1625
 8943SOL    HW238466   2.729   3.825   1.026  0.8184 -1.7898  2.4322
 8944SOL     OW38467   0.870   2.488  11.912 -0.6942  0.2677  0.0540
 8944SOL    HW138468   0.820   2.545  11.970 -0.5013  1.4444 -0.9276
 8944SOL    HW238469   0.942   2.457  11.967 -0.1770  1.3288 -0.0303
 8945SOL     OW38470   3.838   0.056   0.360  0.4895  0.0144 -0.2368
 8945SOL    HW138471   3.771   0.089   0.302  0.7097  0.5551 -0.1805
 8945SOL    HW238472   3.799   0.077   0.445 -0.4018 -1.1925 -0.3545
 8946SOL     OW38473   4.148   2.594   2.094  0.2135  0.3346 -0.1367
 8946SOL    HW138474   4.118   2.681   2.121  1.2538  0.0292  2.0260
 8946SOL    HW238475   4.234   2.616   2.056  1.0644 -1.2377  0.8859
 8947SOL     OW38476   1.222   1.311   4.811 -0.4985 -0.4555  0.1189
 8947SOL    HW138477   1.181   1.301   4.726  0.0227  1.8400 -0.3992
 8947SOL    HW238478   1.202   1.226   4.849 -1.5014  0.3080  1.2963
 8948SOL     OW38479   1.518   3.725   5.721  0.9201  0.3896 -0.4920
 8948SOL    HW138480   1.544   3.642   5.761 -0.1592 -0.4019 -1.4517
 8948SOL    HW238481   1.555   3.787   5.785  2.0994 -0.2302 -0.5745
 8949SOL     OW38482   2.419   2.201   9.309 -0.2697  0.4089 -0.3422
 8949SOL    HW138483   2.331   2.205   9.346  0.2844 -2.1707  1.2662
 8949SOL    HW238484   2.403   2.263   9.238  0.3492  1.6038  0.5807
 8950SOL     OW38485   2.963   3.236  16.385  0.4669  0.1763 -0.3037
 8950SOL    HW138486   3.015   3.276  16.315  1.8459 -1.2825 -0.1073
 8950SOL    HW238487   2.949   3.313  16.440 -2.4388  0.4066 -1.3848
 8951SOL     OW38488   0.796   0.472  15.414 -0.1848 -0.4168 -0.4722
 8951SOL    HW138489   0.891   0.459  15.406 -0.2665 -0.6342 -1.0892
 8951SOL    HW238490   0.760   0.498  15.329 -0.2573  1.0874  0.0074
 8952SOL     OW38491   0.713   4.363   6.509 -0.3128 -0.4391 -0.5024
 8952SOL    HW138492   0.694   4.422   6.436  1.7419  1.1424  0.2118
 8952SOL    HW238493   0.643   4.298   6.504  0.0279 -0.7040 -1.7945
 8953SOL     OW38494   1.639   2.875   4.994  0.6662  0.7947  0.3493
 8953SOL    HW138495   1.636   2.859   4.899 -2.3431  1.6998  0.2904
 8953SOL    HW238496   1.709   2.813   5.017 -0.9142 -0.6562  1.2081
 8954SOL     OW38497   3.456   4.055   7.596 -0.4506 -0.1154 -0.1527
 8954SOL    HW138498   3.549   4.054   7.619 -0.8031 -1.8831  1.2189
 8954SOL    HW238499   3.413   4.086   7.675 -1.4570 -3.7696  0.7727
 8955SOL     OW38500   2.099   4.214   5.307 -0.0651  0.1365 -0.3655
 8955SOL    HW138501   2.173   4.264   5.274  1.0273 -1.2509  0.0229
 8955SOL    HW238502   2.137   4.130   5.333  0.4458  0.9374  1.4954
 8956SOL     OW38503   0.709   3.216   3.294 -0.8824  0.1075  0.1742
 8956SOL    HW138504   0.704   3.239   3.387  1.9067 -1.8067  0.7723
 8956SOL    HW238505   0.618   3.200   3.269  0.5564 -3.1593 -2.8345
 8957SOL     OW38506   2.223   2.043   8.675  0.0158 -0.0849 -0.1927
 8957SOL    HW138507   2.198   2.052   8.767 -0.0357 -0.2532 -0.1911
 8957SOL    HW238508   2.147   2.001   8.634 -0.2640 -0.8664  1.1331
 8958SOL     OW38509   0.197   2.640  13.032 -0.1924  0.0113 -0.0858
 8958SOL    HW138510   0.205   2.624  13.126 -1.1499  0.6591  0.1093
 8958SOL    HW238511   0.289   2.618  13.017  0.2650  1.8068  0.1053
 8959SOL     OW38512   0.447   0.397  17.152 -0.0259  0.4882 -0.5650
 8959SOL    HW138513   0.438   0.308  17.187 -3.4072  1.4365  0.9617
 8959SOL    HW238514   0.482   0.375  17.066  1.6810 -0.8564  0.4624
 8960SOL     OW38515   2.069   0.057   9.868 -0.2327 -0.5029 -0.2403
 8960SOL    HW138516   2.137   4.731   9.886  0.4814  0.6265  1.0599
 8960SOL    HW238517   2.087   0.105   9.787 -0.3914  1.2170  0.7559
 8961SOL     OW38518   2.909   3.216   3.795 -0.2434  0.2586 -0.5988
 8961SOL    HW138519   2.957   3.202   3.713  0.5170 -1.9392  0.2299
 8961SOL    HW238520   2.863   3.132   3.794  0.0361  0.1037 -0.3502
 8962SOL     OW38521   1.601   4.580   4.655 -1.0842 -0.2535 -0.4666
 8962SOL    HW138522   1.650   4.502   4.629  0.0303  0.0502  0.7346
 8962SOL    HW238523   1.578   4.570   4.748 -1.3732  0.1902 -0.4890
 8963SOL     OW38524   3.284   1.600   9.216  0.2520  0.5238  1.0400
 8963SOL    HW138525   3.250   1.542   9.284 -0.1262 -0.8376 -0.3273
 8963SOL    HW238526   3.235   1.571   9.139  0.3719  2.8507  0.0882
 8964SOL     OW38527   0.401   3.752   5.493  0.0000  0.1184 -0.1630
 8964SOL    HW138528   0.400   3.657   5.503  0.5220  0.1879  0.5682
 8964SOL    HW238529   0.321   3.769   5.443  0.3998  2.8383  0.0864
 8965SOL     OW38530   2.352   4.500   1.652  0.0085  0.0462  0.9752
 8965SOL    HW138531   2.315   4.587   1.663 -0.1169  0.1022  0.1211
 8965SOL    HW238532   2.437   4.518   1.612 -0.4914 -1.1240 -0.6503
 8966SOL     OW38533   0.349   2.424   9.012  0.0981 -0.2796 -0.1244
 8966SOL    HW138534   0.317   2.335   9.027 -0.3336 -0.8284 -4.4409
 8966SOL    HW238535   0.436   2.409   8.976  0.0692 -2.9406  0.9118
 8967SOL     OW38536   2.340   1.385   1.720  0.2058  0.2818  0.2721
 8967SOL    HW138537   2.316   1.340   1.640  1.8244 -0.6707  0.3395
 8967SOL    HW238538   2.359   1.476   1.696 -0.9938  0.1118 -1.3110
 8968SOL     OW38539   2.525   0.959   2.271  0.1154 -0.4789  0.6502
 8968SOL    HW138540   2.528   1.000   2.358 -0.3815  0.5036  0.2040
 8968SOL    HW238541   2.509   0.866   2.285 -2.0917 -0.6944 -3.2792
 8969SOL     OW38542   0.364   2.082   0.730 -0.3647  0.0991  0.0748
 8969SOL    HW138543   0.387   2.064   0.821 -0.0181 -3.0714 -0.6460
 8969SOL    HW238544   0.450   2.080   0.688 -0.3075 -1.0193  0.2296
 8970SOL     OW38545   0.890   4.070   3.075 -0.3275  0.8786  0.3395
 8970SOL    HW138546   0.854   4.100   2.991  2.0714 -4.2118 -2.4767
 8970SOL    HW238547   0.973   4.025   3.057 -0.7955 -0.6880  2.0994
 8971SOL     OW38548   2.374   2.386   5.277  0.1752 -0.4050  0.2842
 8971SOL    HW138549   2.387   2.480   5.275  1.9737 -0.6922 -2.1444
 8971SOL    HW238550   2.451   2.342   5.241  1.1160  1.2690  0.3014
 8972SOL     OW38551   2.518   0.873   0.653  0.0998 -0.5641  0.2297
 8972SOL    HW138552   2.524   0.807   0.583 -1.5229 -0.0155 -0.4335
 8972SOL    HW238553   2.459   0.830   0.715  0.0074  0.9926  1.1979
 8973SOL     OW38554   1.120   2.601   6.193 -0.2096 -0.5008  0.2541
 8973SOL    HW138555   1.181   2.536   6.229  0.9427 -0.4345 -1.5916
 8973SOL    HW238556   1.038   2.574   6.235 -0.1320  1.1362  1.4492
 8974SOL     OW38557   0.766   3.269   5.803  0.7106 -0.1649 -0.0007
 8974SOL    HW138558   0.672   3.273   5.816  0.6130  0.2903 -0.8817
 8974SOL    HW238559   0.782   3.357   5.769 -0.5329  0.6193  1.4360
 8975SOL     OW38560   0.157   4.233   2.500  0.1087 -0.0791  0.3829
 8975SOL    HW138561   0.155   4.240   2.404 -3.6271 -0.0472  0.4502
 8975SOL    HW238562   0.069   4.264   2.522 -0.3020 -0.4751 -0.7132
 8976SOL     OW38563   2.821   3.312  11.690  0.7294  0.0860 -0.3532
 8976SOL    HW138564   2.733   3.337  11.660  0.2844 -1.2299 -0.1577
 8976SOL    HW238565   2.870   3.388  11.658 -1.8030  1.7876 -0.2607
 8977SOL     OW38566   0.425   1.293   3.089  0.4772 -0.1244  0.1881
 8977SOL    HW138567   0.461   1.207   3.111 -3.0333 -1.7779 -0.3540
 8977SOL    HW238568   0.331   1.290   3.108  0.1331 -0.1895 -1.4852
 8978SOL     OW38569   1.463   0.495   7.430  0.4807  0.1239  0.6826
 8978SOL    HW138570   1.558   0.502   7.442  0.8621 -0.4792 -1.9972
 8978SOL    HW238571   1.459   0.410   7.387  0.4591 -0.0562  1.0384
 8979SOL     OW38572   4.333   1.916   9.684  0.0366 -0.2356 -0.3766
 8979SOL    HW138573   4.376   1.836   9.652 -0.1450 -0.6234  0.3448
 8979SOL    HW238574   4.243   1.883   9.679 -0.2960  0.5398  0.4584
 8980SOL     OW38575   3.234   2.731   3.875 -1.0163 -0.4771  0.6098
 8980SOL    HW138576   3.219   2.738   3.781 -0.2623 -3.1106  0.2903
 8980SOL    HW238577   3.241   2.636   3.889  1.1469 -0.7527 -2.2796
 8981SOL     OW38578   3.224   2.741   4.780 -0.2816 -0.2940 -0.3632
 8981SOL    HW138579   3.170   2.663   4.768  1.7068 -1.6071 -0.8106
 8981SOL    HW238580   3.195   2.782   4.698  1.6231  1.0242 -0.3894
 8982SOL     OW38581   3.464   3.785   1.113  0.0849  0.2654  0.6457
 8982SOL    HW138582   3.413   3.796   1.192 -1.9848 -1.3412 -0.4670
 8982SOL    HW238583   3.549   3.819   1.142  0.0040  2.1669 -1.3687
 8983SOL     OW38584   2.900   3.650  13.289 -0.0397  0.4416 -0.1556
 8983SOL    HW138585   2.878   3.558  13.297  0.3609  0.2847 -0.8317
 8983SOL    HW238586   2.888   3.678  13.380  1.6378  0.6810 -0.0078
 8984SOL     OW38587   2.726   2.263  14.106 -0.0411 -0.8247  1.4069
 8984SOL    HW138588   2.758   2.209  14.034 -2.4229  0.8163 -0.8907
 8984SOL    HW238589   2.706   2.349  14.070  0.2653 -0.5389  1.9162
 8985SOL     OW38590   1.022   3.462  13.794 -0.4079 -0.1989  0.1020
 8985SOL    HW138591   1.077   3.539  13.780  0.7226 -0.6040  2.3149
 8985SOL    HW238592   0.965   3.487  13.867 -0.2418  0.7638 -0.1060
 8986SOL     OW38593   4.079   1.099   1.070 -0.1680  0.9186 -0.0138
 8986SOL    HW138594   4.086   1.041   0.993 -0.6487  0.1757  0.4967
 8986SOL    HW238595   4.034   1.175   1.033  0.8528  0.7363 -1.6106
 8987SOL     OW38596   1.158   0.708   5.164 -0.3901  0.0657 -0.5063
 8987SOL    HW138597   1.140   0.716   5.258 -2.0487 -0.3164 -0.7976
 8987SOL    HW238598   1.117   0.623   5.150  3.2854 -2.0986  1.8999
 8988SOL     OW38599   1.627   3.245   7.177  0.5436 -0.0300  0.1380
 8988SOL    HW138600   1.704   3.225   7.124 -0.2889 -0.7527 -0.7844
 8988SOL    HW238601   1.635   3.179   7.246 -0.8832 -0.6204 -0.2654
 8989SOL     OW38602   2.154   2.999   7.829 -0.0125 -0.4998  0.2898
 8989SOL    HW138603   2.132   2.942   7.903 -2.2841 -2.6165 -2.0028
 8989SOL    HW238604   2.235   2.955   7.805 -0.1464 -0.1293 -0.8797
 8990SOL     OW38605   1.395   4.617   2.803 -0.3957 -0.1127  0.3558
 8990SOL    HW138606   1.467   4.562   2.831 -0.6634 -1.8194 -2.3825
 8990SOL    HW238607   1.351   4.593   2.885 -0.7901 -2.9773 -0.6997
 8991SOL     OW38608   1.742   4.161  15.969  0.0251  0.6894 -0.8076
 8991SOL    HW138609   1.710   4.120  16.049 -1.4099  2.1261 -0.6383
 8991SOL    HW238610   1.721   4.253  15.986  0.2855  0.3813  1.1933
 8992SOL     OW38611   0.106   3.643   7.814  0.3175 -0.0178  0.9434
 8992SOL    HW138612   0.146   3.720   7.773 -0.8121  0.4535  0.7259
 8992SOL    HW238613   0.132   3.653   7.906  1.9627 -2.4206  0.7374
 8993SOL     OW38614   4.118   0.855   8.688 -0.0075 -0.1314 -0.3134
 8993SOL    HW138615   4.191   0.799   8.661 -2.1237 -2.6242 -0.8488
 8993SOL    HW238616   4.044   0.795   8.680  0.6848 -0.7262 -2.2380
 8994SOL     OW38617   3.337   2.552   8.348 -0.1455  0.1899  0.1854
 8994SOL    HW138618   3.396   2.499   8.402  0.3105  0.4436 -0.0563
 8994SOL    HW238619   3.398   2.576   8.278 -0.3642 -0.1102 -0.1075
 8995SOL     OW38620   0.458   0.913  13.412  0.3260  0.7542 -0.3704
 8995SOL    HW138621   0.402   0.839  13.435 -0.5123  2.0616  1.8137
 8995SOL    HW238622   0.518   0.907  13.487  0.2099 -0.5978 -0.3794
 8996SOL     OW38623   2.382   2.417   4.295  0.4690  0.3386 -0.2648
 8996SOL    HW138624   2.403   2.324   4.300 -0.4300  0.0589 -1.6224
 8996SOL    HW238625   2.327   2.417   4.217 -0.6503 -1.4213  0.5267
 8997SOL     OW38626   2.423   1.712   6.449  0.9365 -0.6091  0.0354
 8997SOL    HW138627   2.361   1.665   6.505 -1.6983 -0.0042 -2.3949
 8997SOL    HW238628   2.369   1.767   6.392 -1.0183 -1.8135  0.6838
 8998SOL     OW38629   0.164   1.605   8.129  0.3755 -0.1056  0.0552
 8998SOL    HW138630   0.177   1.511   8.136 -1.0269 -0.1356  2.1841
 8998SOL    HW238631   0.254   1.637   8.129  0.5630 -0.5829 -2.2649
 8999SOL     OW38632   2.107   2.193   1.741 -0.1763  0.4661  0.2643
 8999SOL    HW138633   2.201   2.172   1.733 -0.2699  0.2619 -0.2969
 8999SOL    HW238634   2.092   2.155   1.828  1.0813 -0.5057  0.0593
 9000SOL     OW38635   0.931   1.250   5.499 -0.1066 -0.8873  0.0595
 9000SOL    HW138636   0.906   1.160   5.479 -0.8261 -0.7828  0.4698
 9000SOL    HW238637   0.902   1.242   5.590  0.1821 -1.3907  0.1032
 9001SOL     OW38638   2.793   4.689   9.914 -0.1047  0.0867  0.1193
 9001SOL    HW138639   2.857   4.706   9.983 -0.4053  0.2302  0.3622
 9001SOL    HW238640   2.852   4.706   9.841  0.3723 -0.5546  0.3546
 9002SOL     OW38641   1.347   3.095  15.517 -0.1999  0.2712 -0.3328
 9002SOL    HW138642   1.396   3.152  15.576 -0.4614 -0.8379  0.9563
 9002SOL    HW238643   1.392   3.012  15.537 -0.1676 -0.1110 -1.9390
 9003SOL     OW38644   0.871   3.662   8.530 -0.4290 -0.1590  0.3465
 9003SOL    HW138645   0.877   3.708   8.446 -0.8649 -1.9114 -0.6278
 9003SOL    HW238646   0.782   3.627   8.521 -0.8158  0.5352  1.5172
 9004SOL     OW38647   3.043   0.817   4.277 -0.3155 -0.5077  0.2405
 9004SOL    HW138648   2.964   0.836   4.327  0.5096 -1.0933  1.7894
 9004SOL    HW238649   3.024   0.883   4.211  2.0297  1.3762  1.4441
 9005SOL     OW38650   1.165   2.658   3.435  0.4084 -0.0217  0.5163
 9005SOL    HW138651   1.224   2.585   3.417  1.3035  0.8065  0.0777
 9005SOL    HW238652   1.130   2.676   3.347  2.1161 -0.8178 -0.3277
 9006SOL     OW38653   4.579   0.960   5.628  0.1682 -0.2908 -0.1172
 9006SOL    HW138654   4.496   0.911   5.620  0.2464 -0.3449 -0.6390
 9006SOL    HW238655   4.627   0.897   5.681  2.0357  1.4156  0.2082
 9007SOL     OW38656   4.284   1.013   3.121  0.6326  0.5619  0.7714
 9007SOL    HW138657   4.319   0.924   3.130 -1.5882 -0.6501 -2.5640
 9007SOL    HW238658   4.315   1.039   3.034  1.5773 -1.5103  0.4810
 9008SOL     OW38659   4.169   1.337  10.897 -0.1883 -0.0996  0.2593
 9008SOL    HW138660   4.248   1.290  10.870 -0.1150  0.5801 -0.7026
 9008SOL    HW238661   4.207   1.420  10.926 -1.1211  0.0726  0.9718
 9009SOL     OW38662   0.094   1.080   5.270 -0.0338 -0.1761  0.1706
 9009SOL    HW138663   0.098   0.990   5.303  0.1672  0.7313  2.5594
 9009SOL    HW238664   0.040   1.117   5.340 -0.9278 -0.2343 -0.4881
 9010SOL     OW38665   3.837   3.854  15.526 -0.1450  0.1101  0.2673
 9010SOL    HW138666   3.764   3.849  15.587 -0.5017 -0.8299 -0.2335
 9010SOL    HW238667   3.788   3.895  15.455 -0.4648  0.2297  0.5579
 9011SOL     OW38668   2.923   0.412   0.602 -0.0597 -0.2703 -0.0565
 9011SOL    HW138669   2.855   0.351   0.572  0.5369 -1.1380  0.3361
 9011SOL    HW238670   2.987   0.405   0.532  0.5803 -0.7930  0.5775
 9012SOL     OW38671   0.974   0.301   5.349  0.1257  0.3685 -0.3586
 9012SOL    HW138672   0.921   0.246   5.291  0.7031  0.8346 -1.3302
 9012SOL    HW238673   1.058   0.254   5.350 -0.1270 -0.0736  0.4401
 9013SOL     OW38674   3.392   4.699  13.568 -0.1814  0.1932  0.1267
 9013SOL    HW138675   3.459   4.709  13.501  1.2182  1.3160  1.7056
 9013SOL    HW238676   3.419   0.028  13.630  0.1016 -0.7775  1.0601
 9014SOL     OW38677   0.504   3.043   5.645  0.4324 -0.3598 -0.5564
 9014SOL    HW138678   0.515   3.132   5.678 -1.6139  0.2726 -1.5509
 9014SOL    HW238679   0.532   2.998   5.725  1.5763 -1.2231 -1.4417
 9015SOL     OW38680   2.225   3.301  13.943  0.4161  0.6956  0.0569
 9015SOL    HW138681   2.236   3.297  13.848  3.0623 -0.6347  0.4050
 9015SOL    HW238682   2.250   3.392  13.958 -0.6353  1.5139 -3.1836
 9016SOL     OW38683   3.539   4.036   1.689 -0.1578  0.7939 -0.3984
 9016SOL    HW138684   3.450   4.014   1.716  1.5123 -2.3031  2.6235
 9016SOL    HW238685   3.529   4.025   1.594  0.6075 -0.1462 -0.3829
 9017SOL     OW38686   4.250   4.343  16.974 -0.1916  0.3809 -0.3185
 9017SOL    HW138687   4.234   4.294  16.892  1.6822 -4.2056  2.0120
 9017SOL    HW238688   4.176   4.403  16.968 -0.0815  0.6518  1.2388
 9018SOL     OW38689   1.803   1.188  15.726 -0.3953 -0.4456 -0.4021
 9018SOL    HW138690   1.709   1.202  15.720 -0.4140  0.8041  3.0700
 9018SOL    HW238691   1.804   1.119  15.660  1.9977  1.6099 -2.5444
 9019SOL     OW38692   1.406   0.182   5.064 -0.6971 -0.0744  0.2417
 9019SOL    HW138693   1.436   0.106   5.114  0.2513  0.0241 -0.1663
 9019SOL    HW238694   1.383   0.136   4.983  2.4513  0.5444 -1.0480
 9020SOL     OW38695   3.492   4.526  16.634  0.4309  0.5990  0.4591
 9020SOL    HW138696   3.402   4.492  16.630  1.0054 -0.9068  0.1933
 9020SOL    HW238697   3.506   4.526  16.539 -0.1043 -0.3889  0.3798
 9021SOL     OW38698   3.504   3.109   8.004  0.5082  0.6985 -0.3291
 9021SOL    HW138699   3.584   3.161   7.995 -0.0568  1.1478 -2.9853
 9021SOL    HW238700   3.516   3.056   7.925  2.2974  1.3064 -0.4717
 9022SOL     OW38701   2.853   0.335   6.020 -1.1891  0.1969  0.1805
 9022SOL    HW138702   2.860   0.419   5.974 -1.5876 -0.6669 -1.4354
 9022SOL    HW238703   2.883   0.354   6.109 -3.3875  0.5916  0.8446
 9023SOL     OW38704   2.301   3.908  15.252 -0.1787  0.2387  0.1047
 9023SOL    HW138705   2.274   3.967  15.322  0.0263  0.1740  0.2396
 9023SOL    HW238706   2.274   3.952  15.171 -2.2875 -0.8393  0.2105
 9024SOL     OW38707   0.998   3.430   6.619  0.4111 -0.4851  0.3100
 9024SOL    HW138708   1.067   3.364   6.621  0.4682 -0.3998  1.2582
 9024SOL    HW238709   1.001   3.479   6.536 -1.4183  2.2319  1.8168
 9025SOL     OW38710   3.044   4.393   2.067  0.6304  0.2086 -0.3538
 9025SOL    HW138711   2.987   4.469   2.069 -1.0288 -1.0103 -1.3862
 9025SOL    HW238712   3.002   4.336   2.132 -0.0719  1.4088  0.2488
 9026SOL     OW38713   2.503   0.031   4.353 -0.3699 -0.3063 -0.3563
 9026SOL    HW138714   2.493   0.081   4.272  0.6694 -1.3041 -1.1061
 9026SOL    HW238715   2.411   0.021   4.378 -0.1919 -0.6464  0.1579
 9027SOL     OW38716   3.212   3.157  16.972 -0.2650 -0.1206 -0.4623
 9027SOL    HW138717   3.206   3.114  16.886 -0.7518  1.0314 -0.9945
 9027SOL    HW238718   3.162   3.092  17.022  0.8136 -1.1950 -0.7761
 9028SOL     OW38719   0.488   0.000   4.903  0.1180  0.1979  0.2817
 9028SOL    HW138720   0.527   0.041   4.981  1.8436 -1.7743  0.4452
 9028SOL    HW238721   0.396   0.018   4.924 -0.0555  0.2744 -0.5293
 9029SOL     OW38722   0.404   2.385  14.414  0.0173 -0.4541  0.3245
 9029SOL    HW138723   0.325   2.380  14.469  0.8715 -0.2086  1.5706
 9029SOL    HW238724   0.443   2.465  14.450 -1.2682  0.2118  0.2369
 9030SOL     OW38725   1.026   1.323  15.242 -0.0519 -0.0611 -0.2572
 9030SOL    HW138726   1.059   1.243  15.282  0.3973 -0.3040 -1.1263
 9030SOL    HW238727   1.101   1.363  15.198 -0.8213  2.8129  1.0307
 9031SOL     OW38728   2.631   2.782  10.578  0.0484 -0.1915 -0.0366
 9031SOL    HW138729   2.708   2.730  10.555 -0.5198 -1.2194  0.4217
 9031SOL    HW238730   2.568   2.728  10.532  1.2461 -0.2819 -1.5772
 9032SOL     OW38731   3.044   3.141   6.614 -0.0289  0.0207 -0.2650
 9032SOL    HW138732   3.035   3.086   6.692  0.7866  0.6829  0.2949
 9032SOL    HW238733   3.112   3.201   6.645  0.5839  0.2528 -2.1020
 9033SOL     OW38734   3.225   2.823   7.469  0.4461 -0.1436 -0.1465
 9033SOL    HW138735   3.275   2.748   7.437  1.3362  0.9603 -1.3574
 9033SOL    HW238736   3.180   2.783   7.543 -0.2270 -0.1025 -0.5392
 9034SOL     OW38737   1.669   0.672   1.582 -0.6035 -0.0377 -0.2992
 9034SOL    HW138738   1.727   0.748   1.593 -1.1542  0.7739 -3.1376
 9034SOL    HW238739   1.609   0.710   1.518 -0.5283  0.0605 -0.3125
 9035SOL     OW38740   2.084   3.030  13.606  0.4461 -0.2787  0.5877
 9035SOL    HW138741   2.049   3.115  13.582  1.8271 -0.1533 -0.9834
 9035SOL    HW238742   2.164   3.024  13.554 -0.5247 -0.0062 -0.9164
 9036SOL     OW38743   3.429   0.358   0.313  0.1874 -0.1700 -0.0635
 9036SOL    HW138744   3.401   0.415   0.242 -0.6711 -0.7755 -0.2123
 9036SOL    HW238745   3.350   0.357   0.367 -1.3213  1.9937 -2.2561
 9037SOL     OW38746   1.479   3.239   4.091 -0.1589 -0.8069  0.2409
 9037SOL    HW138747   1.527   3.276   4.018  1.3854 -0.1123  1.6164
 9037SOL    HW238748   1.551   3.210   4.147  0.0280  1.7486  1.2929
 9038SOL     OW38749   2.875   2.785   5.703  0.1843 -0.2109  0.7558
 9038SOL    HW138750   2.908   2.875   5.694 -1.9768  0.5447  0.3461
 9038SOL    HW238751   2.781   2.803   5.702 -0.2304 -2.4985 -0.7475
 9039SOL     OW38752   2.592   3.801   4.505  0.2895 -0.0569 -0.3439
 9039SOL    HW138753   2.685   3.821   4.497 -0.2368  2.3527 -0.4306
 9039SOL    HW238754   2.574   3.865   4.574 -1.4240 -1.6551  0.6931
 9040SOL     OW38755   1.177   4.603   4.057 -0.6761 -0.4046 -0.0706
 9040SOL    HW138756   1.095   4.652   4.063  0.0555  0.9480 -1.2959
 9040SOL    HW238757   1.232   4.678   4.036 -0.6416 -0.9562 -1.9325
 9041SOL     OW38758   4.427   2.682   6.656 -0.0478 -1.0549 -0.6022
 9041SOL    HW138759   4.436   2.602   6.709 -0.2822 -0.5804  0.1493
 9041SOL    HW238760   4.346   2.722   6.690  1.1276  0.4196  0.4622
 9042SOL     OW38761   1.973   2.684  12.767  0.3717 -1.2337 -0.3659
 9042SOL    HW138762   2.035   2.639  12.710  1.0040 -0.5813 -0.1886
 9042SOL    HW238763   2.001   2.774  12.748 -0.2706 -0.7223  1.0695
 9043SOL     OW38764   3.195   1.404   4.351  0.4916  0.2814 -0.1189
 9043SOL    HW138765   3.149   1.365   4.277  1.1922  2.2790 -1.5930
 9043SOL    HW238766   3.272   1.438   4.307 -0.3582  1.0307 -1.0089
 9044SOL     OW38767   1.937   4.359   8.384  0.3642 -0.1039  0.5313
 9044SOL    HW138768   1.915   4.286   8.327  1.4574 -0.2987  0.3577
 9044SOL    HW238769   1.908   4.338   8.472  1.1205  0.8807  1.0250
 9045SOL     OW38770   4.009   2.524  17.039 -0.1081  0.3947  0.0761
 9045SOL    HW138771   4.034   2.600  17.091  0.2230 -0.8604  1.7318
 9045SOL    HW238772   4.076   2.509  16.972  0.3038  1.3053  0.2848
 9046SOL     OW38773   3.582   3.094   8.258  0.0980 -0.1543 -0.2338
 9046SOL    HW138774   3.584   2.999   8.263  0.3766 -0.2535 -2.2229
 9046SOL    HW238775   3.536   3.103   8.174 -0.7688 -1.5333  0.1083
 9047SOL     OW38776   1.409   2.352  13.874  0.5263  0.0965  0.1974
 9047SOL    HW138777   1.501   2.357  13.850  0.5887  2.5008  0.9252
 9047SOL    HW238778   1.418   2.261  13.905  0.0599  0.8385  2.4884
 9048SOL     OW38779   1.850   2.265   4.823 -0.2024  0.1313 -0.1781
 9048SOL    HW138780   1.813   2.179   4.840 -1.8338  1.0804  1.1803
 9048SOL    HW238781   1.837   2.272   4.728  0.6674 -3.9970 -0.5842
 9049SOL     OW38782   1.007   2.434   5.512 -0.5003 -0.1585 -0.4098
 9049SOL    HW138783   0.991   2.375   5.439 -0.1932 -1.3796  0.5055
 9049SOL    HW238784   1.102   2.423   5.517 -0.6072 -0.6560  0.6725
 9050SOL     OW38785   0.922   3.174   2.679  0.6292  0.6265  0.7359
 9050SOL    HW138786   1.000   3.174   2.622 -0.8206 -0.0797 -1.2479
 9050SOL    HW238787   0.937   3.247   2.739 -2.3904  0.5101  1.6062
 9051SOL     OW38788   0.130   3.492   5.421  0.5037  0.1195 -0.4512
 9051SOL    HW138789   0.114   3.576   5.379  0.5085  0.5137  0.3259
 9051SOL    HW238790   0.078   3.436   5.364  0.7206 -1.2937  0.7223
 9052SOL     OW38791   2.978   0.101  15.797  0.4678  0.2908  0.9449
 9052SOL    HW138792   3.001   0.040  15.727 -1.3932  0.2043  0.4188
 9052SOL    HW238793   2.884   0.112  15.783  0.6884 -0.5012 -1.1077
 9053SOL     OW38794   0.821   3.907   6.862 -0.3185  0.7867 -0.1257
 9053SOL    HW138795   0.823   3.817   6.829  1.0567  0.5899  0.5033
 9053SOL    HW238796   0.839   3.951   6.778 -0.1952 -1.1120 -1.0961
 9054SOL     OW38797   4.090   1.800   9.677 -0.5587 -0.0381 -0.0559
 9054SOL    HW138798   4.106   1.706   9.672  0.2254  0.0419  0.8937
 9054SOL    HW238799   4.096   1.821   9.770  0.6641  0.1140 -0.1690
 9055SOL     OW38800   1.461   2.011   4.209 -0.1641 -0.1534 -0.4923
 9055SOL    HW138801   1.450   2.004   4.114 -0.1167  1.4953 -0.6214
 9055SOL    HW238802   1.375   1.985   4.242 -0.6729 -0.3103 -1.9694
 9056SOL     OW38803   4.498   2.187   6.713  0.1510 -0.5726  0.0892
 9056SOL    HW138804   4.430   2.167   6.648  1.0905  2.2742 -1.7828
 9056SOL    HW238805   4.444   2.218   6.786  0.4081 -0.9195  0.4258
 9057SOL     OW38806   2.439   3.828   0.589 -0.8086  0.0688 -0.5583
 9057SOL    HW138807   2.519   3.805   0.541  0.8441  1.1010  1.7073
 9057SOL    HW238808   2.460   3.921   0.596 -0.6823  0.0520 -0.7101
 9058SOL     OW38809   4.013   0.924   2.744 -0.0573 -0.5479  0.3585
 9058SOL    HW138810   4.098   0.966   2.756  0.8077 -2.3319  0.5048
 9058SOL    HW238811   3.965   0.940   2.825 -1.6321 -0.1260 -0.6408
 9059SOL     OW38812   2.487   3.602   7.097 -0.7182 -0.4535  0.5244
 9059SOL    HW138813   2.453   3.664   7.032  3.3876 -0.5832 -1.7725
 9059SOL    HW238814   2.564   3.646   7.133  0.5182 -0.8881 -1.5390
 9060SOL     OW38815   3.396   1.828   8.772  0.4213 -0.7502  0.1300
 9060SOL    HW138816   3.396   1.870   8.858  0.7071 -1.3166  0.4116
 9060SOL    HW238817   3.398   1.901   8.710 -0.5311 -0.4425  0.4643
 9061SOL     OW38818   1.279   0.505   7.928 -0.1301  0.2790 -0.0420
 9061SOL    HW138819   1.190   0.503   7.895  0.2581  1.2068 -1.1799
 9061SOL    HW238820   1.309   0.589   7.893  0.0966  0.3919  0.4164
 9062SOL     OW38821   1.450   1.360   6.305  0.4953 -0.1517  0.0755
 9062SOL    HW138822   1.442   1.456   6.300 -0.0561 -0.3015 -2.3144
 9062SOL    HW238823   1.489   1.351   6.392  0.6660 -0.2189 -0.0073
 9063SOL     OW38824   0.227   1.571   4.215 -0.0876  0.2242  0.2891
 9063SOL    HW138825   0.281   1.647   4.192  1.3940 -1.0687 -0.4528
 9063SOL    HW238826   0.142   1.614   4.221 -0.1078  0.0522  1.1402
 9064SOL     OW38827   0.149   3.937   2.462 -0.3220 -0.1567 -0.1152
 9064SOL    HW138828   0.151   3.996   2.538  0.0526  0.3594 -0.5240
 9064SOL    HW238829   0.095   3.982   2.397  1.2258  2.5050  0.4352
 9065SOL     OW38830   1.383   3.179  11.712 -0.4326  0.0427 -0.5240
 9065SOL    HW138831   1.430   3.139  11.786 -2.2627  0.6902  0.9768
 9065SOL    HW238832   1.389   3.105  11.651  1.0888  1.5754 -2.2464
 9066SOL     OW38833   2.850   2.763   3.247  0.1724  0.8318 -0.3528
 9066SOL    HW138834   2.872   2.793   3.335 -1.0817  0.6815  0.0030
 9066SOL    HW238835   2.929   2.797   3.206  0.1306  0.6405 -0.5919
 9067SOL     OW38836   3.127   3.175   5.787 -0.0776 -0.0283  0.6391
 9067SOL    HW138837   3.200   3.163   5.726  0.6911 -0.7093  1.6871
 9067SOL    HW238838   3.133   3.099   5.845 -0.0278  0.0580  0.7467
 9068SOL     OW38839   0.989   2.561   6.779  0.4384 -0.0908 -0.1183
 9068SOL    HW138840   0.987   2.582   6.685 -1.4977 -0.1759 -0.0975
 9068SOL    HW238841   0.917   2.497   6.781  2.2881 -2.1035  1.6336
 9069SOL     OW38842   2.005   0.475   3.823  0.3180 -0.4426 -0.2165
 9069SOL    HW138843   2.068   0.471   3.750  2.2091  3.8386  1.2139
 9069SOL    HW238844   2.040   0.552   3.868 -1.4628 -0.0052  0.3915
 9070SOL     OW38845   1.164   4.551   3.487  0.2869 -0.2519 -0.2992
 9070SOL    HW138846   1.153   4.507   3.572  0.2215  0.0089 -0.1747
 9070SOL    HW238847   1.174   4.476   3.427 -0.9303 -1.5896  1.1680
 9071SOL     OW38848   2.057   1.709   8.510 -0.1567 -0.1740 -0.5006
 9071SOL    HW138849   2.033   1.627   8.553  1.3143 -0.6698 -0.6281
 9071SOL    HW238850   1.979   1.707   8.454 -1.9068 -0.3487  1.8886
 9072SOL     OW38851   0.142   3.461  11.442  0.5002  0.2510  0.2480
 9072SOL    HW138852   0.215   3.448  11.502  0.7783  0.0597 -0.1308
 9072SOL    HW238853   0.131   3.375  11.401  1.5944 -0.0101  0.4947
 9073SOL     OW38854   1.234   3.459   7.016  0.1931 -0.0409  0.2836
 9073SOL    HW138855   1.205   3.381   6.969 -0.7779 -0.5467  1.7085
 9073SOL    HW238856   1.325   3.440   7.036  1.0305  1.3488 -2.1579
 9074SOL     OW38857   4.535   3.637   5.620  1.2760  0.3038  0.4610
 9074SOL    HW138858   4.542   3.625   5.525  0.3491 -0.9662  0.5513
 9074SOL    HW238859   4.524   3.731   5.627  0.7610  0.2421  0.4945
 9075SOL     OW38860   4.411   0.370   7.817 -0.2505 -1.3528 -0.1481
 9075SOL    HW138861   4.342   0.437   7.822 -1.4336 -2.4254 -2.1511
 9075SOL    HW238862   4.457   0.418   7.748  0.5556 -0.1626  1.2067
 9076SOL     OW38863   4.048   2.045   3.895 -0.1171  0.0766  0.1658
 9076SOL    HW138864   4.128   1.993   3.902 -0.2788 -0.1980 -0.0426
 9076SOL    HW238865   3.981   1.979   3.915 -0.4525  0.3476 -0.0660
 9077SOL     OW38866   0.284   2.043   6.340  0.1540  0.4907 -0.1154
 9077SOL    HW138867   0.353   2.034   6.273  0.6730  0.0312  0.4798
 9077SOL    HW238868   0.311   1.997   6.419 -1.9899  1.6184  1.2377
 9078SOL     OW38869   0.138   1.267   8.466  0.2687 -0.3268 -0.3514
 9078SOL    HW138870   0.100   1.278   8.553  2.1982 -0.5956  0.5383
 9078SOL    HW238871   0.209   1.206   8.488  1.1527  0.5800 -0.7095
 9079SOL     OW38872   0.474   2.698  13.122 -0.3797  0.1325  0.1400
 9079SOL    HW138873   0.530   2.658  13.056  0.8203  0.0355  1.2144
 9079SOL    HW238874   0.498   2.639  13.194 -0.5384 -0.4355 -0.2735
 9080SOL     OW38875   1.860   1.326  10.063  0.1765  0.2395 -0.4772
 9080SOL    HW138876   1.912   1.316  10.143 -1.6230 -0.1349  0.6303
 9080SOL    HW238877   1.883   1.418  10.049 -0.0033  0.3928  0.2869
 9081SOL     OW38878   2.714   1.035  10.512  0.5559  0.0227 -0.1562
 9081SOL    HW138879   2.694   0.963  10.571  0.3617 -0.3024 -0.6191
 9081SOL    HW238880   2.744   1.096  10.579  0.0386 -0.2337  0.3084
 9082SOL     OW38881   3.941   1.513   8.957  0.0637 -1.1086 -0.8550
 9082SOL    HW138882   3.875   1.561   9.006  2.6485  1.4273  0.1417
 9082SOL    HW238883   3.924   1.420   8.973 -1.2721 -0.7307 -0.0917
 9083SOL     OW38884   1.778   1.680  17.405 -0.4117  0.4368  0.0881
 9083SOL    HW138885   1.787   1.772  17.379 -0.9121 -0.8034 -4.5578
 9083SOL    HW238886   1.703   1.691  17.464  0.4742  1.0161  1.0843
 9084SOL     OW38887   0.608   3.317   3.957  0.0751 -0.4951  0.3459
 9084SOL    HW138888   0.569   3.353   4.037  0.4199 -1.0199  0.7505
 9084SOL    HW238889   0.688   3.370   3.956 -0.6725  0.5773 -2.1328
 9085SOL     OW38890   2.650   1.048   6.030 -0.2252  0.2130  0.1910
 9085SOL    HW138891   2.600   1.073   5.953  1.7036 -1.4618 -1.6000
 9085SOL    HW238892   2.606   1.103   6.095  0.2177  1.1186 -0.2883
 9086SOL     OW38893   2.843   2.085   1.882  0.0428 -0.0830 -0.2326
 9086SOL    HW138894   2.789   2.060   1.957  1.4628  0.9273  1.1570
 9086SOL    HW238895   2.777   2.122   1.823 -0.1511 -0.0272  0.0198
 9087SOL     OW38896   4.376   3.455  15.710  0.2245 -0.3098  0.5024
 9087SOL    HW138897   4.369   3.543  15.673 -1.1860 -0.6259  0.0004
 9087SOL    HW238898   4.433   3.481  15.782 -0.2511  4.8142 -0.9518
 9088SOL     OW38899   3.594   1.907   5.801 -0.4246 -0.4654 -0.2997
 9088SOL    HW138900   3.670   1.851   5.811  1.0338  0.9267 -3.6715
 9088SOL    HW238901   3.544   1.871   5.875  1.9009  0.5340  1.7579
 9089SOL     OW38902   3.317   2.186   8.250  0.0456 -0.2835 -0.1844
 9089SOL    HW138903   3.410   2.197   8.227 -0.3201  2.2302 -0.4540
 9089SOL    HW238904   3.298   2.130   8.175  0.8547 -0.0516 -0.5665
 9090SOL     OW38905   4.153   3.454   8.094 -0.4260 -0.2057  0.2372
 9090SOL    HW138906   4.209   3.421   8.024 -2.3317 -3.3873  0.1830
 9090SOL    HW238907   4.071   3.441   8.045 -0.5666  3.1858 -0.4371
 9091SOL     OW38908   3.658   4.039   8.306  1.0170  0.3558  0.2808
 9091SOL    HW138909   3.718   4.061   8.377 -0.4013  0.8043  1.3262
 9091SOL    HW238910   3.638   4.132   8.293  4.4204  1.4015  2.6522
 9092SOL     OW38911   2.817   2.627   9.731 -0.4198  0.9929 -0.3341
 9092SOL    HW138912   2.886   2.634   9.665  0.1070 -1.4383 -0.0414
 9092SOL    HW238913   2.830   2.705   9.784  4.1315 -0.4430  0.6683
 9093SOL     OW38914   3.022   0.398   2.601 -0.1770 -0.2090  0.1446
 9093SOL    HW138915   3.117   0.398   2.586 -0.1849 -0.7917  0.0747
 9093SOL    HW238916   3.010   0.451   2.680  0.3377 -3.2354  2.2447
 9094SOL     OW38917   2.883   1.888   1.327  0.0090  0.1867 -0.2626
 9094SOL    HW138918   2.879   1.832   1.405 -1.8123  1.4467  0.5406
 9094SOL    HW238919   2.954   1.942   1.363  0.5267  0.6594 -2.0093
 9095SOL     OW38920   2.010   4.470   2.411 -0.5036  0.2801  0.2026
 9095SOL    HW138921   1.930   4.446   2.458 -0.4689  0.3744  0.3107
 9095SOL    HW238922   2.034   4.398   2.352  1.6374 -0.4855  2.0129
 9096SOL     OW38923   3.482   2.569   2.283 -1.0414  0.0769  0.6659
 9096SOL    HW138924   3.387   2.573   2.269 -1.1400  0.9993  1.6314
 9096SOL    HW238925   3.499   2.482   2.247  2.3736  0.0099  2.4956
 9097SOL     OW38926   0.471   3.924  16.279 -0.0386 -0.0190 -0.6569
 9097SOL    HW138927   0.542   3.939  16.342 -0.8188 -0.6659  0.3899
 9097SOL    HW238928   0.442   4.014  16.288  0.3323  0.2670 -2.4157
 9098SOL     OW38929   0.065   4.199   1.395  0.0264 -0.2838  0.8985
 9098SOL    HW138930   0.098   4.148   1.321 -0.3568 -0.4882  0.8648
 9098SOL    HW238931   0.038   4.279   1.351 -0.0715 -2.7683 -3.6647
 9099SOL     OW38932   2.644   4.405   3.953 -0.7775 -0.0559  0.3896
 9099SOL    HW138933   2.717   4.390   3.893 -1.4686 -0.5868 -0.3077
 9099SOL    HW238934   2.684   4.464   4.017 -0.4253  0.3163 -0.1725
 9100SOL     OW38935   2.923   2.876   3.492 -0.1913  0.3432  0.4380
 9100SOL    HW138936   2.985   2.809   3.523  1.3387  0.7866 -1.6790
 9100SOL    HW238937   2.973   2.958   3.500 -1.8098  1.4196 -0.5626
 9101SOL     OW38938   4.230   0.059   7.484 -0.3066  0.4313 -0.4012
 9101SOL    HW138939   4.232   0.052   7.388 -2.5128 -3.0344 -0.2215
 9101SOL    HW238940   4.136   0.059   7.500 -0.5268 -1.5977 -1.6285
 9102SOL     OW38941   3.153   2.478   4.119  0.3596  0.1761 -0.0696
 9102SOL    HW138942   3.224   2.478   4.055 -0.9944  0.0404 -1.5825
 9102SOL    HW238943   3.209   2.470   4.197  1.2686 -0.3812 -0.7696
 9103SOL     OW38944   4.283   1.802  13.635 -0.5834  0.2582  0.4023
 9103SOL    HW138945   4.313   1.732  13.577  0.1305  0.7716  0.1656
 9103SOL    HW238946   4.310   1.778  13.724  0.8934  1.0334  0.1526
 9104SOL     OW38947   3.974   3.656   0.276  0.3466 -0.6858 -0.2960
 9104SOL    HW138948   4.006   3.695   0.358  2.1881 -0.7582 -0.9661
 9104SOL    HW238949   3.940   3.736   0.235 -0.0215 -0.9413 -0.4862
 9105SOL     OW38950   0.141   0.349   7.487  0.5006  0.0761 -0.0379
 9105SOL    HW138951   0.175   0.263   7.511 -0.9963 -0.4466  0.1961
 9105SOL    HW238952   0.165   0.399   7.565  1.1423  0.2601 -0.3508
 9106SOL     OW38953   4.076   4.586   7.999  0.2114  0.0976  0.6242
 9106SOL    HW138954   4.169   4.606   8.009  0.2040  0.0064  0.8704
 9106SOL    HW238955   4.043   4.666   7.957  1.5556  0.2370 -0.1550
 9107SOL     OW38956   2.856   0.382   3.266  0.1679 -0.2348  0.2595
 9107SOL    HW138957   2.869   0.307   3.324 -0.2139 -0.0601  0.5724
 9107SOL    HW238958   2.796   0.347   3.199  1.7106 -0.6933 -0.8724
 9108SOL     OW38959   2.127   1.796   2.917 -0.4967  1.3082 -0.0898
 9108SOL    HW138960   2.127   1.701   2.925 -0.6986  1.4063  1.0756
 9108SOL    HW238961   2.216   1.802   2.883 -0.0305 -1.1905  0.7114
 9109SOL     OW38962   2.867   3.567   5.539  0.1225  0.2755 -0.2339
 9109SOL    HW138963   2.815   3.505   5.489 -0.2102  0.3312  0.0432
 9109SOL    HW238964   2.924   3.505   5.585 -1.0109  1.0578  2.2426
 9110SOL     OW38965   1.703   2.237   9.173 -0.2610 -0.0435  0.2135
 9110SOL    HW138966   1.643   2.299   9.130 -1.6205 -0.0015  2.1289
 9110SOL    HW238967   1.760   2.304   9.212 -3.0415  1.6566  1.3919
 9111SOL     OW38968   0.250   2.962   9.159 -0.4895 -0.5603 -0.3270
 9111SOL    HW138969   0.187   2.971   9.230  1.1371 -1.1077  1.1795
 9111SOL    HW238970   0.255   2.866   9.157 -0.3673 -0.5465 -0.7930
 9112SOL     OW38971   2.176   0.550  16.582  0.1251  0.3325  0.4487
 9112SOL    HW138972   2.150   0.559  16.490  1.2547  0.0249  0.1015
 9112SOL    HW238973   2.107   0.593  16.634  1.4877 -0.2403  2.7328
 9113SOL     OW38974   4.264   0.389  12.496 -0.1064 -0.2888  0.0423
 9113SOL    HW138975   4.241   0.366  12.406 -2.5341  1.3569  0.2388
 9113SOL    HW238976   4.283   0.304  12.534 -0.7385 -1.9015 -3.2926
 9114SOL     OW38977   0.105   1.957   3.749  0.0843  0.3177  0.1222
 9114SOL    HW138978   0.196   1.954   3.720  0.6910 -1.2326  2.1401
 9114SOL    HW238979   0.088   1.863   3.736  2.5369  0.0271 -0.9014
 9115SOL     OW38980   4.387   2.862   9.069  0.4252  0.1663 -0.1152
 9115SOL    HW138981   4.382   2.940   9.013 -0.4754  2.1415  2.6946
 9115SOL    HW238982   4.381   2.904   9.155 -3.1725  0.8827 -0.7053
 9116SOL     OW38983   3.167   1.625   3.940  0.5303 -0.3137 -0.0168
 9116SOL    HW138984   3.135   1.550   3.990 -0.0516 -1.8424 -2.6725
 9116SOL    HW238985   3.230   1.588   3.878  1.6927  1.2557  0.2387
 9117SOL     OW38986   0.851   1.008   5.411 -0.0913  0.6400 -0.2838
 9117SOL    HW138987   0.759   1.021   5.434  0.0679  0.3136  0.5136
 9117SOL    HW238988   0.838   0.959   5.330 -2.3641 -0.1868  0.5690
 9118SOL     OW38989   4.542   0.698   3.701 -0.1746  0.5210  0.2455
 9118SOL    HW138990   4.615   0.641   3.724 -2.2161 -2.0862  0.3102
 9118SOL    HW238991   4.477   0.629   3.715 -1.1040  1.2176 -0.6276
 9119SOL     OW38992   1.946   4.615   2.197 -0.0363 -0.5010 -0.2290
 9119SOL    HW138993   1.856   4.586   2.209 -0.8331  1.5724 -1.1435
 9119SOL    HW238994   1.980   4.610   2.287 -1.4942  2.8484  0.5180
 9120SOL     OW38995   3.768   3.660   5.635 -0.3067  0.0332  0.3010
 9120SOL    HW138996   3.837   3.599   5.607 -1.8011 -0.0018 -3.3482
 9120SOL    HW238997   3.703   3.649   5.565  0.3192 -0.6835 -0.1730
 9121SOL     OW38998   4.034   4.027   6.506 -0.0381 -0.0672 -0.9246
 9121SOL    HW138999   3.954   4.045   6.555  0.1371 -0.7235 -0.3913
 9121SOL    HW239000   4.006   3.955   6.449 -0.8295  0.7919 -1.6172
 9122SOL     OW39001   1.244   0.389  11.769 -0.3175  0.1850  0.6004
 9122SOL    HW139002   1.299   0.448  11.717  0.2172  0.8018  1.8550
 9122SOL    HW239003   1.264   0.304  11.730 -0.0728  1.0589 -1.2076
 9123SOL     OW39004   0.178   3.653   1.096 -0.0422  0.5336 -0.4298
 9123SOL    HW139005   0.157   3.561   1.086 -2.3101  1.0172 -0.1008
 9123SOL    HW239006   0.120   3.673   1.169  0.9341 -1.8109  0.9640
 9124SOL     OW39007   0.081   4.609   0.801 -0.3178 -0.8342 -0.3567
 9124SOL    HW139008   0.097   4.702   0.785 -2.6113 -0.7049 -1.9736
 9124SOL    HW239009   0.075   4.603   0.896 -0.1108 -1.2857 -0.3724
 9125SOL     OW39010   2.675   0.774   1.810  0.2410 -0.1943  0.1807
 9125SOL    HW139011   2.757   0.757   1.855 -0.0351 -2.2710 -0.1151
 9125SOL    HW239012   2.614   0.789   1.883 -2.1748 -0.7549 -1.7204
 9126SOL     OW39013   1.376   4.574   6.414 -0.1947 -0.5568  0.0768
 9126SOL    HW139014   1.358   4.483   6.440 -1.8639 -1.0001 -2.5840
 9126SOL    HW239015   1.317   4.630   6.464 -0.7773 -0.5659 -0.5982
 9127SOL     OW39016   0.728   4.185  11.168 -0.4179 -0.2066  0.3224
 9127SOL    HW139017   0.745   4.207  11.259 -0.4186  0.6840  0.1028
 9127SOL    HW239018   0.759   4.266  11.128 -0.6694  0.3415  1.2416
 9128SOL     OW39019   3.501   4.577   1.419 -0.2400 -0.9133  0.5566
 9128SOL    HW139020   3.507   4.497   1.472  0.9581 -1.0025  0.2809
 9128SOL    HW239021   3.567   4.629   1.465  1.1643  1.0080 -3.6103
 9129SOL     OW39022   3.898   0.681   5.587  0.1447 -0.0657  0.2500
 9129SOL    HW139023   3.959   0.607   5.597  1.2167  0.8361  0.3823
 9129SOL    HW239024   3.822   0.639   5.546  0.1248 -0.7583  0.9766
 9130SOL     OW39025   0.675   1.583   9.808 -0.2252  0.2033 -0.6280
 9130SOL    HW139026   0.604   1.524   9.834  0.8351  0.1140  1.9965
 9130SOL    HW239027   0.702   1.538   9.728  0.0234  0.9270 -0.9488
 9131SOL     OW39028   2.161   4.662   5.760  0.7388 -0.5245  0.0824
 9131SOL    HW139029   2.168   4.585   5.703 -0.8228 -0.0228 -0.7844
 9131SOL    HW239030   2.220   4.717   5.709  0.2403 -2.0921 -2.1467
 9132SOL     OW39031   2.198   4.187   2.327 -0.2356 -0.0441  0.4504
 9132SOL    HW139032   2.211   4.178   2.233 -1.0383 -1.3719  0.4667
 9132SOL    HW239033   2.241   4.105   2.352  2.7125  0.7819 -1.8712
 9133SOL     OW39034   1.626   4.730   7.806  0.1419  0.3734 -0.1550
 9133SOL    HW139035   1.672   0.025   7.883  0.9956 -0.6379 -0.2329
 9133SOL    HW239036   1.544   4.697   7.840  0.6592 -0.2627  0.4669
 9134SOL     OW39037   1.532   2.033   7.875 -0.2190 -0.4817  0.1516
 9134SOL    HW139038   1.587   1.958   7.899 -0.4408 -0.6604  0.1067
 9134SOL    HW239039   1.447   1.988   7.877 -1.2258  1.3272 -1.9408
 9135SOL     OW39040   3.247   0.101   9.697  0.0026  0.2831 -0.5000
 9135SOL    HW139041   3.293   0.086   9.779 -1.1862  1.4349  0.3858
 9135SOL    HW239042   3.319   0.123   9.639  0.6809  2.1414  1.0471
 9136SOL     OW39043   4.639   0.284   0.913  0.1849 -0.3779 -0.7017
 9136SOL    HW139044   4.627   0.357   0.853 -2.1072 -2.1164 -2.3820
 9136SOL    HW239045   4.600   0.318   0.994 -1.3288  0.2855 -1.7151
 9137SOL     OW39046   3.071   1.726  12.322 -0.1234  0.1567  0.0582
 9137SOL    HW139047   3.145   1.765  12.277 -1.5470  0.6974 -1.8313
 9137SOL    HW239048   3.029   1.702  12.240 -0.0811  1.0490 -0.2198
 9138SOL     OW39049   2.811   4.022   6.011 -0.4813 -0.1620 -0.2443
 9138SOL    HW139050   2.843   4.035   5.922  1.1927 -0.8391  0.2365
 9138SOL    HW239051   2.897   4.010   6.053  0.2572 -1.0541 -1.9954
 9139SOL     OW39052   1.790   2.294   3.773 -0.8588  0.4567  0.1477
 9139SOL    HW139053   1.762   2.343   3.696 -0.7433  3.0923  1.7478
 9139SOL    HW239054   1.757   2.342   3.849  1.1358 -1.4124  2.2042
 9140SOL     OW39055   3.847   1.135   6.982  0.1781 -0.2856 -0.4092
 9140SOL    HW139056   3.792   1.211   7.002  1.1071  0.6248 -1.3302
 9140SOL    HW239057   3.936   1.169   6.992  0.0907  0.1094 -1.0042
 9141SOL     OW39058   2.179   4.515   8.389  0.5504 -0.3357  0.2003
 9141SOL    HW139059   2.216   4.497   8.475  1.6194  0.1212 -0.1687
 9141SOL    HW239060   2.094   4.471   8.385  0.9798 -1.3019  1.6041
 9142SOL     OW39061   1.157   3.705   6.781 -0.0057  0.1042  0.0067
 9142SOL    HW139062   1.220   3.681   6.712  0.5837  1.3453  0.1181
 9142SOL    HW239063   1.198   3.769   6.839  0.0366 -0.4352  0.5719
 9143SOL     OW39064   0.814   1.034   0.191 -0.2792 -0.4341 -0.0164
 9143SOL    HW139065   0.866   0.992   0.123 -0.0996  1.1266 -0.8428
 9143SOL    HW239066   0.814   1.126   0.164 -0.7158 -0.1377  0.9802
 9144SOL     OW39067   1.097   0.924   4.212 -0.7205  0.2951 -0.0236
 9144SOL    HW139068   1.180   0.967   4.191 -0.9154  1.1535  0.9543
 9144SOL    HW239069   1.060   0.905   4.126  1.4846  0.4036 -0.9891
 9145SOL     OW39070   1.711   1.007   4.475 -0.2394  0.3673 -0.4385
 9145SOL    HW139071   1.667   1.084   4.511 -0.0791 -0.6593  1.9939
 9145SOL    HW239072   1.801   1.033   4.455 -0.4300  0.6165 -0.9671
 9146SOL     OW39073   3.455   4.395  12.573  0.2989  0.0002  0.3496
 9146SOL    HW139074   3.524   4.358  12.517 -2.2425 -1.0387 -2.1403
 9146SOL    HW239075   3.511   4.446  12.632 -2.2237  1.9925  1.0258
 9147SOL     OW39076   3.428   0.730   8.142  0.2491  0.2426 -0.2790
 9147SOL    HW139077   3.436   0.808   8.088  1.5710 -0.2704 -0.8253
 9147SOL    HW239078   3.347   0.755   8.186  0.0861  0.3265 -0.6289
 9148SOL     OW39079   3.870   2.407   7.032  0.1598  0.2292  0.0788
 9148SOL    HW139080   3.848   2.409   7.126 -0.2503 -0.4972 -0.0048
 9148SOL    HW239081   3.852   2.316   7.008 -3.1195  1.2507 -1.3920
 9149SOL     OW39082   0.684   3.982   9.367 -0.3340  0.2460  0.7609
 9149SOL    HW139083   0.657   3.914   9.429  0.6197  0.8986  1.8766
 9149SOL    HW239084   0.620   4.050   9.386  1.6917  2.1995  0.5444
 9150SOL     OW39085   4.593   2.359   3.229  0.3320  0.0045 -0.2106
 9150SOL    HW139086   4.610   2.329   3.318 -2.5424  0.6823  0.5528
 9150SOL    HW239087   4.609   2.452   3.246 -0.5003 -0.1623  1.5211
 9151SOL     OW39088   1.433   4.378  16.065  0.1755  0.2517 -0.2475
 9151SOL    HW139089   1.354   4.334  16.035 -0.3637 -1.2198  3.3188
 9151SOL    HW239090   1.462   4.416  15.982  1.4166 -0.6193 -0.2135
 9152SOL     OW39091   2.689   0.038  12.489  1.0491  0.2574  0.5053
 9152SOL    HW139092   2.651   0.111  12.441  1.0097  0.6968  1.2046
 9152SOL    HW239093   2.721   0.077  12.571  1.2444  2.8625 -0.7882
 9153SOL     OW39094   0.851   1.154   6.567 -0.5649  0.3457  0.6491
 9153SOL    HW139095   0.885   1.188   6.484 -0.1745  0.4459  0.8549
 9153SOL    HW239096   0.908   1.195   6.632 -1.1742  0.1407  1.3087
 9154SOL     OW39097   4.157   0.214  15.038 -0.4948  0.1160 -0.8236
 9154SOL    HW139098   4.231   0.270  15.062  1.7298 -3.0047 -0.2569
 9154SOL    HW239099   4.093   0.237  15.105  0.9946  0.2457  0.5523
 9155SOL     OW39100   4.079   2.355   7.798  0.2339  0.2292 -0.1917
 9155SOL    HW139101   4.041   2.437   7.767  0.1138 -0.0659 -0.8301
 9155SOL    HW239102   4.149   2.326   7.741  1.1375 -0.8748  1.4852
 9156SOL     OW39103   3.395   3.902   6.763  0.0418  0.0565 -0.0243
 9156SOL    HW139104   3.307   3.921   6.732 -1.8584 -1.9210  4.1074
 9156SOL    HW239105   3.407   3.811   6.735  0.0842  0.2203 -0.5319
 9157SOL     OW39106   1.277   0.822   9.417  0.0474  0.4749  0.3343
 9157SOL    HW139107   1.322   0.819   9.501  1.5776 -2.4293 -0.5690
 9157SOL    HW239108   1.331   0.781   9.349  1.3064  1.7814  0.5491
 9158SOL     OW39109   0.118   3.252   6.258 -0.5848  0.3915 -0.5684
 9158SOL    HW139110   0.027   3.229   6.279 -0.3054  0.3886  0.6519
 9158SOL    HW239111   0.112   3.345   6.278  1.4753  0.4157 -0.1274
 9159SOL     OW39112   1.534   1.408   2.039 -0.4809 -0.1131  0.6836
 9159SOL    HW139113   1.596   1.439   2.105  0.5272  1.2783 -0.9115
 9159SOL    HW239114   1.555   1.315   2.046 -0.2206 -0.1531 -0.6317
 9160SOL     OW39115   3.773   3.400   7.057  0.0626 -0.9555  0.0419
 9160SOL    HW139116   3.816   3.425   6.976  1.0591  0.2214  0.9302
 9160SOL    HW239117   3.742   3.486   7.085  0.6962 -0.6930 -0.0780
 9161SOL     OW39118   0.501   2.293   7.397 -0.2314 -0.3498 -0.3207
 9161SOL    HW139119   0.578   2.244   7.425 -0.4332 -1.1595 -1.1992
 9161SOL    HW239120   0.542   2.352   7.334 -0.8668 -1.3079 -1.6058
 9162SOL     OW39121   3.410   2.545   2.550  0.7011 -0.5046 -0.2359
 9162SOL    HW139122   3.351   2.472   2.533 -0.8441  0.7553 -0.2115
 9162SOL    HW239123   3.455   2.541   2.465 -0.4837  1.0288 -0.9202
 9163SOL     OW39124   3.581   2.055  13.712 -0.2845  0.4168  0.8568
 9163SOL    HW139125   3.662   2.058  13.761  0.0871  0.6066  0.2292
 9163SOL    HW239126   3.617   2.095  13.632 -1.7229  0.0721  0.0356
 9164SOL     OW39127   4.548   2.619   3.435  0.4949 -0.2058  0.2665
 9164SOL    HW139128   4.616   2.683   3.457  1.0622 -0.5566 -0.4594
 9164SOL    HW239129   4.529   2.576   3.518  1.9425 -1.4261 -0.0416
 9165SOL     OW39130   3.763   2.137   5.201 -0.2295  0.2301 -0.7380
 9165SOL    HW139131   3.797   2.220   5.234 -1.4946  0.2455  0.5007
 9165SOL    HW239132   3.751   2.103   5.290  0.6444  0.9973 -0.3265
 9166SOL     OW39133   0.582   2.056   2.312 -0.3885 -0.0782  0.4684
 9166SOL    HW139134   0.558   1.981   2.259 -0.6795 -0.3319  0.9568
 9166SOL    HW239135   0.531   2.125   2.269 -0.9290  0.0309  1.2810
 9167SOL     OW39136   2.197   0.100   3.767  0.0203 -0.0802  0.1969
 9167SOL    HW139137   2.137   0.074   3.837  0.8147  4.6214  2.6574
 9167SOL    HW239138   2.270   0.127   3.822  0.8494  0.7225 -1.3006
 9168SOL     OW39139   1.977   0.911   6.354  0.1270  0.5148  0.2016
 9168SOL    HW139140   2.034   0.906   6.431 -1.3785 -1.8689  1.1766
 9168SOL    HW239141   1.936   0.992   6.382 -0.0223  1.1261 -1.8044
 9169SOL     OW39142   2.248   4.539   6.661  0.5491  0.2493  0.3218
 9169SOL    HW139143   2.209   4.458   6.693  0.1116 -0.6181 -2.4113
 9169SOL    HW239144   2.339   4.517   6.639 -0.0459 -1.3293 -0.5967
 9170SOL     OW39145   0.339   0.618  11.285 -0.1199  0.3465  0.5922
 9170SOL    HW139146   0.410   0.675  11.255  0.2691 -1.3147 -1.6026
 9170SOL    HW239147   0.380   0.589  11.367 -0.5004  0.9381  0.9956
 9171SOL     OW39148   0.078   1.016   3.661 -0.1085 -0.4790  0.3758
 9171SOL    HW139149   0.116   0.928   3.660  0.7066 -0.1222 -0.1706
 9171SOL    HW239150   0.101   1.050   3.574  0.7280  0.9037  1.1377
 9172SOL     OW39151   2.934   2.107   8.072 -0.2792 -0.4670 -0.0542
 9172SOL    HW139152   2.988   2.030   8.087  0.0186  0.2288  2.4448
 9172SOL    HW239153   2.996   2.168   8.113 -0.5143 -0.3645  0.1555
 9173SOL     OW39154   1.657   1.492   3.867 -0.3252  0.3527 -0.5860
 9173SOL    HW139155   1.719   1.484   3.795 -0.2715  1.2952 -0.6469
 9173SOL    HW239156   1.676   1.406   3.905 -1.3428 -0.1976 -1.2953
 9174SOL     OW39157   3.116   4.126   3.241 -0.6205  0.7072  0.1187
 9174SOL    HW139158   3.028   4.087   3.242 -0.2291 -0.2183 -1.3621
 9174SOL    HW239159   3.146   4.126   3.331 -0.5445  0.9956  0.0937
 9175SOL     OW39160   3.665   4.132   3.400 -0.3491  0.1207 -0.1364
 9175SOL    HW139161   3.758   4.142   3.382 -0.2148 -0.2894  0.3375
 9175SOL    HW239162   3.680   4.088   3.484  1.5811 -0.1437 -0.6207
 9176SOL     OW39163   1.403   4.712   9.488 -0.1534 -0.4552 -0.1201
 9176SOL    HW139164   1.497   4.729   9.491 -0.4297  0.5258  3.5043
 9176SOL    HW239165   1.360   0.045   9.441  0.5747 -1.2318 -1.9618
 9177SOL     OW39166   1.336   2.699   7.934  0.2655  0.0946  0.2395
 9177SOL    HW139167   1.407   2.763   7.941  0.0499  0.4055 -0.4266
 9177SOL    HW239168   1.261   2.757   7.924 -0.4237 -0.8381  0.0597
 9178SOL     OW39169   1.046   1.771   9.881  0.0920  0.1727  0.5388
 9178SOL    HW139170   1.111   1.715   9.923 -0.2186  1.7904  3.1549
 9178SOL    HW239171   0.972   1.747   9.936  0.1320 -0.1903  0.4332
 9179SOL     OW39172   1.534   0.191   9.059  0.0998 -0.2339 -0.6042
 9179SOL    HW139173   1.446   0.162   9.082 -1.5052  3.0217 -2.6197
 9179SOL    HW239174   1.519   0.194   8.964 -1.0625 -1.1862 -0.4503
 9180SOL     OW39175   2.115   1.600   7.524  0.2297 -0.0512  0.3092
 9180SOL    HW139176   2.170   1.571   7.451 -0.8902  1.4656 -1.1721
 9180SOL    HW239177   2.116   1.514   7.565  2.7727 -1.1439 -2.0540
 9181SOL     OW39178   3.881   3.292   4.710 -0.3133  0.4570  0.0649
 9181SOL    HW139179   3.808   3.299   4.649  0.1959  1.5322 -0.4339
 9181SOL    HW239180   3.837   3.245   4.780 -1.5944  0.6569 -0.6035
 9182SOL     OW39181   3.889   4.147   2.115 -0.2766 -0.1286  1.0579
 9182SOL    HW139182   3.840   4.071   2.084 -0.1334 -0.0307  0.5889
 9182SOL    HW239183   3.850   4.221   2.068 -2.7596 -2.0199  0.1491
 9183SOL     OW39184   3.485   1.330   1.339 -0.3536 -0.5596  0.0938
 9183SOL    HW139185   3.411   1.275   1.364  0.4044 -2.2038 -1.2452
 9183SOL    HW239186   3.490   1.389   1.415  1.9063  0.7571 -1.0631
 9184SOL     OW39187   4.455   0.526   9.538  0.2708  0.3222  0.0880
 9184SOL    HW139188   4.365   0.550   9.515  0.5427  1.9723  0.8091
 9184SOL    HW239189   4.494   0.531   9.451 -0.3234 -0.7950 -0.2496
 9185SOL     OW39190   2.720   2.595   8.317 -0.3561 -0.3898 -0.7507
 9185SOL    HW139191   2.688   2.603   8.227 -2.5267 -1.0803 -0.0582
 9185SOL    HW239192   2.678   2.512   8.341  0.5886 -0.9401 -1.0166
 9186SOL     OW39193   0.719   0.587  12.367 -0.1572 -0.3433  0.1787
 9186SOL    HW139194   0.761   0.566  12.284 -0.0365 -0.6386  0.3144
 9186SOL    HW239195   0.796   0.566  12.420 -1.5679 -1.8815  1.6159
 9187SOL     OW39196   1.224   2.932   8.321 -0.2241 -0.2275 -0.0041
 9187SOL    HW139197   1.307   2.913   8.278  0.4144  1.1801  0.6121
 9187SOL    HW239198   1.257   2.962   8.406 -0.2974  1.0445 -0.4195
 9188SOL     OW39199   2.824   2.723   4.570 -0.0948 -0.0298  0.3006
 9188SOL    HW139200   2.917   2.724   4.593 -0.0209  0.7021 -0.0413
 9188SOL    HW239201   2.827   2.736   4.475  1.8196 -0.5100  0.3083
 9189SOL     OW39202   0.327   2.638   2.337 -0.2237 -0.0156  0.3400
 9189SOL    HW139203   0.300   2.573   2.402 -0.8141 -1.0582 -0.9473
 9189SOL    HW239204   0.368   2.702   2.395 -0.8141 -0.0291  0.7779
 9190SOL     OW39205   1.016   4.721   7.792  0.9156 -0.3754 -0.0531
 9190SOL    HW139206   1.003   4.716   7.698  1.1566 -1.5646 -0.0326
 9190SOL    HW239207   1.027   0.072   7.822 -2.1761 -0.1790  0.5588
 9191SOL     OW39208   0.978   0.332   0.224  0.0827  0.1058 -0.2223
 9191SOL    HW139209   1.020   0.377   0.297 -2.1662  1.3764  0.2696
 9191SOL    HW239210   0.931   0.395   0.169  0.0461  0.5383  0.3132
 9192SOL     OW39211   1.206   3.236   5.374 -0.6997  0.1342 -0.6717
 9192SOL    HW139212   1.277   3.297   5.393 -1.1729 -0.5133  3.1896
 9192SOL    HW239213   1.137   3.284   5.329  0.4239  2.5777  0.2490
 9193SOL     OW39214   2.233   4.563   9.345  0.2239  0.1419  0.0149
 9193SOL    HW139215   2.188   4.638   9.384 -1.3309 -1.4726  1.3314
 9193SOL    HW239216   2.181   4.545   9.266  0.2939 -0.8076  0.1897
 9194SOL     OW39217   3.385   3.212  12.551 -0.3087 -0.2839  0.5226
 9194SOL    HW139218   3.316   3.237  12.490 -1.5419 -0.8622  1.6880
 9194SOL    HW239219   3.452   3.270  12.514 -2.5301  0.9087 -1.5902
 9195SOL     OW39220   0.893   2.829   7.556  0.3507  0.2264  0.0492
 9195SOL    HW139221   0.832   2.893   7.593  0.8645  1.2476 -0.8867
 9195SOL    HW239222   0.939   2.790   7.631  0.4823  0.6961  0.2159
 9196SOL     OW39223   1.682   0.810   9.677  0.1430  0.3456 -0.1588
 9196SOL    HW139224   1.743   0.878   9.649  0.6969 -0.2042 -0.2765
 9196SOL    HW239225   1.745   0.751   9.718 -0.6119 -0.9862 -0.9524
 9197SOL     OW39226   1.077   3.006   4.074 -0.8411 -0.3756  0.1800
 9197SOL    HW139227   1.056   3.030   4.165 -0.7990 -3.0379  0.8863
 9197SOL    HW239228   1.134   3.078   4.049 -1.3987  0.4994  1.3885
 9198SOL     OW39229   1.425   2.462  13.444 -0.1857 -0.3607  0.0159
 9198SOL    HW139230   1.486   2.533  13.465  0.1009 -0.5379 -0.2137
 9198SOL    HW239231   1.462   2.434  13.360 -0.2918  1.4243 -0.6359
 9199SOL     OW39232   0.933   0.627  11.413 -0.5398 -0.5728  0.6089
 9199SOL    HW139233   0.863   0.691  11.401 -1.5632 -1.8146 -0.0669
 9199SOL    HW239234   0.917   0.567  11.340  1.8377 -0.7345  0.2297
 9200SOL     OW39235   2.885   1.414  12.329 -0.6976  0.2349 -0.4054
 9200SOL    HW139236   2.861   1.322  12.338  1.0960 -0.0512  1.3016
 9200SOL    HW239237   2.831   1.443  12.256  1.8626  0.3085 -2.2754
 9201SOL     OW39238   2.236   0.254   7.401  0.5680  1.2159  0.5595
 9201SOL    HW139239   2.237   0.334   7.453  0.7371  0.7325  1.2933
 9201SOL    HW239240   2.164   0.203   7.438 -1.2657  3.0384 -0.4917
 9202SOL     OW39241   3.277   1.569   6.311 -0.5766 -0.1978 -0.5784
 9202SOL    HW139242   3.368   1.549   6.289 -0.7261 -2.3601  0.8324
 9202SOL    HW239243   3.266   1.652   6.264  0.3290  0.8523  1.0701
 9203SOL     OW39244   0.999   3.240   7.525 -0.5502  0.4249  0.1118
 9203SOL    HW139245   0.994   3.312   7.587 -1.6169  1.7613 -1.5139
 9203SOL    HW239246   0.908   3.212   7.513 -0.4572  0.4531 -0.6587
 9204SOL     OW39247   2.362   3.905   3.200 -0.0209 -0.6841  0.1882
 9204SOL    HW139248   2.411   3.865   3.129  0.0140  0.2078 -0.2946
 9204SOL    HW239249   2.277   3.883   3.161  0.2738 -2.0265  0.3175
 9205SOL     OW39250   0.128   0.153  11.097 -0.0203  0.6372  0.0262
 9205SOL    HW139251   0.136   0.242  11.131  2.9274  0.6686 -0.7910
 9205SOL    HW239252   0.100   0.107  11.177  0.1418 -0.9134 -0.8061
 9206SOL     OW39253   1.475   3.066  17.027 -0.4652  0.2650 -0.0310
 9206SOL    HW139254   1.546   3.036  16.971  0.8494  0.1511  1.7058
 9206SOL    HW239255   1.404   3.016  16.987  0.1761 -0.5379 -0.1624
 9207SOL     OW39256   4.260   4.135  15.527  0.0492 -0.0680  0.7066
 9207SOL    HW139257   4.172   4.173  15.537 -0.1887 -0.8497  1.6818
 9207SOL    HW239258   4.304   4.197  15.469 -1.0001 -0.2522 -0.2910
 9208SOL     OW39259   4.024   2.985   8.874  0.6660  0.1102 -0.5631
 9208SOL    HW139260   4.039   3.078   8.858 -0.8799  0.0571 -2.3496
 9208SOL    HW239261   4.090   2.945   8.817  1.4624  1.0650 -0.3088
 9209SOL     OW39262   0.798   0.452   9.935  0.4351  0.4356  0.4137
 9209SOL    HW139263   0.828   0.409   9.855 -0.3838  0.6154  0.0058
 9209SOL    HW239264   0.741   0.382   9.967 -0.6824  2.2800  2.4615
 9210SOL     OW39265   0.604   4.639   6.022 -0.5412 -0.2913 -0.2459
 9210SOL    HW139266   0.594   4.569   6.087 -0.1266  0.2339  0.3840
 9210SOL    HW239267   0.632   4.591   5.944  1.2381  0.4759 -0.0755
 9211SOL     OW39268   4.366   0.782   9.852  0.2093 -0.3042 -0.2305
 9211SOL    HW139269   4.342   0.866   9.813  0.4311 -1.3574 -2.6013
 9211SOL    HW239270   4.286   0.729   9.852 -0.0907  0.1457  0.1731
 9212SOL     OW39271   1.662   0.658   4.285 -0.4680  0.3872  0.0428
 9212SOL    HW139272   1.632   0.605   4.359 -2.0364  0.8660 -0.2404
 9212SOL    HW239273   1.600   0.731   4.285  0.0551  0.8260 -0.2586
 9213SOL     OW39274   1.798   3.276   5.821 -0.5792 -0.4033  0.3093
 9213SOL    HW139275   1.790   3.268   5.726  0.2668 -0.2038  0.2191
 9213SOL    HW239276   1.889   3.246   5.826  0.0985  1.5072 -0.5974
 9214SOL     OW39277   3.119   0.141   1.573 -0.4490  0.3519  0.1801
 9214SOL    HW139278   3.082   0.127   1.660  0.4778 -0.4029  0.4480
 9214SOL    HW239279   3.183   0.069   1.569 -1.5007 -0.5466 -0.8765
 9215SOL     OW39280   4.650   2.000  16.002 -0.5082 -0.0903  0.0709
 9215SOL    HW139281   4.687   2.087  15.985  1.8774 -1.3105 -0.9638
 9215SOL    HW239282   4.620   1.969  15.917 -0.1919 -1.0189  0.3016
 9216SOL     OW39283   2.909   4.659   9.034  0.3707  0.2684  0.4160
 9216SOL    HW139284   2.887   4.659   9.128 -1.9377 -1.0504 -0.1213
 9216SOL    HW239285   2.961   0.000   9.025  0.2635  0.1600 -1.0785
 9217SOL     OW39286   4.441   2.686   2.050  0.1343 -0.3077 -0.5319
 9217SOL    HW139287   4.451   2.754   2.116 -0.2704 -1.8396  1.1068
 9217SOL    HW239288   4.529   2.649   2.063 -0.1847 -0.8036  0.2296
 9218SOL     OW39289   2.541   2.733  14.651 -0.0721 -0.2275  0.3319
 9218SOL    HW139290   2.472   2.783  14.606  1.9651  0.5435 -1.9300
 9218SOL    HW239291   2.622   2.734  14.600 -0.5647 -1.9957 -0.5002
 9219SOL     OW39292   2.283   0.876   8.137 -0.2066  0.8956  0.0910
 9219SOL    HW139293   2.376   0.854   8.133 -1.1898 -3.6720  2.6112
 9219SOL    HW239294   2.255   0.830   8.216  1.1690 -0.2358 -0.0849
 9220SOL     OW39295   0.879   2.085  14.112 -0.2855  0.0212  0.2954
 9220SOL    HW139296   0.843   2.162  14.155  0.8065  1.7690 -1.9548
 9220SOL    HW239297   0.803   2.027  14.112 -0.5753  0.4013  0.2100
 9221SOL     OW39298   1.434   4.014   2.056  0.0140 -0.0421 -0.6134
 9221SOL    HW139299   1.521   4.041   2.084  0.7330 -1.3961 -1.5193
 9221SOL    HW239300   1.414   4.083   1.993 -0.7579  0.7366  0.4800
 9222SOL     OW39301   0.918   0.652   6.602  0.1966  0.1257  0.2655
 9222SOL    HW139302   0.852   0.617   6.662  0.8783 -1.5762  0.0190
 9222SOL    HW239303   0.926   0.736   6.646  0.2780  0.6600 -0.7602
 9223SOL     OW39304   3.799   3.685   9.325  0.0198  0.2878  0.2489
 9223SOL    HW139305   3.799   3.780   9.340 -0.5245  0.5362 -1.2464
 9223SOL    HW239306   3.809   3.645   9.411 -2.3908 -1.9994 -0.5402
 9224SOL     OW39307   0.734   0.208   2.806 -0.6956 -0.1355  0.0922
 9224SOL    HW139308   0.760   0.116   2.811 -1.3802 -0.4178 -1.6016
 9224SOL    HW239309   0.640   0.193   2.811 -0.7232 -0.4968 -1.4338
 9225SOL     OW39310   0.755   3.726  17.493 -0.8152 -0.2566  0.8319
 9225SOL    HW139311   0.687   3.781  17.455 -0.6058 -0.6597 -0.1368
 9225SOL    HW239312   0.750   3.642  17.446 -0.6398 -0.1590  0.6408
 9226SOL     OW39313   2.844   2.064  16.972  0.3816  0.7749 -0.4340
 9226SOL    HW139314   2.838   2.062  17.067 -0.3977 -1.6781 -0.5370
 9226SOL    HW239315   2.818   2.154  16.951  1.5248  0.9178 -1.2653
 9227SOL     OW39316   4.442   1.016   8.152  0.4594 -0.3003 -0.4385
 9227SOL    HW139317   4.501   0.942   8.166 -0.4787 -0.7145  1.4587
 9227SOL    HW239318   4.401   1.032   8.238  0.4407 -1.2124 -0.2803
 9228SOL     OW39319   2.368   2.731  12.429 -0.2802  0.3645 -0.2959
 9228SOL    HW139320   2.445   2.757  12.378  0.5336 -0.5394  0.4873
 9228SOL    HW239321   2.407   2.727  12.516 -1.2175 -1.1492  0.0480
 9229SOL     OW39322   1.400   3.598   5.012 -0.0217 -0.0041 -0.6176
 9229SOL    HW139323   1.464   3.632   4.949  1.7493  0.6525  1.5599
 9229SOL    HW239324   1.393   3.676   5.068 -1.9170 -2.8200  3.0542
 9230SOL     OW39325   0.782   1.696   4.753 -0.2950  0.4634 -0.5296
 9230SOL    HW139326   0.862   1.670   4.707 -0.2053 -0.2740  0.0512
 9230SOL    HW239327   0.803   1.700   4.846 -0.5089  2.3581 -0.5617
 9231SOL     OW39328   3.160   2.313   6.002 -0.1520  0.0135  0.0515
 9231SOL    HW139329   3.216   2.270   5.937 -0.6741 -0.5646 -0.0117
 9231SOL    HW239330   3.077   2.324   5.957 -0.0258  1.5038  0.1665
 9232SOL     OW39331   4.171   1.700  17.007 -1.0044 -0.4763 -0.4792
 9232SOL    HW139332   4.076   1.690  17.013 -1.1419 -0.7933 -3.1442
 9232SOL    HW239333   4.194   1.637  16.939  3.2182 -0.7538  1.1876
 9233SOL     OW39334   1.772   4.722   6.292  0.2940 -0.6642 -0.4502
 9233SOL    HW139335   1.798   4.634   6.320  1.1582 -0.6400 -1.1768
 9233SOL    HW239336   1.855   0.026   6.313 -0.5004  0.2944  0.7424
 9234SOL     OW39337   3.088   2.539  15.379  0.2780  0.6031  1.1831
 9234SOL    HW139338   3.074   2.604  15.310 -0.2077 -0.9606 -0.1888
 9234SOL    HW239339   3.139   2.473  15.333 -0.3535  1.7982 -1.2292
 9235SOL     OW39340   4.040   0.611  17.551 -0.4591  0.3199 -0.3119
 9235SOL    HW139341   3.945   0.605  17.544 -0.5929  3.1465 -1.1918
 9235SOL    HW239342   4.054   0.703  17.525 -5.3142  1.2651  0.3833
 9236SOL     OW39343   3.179   3.679  14.876  0.1366 -0.2826  0.3221
 9236SOL    HW139344   3.122   3.602  14.872 -0.2405 -0.0569  1.3586
 9236SOL    HW239345   3.246   3.655  14.940  1.1993 -0.3180 -0.8024
 9237SOL     OW39346   2.289   2.823   4.072 -0.3837 -0.1572 -0.1632
 9237SOL    HW139347   2.336   2.774   4.005 -0.6640  0.9939 -1.1954
 9237SOL    HW239348   2.338   2.791   4.148 -2.6634 -0.7114  1.0751
 9238SOL     OW39349   3.293   3.515   3.080  0.1201  0.1947  0.0881
 9238SOL    HW139350   3.279   3.514   3.175 -0.1121 -0.5445  0.0520
 9238SOL    HW239351   3.358   3.584   3.066 -1.2303  1.0731 -1.8077
 9239SOL     OW39352   3.521   4.736   1.154 -0.0475  0.0841 -1.0502
 9239SOL    HW139353   3.429   0.015   1.173  0.3242 -0.8928  1.6648
 9239SOL    HW239354   3.549   4.681   1.227 -1.6724 -0.8997 -1.1733
 9240SOL     OW39355   3.202   0.898  16.785 -0.4628  0.6159  0.4911
 9240SOL    HW139356   3.136   0.933  16.845  0.2502  0.9686  1.0713
 9240SOL    HW239357   3.144   0.883  16.711 -0.4885 -1.0552  0.8426
 9241SOL     OW39358   3.453   1.656   3.500 -0.3558 -0.2157 -1.0891
 9241SOL    HW139359   3.475   1.735   3.549 -0.3633 -1.1642  0.4259
 9241SOL    HW239360   3.541   1.628   3.475  0.4066  0.7660  0.4993
 9242SOL     OW39361   0.411   0.594   2.653  0.3181  0.1087  0.4597
 9242SOL    HW139362   0.433   0.553   2.569 -0.0490  1.5266 -0.3188
 9242SOL    HW239363   0.383   0.516   2.701  2.1808  0.7033  2.5341
 9243SOL     OW39364   1.331   4.293   3.140 -0.0321  0.4669 -0.0920
 9243SOL    HW139365   1.267   4.299   3.211 -0.6068 -1.3068 -0.4455
 9243SOL    HW239366   1.414   4.310   3.184 -1.2600  3.2785  1.0901
 9244SOL     OW39367   3.993   4.003   0.759 -0.0527 -0.3594  0.1513
 9244SOL    HW139368   3.981   4.096   0.778  2.5175 -0.0619  0.2253
 9244SOL    HW239369   4.049   3.971   0.829  2.2354  0.9539 -1.0669
 9245SOL     OW39370   0.362   3.653   4.187 -0.0127 -0.2790 -0.4928
 9245SOL    HW139371   0.341   3.646   4.093 -0.0482  0.1913 -0.5180
 9245SOL    HW239372   0.280   3.688   4.222 -0.9185 -2.0821 -0.7838
 9246SOL     OW39373   3.579   1.718  13.886  0.2764 -0.1449 -0.6210
 9246SOL    HW139374   3.617   1.693  13.802  2.2139 -0.2100  0.2726
 9246SOL    HW239375   3.503   1.771  13.862  0.7303  1.7034  2.0259
 9247SOL     OW39376   2.894   1.038  13.603  0.8803 -0.1604  0.4480
 9247SOL    HW139377   2.878   0.951  13.566  0.2648  0.5239 -0.8925
 9247SOL    HW239378   2.953   1.072  13.535  1.9863 -0.4742  1.2565
 9248SOL     OW39379   3.339   0.258  17.135  0.0063 -0.0927 -0.3477
 9248SOL    HW139380   3.250   0.253  17.100  0.1251  0.6644 -0.7615
 9248SOL    HW239381   3.335   0.206  17.216  0.4653  0.8379  0.2650
 9249SOL     OW39382   2.947   3.791   3.942  0.2117  0.5366 -0.9499
 9249SOL    HW139383   3.006   3.833   4.004 -0.0958 -1.4913  0.6902
 9249SOL    HW239384   2.878   3.857   3.950 -1.0342 -0.6363 -2.2547
 9250SOL     OW39385   2.814   1.368   6.250 -0.6138  0.2318 -0.0480
 9250SOL    HW139386   2.909   1.362   6.257 -0.4086 -0.0524 -2.8261
 9250SOL    HW239387   2.802   1.461   6.232 -0.5513 -0.0419 -1.5535
 9251SOL     OW39388   2.170   3.419   1.458  0.3503 -0.2294 -0.0487
 9251SOL    HW139389   2.138   3.364   1.530 -2.5007 -1.4504 -2.2314
 9251SOL    HW239390   2.149   3.359   1.386 -1.3596 -0.5158  0.6723
 9252SOL     OW39391   4.091   3.449   9.271 -0.3533 -0.3458  1.0185
 9252SOL    HW139392   4.049   3.512   9.212 -1.2049  0.5236  2.5543
 9252SOL    HW239393   4.181   3.479   9.278 -0.6587  0.7836  0.1201
 9253SOL     OW39394   4.604   2.304   7.357  0.5662  0.3116  0.3884
 9253SOL    HW139395   4.566   2.376   7.407 -1.8125  0.7754 -2.0810
 9253SOL    HW239396   4.696   2.299   7.382  0.2219 -2.3012  1.1636
 9254SOL     OW39397   0.697   1.847   3.467 -0.2086 -0.2723  0.3997
 9254SOL    HW139398   0.687   1.818   3.558 -1.4747  0.7799  0.6080
 9254SOL    HW239399   0.755   1.923   3.473 -0.5330 -0.0623  0.8855
 9255SOL     OW39400   4.094   3.062   5.615  0.3304 -0.0282  0.3299
 9255SOL    HW139401   4.086   2.999   5.686  0.6613 -0.5952 -0.1303
 9255SOL    HW239402   4.072   3.144   5.658 -2.1986 -0.3358 -0.3418
 9256SOL     OW39403   4.481   2.847  11.941  0.0244 -0.5238 -0.3368
 9256SOL    HW139404   4.519   2.786  12.004  0.0713  0.1835  0.3225
 9256SOL    HW239405   4.490   2.813  11.851  1.5866 -0.3962 -0.2420
 9257SOL     OW39406   1.487   1.278   5.120 -0.2987 -0.0514 -0.3346
 9257SOL    HW139407   1.406   1.328   5.120 -0.3192 -0.1101  2.4798
 9257SOL    HW239408   1.465   1.212   5.186  1.2410 -1.2405 -0.9884
 9258SOL     OW39409   3.160   2.079   7.359 -0.0897  0.6730 -0.0679
 9258SOL    HW139410   3.108   2.040   7.290  1.3209  0.1895 -0.8611
 9258SOL    HW239411   3.193   2.000   7.402  0.2065  0.8880  0.1032
 9259SOL     OW39412   1.130   0.906   1.086  0.5371  0.2139 -0.1487
 9259SOL    HW139413   1.122   0.884   0.993 -0.0674 -0.7831  0.1471
 9259SOL    HW239414   1.080   0.986   1.100  0.2135  0.4796 -2.8230
 9260SOL     OW39415   2.779   3.720   5.753 -0.0924  0.0514  0.0301
 9260SOL    HW139416   2.798   3.632   5.720 -0.0984  1.4223 -3.5165
 9260SOL    HW239417   2.793   3.705   5.847 -1.1099  1.4283  0.4021
 9261SOL     OW39418   1.282   1.325   8.410 -0.0981 -0.5151 -0.3171
 9261SOL    HW139419   1.199   1.330   8.458 -0.7843  0.6556 -1.6301
 9261SOL    HW239420   1.255   1.272   8.335 -1.5187 -0.4340  0.1351
 9262SOL     OW39421   0.539   1.295   4.629 -0.2232  0.0486  0.0312
 9262SOL    HW139422   0.578   1.379   4.607 -0.4483  0.3597  0.8314
 9262SOL    HW239423   0.548   1.299   4.724  1.5185 -1.6749 -0.0528
 9263SOL     OW39424   3.376   1.894  13.745  0.6402  0.1458 -0.1092
 9263SOL    HW139425   3.351   1.971  13.796  1.0972 -0.0269  0.3768
 9263SOL    HW239426   3.460   1.921  13.709  1.1754 -0.8628  0.4026
 9264SOL     OW39427   3.192   2.066   3.173 -0.4830  0.5218  0.3336
 9264SOL    HW139428   3.099   2.045   3.181 -0.2033 -1.6851 -2.3788
 9264SOL    HW239429   3.230   2.011   3.241 -1.0314  0.5399  0.6574
 9265SOL     OW39430   1.158   2.839   2.402 -0.4925 -0.5381  0.2264
 9265SOL    HW139431   1.233   2.885   2.441 -1.0979  0.0153  0.7423
 9265SOL    HW239432   1.152   2.885   2.319 -1.4054  1.4244  1.3790
 9266SOL     OW39433   3.746   0.513   4.334 -0.1723  0.0819 -0.2717
 9266SOL    HW139434   3.654   0.533   4.315  0.4639  2.7390 -0.4161
 9266SOL    HW239435   3.754   0.452   4.260  0.8857 -0.1571  0.0502
 9267SOL     OW39436   3.564   3.849   8.518 -0.5302  0.3575  0.6432
 9267SOL    HW139437   3.507   3.925   8.530 -0.0819  0.2385  3.5107
 9267SOL    HW239438   3.624   3.885   8.452 -0.6360 -0.4655  0.1008
 9268SOL     OW39439   0.445   0.087   8.405  0.3855  0.2007  0.1709
 9268SOL    HW139440   0.357   0.101   8.438  0.4152  1.4391 -0.2948
 9268SOL    HW239441   0.474   0.003   8.440 -3.2034 -1.0517  0.0800
 9269SOL     OW39442   2.054   3.638   7.172  0.2270 -0.1094  0.0855
 9269SOL    HW139443   2.105   3.586   7.234  2.8596 -1.2193 -2.9884
 9269SOL    HW239444   2.090   3.606   7.089 -0.5033  1.1658 -0.7177
 9270SOL     OW39445   3.127   3.892   4.970 -0.0443 -0.2170  0.4216
 9270SOL    HW139446   3.178   3.972   4.955  0.0324 -0.3290  0.0909
 9270SOL    HW239447   3.162   3.844   4.896 -1.1413  1.5744 -1.2582
 9271SOL     OW39448   4.491   4.339  13.058 -0.1479 -0.4374  0.2939
 9271SOL    HW139449   4.577   4.305  13.036 -0.0176  0.7035 -0.9648
 9271SOL    HW239450   4.465   4.285  13.133  1.0659 -0.0008  1.0140
 9272SOL     OW39451   1.690   0.201   9.717 -0.4575  0.0675  1.1686
 9272SOL    HW139452   1.738   0.131   9.762  1.5240  0.2859 -0.6241
 9272SOL    HW239453   1.677   0.163   9.630  1.5432  1.5153  0.2431
 9273SOL     OW39454   0.172   0.555   8.968  0.3899  0.5388 -0.5377
 9273SOL    HW139455   0.178   0.629   9.028  3.9343  0.4304 -0.7814
 9273SOL    HW239456   0.082   0.544   8.937  0.0437  0.0886  0.6051
 9274SOL     OW39457   0.127   4.545   3.346  0.2863  1.1640  0.8755
 9274SOL    HW139458   0.169   4.631   3.345 -1.2997  1.9344 -1.2159
 9274SOL    HW239459   0.155   4.515   3.259  0.7900  1.5988  0.8876
 9275SOL     OW39460   4.488   2.835   7.648  0.7744  0.3276  0.1452
 9275SOL    HW139461   4.412   2.782   7.668  0.9326 -0.0828 -0.3359
 9275SOL    HW239462   4.443   2.912   7.614 -0.8607  0.7728  3.3483
 9276SOL     OW39463   0.661   4.356   0.055  0.2813 -0.0961 -0.8464
 9276SOL    HW139464   0.615   4.403  17.738  1.1212 -1.0805 -2.0622
 9276SOL    HW239465   0.742   4.405   0.042 -0.9697  2.0121 -0.7533
 9277SOL     OW39466   1.572   3.027   7.327 -0.8182  0.4345  0.0947
 9277SOL    HW139467   1.545   2.938   7.302  0.1372 -0.4880  2.3849
 9277SOL    HW239468   1.587   3.008   7.420 -0.6431 -3.0912 -0.6617
 9278SOL     OW39469   2.402   4.621   3.121 -0.1407  0.1243 -0.5260
 9278SOL    HW139470   2.359   4.589   3.041  1.2749  1.5077 -1.8396
 9278SOL    HW239471   2.386   4.714   3.105 -0.6851  0.4753  2.1235
 9279SOL     OW39472   0.379   1.380   8.698 -0.6293 -0.1272  0.9284
 9279SOL    HW139473   0.412   1.435   8.627 -0.3394 -1.7773 -0.2235
 9279SOL    HW239474   0.424   1.301   8.669 -2.8215 -0.6826 -0.9584
 9280SOL     OW39475   1.621   3.936   7.174  0.1320  0.2851 -0.3198
 9280SOL    HW139476   1.690   3.871   7.184  1.7047  1.6168 -2.4362
 9280SOL    HW239477   1.639   3.986   7.253  0.8419 -2.1522  1.0543
 9281SOL     OW39478   2.558   3.735   1.858 -0.4327 -0.0533  0.2609
 9281SOL    HW139479   2.465   3.749   1.841 -0.6732 -2.2204 -0.2477
 9281SOL    HW239480   2.550   3.773   1.945  0.1234  2.2312 -0.6666
 9282SOL     OW39481   0.116   2.896   2.263 -0.2171  0.1464 -0.5062
 9282SOL    HW139482   0.133   2.983   2.301 -0.9022  0.2737 -0.4860
 9282SOL    HW239483   0.189   2.842   2.292 -0.4404 -0.0669 -0.3451
 9283SOL     OW39484   2.813   4.199  16.490 -0.1692  0.3099  0.0734
 9283SOL    HW139485   2.862   4.161  16.563  0.8428  0.1569 -0.6759
 9283SOL    HW239486   2.722   4.200  16.517 -0.0478  2.7503  0.3851
 9284SOL     OW39487   4.033   1.524   2.183 -0.0953 -0.2475  0.5237
 9284SOL    HW139488   4.036   1.598   2.243 -0.3052  0.1676  0.0301
 9284SOL    HW239489   4.069   1.553   2.099  3.5603  2.7116  3.1456
 9285SOL     OW39490   0.966   3.266   0.337 -0.4320  0.7282  0.3811
 9285SOL    HW139491   0.902   3.198   0.355  1.9432 -1.8249 -0.8661
 9285SOL    HW239492   0.940   3.297   0.250 -0.6605  2.0609  0.9137
 9286SOL     OW39493   1.773   2.664  14.212  0.1203  0.2614 -0.2925
 9286SOL    HW139494   1.848   2.660  14.272  1.4779 -1.5470 -2.0869
 9286SOL    HW239495   1.811   2.725  14.149 -1.2679  1.0002 -0.3973
 9287SOL     OW39496   2.139   2.180   9.265 -0.7175 -0.0009  0.2188
 9287SOL    HW139497   2.129   2.235   9.187 -1.1074  0.4591  0.5913
 9287SOL    HW239498   2.116   2.091   9.236  2.1391 -0.6852  0.0509
 9288SOL     OW39499   2.439   1.536  17.116  0.1882  0.1786  0.1085
 9288SOL    HW139500   2.515   1.478  17.124 -0.2922 -0.7096 -1.8943
 9288SOL    HW239501   2.393   1.523  17.198  1.7277 -0.0805  0.9330
 9289SOL     OW39502   0.512   0.109  13.685  0.0213 -0.3979 -0.2830
 9289SOL    HW139503   0.587   0.056  13.655  0.5552  1.1375 -1.6971
 9289SOL    HW239504   0.456   0.044  13.727 -1.5642  1.0107 -0.2169
 9290SOL     OW39505   1.704   0.395   9.917 -0.0309 -0.2250 -0.6831
 9290SOL    HW139506   1.769   0.464   9.899  0.9559 -1.2206 -0.9285
 9290SOL    HW239507   1.726   0.344   9.839  2.5163 -0.0871 -0.0521
 9291SOL     OW39508   3.482   3.753   3.844 -0.2678 -0.6718  0.3022
 9291SOL    HW139509   3.493   3.809   3.767 -0.4145 -1.5966 -0.3968
 9291SOL    HW239510   3.395   3.783   3.867 -1.4571 -2.5306 -1.6736
 9292SOL     OW39511   1.785   1.338   4.380  0.3803  0.1499  0.3332
 9292SOL    HW139512   1.750   1.424   4.354 -0.3932 -0.5352 -0.8888
 9292SOL    HW239513   1.743   1.326   4.465 -0.3756  3.2552  0.4097
 9293SOL     OW39514   3.543   2.781   7.254 -0.1427 -0.8997 -0.0259
 9293SOL    HW139515   3.456   2.756   7.286 -0.0992 -1.9977 -0.7464
 9293SOL    HW239516   3.572   2.847   7.317 -0.8561 -0.2617 -0.3686
 9294SOL     OW39517   2.719   2.310   3.662  0.1940 -0.1213  0.7138
 9294SOL    HW139518   2.659   2.235   3.669 -0.0250  0.0380  0.5219
 9294SOL    HW239519   2.804   2.268   3.673  0.2591 -0.7234 -2.1013
 9295SOL     OW39520   2.054   2.199  15.275  0.5409 -0.1753 -0.4318
 9295SOL    HW139521   2.148   2.181  15.282  0.2514 -1.8397 -0.7306
 9295SOL    HW239522   2.041   2.293  15.280  0.5493 -0.1861 -0.2156
 9296SOL     OW39523   0.474   4.195   4.304 -0.1128  0.1494 -0.2774
 9296SOL    HW139524   0.394   4.194   4.252  1.8641 -3.6348 -3.2376
 9296SOL    HW239525   0.448   4.132   4.371  1.9669 -2.1585 -1.6567
 9297SOL     OW39526   3.095   3.507   9.423 -0.1218  0.8172  0.4336
 9297SOL    HW139527   3.071   3.593   9.458 -1.9140  0.5805 -0.1714
 9297SOL    HW239528   3.027   3.444   9.447 -0.7460  1.6003  0.7460
 9298SOL     OW39529   1.849   0.350   8.016  0.3260 -0.3442  0.2484
 9298SOL    HW139530   1.837   0.427   7.960  2.5578  0.4522  0.8720
 9298SOL    HW239531   1.945   0.343   8.017  0.1262 -2.9344  0.7881
 9299SOL     OW39532   3.071   3.796   6.876 -0.9296 -0.3624 -0.3956
 9299SOL    HW139533   3.070   3.805   6.971  0.6009 -2.0794 -0.2232
 9299SOL    HW239534   3.125   3.718   6.865  0.4357  0.5118  0.1736
 9300SOL     OW39535   2.175   3.261   2.146 -0.3630 -0.1152 -0.1844
 9300SOL    HW139536   2.203   3.237   2.057  0.9849 -0.0668  0.2340
 9300SOL    HW239537   2.087   3.263   2.109 -0.5424 -0.0108  0.2595
 9301SOL     OW39538   4.097   3.343   4.554 -0.9673 -0.0192 -0.2794
 9301SOL    HW139539   4.029   3.329   4.621  0.0115 -1.7662  0.3554
 9301SOL    HW239540   4.165   3.286   4.592  0.0360  3.0801  2.5230
 9302SOL     OW39541   0.830   0.954   2.455 -0.2685 -0.0595 -0.1396
 9302SOL    HW139542   0.799   0.937   2.367 -0.3069 -0.2935 -0.0804
 9302SOL    HW239543   0.832   0.867   2.495  3.0715 -0.1258 -0.4364
 9303SOL     OW39544   4.326   0.361  16.928  0.1299  0.5610 -0.7872
 9303SOL    HW139545   4.326   0.393  17.018  1.4681  0.4017 -0.7230
 9303SOL    HW239546   4.365   0.273  16.936  1.5102  1.1318 -1.1181
 9304SOL     OW39547   0.444   1.051   7.626  0.2201 -0.5107 -0.5896
 9304SOL    HW139548   0.454   1.043   7.721 -2.1460  1.7824 -0.1683
 9304SOL    HW239549   0.503   0.979   7.604 -0.5497 -1.7135  1.3155
 9305SOL     OW39550   1.484   1.938  14.115  0.2445 -0.3814  0.5779
 9305SOL    HW139551   1.501   1.998  14.043  0.9524 -1.6518 -0.3242
 9305SOL    HW239552   1.417   1.880  14.078 -1.0150  0.8702  0.9040
 9306SOL     OW39553   3.093   3.710   4.550  0.1438 -0.0486  0.7428
 9306SOL    HW139554   3.167   3.757   4.512 -0.8392  1.0150  0.1326
 9306SOL    HW239555   3.068   3.664   4.470 -0.7792  1.2491  0.2834
 9307SOL     OW39556   2.717   4.464   8.676  0.2933  0.5599  0.1926
 9307SOL    HW139557   2.622   4.477   8.679 -0.0009 -1.1832 -1.0272
 9307SOL    HW239558   2.748   4.510   8.598 -0.5816 -0.7972 -0.9505
 9308SOL     OW39559   3.602   3.385  15.493 -0.1704 -0.1152  0.8492
 9308SOL    HW139560   3.647   3.340  15.421 -0.2586 -0.0773  0.7715
 9308SOL    HW239561   3.590   3.309  15.550  2.2593 -1.1379  0.0186
 9309SOL     OW39562   0.210   3.558   9.538  0.5846 -0.1675  0.4468
 9309SOL    HW139563   0.293   3.604   9.529  0.6106 -0.2527  0.2610
 9309SOL    HW239564   0.241   3.472   9.511 -0.3160  1.1059 -4.5808
 9310SOL     OW39565   3.006   4.204   9.488  0.4457 -0.7699 -0.4832
 9310SOL    HW139566   3.012   4.185   9.581 -2.0884  0.2178 -0.1191
 9310SOL    HW239567   3.026   4.118   9.451  0.9833 -0.6722 -0.4129
 9311SOL     OW39568   4.504   4.695   9.610 -0.3704 -0.2362  0.8052
 9311SOL    HW139569   4.482   4.689   9.703  0.5750  1.2770  1.1084
 9311SOL    HW239570   4.599   4.683   9.615 -0.2831  1.4944  2.8219
 9312SOL     OW39571   4.090   3.777   6.259 -0.0797  0.0222  0.2372
 9312SOL    HW139572   4.030   3.740   6.195  3.0209 -1.6856 -1.6742
 9312SOL    HW239573   4.131   3.696   6.290  2.0279  1.5441  1.4582
 9313SOL     OW39574   1.448   1.652   6.276  0.2277 -0.5458 -0.0907
 9313SOL    HW139575   1.541   1.635   6.259  0.3708 -0.0682  0.2313
 9313SOL    HW239576   1.459   1.714   6.348 -3.0512 -1.4317  1.1427
 9314SOL     OW39577   2.660   3.994   3.570 -0.1088  0.1776 -0.4114
 9314SOL    HW139578   2.649   3.973   3.477  2.2365 -0.1674 -0.5935
 9314SOL    HW239579   2.683   4.086   3.558 -0.4246  0.4086  0.7167
 9315SOL     OW39580   1.982   3.172   7.700 -0.1352  0.2207 -0.2693
 9315SOL    HW139581   2.063   3.193   7.653 -0.7540  2.0401 -0.5203
 9315SOL    HW239582   2.010   3.114   7.771 -0.5494 -0.8555 -0.9811
 9316SOL     OW39583   0.688   1.931   6.360 -0.4663  0.3629  0.3296
 9316SOL    HW139584   0.599   1.898   6.351 -0.3592  0.2904 -0.4633
 9316SOL    HW239585   0.719   1.957   6.273  1.5038 -0.9791  0.6190
 9317SOL     OW39586   3.466   3.652   4.659 -0.1059  0.4791  0.4646
 9317SOL    HW139587   3.412   3.581   4.692 -0.6840  0.3776 -0.6954
 9317SOL    HW239588   3.490   3.620   4.572 -2.4805  1.6736 -0.6493
 9318SOL     OW39589   3.055   0.039  16.171  0.1701  0.2866 -0.6362
 9318SOL    HW139590   3.093   0.126  16.154  1.1901 -0.1600 -0.6234
 9318SOL    HW239591   2.968   0.059  16.138  0.1751  0.6785 -0.4216
 9319SOL     OW39592   0.604   3.769   9.891 -0.3435 -0.5878 -0.2622
 9319SOL    HW139593   0.530   3.830   9.892  0.6236  0.5682  0.0540
 9319SOL    HW239594   0.629   3.776   9.984 -0.6108  1.4806 -0.3499
 9320SOL     OW39595   0.725   4.257   2.342  0.5139 -0.5366 -0.2615
 9320SOL    HW139596   0.784   4.206   2.286  1.6091  1.1541 -0.6680
 9320SOL    HW239597   0.705   4.214   2.426 -0.1955  0.6552  0.1807
 9321SOL     OW39598   2.247   4.729   8.728 -0.1371  0.0765  0.4615
 9321SOL    HW139599   2.174   0.050   8.714  1.0346  1.6061  0.7668
 9321SOL    HW239600   2.233   4.698   8.818  0.5511 -0.6946  0.3044
 9322SOL     OW39601   4.376   3.255   8.735  0.3358 -0.0979  0.1349
 9322SOL    HW139602   4.299   3.268   8.791  1.9763  2.3077  1.8508
 9322SOL    HW239603   4.401   3.342   8.706 -1.5550 -0.4528 -2.6003
 9323SOL     OW39604   2.177   1.143   8.733 -0.0823 -0.1938 -0.1347
 9323SOL    HW139605   2.243   1.150   8.802  1.9267 -0.3399 -2.0422
 9323SOL    HW239606   2.228   1.188   8.666 -2.1713  0.6791 -1.1406
 9324SOL     OW39607   4.601   1.050   7.900  0.0488  0.6047  0.0378
 9324SOL    HW139608   4.690   1.079   7.921  1.1381 -0.3437 -3.2222
 9324SOL    HW239609   4.561   1.064   7.985 -0.0516  0.0380  0.0854
 9325SOL     OW39610   4.563   0.538   4.709 -0.0895  0.3973  0.2476
 9325SOL    HW139611   4.609   0.574   4.784 -2.1606  0.7326  1.3480
 9325SOL    HW239612   4.474   0.522   4.740 -0.3257 -1.7448 -1.5021
 9326SOL     OW39613   1.547   3.925   3.843  0.3620 -0.0904  0.1260
 9326SOL    HW139614   1.545   3.984   3.918  1.1231 -0.7059  0.6264
 9326SOL    HW239615   1.520   3.976   3.766 -0.7794 -0.2100  0.4523
 9327SOL     OW39616   0.514   2.730  16.010  0.4341 -0.4242 -0.2984
 9327SOL    HW139617   0.579   2.691  15.952  1.1499  0.2013  0.0839
 9327SOL    HW239618   0.434   2.679  15.994 -0.1080  0.8764 -1.7670
 9328SOL     OW39619   3.240   1.863   2.529  0.1540  0.1654  0.0114
 9328SOL    HW139620   3.224   1.849   2.436 -1.8125 -2.1885  0.6953
 9328SOL    HW239621   3.334   1.844   2.531 -0.0657 -0.8601  1.1332
 9329SOL     OW39622   1.900   2.154   3.188  0.0030 -0.0089 -0.0037
 9329SOL    HW139623   1.821   2.111   3.221 -0.8347  1.4684 -0.0636
 9329SOL    HW239624   1.954   2.080   3.161 -0.2590 -0.0512 -0.4095
 9330SOL     OW39625   2.797   2.651   2.601 -0.1869 -0.2972 -0.1229
 9330SOL    HW139626   2.767   2.701   2.676 -1.1269 -1.2176  0.1061
 9330SOL    HW239627   2.888   2.636   2.628  0.1133 -0.6660 -1.3350
 9331SOL     OW39628   1.715   0.811  10.727 -0.0985  0.2888 -0.1808
 9331SOL    HW139629   1.771   0.888  10.739 -0.9221  1.0978 -1.4996
 9331SOL    HW239630   1.775   0.737  10.712 -1.2369 -0.9268  1.3028
 9332SOL     OW39631   3.506   1.421   1.763  0.5762  0.0231 -0.2379
 9332SOL    HW139632   3.597   1.404   1.737  0.5505  1.0901 -1.0290
 9332SOL    HW239633   3.524   1.424   1.857 -0.6954  2.7559 -0.0818
 9333SOL     OW39634   1.386   3.226   4.452 -0.0798 -0.6398 -0.0273
 9333SOL    HW139635   1.324   3.188   4.514 -1.3528  3.5672  1.2747
 9333SOL    HW239636   1.395   3.319   4.474  1.2132 -1.0556  1.2464
 9334SOL     OW39637   2.301   4.024   5.714  0.0487 -0.0202  0.5854
 9334SOL    HW139638   2.293   4.040   5.808 -0.3105 -0.8787  0.6951
 9334SOL    HW239639   2.347   3.941   5.724 -1.1139 -0.6487  0.6311
 9335SOL     OW39640   1.900   0.508   6.934  0.1678 -0.3658  0.0826
 9335SOL    HW139641   1.888   0.454   6.856 -2.1372 -0.6366  0.6023
 9335SOL    HW239642   1.978   0.560   6.916 -0.0119 -0.1655 -0.1257
 9336SOL     OW39643   0.030   0.633   0.706  0.1495 -0.3822 -0.5711
 9336SOL    HW139644   0.079   0.563   0.662  4.0175  0.3160  2.6163
 9336SOL    HW239645   4.689   0.581   0.719 -1.5427  1.7766 -2.3744
 9337SOL     OW39646   3.581   3.791   4.295 -0.4629  0.4792  0.3548
 9337SOL    HW139647   3.655   3.844   4.266 -0.9567  1.5493  1.0149
 9337SOL    HW239648   3.611   3.702   4.281  1.9901  1.3361  0.2002
 9338SOL     OW39649   2.212   0.045   2.313  0.2079 -0.5928 -0.8049
 9338SOL    HW139650   2.173   0.119   2.360  0.8341  0.3387 -1.7322
 9338SOL    HW239651   2.238   0.095   2.235  0.0117 -1.0909 -1.1896
 9339SOL     OW39652   1.959   1.226   3.546 -0.5119  0.2833 -0.0824
 9339SOL    HW139653   1.986   1.152   3.599 -2.1901  1.0611  1.8912
 9339SOL    HW239654   1.897   1.194   3.480  0.3037 -4.5872  1.5726
 9340SOL     OW39655   1.497   3.834   1.832  0.7293 -0.1334  0.0707
 9340SOL    HW139656   1.467   3.866   1.917  0.5059 -0.0450 -0.0410
 9340SOL    HW239657   1.587   3.867   1.837 -0.1654  2.2890 -0.0454
 9341SOL     OW39658   3.038   0.226   1.070  0.0832 -0.6942  0.3196
 9341SOL    HW139659   3.007   0.252   0.984  1.2874  1.9907  0.7102
 9341SOL    HW239660   2.984   0.275   1.132 -3.4207 -2.4231 -1.3616
 9342SOL     OW39661   0.802   0.293  10.277  0.2198  0.9370 -0.4705
 9342SOL    HW139662   0.812   0.213  10.224 -0.0894  1.9060 -1.9782
 9342SOL    HW239663   0.707   0.299  10.287  0.1438  0.4431 -0.8896
 9343SOL     OW39664   1.267   4.695   6.664 -0.0394  0.1641 -0.5850
 9343SOL    HW139665   1.241   0.036   6.617  0.9613  0.9469  0.1868
 9343SOL    HW239666   1.189   4.689   6.719  0.7218 -1.5828  0.2867
 9344SOL     OW39667   0.544   1.742   2.883 -0.1677  0.2347 -0.2456
 9344SOL    HW139668   0.551   1.652   2.853  1.1401  0.3775 -0.3694
 9344SOL    HW239669   0.636   1.767   2.888 -0.2347  0.3164  0.5713
 9345SOL     OW39670   2.859   4.183  14.650 -0.1810  0.0145 -0.4984
 9345SOL    HW139671   2.869   4.089  14.634  3.3537  0.4862 -1.1258
 9345SOL    HW239672   2.907   4.179  14.732  0.9028 -3.4546 -1.3340
 9346SOL     OW39673   1.432   0.218  17.212 -0.2719  0.5948  0.1752
 9346SOL    HW139674   1.402   0.236  17.301  1.1633  1.8819  0.3922
 9346SOL    HW239675   1.522   0.190  17.230 -1.2093 -3.0346 -0.7283
 9347SOL     OW39676   1.750   1.685   3.199 -0.1263  0.2062 -0.3312
 9347SOL    HW139677   1.825   1.626   3.196  2.2229  3.0624  1.7170
 9347SOL    HW239678   1.736   1.679   3.293 -1.3721  0.7364 -0.4859
 9348SOL     OW39679   4.144   0.388   8.648 -0.2405 -0.4068  0.3045
 9348SOL    HW139680   4.198   0.325   8.695  1.8430  0.6399 -0.6824
 9348SOL    HW239681   4.062   0.340   8.655 -0.3513 -0.0801  1.3878
 9349SOL     OW39682   0.007   1.345   3.618 -0.0818  0.4867 -0.0110
 9349SOL    HW139683   4.705   1.339   3.531  0.9623  0.1845 -0.4851
 9349SOL    HW239684   0.091   1.305   3.595  0.1814 -0.2742  2.3429
 9350SOL     OW39685   3.530   3.484   7.443  0.1443 -0.0168 -0.0034
 9350SOL    HW139686   3.464   3.547   7.473 -0.3124 -1.1700  1.4213
 9350SOL    HW239687   3.488   3.405   7.478 -0.8387  0.4760 -0.0674
 9351SOL     OW39688   2.113   1.339   6.409 -0.2744 -0.5174 -0.3370
 9351SOL    HW139689   2.096   1.408   6.473 -0.4905 -1.3047  0.4450
 9351SOL    HW239690   2.127   1.386   6.327 -1.9660  0.7633  0.0891
 9352SOL     OW39691   3.066   2.954   8.450 -0.1270 -0.0892  0.7333
 9352SOL    HW139692   3.005   2.886   8.423  1.0121 -0.7113 -0.2422
 9352SOL    HW239693   3.104   2.933   8.535  0.3560 -2.0630  0.0141
 9353SOL     OW39694   2.725   4.202   4.165 -0.4228 -0.3865 -0.3416
 9353SOL    HW139695   2.639   4.224   4.200 -0.5726 -0.7045 -0.5128
 9353SOL    HW239696   2.717   4.213   4.071  0.6355  0.3629 -0.3453
 9354SOL     OW39697   3.054   2.177  13.339  0.0316  0.3674 -0.6611
 9354SOL    HW139698   3.004   2.168  13.258 -1.7828  1.9713  0.2890
 9354SOL    HW239699   2.984   2.210  13.394 -1.3558 -0.4957 -1.9065
 9355SOL     OW39700   4.551   2.654   9.354 -0.1226 -0.0480 -0.4581
 9355SOL    HW139701   4.632   2.606   9.372 -1.8329 -3.1357 -0.8943
 9355SOL    HW239702   4.493   2.585   9.321 -0.5077 -0.4537  1.0969
 9356SOL     OW39703   4.280   0.611   7.782 -0.1971  0.3126 -0.2072
 9356SOL    HW139704   4.226   0.676   7.828  1.3110  2.0922 -0.9478
 9356SOL    HW239705   4.209   0.575   7.729 -1.0196  2.2239 -0.4217
 9357SOL     OW39706   0.616   4.485   6.874  0.6151 -0.3046  0.0406
 9357SOL    HW139707   0.581   4.564   6.833  0.0978 -0.1231  0.8457
 9357SOL    HW239708   0.667   4.465   6.795  0.6454  1.6157 -0.4227
 9358SOL     OW39709   2.112   3.316   4.580  0.0316  0.5684 -0.1739
 9358SOL    HW139710   2.193   3.274   4.551  0.3958  0.6794  0.6840
 9358SOL    HW239711   2.066   3.243   4.621  0.7056 -0.2936 -0.9455
 9359SOL     OW39712   3.306   3.866   4.772  0.0692  0.0474 -0.5115
 9359SOL    HW139713   3.331   3.929   4.705 -0.2469  0.0447 -0.6299
 9359SOL    HW239714   3.359   3.794   4.741  0.2357 -0.3816  0.7682
 9360SOL     OW39715   2.898   4.640  11.476  0.0341  0.5458  0.1463
 9360SOL    HW139716   2.881   4.645  11.570  1.2651 -0.3486  0.4107
 9360SOL    HW239717   2.953   4.562  11.480 -1.4431 -0.5227  0.0081
 9361SOL     OW39718   0.491   3.372   3.395  0.0980 -0.5196  0.6850
 9361SOL    HW139719   0.401   3.396   3.370  0.0755 -1.5985 -0.2949
 9361SOL    HW239720   0.538   3.403   3.317  0.4709 -4.0547 -0.4884
 9362SOL     OW39721   3.829   0.465   8.664  0.0486  0.1166 -0.3424
 9362SOL    HW139722   3.816   0.417   8.746  0.9432 -0.8123 -0.7405
 9362SOL    HW239723   3.786   0.400   8.608  0.1595  2.3402 -2.9827
 9363SOL     OW39724   3.339   3.466   2.241 -0.0732  0.0304 -0.8395
 9363SOL    HW139725   3.294   3.546   2.269 -0.8725 -0.0756 -1.7819
 9363SOL    HW239726   3.262   3.424   2.202 -0.8756  0.4504  0.3077
 9364SOL     OW39727   4.610   2.317   5.604 -0.2663 -0.3010 -0.2131
 9364SOL    HW139728   4.675   2.347   5.667  0.0719 -0.0182 -0.7003
 9364SOL    HW239729   4.529   2.345   5.647  0.0653  0.8272 -0.3332
 9365SOL     OW39730   0.603   2.861   4.222  0.1191  0.1329  0.2406
 9365SOL    HW139731   0.596   2.766   4.213  3.6277 -0.0422 -0.7988
 9365SOL    HW239732   0.695   2.883   4.237  0.3796 -1.5658  1.1863
 9366SOL     OW39733   1.695   3.431   2.113 -0.4450  0.3545  0.1508
 9366SOL    HW139734   1.774   3.483   2.095  0.3168 -0.7865  0.1792
 9366SOL    HW239735   1.683   3.453   2.205  0.8113  0.1021  0.3764
 9367SOL     OW39736   0.463   3.784   1.378 -1.2630 -0.3163  0.4332
 9367SOL    HW139737   0.369   3.792   1.396 -1.1809 -2.0434  1.6572
 9367SOL    HW239738   0.469   3.842   1.302 -0.5298 -0.7081  0.1940
 9368SOL     OW39739   1.811   4.725   9.855  0.1700 -0.2968 -0.3947
 9368SOL    HW139740   1.794   0.029   9.939  0.5522 -0.5849 -0.1713
 9368SOL    HW239741   1.904   4.730   9.833 -0.4813  2.0085 -2.6356
 9369SOL     OW39742   0.698   3.891   7.273 -0.4771 -0.2334 -0.1858
 9369SOL    HW139743   0.702   3.982   7.244 -1.3580 -0.5304 -1.2407
 9369SOL    HW239744   0.784   3.860   7.302  0.7738  3.1225 -0.2718
 9370SOL     OW39745   4.167   1.301   1.577  0.5603 -0.5440 -0.9117
 9370SOL    HW139746   4.170   1.244   1.500  2.0525 -1.8077  0.0716
 9370SOL    HW239747   4.260   1.307   1.599  0.8021 -2.1666 -1.4980
 9371SOL     OW39748   0.134   2.842  13.689 -0.1696  0.3384  0.3122
 9371SOL    HW139749   0.206   2.805  13.637 -0.2922 -1.0521  1.1478
 9371SOL    HW239750   0.089   2.881  13.614  0.2324  0.2867  0.0456
 9372SOL     OW39751   2.683   1.543   2.527  0.3041  0.1141 -0.0466
 9372SOL    HW139752   2.651   1.589   2.449 -1.2146  0.2230  0.6504
 9372SOL    HW239753   2.621   1.570   2.595  3.5501  0.7936  2.6518
 9373SOL     OW39754   0.880   4.385  11.087  0.1926  0.1510  0.1342
 9373SOL    HW139755   0.947   4.373  11.020 -0.8323  1.2951 -1.1049
 9373SOL    HW239756   0.910   4.467  11.125 -0.0259  0.4648 -0.3572
 9374SOL     OW39757   4.575   2.014   4.428 -0.0530 -0.5359 -0.1397
 9374SOL    HW139758   4.531   1.948   4.375  0.9436 -2.2089  1.1458
 9374SOL    HW239759   4.588   1.963   4.507 -2.7728  0.3109  0.8677
 9375SOL     OW39760   4.344   4.382   6.226 -0.4744  0.1777 -0.3709
 9375SOL    HW139761   4.287   4.343   6.293  1.6712 -1.4596  0.4954
 9375SOL    HW239762   4.378   4.304   6.182  0.3430 -0.9114  2.1646
 9376SOL     OW39763   2.032   4.022   4.511  0.1492  0.6860 -0.4076
 9376SOL    HW139764   2.024   3.953   4.445 -0.8988  0.0977  0.3297
 9376SOL    HW239765   1.943   4.055   4.519  0.9923  2.5006  1.7575
 9377SOL     OW39766   1.925   0.595   4.462 -0.2084  0.1485  0.2477
 9377SOL    HW139767   1.986   0.664   4.488  0.7679 -0.1547 -1.2469
 9377SOL    HW239768   1.868   0.594   4.539 -1.8235  0.7946 -0.9659
 9378SOL     OW39769   0.942   3.246   8.687  0.8988  0.3926 -0.8102
 9378SOL    HW139770   0.973   3.299   8.613 -0.4217  1.8926 -0.2905
 9378SOL    HW239771   0.892   3.315   8.732  0.8885  1.7313 -2.8549
 9379SOL     OW39772   1.561   0.557   4.505 -0.7877  0.0291  0.2133
 9379SOL    HW139773   1.475   0.522   4.530  0.3295 -3.5503 -1.0064
 9379SOL    HW239774   1.547   0.632   4.564 -0.4615  0.2119  0.0550
 9380SOL     OW39775   0.234   0.589   3.919  0.2986 -0.2180  0.4661
 9380SOL    HW139776   0.309   0.648   3.922  0.6892 -0.5637 -2.5022
 9380SOL    HW239777   0.284   0.509   3.936 -0.2109 -0.5804  0.2433
 9381SOL     OW39778   1.787   3.652   1.600  0.1473  0.0179  0.5065
 9381SOL    HW139779   1.837   3.653   1.682 -0.1345  1.1216  0.6689
 9381SOL    HW239780   1.829   3.722   1.550  0.8659 -1.1265 -0.4995
 9382SOL     OW39781   1.887   1.958   4.768  0.5775 -0.4350 -0.3023
 9382SOL    HW139782   1.917   1.941   4.857  1.4452 -0.8562 -0.6792
 9382SOL    HW239783   1.968   1.987   4.725  0.8976 -0.0027  0.5970
 9383SOL     OW39784   3.618   3.325   2.951 -0.5834  0.1940 -0.2285
 9383SOL    HW139785   3.704   3.314   2.910  0.2615 -0.9960  1.8147
 9383SOL    HW239786   3.637   3.302   3.042 -2.4626  1.4522  0.4849
 9384SOL     OW39787   1.871   2.248   8.569 -0.0055  0.1624 -0.0713
 9384SOL    HW139788   1.801   2.249   8.504  0.2196  0.0304 -0.3169
 9384SOL    HW239789   1.883   2.153   8.569 -1.2343  0.0176  0.2413
 9385SOL     OW39790   2.731   2.562   2.017  0.0437  0.5710 -0.2491
 9385SOL    HW139791   2.805   2.542   2.074  0.4614 -1.2783 -1.4284
 9385SOL    HW239792   2.748   2.506   1.941 -0.6196  0.7009 -0.4919
 9386SOL     OW39793   2.481   1.927   9.512 -0.0442  0.0272  0.0100
 9386SOL    HW139794   2.542   1.982   9.560  1.0309 -2.6493  1.6288
 9386SOL    HW239795   2.404   1.925   9.568  0.9601  3.1541  1.5037
 9387SOL     OW39796   3.995   4.536  12.584  0.0831 -0.2408 -0.0791
 9387SOL    HW139797   4.085   4.543  12.616  0.8424 -2.5547 -1.7331
 9387SOL    HW239798   3.956   4.461  12.628  2.5317  0.7479  3.7833
 9388SOL     OW39799   1.514   3.981   6.930 -0.6063 -0.5545  0.5119
 9388SOL    HW139800   1.466   3.908   6.892 -1.6348  0.5393 -0.2929
 9388SOL    HW239801   1.546   3.950   7.015  1.3624  1.5674  0.5339
 9389SOL     OW39802   3.347   0.332  12.807 -0.1158 -0.7500 -0.0799
 9389SOL    HW139803   3.403   0.347  12.883  0.3798 -0.7298 -0.4492
 9389SOL    HW239804   3.401   0.350  12.729  0.9866  1.4993  1.2163
 9390SOL     OW39805   3.304   3.234   0.450  0.0853 -0.5440 -0.3017
 9390SOL    HW139806   3.397   3.233   0.473  0.0472 -3.0461 -0.2816
 9390SOL    HW239807   3.281   3.324   0.475 -3.4451 -2.1295  2.2084
 9391SOL     OW39808   3.020   1.153   6.734 -0.3237  0.0306 -0.4065
 9391SOL    HW139809   3.077   1.222   6.700  0.9383 -0.6147  0.4408
 9391SOL    HW239810   2.946   1.208   6.763  0.3518  0.7304 -0.0053
 9392SOL     OW39811   0.603   3.277  12.864  0.3815  0.1497  0.2410
 9392SOL    HW139812   0.675   3.246  12.920 -0.2041  1.0971  1.4951
 9392SOL    HW239813   0.610   3.370  12.884 -1.6483 -0.3500  3.1650
 9393SOL     OW39814   2.803   1.550  17.056  0.3697 -0.1486 -0.4483
 9393SOL    HW139815   2.832   1.572  17.144  0.0262  0.1815 -0.4182
 9393SOL    HW239816   2.793   1.639  17.024  0.4948  0.7214  1.9558
 9394SOL     OW39817   1.953   3.522   0.335 -0.0577 -0.5003  0.1163
 9394SOL    HW139818   1.956   3.574   0.254 -0.6543  1.0246  1.0861
 9394SOL    HW239819   2.046   3.500   0.336  0.3181  1.1494  0.6246
 9395SOL     OW39820   2.268   2.712   8.116 -0.2818 -0.2464  0.1348
 9395SOL    HW139821   2.353   2.755   8.127 -0.2580 -0.2140 -0.1802
 9395SOL    HW239822   2.287   2.618   8.118  2.2775  0.2802  0.8552
 9396SOL     OW39823   0.859   2.197   4.429 -0.2921  0.1212  0.0274
 9396SOL    HW139824   0.829   2.286   4.411 -0.2288 -0.2904 -2.0624
 9396SOL    HW239825   0.863   2.169   4.338 -0.0045  1.6099 -0.4132
 9397SOL     OW39826   1.352   2.666   9.688  0.3403  0.6632  0.3837
 9397SOL    HW139827   1.281   2.691   9.747 -0.1309 -0.8400  0.4706
 9397SOL    HW239828   1.304   2.621   9.618  0.6716 -0.5932  0.9617
 9398SOL     OW39829   1.063   0.284   2.705 -0.5470  0.4346 -0.0852
 9398SOL    HW139830   1.078   0.190   2.696  2.9819  1.0388 -0.3396
 9398SOL    HW239831   1.075   0.301   2.798 -0.2656  0.2099 -0.0825
 9399SOL     OW39832   2.253   3.209   1.908 -0.3180  0.0201  0.5886
 9399SOL    HW139833   2.329   3.167   1.867  0.8451 -0.4196  3.2453
 9399SOL    HW239834   2.263   3.294   1.865 -0.9267 -0.7172 -0.9947
 9400SOL     OW39835   1.291   1.621  16.816 -0.1978  0.8679 -0.2510
 9400SOL    HW139836   1.222   1.590  16.758  0.6510 -1.5336  0.0047
 9400SOL    HW239837   1.339   1.681  16.759 -0.5908  0.6394 -0.8303
 9401SOL     OW39838   0.602   4.531   2.871  0.6600 -0.2459  0.0137
 9401SOL    HW139839   0.630   4.493   2.954 -1.3915 -2.8925 -0.4982
 9401SOL    HW239840   0.509   4.510   2.880  0.3224  1.9574  1.5223
 9402SOL     OW39841   3.691   0.186   8.185  0.4523 -0.0588 -0.2593
 9402SOL    HW139842   3.698   0.243   8.109  1.2150  0.3088  0.0790
 9402SOL    HW239843   3.597   0.191   8.201  0.5008  1.5918 -0.5073
 9403SOL     OW39844   0.380   2.081   8.831 -0.6740  0.0214  0.3619
 9403SOL    HW139845   0.301   2.126   8.803 -1.6922 -1.2847  1.1069
 9403SOL    HW239846   0.348   2.011   8.888  1.3593 -1.2766 -0.0763
 9404SOL     OW39847   3.622   4.201   4.589 -0.0753 -0.1563  0.7431
 9404SOL    HW139848   3.618   4.296   4.576  0.8421 -0.6327 -3.1631
 9404SOL    HW239849   3.684   4.193   4.661  0.8491 -1.1551 -0.1613
 9405SOL     OW39850   4.308   3.665  10.444  0.3012  0.3208  0.2489
 9405SOL    HW139851   4.236   3.712  10.401 -0.4968 -1.0582  0.0774
 9405SOL    HW239852   4.374   3.687  10.377  1.8163  1.5938  2.1482
 9406SOL     OW39853   1.697   1.861   5.065 -0.0243  0.1168  0.5307
 9406SOL    HW139854   1.650   1.829   5.142 -2.0194  1.4541 -0.1125
 9406SOL    HW239855   1.781   1.883   5.105 -0.4639 -0.7174  1.9288
 9407SOL     OW39856   2.334   0.172  10.064 -0.5233 -0.1234 -0.6520
 9407SOL    HW139857   2.280   0.162  10.142 -1.7991 -0.1337 -1.5354
 9407SOL    HW239858   2.280   0.139   9.992 -1.5889 -1.6076  0.8246
 9408SOL     OW39859   0.313   3.753   0.870  0.0609  0.6620  0.1136
 9408SOL    HW139860   0.255   3.813   0.823 -0.0736  0.7222  0.3579
 9408SOL    HW239861   0.265   3.741   0.952 -1.9180 -0.5640 -1.2162
 9409SOL     OW39862   1.287   2.391   5.406 -0.0544 -0.9542 -0.6662
 9409SOL    HW139863   1.309   2.424   5.319  3.0263 -0.2068  0.3886
 9409SOL    HW239864   1.317   2.301   5.417 -1.1594 -1.3190 -0.5890
 9410SOL     OW39865   0.888   0.756   8.675  0.1712  0.0323  0.6060
 9410SOL    HW139866   0.951   0.692   8.642  0.6459 -0.1444  1.8551
 9410SOL    HW239867   0.897   0.835   8.622 -0.8339  0.7557  1.5117
 9411SOL     OW39868   3.068   4.178  10.221  0.3467 -0.5610 -0.9122
 9411SOL    HW139869   3.079   4.231  10.142  0.0371 -1.0726 -1.2977
 9411SOL    HW239870   3.002   4.228  10.270  0.7119 -0.8207 -0.1553
 9412SOL     OW39871   3.062   1.876   2.900  0.2838 -0.4940 -0.5591
 9412SOL    HW139872   2.985   1.849   2.849  0.8504 -2.5544 -0.3219
 9412SOL    HW239873   3.033   1.965   2.921 -0.7562 -1.0884  0.5381
 9413SOL     OW39874   1.649   1.424   0.705 -0.3172 -0.1003 -0.2055
 9413SOL    HW139875   1.713   1.420   0.776  0.8280 -0.0896 -1.2354
 9413SOL    HW239876   1.615   1.336   0.720 -0.2729 -0.1994 -0.6887
 9414SOL     OW39877   0.862   3.464   3.937  0.4927 -0.1359  0.1349
 9414SOL    HW139878   0.861   3.543   3.882  1.5621 -1.7427 -2.2061
 9414SOL    HW239879   0.883   3.510   4.018  0.4709  0.7797 -0.3738
 9415SOL     OW39880   2.244   0.480   7.569 -0.3215  0.1974 -0.6359
 9415SOL    HW139881   2.301   0.424   7.623  0.5806 -0.0597 -1.8421
 9415SOL    HW239882   2.206   0.543   7.629  1.0098  0.4225 -0.0196
 9416SOL     OW39883   0.266   3.671  12.631 -1.0940 -0.1730  0.5751
 9416SOL    HW139884   0.245   3.642  12.542 -1.1681 -2.2585  1.2513
 9416SOL    HW239885   0.213   3.617  12.690 -0.6683 -1.1194  0.0947
 9417SOL     OW39886   3.465   4.605  14.568 -0.0127 -0.2572 -0.0578
 9417SOL    HW139887   3.423   4.689  14.587 -0.4046 -0.3581 -0.4826
 9417SOL    HW239888   3.436   4.548  14.639  0.3816 -0.0226  0.2984
 9418SOL     OW39889   3.811   0.783   0.142 -0.5968  0.0843  0.4262
 9418SOL    HW139890   3.745   0.730   0.096  1.5684 -1.8929 -0.4265
 9418SOL    HW239891   3.762   0.865   0.147 -1.2779 -0.4794  3.3123
 9419SOL     OW39892   1.892   0.758   5.668 -0.2185  0.2913 -0.3355
 9419SOL    HW139893   1.812   0.794   5.705 -0.8251 -1.0867 -0.3108
 9419SOL    HW239894   1.872   0.749   5.575  0.3600  0.1451 -0.4488
 9420SOL     OW39895   4.071   4.422   3.560 -0.1116 -0.2055 -0.0455
 9420SOL    HW139896   4.044   4.495   3.616  0.4734  0.3072 -0.4340
 9420SOL    HW239897   3.989   4.373   3.559 -0.1376 -0.2081  1.8072
 9421SOL     OW39898   1.399   0.568   7.672  0.1748 -0.5487  0.4158
 9421SOL    HW139899   1.422   0.559   7.579 -0.1660  0.2479  0.2546
 9421SOL    HW239900   1.395   0.476   7.696  0.6868 -0.4271  0.9727
 9422SOL     OW39901   2.046   1.736  17.563 -0.0554 -0.5527 -0.4443
 9422SOL    HW139902   1.999   1.657  17.536 -2.0317  0.3646  0.3120
 9422SOL    HW239903   1.980   1.778  17.618  0.3423  1.9703 -1.9140
 9423SOL     OW39904   1.538   1.206  15.745 -0.1557 -0.2879 -0.0397
 9423SOL    HW139905   1.477   1.275  15.718 -0.0113  0.4028  1.3917
 9423SOL    HW239906   1.479   1.134  15.725  3.7998 -3.0084 -1.8380
 9424SOL     OW39907   4.304   3.879   7.883  0.4609  0.1829 -0.3091
 9424SOL    HW139908   4.220   3.923   7.872 -0.4380 -1.1837  1.0496
 9424SOL    HW239909   4.354   3.933   7.943  0.3422 -0.6963  0.5715
 9425SOL     OW39910   1.592   0.723   8.783  0.3015  0.6515  0.5462
 9425SOL    HW139911   1.624   0.679   8.705 -0.2033  0.3871  0.4867
 9425SOL    HW239912   1.577   0.651   8.845  0.9681  1.1372  1.2628
 9426SOL     OW39913   3.919   0.623   4.004  0.2840 -0.1484  0.6242
 9426SOL    HW139914   3.939   0.667   3.922 -1.4319  1.4940  1.0986
 9426SOL    HW239915   3.836   0.659   4.034 -0.6138 -2.0193  0.4192
 9427SOL     OW39916   4.618   0.397   8.549  0.4518 -0.0577  0.1111
 9427SOL    HW139917   4.533   0.427   8.517 -0.1578 -0.4256  1.4085
 9427SOL    HW239918   4.670   0.477   8.546 -1.7605  1.4529  2.5725
 9428SOL     OW39919   2.670   4.327   2.846 -0.1753  0.2133 -0.1920
 9428SOL    HW139920   2.640   4.349   2.758 -1.1971  1.0363  0.3572
 9428SOL    HW239921   2.740   4.392   2.849 -1.0255  1.0860  0.4135
 9429SOL     OW39922   1.011   0.251   5.783  0.6720 -0.0558  0.3308
 9429SOL    HW139923   0.986   0.189   5.852  0.8204 -0.5940 -0.1004
 9429SOL    HW239924   1.059   0.186   5.731  1.6585  0.4591  0.5902
 9430SOL     OW39925   0.730   0.156   4.485  0.5949  0.3788 -0.7011
 9430SOL    HW139926   0.677   0.082   4.515  2.4284 -0.4562  0.4865
 9430SOL    HW239927   0.742   0.210   4.563  0.3322  0.9880 -1.0806
 9431SOL     OW39928   0.519   3.156   6.854 -0.1508 -0.3499  0.1897
 9431SOL    HW139929   0.578   3.178   6.782 -1.4190 -0.5812 -0.9036
 9431SOL    HW239930   0.454   3.103   6.808 -0.7671  1.5502 -1.1231
 9432SOL     OW39931   1.872   0.455   1.988 -0.4346 -0.4279 -0.2909
 9432SOL    HW139932   1.814   0.524   1.956  0.2228  0.8395  1.2708
 9432SOL    HW239933   1.952   0.483   1.943  0.1531 -0.7094  0.5891
 9433SOL     OW39934   1.069   4.004   8.437 -0.7096 -0.0419 -0.1275
 9433SOL    HW139935   1.009   3.936   8.405  0.2679 -0.9876  0.0108
 9433SOL    HW239936   1.149   3.961   8.404 -1.1391  0.1006 -1.3621
 9434SOL     OW39937   1.281   1.907  15.049 -0.6550  0.0209 -0.1221
 9434SOL    HW139938   1.317   1.883  14.963  1.1761  0.0905  0.6227
 9434SOL    HW239939   1.218   1.974  15.022 -0.7730  0.5823  1.5670
 9435SOL     OW39940   2.550   1.140   9.453 -0.3381 -0.1591  0.4536
 9435SOL    HW139941   2.466   1.183   9.442 -0.1954  0.3200  1.2985
 9435SOL    HW239942   2.614   1.194   9.406  1.4637 -1.8488  0.9337
 9436SOL     OW39943   4.194   3.893  15.617 -0.6263  0.0965  0.1245
 9436SOL    HW139944   4.149   3.930  15.693  1.0586  0.2884  1.0270
 9436SOL    HW239945   4.233   3.971  15.578  0.0091  0.2321  1.0238
 9437SOL     OW39946   2.280   0.000   1.089  0.3887  0.1790 -0.0851
 9437SOL    HW139947   2.196   0.025   1.049  0.0282 -1.4575 -0.3601
 9437SOL    HW239948   2.253   4.656   1.128  0.5795 -1.0388 -2.5099
 9438SOL     OW39949   1.613   0.039   3.363  0.5656 -0.0365 -0.5097
 9438SOL    HW139950   1.536   0.047   3.419  0.4827  2.8276 -1.0471
 9438SOL    HW239951   1.677   0.030   3.434 -0.1113 -3.2489 -0.3175
 9439SOL     OW39952   1.465   2.331   9.958  0.4543  0.0035  0.0631
 9439SOL    HW139953   1.408   2.255   9.943  2.4613 -1.7836  1.4576
 9439SOL    HW239954   1.540   2.284   9.921 -0.8812 -1.1192 -1.2296
 9440SOL     OW39955   2.857   0.534  11.016  0.3362  0.1398 -0.1779
 9440SOL    HW139956   2.911   0.471  11.063  0.6645  0.5808  0.0388
 9440SOL    HW239957   2.831   0.592  11.087  0.0160 -0.2894  0.0572
 9441SOL     OW39958   4.600   3.787  15.272 -0.1244  0.2069  0.3498
 9441SOL    HW139959   4.508   3.782  15.298 -0.9832 -1.4103 -3.0583
 9441SOL    HW239960   4.648   3.764  15.352  1.2608 -0.9345 -0.8146
 9442SOL     OW39961   0.760   2.566   9.614  0.1402  0.1100  0.2519
 9442SOL    HW139962   0.733   2.566   9.706  1.2029 -1.0190  0.5673
 9442SOL    HW239963   0.839   2.620   9.616 -0.3404  0.7684  1.4999
 9443SOL     OW39964   4.195   0.269   8.342  0.0708 -0.3476 -0.2571
 9443SOL    HW139965   4.105   0.261   8.308 -0.2606  0.8493  0.3409
 9443SOL    HW239966   4.179   0.261   8.436 -2.1088  0.8649 -0.5283
 9444SOL     OW39967   0.395   2.928   2.195 -0.4779 -0.2579 -0.2693
 9444SOL    HW139968   0.436   2.845   2.171 -1.6052 -0.1875 -2.3997
 9444SOL    HW239969   0.451   2.958   2.267 -0.3471  0.2564 -0.5830
 9445SOL     OW39970   1.296   2.375   6.266 -0.4788  0.1182 -0.9755
 9445SOL    HW139971   1.287   2.287   6.229 -1.1568 -0.9613  1.6700
 9445SOL    HW239972   1.382   2.371   6.307 -0.6067 -3.0445 -0.9760
 9446SOL     OW39973   2.699   2.956  13.378  0.5818 -0.3647 -0.3337
 9446SOL    HW139974   2.629   3.014  13.408  1.0154 -0.0872  0.1411
 9446SOL    HW239975   2.757   3.031  13.369  0.2274 -0.2593 -1.6593
 9447SOL     OW39976   3.833   1.645   8.003 -0.6634  0.1647 -0.0944
 9447SOL    HW139977   3.812   1.731   8.038  0.2734  1.6491 -3.1655
 9447SOL    HW239978   3.807   1.586   8.074 -1.3616  0.3651 -0.1787
 9448SOL     OW39979   0.899   1.387   4.602  0.2534 -0.2138 -0.0534
 9448SOL    HW139980   0.981   1.358   4.563  0.8736  1.7746 -0.1936
 9448SOL    HW239981   0.899   1.338   4.685  0.3319 -0.9298 -0.4705
 9449SOL     OW39982   4.413   2.551   4.949  0.6953 -0.2015 -0.0803
 9449SOL    HW139983   4.501   2.582   4.969  0.4619  0.9066 -0.7524
 9449SOL    HW239984   4.382   2.540   5.039  1.4083 -2.7004 -0.1473
 9450SOL     OW39985   0.115   0.832   4.752  0.0293 -0.0277 -0.7246
 9450SOL    HW139986   0.195   0.883   4.758 -0.6368  1.2004 -2.2459
 9450SOL    HW239987   0.112   0.816   4.657 -0.4121  1.2403 -0.9243
 9451SOL     OW39988   3.317   0.925   1.278  0.1969  0.4413 -0.4852
 9451SOL    HW139989   3.377   0.946   1.205  1.5639 -0.0055  0.5116
 9451SOL    HW239990   3.347   0.846   1.322 -1.2344  0.6548  0.8667
 9452SOL     OW39991   4.728   4.376  10.353  0.1013 -0.1299 -0.1268
 9452SOL    HW139992   0.064   4.339  10.305  2.1334  2.6834  0.8573
 9452SOL    HW239993   0.041   4.418  10.422 -0.0895  0.5461 -0.3937
 9453SOL     OW39994   1.837   4.526   3.676 -0.0948 -0.0252 -0.0074
 9453SOL    HW139995   1.828   4.496   3.585  0.1144 -0.1304  0.0069
 9453SOL    HW239996   1.904   4.472   3.718  0.1482  0.2975  0.0240
 9454SOL     OW39997   4.610   3.979   6.174 -0.3585  0.4334 -0.2315
 9454SOL    HW139998   4.615   3.984   6.269 -0.7095 -1.5729 -0.1181
 9454SOL    HW239999   4.605   3.885   6.156 -0.9159  0.4885 -0.3553
 9455SOL     OW40000   1.704   3.874   5.858 -0.0005  0.3773  0.0107
 9455SOL    HW140001   1.772   3.918   5.909 -0.9771  2.1424 -0.1725
 9455SOL    HW240002   1.720   3.915   5.773  0.4420 -0.0785 -0.1246
 9456SOL     OW40003   3.448   3.696   6.613 -0.1801 -0.5989  0.0498
 9456SOL    HW140004   3.532   3.679   6.655 -0.1066  2.6298  1.1702
 9456SOL    HW240005   3.470   3.713   6.522 -0.7920 -1.1898 -0.2131
 9457SOL     OW40006   0.704   0.156   4.124 -0.6055 -0.4544  0.2736
 9457SOL    HW140007   0.751   0.124   4.202 -2.6692 -0.3583  1.5522
 9457SOL    HW240008   0.774   0.156   4.059  0.0216  1.8955  0.9586
 9458SOL     OW40009   1.363   0.420   3.615  0.1370  0.0686 -0.4178
 9458SOL    HW140010   1.341   0.468   3.535  1.5424 -0.8274 -1.3547
 9458SOL    HW240011   1.458   0.433   3.619 -0.1205  1.2773  1.2783
 9459SOL     OW40012   2.628   1.568   5.570 -0.0756  0.2716 -0.3806
 9459SOL    HW140013   2.659   1.658   5.578 -1.8025  1.0549 -2.5956
 9459SOL    HW240014   2.664   1.528   5.491  0.1953  2.2861 -1.2614
 9460SOL     OW40015   3.102   1.651   1.603  0.0931 -0.2282  0.0304
 9460SOL    HW140016   3.025   1.668   1.548  0.5875  2.1026  0.0633
 9460SOL    HW240017   3.051   1.635   1.682  0.6916 -0.9217  0.2688
 9461SOL     OW40018   3.229   0.630   3.120 -0.2060 -0.5420  0.0462
 9461SOL    HW140019   3.205   0.551   3.168 -0.3630 -0.6254 -0.1734
 9461SOL    HW240020   3.319   0.645   3.149 -0.6863  0.0138  1.2843
 9462SOL     OW40021   2.997   1.587   9.468 -0.0816  0.6882  0.2538
 9462SOL    HW140022   2.957   1.650   9.528 -0.0618  2.3433 -1.4778
 9462SOL    HW240023   2.920   1.531   9.460  0.4486 -0.0644  0.3989
 9463SOL     OW40024   2.240   1.915   6.737  0.1103 -0.0935 -0.1235
 9463SOL    HW140025   2.152   1.938   6.768 -0.3023 -0.1008 -1.2639
 9463SOL    HW240026   2.240   1.934   6.643  1.7129 -2.7763 -0.6578
 9464SOL     OW40027   2.946   2.008   3.248  0.1046  0.0887  0.1790
 9464SOL    HW140028   2.868   2.060   3.270  1.1613  1.1271  1.5001
 9464SOL    HW240029   2.901   1.928   3.220  2.9412 -0.5680 -2.3681
 9465SOL     OW40030   1.622   3.513   5.854  0.7295 -0.1498  0.1274
 9465SOL    HW140031   1.648   3.422   5.839  3.0981  0.5197  0.1114
 9465SOL    HW240032   1.584   3.513   5.941 -0.7612 -0.1018 -0.5139
 9466SOL     OW40033   1.247   3.304   9.923  0.5382  0.1913 -0.2271
 9466SOL    HW140034   1.170   3.330   9.975 -0.9899 -0.6198 -2.1213
 9466SOL    HW240035   1.212   3.326   9.837  0.7910 -1.0184 -0.6344
 9467SOL     OW40036   0.307   0.371   4.060 -0.2566 -0.0059  0.3298
 9467SOL    HW140037   0.296   0.415   4.144  0.6971  1.7697 -0.4461
 9467SOL    HW240038   0.402   0.377   4.045  0.1227 -0.1214  2.7807
 9468SOL     OW40039   0.040   0.897   2.108 -0.2460 -0.1351 -0.3454
 9468SOL    HW140040   0.077   0.810   2.122 -1.9547 -0.7325  0.4502
 9468SOL    HW240041   4.719   0.916   2.181 -0.1784  1.5589 -0.7241
 9469SOL     OW40042   3.090   1.321   7.743  0.1512 -0.0894  0.0005
 9469SOL    HW140043   3.007   1.309   7.696  0.4959 -2.2678 -0.0286
 9469SOL    HW240044   3.134   1.387   7.690 -2.7768 -0.5230 -2.9819
 9470SOL     OW40045   3.869   0.734   0.403  0.0924  0.0661  0.8144
 9470SOL    HW140046   3.776   0.719   0.416  0.2942 -1.6541  0.3661
 9470SOL    HW240047   3.871   0.750   0.309  1.6115  2.5701  1.2954
 9471SOL     OW40048   3.520   4.518  14.847 -0.1685 -0.2549 -0.3223
 9471SOL    HW140049   3.545   4.432  14.879  1.2288  0.7703  1.3539
 9471SOL    HW240050   3.493   4.563  14.927 -0.9495  0.1231 -0.7947
 9472SOL     OW40051   3.891   2.348   8.242 -0.0446 -0.5590 -0.0222
 9472SOL    HW140052   3.884   2.293   8.163 -0.4667  2.0085 -1.7681
 9472SOL    HW240053   3.925   2.286   8.307 -1.0912  1.0983  2.0830
 9473SOL     OW40054   2.474   0.288  13.892  0.7114  0.8941  0.0278
 9473SOL    HW140055   2.414   0.215  13.877  0.4490  0.9662  0.7208
 9473SOL    HW240056   2.544   0.245  13.941 -0.5429 -0.5290  0.5704
 9474SOL     OW40057   4.646   4.724   6.609 -0.0909 -0.1593  0.1109
 9474SOL    HW140058   4.560   4.728   6.566 -0.5940  3.3479  1.4135
 9474SOL    HW240059   4.625   0.020   6.696 -0.7400 -1.7938  0.5969
 9475SOL     OW40060   4.095   0.592   9.880 -0.6406 -0.3077  0.0535
 9475SOL    HW140061   4.067   0.663   9.822 -0.4380 -0.3639 -0.1107
 9475SOL    HW240062   4.092   0.516   9.823  1.7920  1.3448 -2.2731
 9476SOL     OW40063   2.200   2.616   7.834  0.3125 -0.1300  0.1781
 9476SOL    HW140064   2.116   2.584   7.868 -0.5480  1.0555 -0.8213
 9476SOL    HW240065   2.236   2.651   7.916  2.5931 -1.8944 -0.0748
 9477SOL     OW40066   2.615   4.151   7.591 -0.2021 -0.9961  0.9273
 9477SOL    HW140067   2.615   4.241   7.558 -0.6573 -0.3708  2.6314
 9477SOL    HW240068   2.521   4.140   7.604 -0.0549 -1.4187  1.6547
 9478SOL     OW40069   2.193   1.978  16.801 -0.2167  0.0630 -0.3511
 9478SOL    HW140070   2.190   1.887  16.830 -0.2954  0.3384  0.4912
 9478SOL    HW240071   2.102   1.993  16.775 -0.5276 -0.8904  0.1776
 9479SOL     OW40072   1.881   2.933   8.980 -0.0391  0.2028  0.1754
 9479SOL    HW140073   1.914   2.895   9.062  1.9099 -2.5171 -1.8791
 9479SOL    HW240074   1.939   3.008   8.976 -3.5886  3.0106  1.5207
 9480SOL     OW40075   4.660   1.665   7.237 -0.2105  0.2443 -0.0848
 9480SOL    HW140076   4.609   1.742   7.216 -0.1645  0.1426 -0.5660
 9480SOL    HW240077   0.003   1.711   7.255  0.0594 -0.0035 -0.6707
 9481SOL     OW40078   1.013   0.378   3.778  0.0221  0.5236  0.1799
 9481SOL    HW140079   0.998   0.323   3.854  0.8136  0.7519  0.5028
 9481SOL    HW240080   1.023   0.458   3.828  1.1919  1.7056 -1.9140
 9482SOL     OW40081   3.242   4.218   1.961 -0.3672 -0.1328  0.3003
 9482SOL    HW140082   3.305   4.213   2.033 -1.3840  0.3865  1.2145
 9482SOL    HW240083   3.175   4.278   1.994 -0.1509 -0.8207  2.0083
 9483SOL     OW40084   2.814   4.369   3.392  0.0754 -0.3870 -0.3957
 9483SOL    HW140085   2.775   4.323   3.465  2.5674 -0.4991  0.8650
 9483SOL    HW240086   2.780   4.459   3.399  0.0775 -0.4026 -0.1934
 9484SOL     OW40087   2.643   2.942   9.794 -0.0587  0.0143  0.0684
 9484SOL    HW140088   2.726   2.920   9.836 -0.3067 -1.6498 -0.3030
 9484SOL    HW240089   2.606   2.986   9.871  0.5926  1.3558 -0.3886
 9485SOL     OW40090   1.982   1.642   8.970 -0.0068  0.6445  0.4131
 9485SOL    HW140091   1.960   1.688   9.051  0.4756  0.8781  0.4129
 9485SOL    HW240092   1.898   1.645   8.925 -1.1179 -0.9840  2.3860
 9486SOL     OW40093   0.393   4.082  11.782  0.2594 -0.1266  0.1371
 9486SOL    HW140094   0.470   4.068  11.837  0.0760 -1.1459  0.1308
 9486SOL    HW240095   0.416   4.161  11.734  1.4950 -0.1767  0.6596
 9487SOL     OW40096   0.717   2.201   9.244  0.1541 -0.4338 -0.3639
 9487SOL    HW140097   0.651   2.155   9.191 -1.7399 -1.0552  2.5305
 9487SOL    HW240098   0.666   2.270   9.286  1.5948  0.7939 -0.6202
 9488SOL     OW40099   4.507   1.227  17.227  0.0689  0.3874  0.2870
 9488SOL    HW140100   4.493   1.305  17.173 -1.0170  1.2274  1.7729
 9488SOL    HW240101   4.466   1.168  17.164 -0.6805  0.0853  1.0676
 9489SOL     OW40102   2.190   2.293   7.167 -0.0742 -0.2799 -0.0720
 9489SOL    HW140103   2.251   2.223   7.192 -0.1285 -0.2099  0.2507
 9489SOL    HW240104   2.155   2.304   7.255  1.1436 -2.1005  0.6421
 9490SOL     OW40105   3.204   1.263   2.001  0.1488 -0.0014  0.0913
 9490SOL    HW140106   3.293   1.240   2.028  0.8418 -0.7418 -2.8433
 9490SOL    HW240107   3.230   1.309   1.921  1.4095  0.0995  0.5516
 9491SOL     OW40108   1.460   2.120   2.869  0.4325 -0.4727  0.3584
 9491SOL    HW140109   1.525   2.052   2.890 -1.7641 -2.7258 -0.1743
 9491SOL    HW240110   1.469   2.114   2.774 -0.9065  0.2139  0.1987
 9492SOL     OW40111   0.354   2.452   7.759  0.0334 -0.0710  0.2671
 9492SOL    HW140112   0.327   2.384   7.821  2.0905 -1.0574  0.0926
 9492SOL    HW240113   0.323   2.416   7.675 -1.0962  0.0250  0.6428
 9493SOL     OW40114   3.547   4.051   6.309 -0.4486  0.2923 -0.2254
 9493SOL    HW140115   3.617   4.083   6.253  0.1820 -1.3852 -0.3828
 9493SOL    HW240116   3.491   4.128   6.325 -1.5555 -0.4364 -0.6151
 9494SOL     OW40117   1.802   0.398   8.288 -0.0006 -0.3494  0.3079
 9494SOL    HW140118   1.829   0.376   8.198  0.9885  1.2931  0.1944
 9494SOL    HW240119   1.884   0.379   8.334  0.5361  1.6079  0.1685
 9495SOL     OW40120   1.179   0.761  12.463 -0.8008  0.3567 -0.0448
 9495SOL    HW140121   1.187   0.856  12.467 -0.2231  0.3591 -1.2974
 9495SOL    HW240122   1.215   0.734  12.548 -2.4161  0.3635  0.6315
 9496SOL     OW40123   2.811   1.007   1.942 -0.1134 -0.4062 -0.3941
 9496SOL    HW140124   2.906   1.017   1.930  0.5431 -2.2936  3.1863
 9496SOL    HW240125   2.792   0.921   1.905 -0.1949 -1.3334  1.8451
 9497SOL     OW40126   4.470   2.320   5.273 -0.3060 -0.1950 -0.4303
 9497SOL    HW140127   4.490   2.234   5.237 -0.3766 -0.2404 -0.3620
 9497SOL    HW240128   4.552   2.369   5.260 -0.6802  0.0140 -2.0592
 9498SOL     OW40129   2.835   1.752   5.539  0.7831  0.0824 -0.3967
 9498SOL    HW140130   2.875   1.833   5.569 -0.4786  0.0098  1.4585
 9498SOL    HW240131   2.893   1.682   5.571  0.6079  0.5737  0.9925
 9499SOL     OW40132   4.692   0.680   4.898 -0.4012 -0.6032 -0.2431
 9499SOL    HW140133   0.031   0.636   4.933 -0.3103 -0.8247 -0.7237
 9499SOL    HW240134   0.001   0.750   4.854 -2.3980  0.3584 -0.8351
 9500SOL     OW40135   3.069   1.823   8.110  0.3360 -0.3610  0.5731
 9500SOL    HW140136   2.979   1.801   8.086  0.4819  2.3297 -2.3523
 9500SOL    HW240137   3.115   1.743   8.084  0.2776  0.1608 -1.1116
 9501SOL     OW40138   0.594   2.848   8.152 -0.1946 -0.2810  0.1695
 9501SOL    HW140139   0.500   2.843   8.166  0.2322  0.1055  3.0446
 9501SOL    HW240140   0.602   2.936   8.114 -1.4329 -0.5137 -0.6350
 9502SOL     OW40141   2.687   3.754   3.110  0.3172  0.0117 -0.0207
 9502SOL    HW140142   2.605   3.768   3.063 -0.2150  1.2134  1.2810
 9502SOL    HW240143   2.696   3.659   3.105  1.5751  0.1530 -0.5642
 9503SOL     OW40144   1.090   1.332  16.845  0.6255  0.3534 -0.1163
 9503SOL    HW140145   1.094   1.419  16.806  1.8965  1.0282  1.5319
 9503SOL    HW240146   1.179   1.315  16.876  1.1342 -0.2932 -1.9341
 9504SOL     OW40147   1.197   1.229   6.265  0.2843 -0.0828 -0.3640
 9504SOL    HW140148   1.242   1.146   6.278 -0.1946 -0.0922  1.2050
 9504SOL    HW240149   1.260   1.287   6.308 -0.9562  0.4008  0.7698
 9505SOL     OW40150   2.558   2.228   5.066 -0.4557 -0.3947 -0.7268
 9505SOL    HW140151   2.558   2.275   4.982  1.2862 -0.6077 -0.8442
 9505SOL    HW240152   2.649   2.203   5.079  0.2201  0.4946 -3.6401
 9506SOL     OW40153   4.441   4.051   8.362  0.1433  0.4967  0.2946
 9506SOL    HW140154   4.355   4.039   8.321  0.2996  0.5628 -0.0504
 9506SOL    HW240155   4.445   4.146   8.358  2.4697  0.3490 -0.5184
 9507SOL     OW40156   1.403   0.798   9.676  0.3426  0.0800  0.1999
 9507SOL    HW140157   1.409   0.864   9.745 -1.8674  1.5841 -1.0511
 9507SOL    HW240158   1.496   0.776   9.679  0.8141  2.1214  0.4567
 9508SOL     OW40159   3.499   3.177  16.825 -0.4936  0.2762 -0.2085
 9508SOL    HW140160   3.427   3.159  16.885  0.5866  0.2504  1.0763
 9508SOL    HW240161   3.567   3.120  16.860 -0.3516  1.1733  0.9662
 9509SOL     OW40162   3.421   2.896   3.980  0.1333 -0.0880 -0.6060
 9509SOL    HW140163   3.344   2.846   3.953 -0.5377 -0.0448  1.2135
 9509SOL    HW240164   3.441   2.850   4.061  2.1535 -0.0812 -1.1154
 9510SOL     OW40165   1.827   0.790  13.293  0.4615 -0.3225  0.4392
 9510SOL    HW140166   1.847   0.876  13.257 -0.2795  0.8947  2.9229
 9510SOL    HW240167   1.890   0.743  13.238 -0.5324 -1.4978  0.2990
 9511SOL     OW40168   4.409   0.738   1.239 -0.3373 -0.5531  0.3221
 9511SOL    HW140169   4.457   0.715   1.319  0.8459  2.8801  0.5984
 9511SOL    HW240170   4.454   0.689   1.170 -0.7763 -0.0582 -0.3172
 9512SOL     OW40171   2.051   0.755   2.724 -0.2050  0.2219  0.2764
 9512SOL    HW140172   2.022   0.762   2.815  3.8275  2.2414  1.3740
 9512SOL    HW240173   1.988   0.821   2.693 -0.2485  0.6436  1.2546
 9513SOL     OW40174   3.576   3.623   1.452 -0.2768  0.3820 -0.1846
 9513SOL    HW140175   3.650   3.677   1.480 -0.3937 -0.0098  0.9163
 9513SOL    HW240176   3.508   3.686   1.473  0.4159  1.3017 -0.7195
 9514SOL     OW40177   4.234   3.705  15.888  0.1490  0.1203  0.4151
 9514SOL    HW140178   4.181   3.647  15.833  1.1109  0.3359 -0.7404
 9514SOL    HW240179   4.285   3.753  15.822 -2.0283  1.6815 -0.1110
 9515SOL     OW40180   0.251   1.866   2.642  0.4078  0.1526  0.3436
 9515SOL    HW140181   0.318   1.847   2.577 -1.7955  0.3563 -1.9708
 9515SOL    HW240182   0.179   1.894   2.587  2.4909  0.6759 -2.1043
 9516SOL     OW40183   1.497   2.412   3.859  0.2518  0.0148  0.3432
 9516SOL    HW140184   1.435   2.441   3.792  1.0657 -0.1270 -0.4780
 9516SOL    HW240185   1.547   2.494   3.866  0.1887  0.0296  0.6325
 9517SOL     OW40186   2.712   2.299   8.604  0.3057 -0.9621 -0.1865
 9517SOL    HW140187   2.638   2.239   8.613  0.6048 -1.4130 -0.7615
 9517SOL    HW240188   2.782   2.237   8.623  0.6339 -1.0722 -1.7513
 9518SOL     OW40189   2.172   4.018  12.815  0.2729  0.2455 -0.5232
 9518SOL    HW140190   2.170   4.092  12.875 -2.0133  1.0878 -1.6494
 9518SOL    HW240191   2.125   3.951  12.866  0.6887  0.6227  0.3697
 9519SOL     OW40192   0.033   3.512   6.292  0.7065  0.1677  0.2402
 9519SOL    HW140193   4.694   3.514   6.235 -0.9310  0.8208  2.4699
 9519SOL    HW240194   0.071   3.598   6.275 -0.4162  1.0380  2.0615
 9520SOL     OW40195   3.224   4.501   8.702 -0.1750 -0.3100 -0.6357
 9520SOL    HW140196   3.230   4.427   8.763  0.5605 -0.6505 -1.1162
 9520SOL    HW240197   3.262   4.457   8.626  0.1232 -0.1773 -0.5627
 9521SOL     OW40198   2.312   2.272   0.504 -0.0357 -0.0988  0.1345
 9521SOL    HW140199   2.368   2.349   0.506 -0.8458  0.5417 -1.7596
 9521SOL    HW240200   2.232   2.321   0.524 -0.8426 -0.8848 -1.2017
 9522SOL     OW40201   1.194   1.085  12.851  0.4801  0.4433  0.2824
 9522SOL    HW140202   1.277   1.039  12.863 -0.3427 -1.5430 -1.6928
 9522SOL    HW240203   1.133   1.011  12.851 -0.5845  1.3195  0.9039
 9523SOL     OW40204   3.574   4.729  16.001  0.0760  0.6863 -0.2247
 9523SOL    HW140205   3.598   4.641  16.031  2.8730  1.5371  0.0544
 9523SOL    HW240206   3.480   4.732  16.018 -0.1258  0.4992 -1.3342
 9524SOL     OW40207   0.738   2.265   7.838 -0.3963 -0.4256 -0.4328
 9524SOL    HW140208   0.691   2.228   7.913  2.8575  0.4475  2.0275
 9524SOL    HW240209   0.720   2.359   7.844  1.2670 -0.2160  1.1057
 9525SOL     OW40210   3.997   3.166   7.609  0.3968  0.2419  0.8846
 9525SOL    HW140211   3.995   3.179   7.514  1.0401 -0.7755  0.7361
 9525SOL    HW240212   3.997   3.259   7.633 -0.1652  1.3020 -3.2556
 9526SOL     OW40213   0.433   4.191   9.847 -0.9476  0.0630 -0.9063
 9526SOL    HW140214   0.352   4.152   9.880 -1.9115 -0.0359 -3.4105
 9526SOL    HW240215   0.479   4.119   9.890  0.5651  0.4617 -1.8848
 9527SOL     OW40216   3.427   3.364  10.489 -0.2670  0.2407 -0.5245
 9527SOL    HW140217   3.343   3.335  10.525 -0.6744  2.8085  0.6237
 9527SOL    HW240218   3.469   3.390  10.571  1.2691 -2.3909 -0.4925
 9528SOL     OW40219   4.726   1.648   5.322  0.4637 -0.4518 -0.0525
 9528SOL    HW140220   4.699   1.673   5.411 -2.1713  1.5672 -1.3812
 9528SOL    HW240221   0.063   1.706   5.309 -0.8015  1.5392  1.2638
 9529SOL     OW40222   4.515   2.897   6.481  0.3151 -0.3617  1.2202
 9529SOL    HW140223   4.423   2.917   6.464  0.6572  1.0290  0.9887
 9529SOL    HW240224   4.503   2.854   6.566 -1.7340 -0.4350  0.8849
 9530SOL     OW40225   1.815   3.129   9.572 -0.0317 -0.3416  0.3752
 9530SOL    HW140226   1.772   3.128   9.487 -0.1272 -2.0107  0.4390
 9530SOL    HW240227   1.846   3.220   9.575  1.2308 -0.6950 -1.9458
 9531SOL     OW40228   4.591   2.352   8.426  0.4279  0.1936 -0.1009
 9531SOL    HW140229   4.553   2.400   8.353 -2.8156  0.4206  1.7490
 9531SOL    HW240230   4.511   2.312   8.460  1.2231 -1.0221  0.3304
 9532SOL     OW40231   0.718   2.881   6.985 -0.2352  0.0850 -0.1615
 9532SOL    HW140232   0.625   2.860   6.981 -0.4938  1.3201 -0.6657
 9532SOL    HW240233   0.762   2.796   6.982 -0.3980  0.0418 -1.3199
 9533SOL     OW40234   1.523   2.925  11.841  0.3079  0.1340 -0.4149
 9533SOL    HW140235   1.556   2.857  11.900 -0.7229  0.0108  0.0228
 9533SOL    HW240236   1.601   2.979  11.829  2.1433 -2.2306  0.9642
 9534SOL     OW40237   2.185   4.118  17.737  0.1494  0.0055 -0.2573
 9534SOL    HW140238   2.151   4.029  17.731 -1.4920  0.6749 -0.6176
 9534SOL    HW240239   2.130   4.164  17.675  1.1484  0.4912 -0.7829
 9535SOL     OW40240   4.253   0.608   7.201 -0.3275 -0.1327  0.0071
 9535SOL    HW140241   4.306   0.681   7.168  1.3556 -0.4421  2.0746
 9535SOL    HW240242   4.217   0.644   7.282  1.2415 -0.4084  0.8128
 9536SOL     OW40243   0.543   1.458   9.508  0.3568  0.9088  1.0544
 9536SOL    HW140244   0.471   1.415   9.554 -1.1713 -1.1733 -3.2231
 9536SOL    HW240245   0.605   1.386   9.504  1.9037  2.4223 -2.1874
 9537SOL     OW40246   1.135   1.459   7.707 -0.2945 -0.2171 -0.3263
 9537SOL    HW140247   1.104   1.498   7.625  0.2164  0.1516 -0.3458
 9537SOL    HW240248   1.227   1.487   7.702 -0.3050  0.2725  2.1267
 9538SOL     OW40249   3.002   0.504   1.719 -0.0068  0.3685  0.3505
 9538SOL    HW140250   3.043   0.587   1.695  0.3424  1.8584  6.2065
 9538SOL    HW240251   3.055   0.433   1.681 -1.3388 -0.3571 -0.1359
 9539SOL     OW40252   0.802   2.030   7.058  0.2721  0.3832  0.0337
 9539SOL    HW140253   0.713   2.006   7.034  0.1291  1.8259 -0.8539
 9539SOL    HW240254   0.776   2.101   7.117  3.1601  1.8038 -0.4125
 9540SOL     OW40255   4.221   1.029   9.570  0.0602  0.1287  0.2909
 9540SOL    HW140256   4.308   1.068   9.580 -0.3560  0.9607  0.6261
 9540SOL    HW240257   4.230   0.972   9.493 -0.8378 -0.1704  0.4031
 9541SOL     OW40258   2.074   2.584   2.688  0.1991  0.1592  0.1696
 9541SOL    HW140259   2.088   2.493   2.665  0.8265  0.4745 -0.6837
 9541SOL    HW240260   1.980   2.575   2.701  0.1457  0.9548  0.3465
 9542SOL     OW40261   3.760   4.541  11.927 -0.0765  0.5100  0.5581
 9542SOL    HW140262   3.691   4.580  11.873  4.1409  2.4736 -3.3781
 9542SOL    HW240263   3.773   4.453  11.893 -0.5428 -0.0078  1.7028
 9543SOL     OW40264   4.398   0.379  14.844  0.1596  0.1239 -0.2542
 9543SOL    HW140265   4.311   0.414  14.827 -0.2975 -1.6664 -1.5042
 9543SOL    HW240266   4.392   0.288  14.815 -0.3145  0.3243 -0.7924
 9544SOL     OW40267   1.980   3.842   2.990  0.4632 -0.1182  0.0463
 9544SOL    HW140268   1.987   3.759   2.943  0.0001 -0.1928  0.1113
 9544SOL    HW240269   1.946   3.801   3.070  1.2980  3.3147  2.1690
 9545SOL     OW40270   1.832   2.718   8.203  0.6474 -0.1133 -0.3850
 9545SOL    HW140271   1.764   2.703   8.137 -0.3256  2.0989  0.1199
 9545SOL    HW240272   1.792   2.784   8.260 -0.8326 -0.8568 -0.5438
 9546SOL     OW40273   4.250   1.709   4.981 -0.3022 -0.2925  0.5486
 9546SOL    HW140274   4.261   1.696   5.075  0.0024 -1.0868  0.3996
 9546SOL    HW240275   4.154   1.716   4.976 -0.1826  1.6041  0.9520
 9547SOL     OW40276   1.248   3.658  13.020 -0.0265  0.0832  0.3601
 9547SOL    HW140277   1.157   3.674  12.996 -0.4101  0.0397  1.7804
 9547SOL    HW240278   1.270   3.716  13.093  1.6276 -1.3448  0.9890
 9548SOL     OW40279   0.493   1.330   6.505 -0.2292  0.1940 -0.0277
 9548SOL    HW140280   0.433   1.345   6.431 -0.1126  1.0871  0.0578
 9548SOL    HW240281   0.506   1.235   6.501  0.0509  0.2181  0.3358
 9549SOL     OW40282   0.897   2.980   0.262 -0.3827  0.4466 -0.1100
 9549SOL    HW140283   0.874   2.992   0.170 -2.0969  0.1837  0.2833
 9549SOL    HW240284   0.828   3.027   0.309 -1.3390  1.7375 -2.7777
 9550SOL     OW40285   1.357   0.650  16.860 -0.9241 -0.0261  0.1584
 9550SOL    HW140286   1.372   0.608  16.945  0.0317  2.8202  1.4039
 9550SOL    HW240287   1.263   0.633  16.855 -0.4150 -2.5188 -1.1782
 9551SOL     OW40288   4.150   2.203   6.378  0.0349  0.0664  0.6790
 9551SOL    HW140289   4.085   2.271   6.361 -0.5463 -0.4233  0.9388
 9551SOL    HW240290   4.221   2.244   6.328  0.8227 -0.5081  1.3055
 9552SOL     OW40291   3.538   0.626   3.464 -0.1745 -0.8259  0.5273
 9552SOL    HW140292   3.548   0.553   3.526 -0.6681 -1.5843 -0.2838
 9552SOL    HW240293   3.569   0.701   3.515 -2.8330 -0.1644  1.1698
 9553SOL     OW40294   2.992   4.401   1.751 -0.0944  0.1550 -0.2581
 9553SOL    HW140295   3.034   4.442   1.674  1.9006 -0.0521  0.7065
 9553SOL    HW240296   2.943   4.475   1.786  1.6043  1.2616 -0.1914
 9554SOL     OW40297   2.274   4.615  13.671  0.4738 -0.3170 -0.0586
 9554SOL    HW140298   2.250   4.685  13.732  1.2159  0.8770 -1.1339
 9554SOL    HW240299   2.206   4.615  13.604  1.6689 -2.1277 -1.2781
 9555SOL     OW40300   1.437   3.790   9.512  0.6436 -0.2693 -0.4686
 9555SOL    HW140301   1.358   3.747   9.544 -0.2340  0.3227 -1.8667
 9555SOL    HW240302   1.437   3.868   9.567 -0.9019 -0.4445 -0.2235
 9556SOL     OW40303   3.424   3.383  17.167  0.2600  0.2642 -0.6169
 9556SOL    HW140304   3.501   3.327  17.180  0.2299  0.1840 -0.7820
 9556SOL    HW240305   3.376   3.342  17.095 -1.5774  1.3838 -0.0159
 9557SOL     OW40306   0.447   2.056   9.771  0.0216  0.7415  0.1271
 9557SOL    HW140307   0.499   2.124   9.729 -1.0113  2.5971  1.9050
 9557SOL    HW240308   0.510   2.026   9.837  1.6140  1.0820 -1.2123
 9558SOL     OW40309   1.026   3.481   4.743  0.2227  0.2068  0.1335
 9558SOL    HW140310   0.975   3.562   4.739  0.4736  0.3076 -1.1205
 9558SOL    HW240311   0.994   3.455   4.829  1.8501 -0.8660  0.4143
 9559SOL     OW40312   3.150   4.553  16.304 -0.4479  0.3959  0.3853
 9559SOL    HW140313   3.119   4.617  16.240  0.6543  2.3199  1.7825
 9559SOL    HW240314   3.185   4.483  16.248 -0.7108  1.8735 -1.6104
 9560SOL     OW40315   1.814   2.133  13.057  0.0757  0.4663 -0.3941
 9560SOL    HW140316   1.851   2.059  13.010 -0.0153 -0.0096  0.2814
 9560SOL    HW240317   1.883   2.139  13.123 -1.0894  0.6272  0.8146
 9561SOL     OW40318   1.985   1.337   5.407  0.1380 -0.4506 -0.5442
 9561SOL    HW140319   1.930   1.309   5.333 -3.0296  1.5934  1.0358
 9561SOL    HW240320   1.926   1.313   5.479  3.6913  0.3567  2.6494
 9562SOL     OW40321   2.807   0.415   9.048  0.0409 -0.1389  0.3498
 9562SOL    HW140322   2.743   0.365   9.099 -0.1915  0.3761  0.5607
 9562SOL    HW240323   2.838   0.486   9.103  0.2666  0.3617 -0.4308
 9563SOL     OW40324   0.735   4.013   4.922  0.0328 -0.0982 -0.1480
 9563SOL    HW140325   0.735   4.057   5.006  1.2325 -0.8844  0.2691
 9563SOL    HW240326   0.800   4.066   4.876  2.6211 -0.6931  2.8321
 9564SOL     OW40327   0.188   4.080  17.087  0.3496  0.0882 -0.2413
 9564SOL    HW140328   0.110   4.136  17.082 -0.7699 -1.3408  1.4306
 9564SOL    HW240329   0.249   4.147  17.117 -1.3623  2.0171 -1.0175
 9565SOL     OW40330   3.492   4.566   3.982 -0.2350 -0.2747  0.2352
 9565SOL    HW140331   3.486   4.644   4.037  0.1453 -0.2491  0.2402
 9565SOL    HW240332   3.415   4.577   3.927 -0.7794 -4.8805  0.0459
 9566SOL     OW40333   0.887   1.657  14.270  0.2506 -0.0646  0.0158
 9566SOL    HW140334   0.897   1.752  14.278  0.6608 -0.0706 -0.4870
 9566SOL    HW240335   0.894   1.631  14.362  1.0769  2.7492  0.7347
 9567SOL     OW40336   2.966   3.377   1.950  0.4059 -0.3718 -0.5081
 9567SOL    HW140337   2.928   3.296   1.917  1.7462  0.0792 -3.1607
 9567SOL    HW240338   2.901   3.443   1.927 -0.2085 -0.5343  0.7517
 9568SOL     OW40339   1.302   3.847   8.315  0.2234 -0.4692  0.5877
 9568SOL    HW140340   1.269   3.780   8.375  1.2122 -2.2100 -0.7942
 9568SOL    HW240341   1.342   3.786   8.252  0.6486 -0.1309  0.5242
 9569SOL     OW40342   1.799   1.021   2.241 -0.0183 -0.6009 -0.8173
 9569SOL    HW140343   1.843   1.103   2.261 -1.0468 -0.0945 -0.6249
 9569SOL    HW240344   1.706   1.044   2.251 -0.0928 -0.4665 -1.8630
   4.73859   4.73859  17.75233
