Membrane in water
40344
    1TMC1    C1    1   2.766   0.825  11.437  0.0122 -0.6942 -0.1713
    1TMC1    C2    2   2.674   0.924  11.445  0.2775 -0.2771  0.8535
    1TMC1    C3    3   2.700   1.046  11.383  0.1778  0.1179  0.1601
    1TMC1    C4    4   2.896   0.857  11.408  0.4869 -0.3897 -0.4082
    1TMC1    C5    5   2.917   0.987  11.371 -0.4096 -0.5725 -0.3027
    1TMC1    C6    6   2.822   1.078  11.336  0.2850  0.7950  0.3732
    1TMC1     C    7   2.731   0.696  11.505 -0.2580  0.9229 -1.0082
    1TMC1     O    8   2.633   0.697  11.583 -0.2742 -0.1641 -0.6491
    1TMC1     H    9   2.575   0.894  11.478  0.3823 -1.1927  0.3492
    1TMC1    H1   10   2.974   0.785  11.431 -0.3033 -1.7558 -1.9963
    1TMC1    H2   11   2.852   1.177  11.303  0.6880  0.7758  0.6928
    1TMC1    C7   12   3.049   1.042  11.353 -0.7725 -0.2852 -0.2764
    1TMC1    C8   13   2.584   1.128  11.342 -0.1986 -0.5274 -0.3558
    1TMC1    O1   14   3.069   1.141  11.284 -0.6534 -0.0623  0.2256
    1TMC1    O2   15   2.477   1.103  11.389 -0.8048 -0.7909  0.2128
    1TMC1    O3   16   3.141   0.951  11.399  0.5098 -0.3856  0.6755
    1TMC1    H3   17   3.107   0.893  11.470  0.2908  1.4651  2.0718
    1TMC1    O5   18   2.605   1.216  11.239  0.4832 -0.3029  0.1384
    1TMC1    H5   19   2.693   1.197  11.201 -0.0356  0.1593 -1.3001
    2MPD2     C   20   2.831   0.203  11.563 -0.3820  0.7680  0.1812
    2MPD2    C1   21   2.773   0.291  11.655  0.0720  0.5810  0.6305
    2MPD2    C2   22   2.768   0.425  11.619  0.7426  0.2000 -0.6551
    2MPD2    C3   23   2.812   0.462  11.493  1.0194  0.1595 -0.2350
    2MPD2    C4   24   2.859   0.376  11.400  0.4809 -0.5520  0.1783
    2MPD2    C5   25   2.873   0.246  11.436 -1.1707 -0.3173 -0.8919
    2MPD2     H   26   2.746   0.497  11.697  1.5419 -1.5479  1.1776
    2MPD2    H1   27   2.888   0.404  11.300 -0.9525  0.8570  0.1625
    2MPD2    H2   28   2.844   0.099  11.590  1.7217  0.6103 -1.4729
    2MPD2    H3   29   2.909   0.173  11.365 -0.0607 -0.0954 -0.5476
    2MPD2     N   30   2.810   0.598  11.451  0.2273 -0.6013  0.2755
    2MPD2    H5   31   2.861   0.632  11.370  1.8734 -2.2617  0.6232
    2MPD2    N1   32   2.724   0.261  11.782 -0.3974 -0.3543  0.1521
    2MPD2    H7   33   2.691   0.341  11.835 -2.5607 -1.1335 -0.0363
    3TMC1    C1   34   2.159   2.021  10.506  0.0269 -0.3527  0.3348
    3TMC1    C2   35   2.258   1.973  10.585  0.6132 -0.3613  0.9628
    3TMC1    C3   36   2.323   2.073  10.657  0.0739 -0.5750 -0.4465
    3TMC1    C4   37   2.128   2.145  10.492 -0.4704 -0.2286 -0.2234
    3TMC1    C5   38   2.199   2.238  10.556  0.2170  0.0066  0.2645
    3TMC1    C6   39   2.300   2.207  10.640  0.5367 -0.1889 -0.5234
    3TMC1     C   40   2.057   1.919  10.503 -0.1383 -0.0480  0.4387
    3TMC1     O   41   2.090   1.803  10.479  0.4738  0.2453 -0.1926
    3TMC1     H   42   2.255   1.872  10.625  0.4094 -0.8540 -0.3177
    3TMC1    H1   43   2.058   2.173  10.415 -0.1140 -2.7893 -1.4767
    3TMC1    H2   44   2.344   2.262  10.723  0.8552  0.3597 -1.0551
    3TMC1    C7   45   2.190   2.373  10.514  0.0946  0.1795  0.2259
    3TMC1    C8   46   2.366   2.035  10.787 -0.1719 -0.3167  0.0944
    3TMC1    O1   47   2.077   2.420  10.486  0.3249  0.1217  0.0698
    3TMC1    O2   48   2.334   2.089  10.893 -0.0176 -0.0436 -0.1280
    3TMC1    O3   49   2.304   2.441  10.551 -0.2305  0.0721 -0.2585
    3TMC1    H3   50   2.389   2.393  10.554 -0.6075 -0.5530  0.3270
    3TMC1    O5   51   2.424   1.915  10.769  0.3883  0.0037 -0.1594
    3TMC1    H5   52   2.442   1.901  10.673  1.5106 -0.0023  0.0601
    4MPD2     C   53   1.568   1.772  10.487 -0.3168  0.1429 -0.0809
    4MPD2    C1   54   1.575   1.907  10.508 -0.0850 -0.1553  0.0901
    4MPD2    C2   55   1.697   1.970  10.513  0.0883 -0.7175 -0.1448
    4MPD2    C3   56   1.816   1.902  10.508 -0.6426 -0.0141  0.3675
    4MPD2    C4   57   1.806   1.763  10.481  0.1333 -0.2326 -0.9374
    4MPD2    C5   58   1.684   1.700  10.475 -0.5266 -0.3123 -0.8469
    4MPD2     H   59   1.689   2.078  10.524 -0.6630 -0.9589  1.5996
    4MPD2    H1   60   1.897   1.705  10.480  0.7268  0.7059 -0.5192
    4MPD2    H2   61   1.472   1.723  10.477 -0.0931 -0.3263  0.0814
    4MPD2    H3   62   1.686   1.592  10.463  1.0403 -0.6917  2.9545
    4MPD2     N   63   1.934   1.970  10.520  0.3539 -0.3561  0.1763
    4MPD2    H5   64   1.928   2.068  10.543 -2.0021 -0.9426  2.1026
    4MPD2    N1   65   1.454   1.984  10.520  0.6456 -0.0081 -0.0587
    4MPD2    H7   66   1.463   2.085  10.516 -1.4120  0.0882 -2.3410
    5TCq1    O1   67   2.194   3.573  10.146  0.6198 -0.3277 -0.0335
    5TCq1    C1   68   2.235   3.517  10.265  0.1151 -0.1121  0.2073
    5TCq1    O2   69   2.168   3.513  10.368  0.5756 -0.4757  0.0673
    5TCq1    C2   70   2.355   3.437  10.244  0.3702  0.3648 -0.3193
    5TCq1    C3   71   2.452   3.474  10.153  0.0972 -0.2356 -0.6672
    5TCq1    C4   72   2.571   3.407  10.158 -0.2378 -0.2837 -0.1551
    5TCq1    C5   73   2.600   3.303  10.244  0.2454 -0.1117  0.0298
    5TCq1    C6   74   2.498   3.275  10.337  0.4277  0.1123 -0.3572
    5TCq1    C7   75   2.387   3.347  10.342 -0.2948 -0.4258 -0.0259
    5TCq1    C8   76   2.493   3.148  10.408 -0.2143  0.3816  0.2929
    5TCq1    O4   77   2.402   3.121  10.487  0.2481 -0.4331  0.0966
    5TCq1    C9   78   2.679   3.451  10.067 -0.4058 -0.3341  0.5602
    5TCq1    O5   79   2.644   3.528   9.975  0.5251  1.0360 -0.0261
    5TCq1    O6   80   2.790   3.388  10.065  0.0624 -0.4541 -0.3661
    5TCq1    H1   81   2.248   3.551  10.067  1.9119  1.7138  0.2513
    5TCq1    H2   82   2.448   3.566  10.098 -3.0660  0.9788  1.5542
    5TCq1    H3   83   2.689   3.246  10.221  2.1922  3.0197 -0.1487
    5TCq1    H4   84   2.301   3.318  10.402  0.5072  0.1971  1.4113
    6MPD2     C   85   2.708   2.857  10.346 -0.0732  1.0907  0.1369
    6MPD2    C1   86   2.624   2.943  10.418 -0.1241  0.4504 -0.5255
    6MPD2    C2   87   2.570   2.895  10.538 -0.2485  0.9876 -0.2167
    6MPD2    C3   88   2.611   2.771  10.594  0.4451 -0.5972  0.3856
    6MPD2    C4   89   2.708   2.698  10.528  0.1901  0.8696  0.4499
    6MPD2    C5   90   2.751   2.738  10.402  0.1022 -0.2182 -0.2151
    6MPD2     H   91   2.496   2.957  10.587 -1.3664 -0.7621  0.3073
    6MPD2    H1   92   2.732   2.599  10.567  1.0647  0.5800 -0.8410
    6MPD2    H2   93   2.752   2.899  10.256  0.0973  0.1365 -0.2204
    6MPD2    H3   94   2.829   2.684  10.351  2.0792 -0.6299  3.2539
    6MPD2     N   95   2.563   2.727  10.716  0.0964  0.2971  0.4297
    6MPD2    H5   96   2.503   2.798  10.758  2.2724  1.9232  0.8087
    6MPD2    N1   97   2.596   3.068  10.365 -0.2413 -0.3908 -0.4248
    6MPD2    H7   98   2.652   3.087  10.283  2.7694  1.8187  2.1172
    7TCq1    O1   99   4.114   1.790  13.877  0.4956  0.4888 -0.3191
    7TCq1    C1  100   4.204   1.882  13.833 -0.2551 -0.2229 -0.3551
    7TCq1    O2  101   4.257   1.955  13.911 -0.5870  0.5411 -0.2230
    7TCq1    C2  102   4.268   1.823  13.714  0.7062 -0.2595  0.4052
    7TCq1    C3  103   4.186   1.780  13.613  0.2193  0.3634 -0.8469
    7TCq1    C4  104   4.247   1.704  13.509 -0.1860 -0.1803  0.6019
    7TCq1    C5  105   4.379   1.667  13.509  0.2074 -0.1616  0.4916
    7TCq1    C6  106   4.459   1.718  13.612  0.3176 -0.0479 -0.5932
    7TCq1    C7  107   4.405   1.800  13.711  0.5675  0.1033  0.4142
    7TCq1    C8  108   4.599   1.698  13.596  0.6118  0.0282 -0.6550
    7TCq1    O4  109   4.633   1.611  13.521 -0.4094 -0.1333  0.4631
    7TCq1    C9  110   4.161   1.660  13.399 -0.0403  0.1493  0.4048
    7TCq1    O5  111   4.049   1.717  13.402 -0.1460 -0.1945  0.0763
    7TCq1    O6  112   4.223   1.626  13.294  0.1767 -0.4344  0.3103
    7TCq1    H1  113   4.106   1.708  13.823  0.1587 -0.7521  1.5781
    7TCq1    H2  114   4.079   1.794  13.624  0.2394 -0.0397 -0.0694
    7TCq1    H3  115   4.413   1.598  13.433  1.0568  0.0077  0.7189
    7TCq1    H4  116   4.468   1.835  13.792 -1.1849  1.8455  1.0267
    8MPD2     C  117   0.346   1.754  13.701 -0.3023  0.3866 -0.5674
    8MPD2    C1  118   0.281   1.660  13.629  0.1540  0.2485 -0.1322
    8MPD2    C2  119   0.155   1.685  13.592  0.1205  0.4109 -0.1880
    8MPD2    C3  120   0.085   1.784  13.659  0.1393  1.0462 -0.0328
    8MPD2    C4  121   0.152   1.874  13.737 -0.4145 -0.1984  0.5176
    8MPD2    C5  122   0.286   1.864  13.749 -0.2236 -0.2595 -0.2988
    8MPD2     H  123   0.101   1.623  13.522  1.0200  0.5228 -0.9720
    8MPD2    H1  124   0.094   1.955  13.780 -1.5963 -0.1648 -1.1359
    8MPD2    H2  125   0.447   1.735  13.737 -0.6412  0.1507  0.2657
    8MPD2    H3  126   0.335   1.932  13.818 -0.3885 -2.2852  1.8352
    8MPD2     N  127   4.677   1.782  13.667  0.0741  0.3558  0.2291
    8MPD2    H5  128   4.635   1.861  13.715 -1.8102  0.0087 -0.8422
    8MPD2    N1  129   0.361   1.548  13.593 -0.4597 -0.3870 -0.4077
    8MPD2    H7  130   0.458   1.573  13.612 -0.7377 -0.3775  0.9342
    9TMC1    C1  131   1.959   1.810  11.549  0.1708 -0.7850  0.1198
    9TMC1    C2  132   1.918   1.790  11.421  0.3336  0.1868  0.4407
    9TMC1    C3  133   2.022   1.761  11.332  0.4410  0.1023 -0.4995
    9TMC1    C4  134   2.088   1.793  11.588  0.1097 -0.2165 -0.0174
    9TMC1    C5  135   2.183   1.743  11.497 -0.1699 -0.3124  0.6227
    9TMC1    C6  136   2.147   1.729  11.371 -0.6289  0.0891  0.1221
    9TMC1     C  137   1.860   1.814  11.653 -0.4790  0.1297 -0.4315
    9TMC1     O  138   1.765   1.889  11.648 -0.5051  0.1818 -0.7349
    9TMC1     H  139   1.816   1.793  11.386  1.2219 -1.3876 -2.2319
    9TMC1    H1  140   2.128   1.823  11.684 -0.7355  0.0683  0.2462
    9TMC1    H2  141   2.231   1.715  11.304 -0.7610  1.3154 -0.2999
    9TMC1    C7  142   2.324   1.772  11.520 -0.7138  0.5724  0.1762
    9TMC1    C8  143   1.996   1.779  11.197  0.0543 -0.3911 -0.9035
    9TMC1    O1  144   2.394   1.809  11.426  0.2325 -0.4018  0.6572
    9TMC1    O2  145   1.894   1.837  11.160  0.1984  0.0694 -0.4616
    9TMC1    O3  146   2.371   1.738  11.644 -0.8008 -0.3125 -0.3141
    9TMC1    H3  147   2.308   1.702  11.710 -0.2458  0.4412  0.6178
    9TMC1    O5  148   2.056   1.670  11.133  0.6830 -0.4032 -0.0807
    9TMC1    H5  149   2.119   1.614  11.184  0.0004 -1.7719 -0.7338
   10MPD2     C  150   1.739   1.710  11.902  0.8652 -0.0182 -0.1731
   10MPD2    C1  151   1.848   1.657  11.847  0.7797 -0.2049  0.1403
   10MPD2    C2  152   1.914   1.552  11.905 -0.9451 -0.2141 -0.0763
   10MPD2    C3  153   1.871   1.505  12.029  1.0263  0.7962  0.1810
   10MPD2    C4  154   1.759   1.562  12.084 -0.2385 -0.4679 -0.1042
   10MPD2    C5  155   1.698   1.663  12.020 -0.8473 -0.4271  0.2233
   10MPD2     H  156   2.006   1.519  11.858 -0.4690 -0.9763  1.3571
   10MPD2    H1  157   1.711   1.521  12.172 -0.4956  1.7999  0.7854
   10MPD2    H2  158   1.691   1.797  11.858  0.2964 -0.7059 -0.9137
   10MPD2    H3  159   1.615   1.713  12.069 -0.6017 -0.9889  1.2067
   10MPD2     N  160   1.932   1.404  12.098  0.2197  0.0640  0.1736
   10MPD2    H5  161   1.886   1.376  12.184  1.8119 -2.2062  0.2969
   10MPD2    N1  162   1.903   1.707  11.730 -0.3572  0.3116  0.1682
   10MPD2    H7  163   1.984   1.653  11.700  2.2570  4.2590  0.1272
   11TCq1    O1  164   2.831   1.243  14.263  0.4326  0.0588 -0.1097
   11TCq1    C1  165   2.802   1.198  14.141 -0.0878 -0.3531 -0.5762
   11TCq1    O2  166   2.750   1.269  14.058  0.0062 -0.1851  0.2164
   11TCq1    C2  167   2.819   1.058  14.121  0.1345  0.1760  0.0227
   11TCq1    C3  168   2.939   0.996  14.160  0.3241 -0.7992 -0.1391
   11TCq1    C4  169   2.970   0.880  14.102  0.3007 -0.7910 -0.9744
   11TCq1    C5  170   2.883   0.811  14.021 -0.5258 -0.5211 -1.0256
   11TCq1    C6  171   2.767   0.874  13.982  0.7969 -0.7933 -0.2728
   11TCq1    C7  172   2.736   0.994  14.038  0.0659 -0.2785 -0.3637
   11TCq1    C8  173   2.674   0.809  13.899  0.3851 -0.6967  0.3209
   11TCq1    O4  174   2.576   0.869  13.860  0.0726 -0.2639  0.5718
   11TCq1    C9  175   3.102   0.825  14.113  0.5334 -0.0697 -0.3646
   11TCq1    O5  176   3.137   0.735  14.034  0.2267 -0.2461  0.0738
   11TCq1    O6  177   3.163   0.852  14.215  0.3897  0.2627 -0.0301
   11TCq1    H1  178   2.861   1.181  14.332  0.6252  2.2640  1.7532
   11TCq1    H2  179   3.014   1.055  14.212  0.3680  0.4994 -1.6853
   11TCq1    H3  180   2.917   0.715  13.986  0.8450  0.0617 -1.3223
   11TCq1    H4  181   2.642   1.041  14.010  0.5437  2.2897  2.3267
   12MPD2     C  182   2.565   0.641  13.675  0.5575  0.3299  1.4885
   12MPD2    C1  183   2.649   0.595  13.777  0.9621  0.8819  0.0470
   12MPD2    C2  184   2.675   0.465  13.780  0.4612  0.0002 -0.4576
   12MPD2    C3  185   2.635   0.379  13.674  0.2580 -0.9433  0.3841
   12MPD2    C4  186   2.555   0.429  13.577 -0.8716 -0.0204  0.1306
   12MPD2    C5  187   2.515   0.557  13.575 -0.1478  0.0952 -0.5617
   12MPD2     H  188   2.734   0.436  13.866  2.4334 -1.9281 -2.4521
   12MPD2    H1  189   2.515   0.366  13.498 -0.7670  0.4217 -0.2833
   12MPD2    H2  190   2.539   0.746  13.667  1.2385  0.0585 -4.3922
   12MPD2    H3  191   2.455   0.609  13.501 -0.0843  2.4249  1.0161
   12MPD2     N  192   2.674   0.239  13.664  0.2798  0.2480  0.2884
   12MPD2    H5  193   2.648   0.187  13.580  2.6008  1.2962 -1.0764
   12MPD2    N1  194   2.707   0.673  13.883 -0.2197  0.7194  0.2807
   12MPD2    H7  195   2.781   0.634  13.940  0.9842 -0.7958 -2.3347
   13TCq1    O1  196   2.518   0.810  10.957  0.5102 -0.6277 -0.0969
   13TCq1    C1  197   2.520   0.919  11.031  0.2678 -0.5602 -0.6250
   13TCq1    O2  198   2.601   0.942  11.116 -0.2226 -0.1907 -0.1332
   13TCq1    C2  199   2.378   0.956  11.027 -0.0348 -0.0598  0.0655
   13TCq1    C3  200   2.318   0.990  10.903 -0.7031 -0.6346  0.4747
   13TCq1    C4  201   2.199   1.055  10.895 -0.0072  0.2813 -0.0245
   13TCq1    C5  202   2.136   1.078  11.014 -0.0548  0.2848  0.4865
   13TCq1    C6  203   2.197   1.055  11.134  0.0217 -0.5750  0.0230
   13TCq1    C7  204   2.321   0.994  11.141  0.8803 -0.0936 -0.5860
   13TCq1    C8  205   2.123   1.088  11.255  0.4006  0.2907 -0.6346
   13TCq1    O4  206   2.028   1.167  11.257 -0.1797  1.0409  0.1362
   13TCq1    C9  207   2.122   1.056  10.770  0.6210 -0.3546  0.3067
   13TCq1    O5  208   2.001   1.032  10.787  0.4852  0.1891 -0.1351
   13TCq1    O6  209   2.171   1.025  10.656  0.8163  0.2163 -0.6869
   13TCq1    H1  210   2.424   0.804  10.927  0.6690 -1.6758 -0.3925
   13TCq1    H2  211   2.359   0.957  10.808 -0.5377  2.4237 -0.5128
   13TCq1    H3  212   2.034   1.114  11.004 -0.1321  0.1447  0.7747
   13TCq1    H4  213   2.376   0.979  11.234 -1.2940  1.8774  1.0116
   14MPD2     C  214   2.213   0.971  11.584 -0.0031  0.2671  0.4055
   14MPD2    C1  215   2.141   1.044  11.498 -0.1545  0.6658  0.1346
   14MPD2    C2  216   2.030   1.117  11.536  0.0457 -0.4439  0.0124
   14MPD2    C3  217   1.987   1.109  11.665  0.5825 -0.6396  0.9672
   14MPD2    C4  218   2.065   1.039  11.758  0.3938 -0.5564  0.1968
   14MPD2    C5  219   2.170   0.963  11.714  0.1522  0.4235  0.2096
   14MPD2     H  220   1.976   1.182  11.468 -2.7323  0.0959  2.7430
   14MPD2    H1  221   2.045   1.034  11.864 -0.0687  1.5440  0.2091
   14MPD2    H2  222   2.306   0.923  11.557 -0.0295  0.0942  0.6249
   14MPD2    H3  223   2.239   0.918  11.784 -0.3707  0.2227  0.5933
   14MPD2     N  224   1.874   1.179  11.703 -0.1308  0.6156  0.0238
   14MPD2    H5  225   1.832   1.240  11.634 -2.1308  0.1019  0.7675
   14MPD2    N1  226   2.180   1.033  11.364  0.0391 -0.0746  0.1357
   14MPD2    H7  227   2.262   0.976  11.347 -0.4858 -0.6107 -0.5815
   15TCq1    O1  228   4.619   0.347   1.765  0.0120 -0.4308 -0.2023
   15TCq1    C1  229   4.710   0.315   1.671  0.1298  0.2314  0.3339
   15TCq1    O2  230   0.062   0.239   1.680  0.5111 -0.1330  0.0486
   15TCq1    C2  231   4.648   0.346   1.546  0.2496  0.1799 -0.1610
   15TCq1    C3  232   4.518   0.399   1.531  0.1667 -0.2545 -0.1642
   15TCq1    C4  233   4.478   0.431   1.403  0.1844  0.2648 -0.2365
   15TCq1    C5  234   4.560   0.416   1.298 -0.2557  0.4538  0.0222
   15TCq1    C6  235   4.673   0.341   1.312  0.0004 -0.5830  0.1234
   15TCq1    C7  236   4.724   0.310   1.438  0.5422 -0.5454 -0.2212
   15TCq1    C8  237   0.006   0.280   1.197 -0.0425  0.2329 -0.4894
   15TCq1    O4  238   0.123   0.241   1.211 -0.1857  0.0751  0.3084
   15TCq1    C9  239   4.355   0.499   1.387 -0.2654 -0.0286  0.7571
   15TCq1    O5  240   4.278   0.521   1.485 -0.4743 -0.0796  0.2829
   15TCq1    O6  241   4.355   0.582   1.289  0.6539  0.5975  0.8546
   15TCq1    H1  242   4.567   0.428   1.749  2.1996  0.8009 -1.0924
   15TCq1    H2  243   4.437   0.406   1.602 -0.4800  3.5256 -1.2889
   15TCq1    H3  244   4.521   0.451   1.203  1.9004 -0.9635 -1.3971
   15TCq1    H4  245   0.086   0.270   1.451  0.8939 -0.0987 -1.6147
   16MPD2     C  246   4.582   0.216   0.874  0.2940 -0.5970 -0.0172
   16MPD2    C1  247   4.685   0.227   0.961 -0.4692 -0.3954 -0.2624
   16MPD2    C2  248   0.073   0.178   0.924  0.9705  0.2344  0.1717
   16MPD2    C3  249   0.088   0.111   0.807 -0.0073 -0.2333  0.8371
   16MPD2    C4  250   4.722   0.098   0.717  0.1294 -0.5222 -0.2281
   16MPD2    C5  251   4.598   0.140   0.762  0.1673  0.0213  0.3094
   16MPD2     H  252   0.155   0.180   0.994 -0.1430 -0.1981  1.4987
   16MPD2    H1  253   4.735   0.043   0.625 -2.2556 -2.6268  0.6894
   16MPD2    H2  254   4.480   0.232   0.908  0.1848 -1.5795  0.1288
   16MPD2    H3  255   4.513   0.111   0.702 -1.1684  2.2624  1.1382
   16MPD2     N  256   0.215   0.055   0.785  0.4908 -0.1694 -0.6796
   16MPD2    H5  257   0.284   0.070   0.858  0.3109  1.3735 -0.8311
   16MPD2    N1  258   4.659   0.271   1.094  0.2337  0.1588  0.3097
   16MPD2    H7  259   4.565   0.306   1.114 -0.0261  1.4970 -3.3160
   17TMC1    C1  260   2.488   4.393  12.026 -0.7259 -0.0366 -0.2103
   17TMC1    C2  261   2.623   4.366  12.023  0.2908 -0.1254 -0.2964
   17TMC1    C3  262   2.668   4.241  12.037 -0.1503 -0.1854  0.0120
   17TMC1    C4  263   2.398   4.303  12.068  0.4638 -0.4143  0.5759
   17TMC1    C5  264   2.452   4.180  12.103 -0.1853 -0.3104 -0.1399
   17TMC1    C6  265   2.584   4.147  12.082  0.0353  1.2075 -0.2122
   17TMC1     C  266   2.443   4.528  11.984  0.1891 -0.3013 -0.4105
   17TMC1     O  267   2.349   4.573  12.047 -0.0429  0.4282 -0.2321
   17TMC1     H  268   2.699   4.441  12.002  0.2054 -0.0323 -0.2736
   17TMC1    H1  269   2.293   4.327  12.057  0.0964 -1.8314  0.9879
   17TMC1    H2  270   2.616   4.051  12.119  0.9646  1.3795 -0.5818
   17TMC1    C7  271   2.366   4.080  12.150 -0.3255 -0.3155  0.4344
   17TMC1    C8  272   2.802   4.211  12.001  0.2029  0.1071  0.4882
   17TMC1    O1  273   2.378   3.964  12.124 -0.3197 -0.2179 -0.3557
   17TMC1    O2  274   2.879   4.304  12.026 -0.1824 -0.0741 -0.5259
   17TMC1    O3  275   2.256   4.132  12.215 -0.8344  0.5079  0.2284
   17TMC1    H3  276   2.258   4.226  12.244  0.7631  0.5830 -0.1067
   17TMC1    O5  277   2.822   4.084  12.045 -0.3061  0.0396  0.2560
   17TMC1    H5  278   2.748   4.032  12.007  1.5240 -0.3951 -2.7246
   18MPD2     C  279   2.390   0.043  11.813 -0.8498  0.0768  0.1628
   18MPD2    C1  280   2.476   4.677  11.782 -0.3544  0.2807 -0.4601
   18MPD2    C2  281   2.538   4.673  11.661  0.1184  0.3492 -0.1122
   18MPD2    C3  282   2.514   0.040  11.570 -0.7582  0.0664 -0.7956
   18MPD2    C4  283   2.439   0.144  11.601 -0.3394  0.3443 -0.5108
   18MPD2    C5  284   2.375   0.138  11.720 -0.0600  0.2095  0.3847
   18MPD2     H  285   2.590   4.582  11.636 -1.2122 -0.3068 -0.5216
   18MPD2    H1  286   2.427   0.227  11.532  0.0521  0.5588 -0.3250
   18MPD2    H2  287   2.344   0.044  11.911  0.6191  0.4554  0.8503
   18MPD2    H3  288   2.306   0.219  11.740 -0.7985 -0.0784 -0.9841
   18MPD2     N  289   2.568   0.043  11.440 -0.2144  0.6397 -0.4269
   18MPD2    H5  290   2.529   0.123  11.391  1.0294  1.3159 -0.3053
   18MPD2    N1  291   2.512   4.568  11.870  0.1761 -0.1053 -0.1641
   18MPD2    H7  292   2.583   4.503  11.836 -1.3955 -0.6692 -2.4200
   19TMC2    C1  293   4.296   0.646  13.675 -0.4585 -0.1049 -0.1154
   19TMC2    C2  294   4.234   0.733  13.588  0.6747 -0.6893 -0.0859
   19TMC2    C3  295   4.120   0.797  13.622 -0.3696 -0.8609 -0.7753
   19TMC2    C4  296   4.234   0.615  13.790  0.5831 -0.1023 -0.9413
   19TMC2    C5  297   4.109   0.670  13.815 -0.8390  0.0938 -0.2790
   19TMC2    C6  298   4.052   0.753  13.727  0.1557 -0.1746  0.6386
   19TMC2     C  299   4.420   0.586  13.627  0.1104 -0.1649  0.4964
   19TMC2     O  300   4.439   0.594  13.506  0.2591 -0.6644 -0.1752
   19TMC2     H  301   4.275   0.754  13.490  0.2086  0.4492 -0.0382
   19TMC2    H1  302   4.282   0.543  13.854  1.4091 -0.2031 -1.6841
   19TMC2    H2  303   3.969   0.817  13.758  0.2253  0.7061 -1.0057
   19TMC2    C7  304   4.023   0.585  13.894  0.3269  0.6091  0.5047
   19TMC2    C8  305   4.048   0.849  13.510 -0.3151 -0.7324  0.4811
   19TMC2    O1  306   4.064   0.471  13.897  0.1733  0.0729 -0.5238
   19TMC2    O2  307   3.925   0.866  13.529 -0.2998  0.1156  0.4024
   19TMC2    O5  308   4.129   0.924  13.437  0.3428 -0.6522 -0.3500
   19TMC2    H5  309   4.225   0.917  13.455 -0.1542  0.4442  2.6446
   20MPD2     C  310   4.663   0.409  13.584  0.3726  0.7939 -0.1549
   20MPD2    C1  311   4.604   0.446  13.705  0.0662  0.7651  0.4081
   20MPD2    C2  312   4.653   0.379  13.817  0.1012 -0.3535  0.4912
   20MPD2    C3  313   0.018   0.292  13.816 -0.5817 -0.5995  0.4281
   20MPD2    C4  314   0.067   0.259  13.697  0.0810 -0.5437 -0.0821
   20MPD2    C5  315   0.023   0.311  13.586  0.8714 -0.5091  0.0183
   20MPD2     H  316   4.613   0.405  13.914  1.2923  3.8304 -0.1555
   20MPD2    H1  317   0.153   0.196  13.681 -0.8089 -2.0749  1.2057
   20MPD2    H2  318   4.621   0.452  13.493 -1.1021 -0.4338 -0.0509
   20MPD2    H3  319   0.070   0.270  13.497 -0.8513  0.8759 -1.5608
   20MPD2     N  320   0.083   0.234  13.927 -0.3527  0.2889  0.1282
   20MPD2    H5  321   0.173   0.192  13.905  0.0842  0.4428  1.6465
   20MPD2    N1  322   4.493   0.526  13.730 -0.0734  0.7313  0.0726
   20MPD2    H7  323   4.459   0.538  13.825 -1.0275 -1.3002 -0.0063
   21TMC2    C1  324   1.506   0.976  14.319  0.9482 -0.0958  0.2931
   21TMC2    C2  325   1.501   0.858  14.380 -0.0994  0.1104  0.3769
   21TMC2    C3  326   1.457   0.867  14.513  0.1093  0.3632 -0.6256
   21TMC2    C4  327   1.460   1.093  14.367 -0.7540  0.2304  0.6658
   21TMC2    C5  328   1.438   1.095  14.501  0.3594 -0.4925  0.0606
   21TMC2    C6  329   1.434   0.982  14.576  0.0116 -0.6594 -0.4509
   21TMC2     C  330   1.572   0.990  14.190 -0.0772  0.7248 -0.3328
   21TMC2     O  331   1.667   0.913  14.177 -0.4446 -0.4297  0.2769
   21TMC2     H  332   1.559   0.771  14.352  0.5157  0.6965 -0.1593
   21TMC2    H1  333   1.493   1.181  14.313 -1.0160 -0.0614  0.0287
   21TMC2    H2  334   1.438   0.978  14.685 -1.6405 -0.0750 -0.3589
   21TMC2    C7  335   1.424   1.222  14.571 -0.1693  0.5349 -0.2732
   21TMC2    C8  336   1.476   0.754  14.598  0.3745  0.6417 -0.1712
   21TMC2    O1  337   1.415   1.211  14.688 -0.1790 -0.0767 -0.2524
   21TMC2    O2  338   1.501   0.764  14.722 -0.4825  0.7809 -0.6794
   21TMC2    O5  339   1.408   0.653  14.532  0.0648  0.3541  0.4031
   21TMC2    H5  340   1.361   0.685  14.452 -0.2014  0.5045  0.6180
   22MPD2     C  341   1.631   1.141  13.715  0.5357 -0.3438 -0.3499
   22MPD2    C1  342   1.716   1.074  13.800 -0.4690  0.0589  0.3087
   22MPD2    C2  343   1.681   1.049  13.927 -0.1001  0.3321  0.2481
   22MPD2    C3  344   1.568   1.106  13.977 -0.1861 -0.0046  0.1117
   22MPD2    C4  345   1.484   1.188  13.900 -0.5219  0.0707  0.6112
   22MPD2    C5  346   1.515   1.203  13.768 -0.0127  0.7296  0.1529
   22MPD2     H  347   1.755   0.991  13.980 -1.6616 -0.3767  1.6392
   22MPD2    H1  348   1.398   1.233  13.948 -1.4578  1.5299 -2.4228
   22MPD2    H2  349   1.667   1.163  13.615 -0.0743  1.7608 -0.1134
   22MPD2    H3  350   1.460   1.269  13.703 -0.2512  0.2737 -0.1117
   22MPD2     N  351   1.523   1.090  14.103  0.1490  0.1852  0.1252
   22MPD2    H5  352   1.444   1.146  14.133  0.5500  0.7346  0.1634
   22MPD2    N1  353   1.851   1.046  13.758 -0.0267 -0.6959  0.3250
   22MPD2    H7  354   1.923   1.028  13.827 -0.1905  1.4382  1.0478
   23TMC2    C1  355   2.753   2.343  14.631  0.2090 -0.3812 -0.4502
   23TMC2    C2  356   2.725   2.472  14.590 -0.2364  1.0622  0.5354
   23TMC2    C3  357   2.627   2.495  14.495 -0.7429 -0.4637  0.0197
   23TMC2    C4  358   2.695   2.236  14.567 -0.5461 -0.2632  0.2402
   23TMC2    C5  359   2.588   2.261  14.483 -0.1807  0.1246 -0.2763
   23TMC2    C6  360   2.563   2.391  14.436 -0.1349  0.5999  0.0462
   23TMC2     C  361   2.844   2.323  14.746  0.4383  0.1337  0.1599
   23TMC2     O  362   2.840   2.207  14.789  0.1153 -0.3343  0.2967
   23TMC2     H  363   2.761   2.559  14.643  2.6706 -0.7655  1.5760
   23TMC2    H1  364   2.722   2.133  14.586  0.0488 -0.2516 -0.5716
   23TMC2    H2  365   2.507   2.416  14.347  0.4391  1.3963 -0.0923
   23TMC2    C7  366   2.516   2.145  14.436 -0.5000 -0.5265  0.1303
   23TMC2    C8  367   2.651   2.620  14.423  0.8869  0.2601 -0.2672
   23TMC2    O1  368   2.558   2.035  14.477 -0.1342  0.0596  0.2776
   23TMC2    O2  369   2.762   2.667  14.420 -0.1410  0.1168 -0.2228
   23TMC2    O5  370   2.559   2.633  14.325 -0.0202 -0.1047 -0.2743
   23TMC2    H5  371   2.472   2.592  14.344  0.7641 -2.9534 -2.8365
   24MPD2     C  372   3.146   2.515  15.118  0.4757  1.6820  0.0302
   24MPD2    C1  373   3.095   2.382  15.104  0.2287 -0.0729  0.3371
   24MPD2    C2  374   3.028   2.351  14.985 -0.0290  0.3847  0.3340
   24MPD2    C3  375   3.002   2.450  14.889  0.1822  0.5881  0.2423
   24MPD2    C4  376   3.042   2.577  14.914 -0.4732  0.1827  0.3220
   24MPD2    C5  377   3.115   2.613  15.027  0.6576  0.1605  0.6705
   24MPD2     H  378   2.989   2.250  14.978  3.5389 -1.0170  0.9115
   24MPD2    H1  379   3.039   2.664  14.848 -0.0245  2.1873  2.9340
   24MPD2    H2  380   3.210   2.544  15.201  0.4252  1.3310  0.1927
   24MPD2    H3  381   3.159   2.711  15.036 -0.7811  0.6415  2.4860
   24MPD2     N  382   2.919   2.434  14.777 -0.2531  0.3243  0.1751
   24MPD2    H5  383   2.901   2.515  14.719  0.2196 -1.3079 -2.2633
   24MPD2    N1  384   3.124   2.272  15.196 -0.4734 -0.6005  0.0962
   24MPD2    H7  385   3.088   2.179  15.176 -1.0131  0.0046 -1.7358
   25TMC2    C1  386   1.842   3.901  11.637 -0.2092 -0.5773 -0.1125
   25TMC2    C2  387   1.975   3.900  11.660 -1.1187 -0.0279 -0.7767
   25TMC2    C3  388   2.030   4.010  11.730 -0.1006 -0.3924  0.0941
   25TMC2    C4  389   1.769   4.018  11.641 -0.1283  0.0646  0.4046
   25TMC2    C5  390   1.820   4.125  11.709  0.6326  0.0554  0.2278
   25TMC2    C6  391   1.952   4.129  11.744  0.3580 -0.2089 -0.5555
   25TMC2     C  392   1.796   3.797  11.545  0.0512 -1.0222 -0.6789
   25TMC2     O  393   1.868   3.715  11.489 -0.3439  0.0078 -0.5403
   25TMC2     H  394   2.042   3.825  11.619 -0.1918  1.4741 -2.0326
   25TMC2    H1  395   1.667   4.017  11.604  0.7896 -0.4499 -2.1345
   25TMC2    H2  396   2.001   4.221  11.772 -0.1301 -0.0808 -0.1012
   25TMC2    C7  397   1.732   4.206  11.783  0.2075  0.2603 -0.4153
   25TMC2    C8  398   2.175   4.024  11.725 -0.2500  0.0834  0.3833
   25TMC2    O1  399   1.772   4.241  11.890 -0.0613 -0.5292 -0.5429
   25TMC2    O2  400   2.229   4.131  11.703  0.0357 -0.0255  0.5348
   25TMC2    O5  401   2.241   3.910  11.733 -0.5394 -0.1408  0.0907
   25TMC2    H5  402   2.185   3.837  11.766 -1.6627  1.1744  1.0606
   26MPD2     C  403   1.417   3.638  11.233 -0.3080  0.5606  0.2379
   26MPD2    C1  404   1.363   3.695  11.344 -0.9941 -0.9342  0.0564
   26MPD2    C2  405   1.448   3.739  11.446 -0.2133 -0.4403 -0.2982
   26MPD2    C3  406   1.584   3.731  11.436 -0.1235 -0.0577 -0.4024
   26MPD2    C4  407   1.639   3.678  11.318 -0.1403  0.2866 -0.4127
   26MPD2    C5  408   1.554   3.617  11.228  0.3325  0.2791  0.1399
   26MPD2     H  409   1.397   3.791  11.527  0.9109  0.0474  0.0947
   26MPD2    H1  410   1.744   3.675  11.291 -0.1819  1.6712 -0.7112
   26MPD2    H2  411   1.353   3.604  11.153  0.1025 -1.4246  0.7431
   26MPD2    H3  412   1.595   3.580  11.135  1.6556  1.1270  0.3843
   26MPD2     N  413   1.658   3.795  11.540 -0.5654  0.5910  0.4539
   26MPD2    H5  414   1.605   3.844  11.611 -2.9848  0.7301 -1.4546
   26MPD2    N1  415   1.226   3.707  11.361 -0.7341 -0.2875  0.2644
   26MPD2    H7  416   1.160   3.678  11.290 -2.2737 -0.1818  1.6479
   27TMC2    C1  417   0.479   2.264  12.068  0.4028  0.1006 -0.5287
   27TMC2    C2  418   0.489   2.362  11.972  0.3258  0.0529  0.0432
   27TMC2    C3  419   0.568   2.468  11.988 -0.3683 -0.8940  0.4772
   27TMC2    C4  420   0.547   2.287  12.183  0.0789  0.7915  0.3618
   27TMC2    C5  421   0.621   2.395  12.202 -0.0488 -0.7527  0.3669
   27TMC2    C6  422   0.636   2.492  12.103  0.3805 -0.1285 -0.2718
   27TMC2     C  423   0.406   2.146  12.047 -0.0379  0.1389  1.4894
   27TMC2     O  424   0.376   2.112  11.932  0.1863  0.3126  0.1122
   27TMC2     H  425   0.435   2.339  11.881 -0.9965 -2.8789  1.5874
   27TMC2    H1  426   0.541   2.214  12.263  1.6889  0.0588 -0.1872
   27TMC2    H2  427   0.683   2.588  12.121 -0.2268  0.2463 -0.7093
   27TMC2    C7  428   0.675   2.408  12.335 -0.1122  0.2890 -0.1463
   27TMC2    C8  429   0.556   2.573  11.887  0.3820 -0.7174 -0.3149
   27TMC2    O1  430   0.623   2.337  12.420 -0.1681 -0.0588 -0.5606
   27TMC2    O2  431   0.576   2.689  11.905  0.0922 -0.2405 -0.0799
   27TMC2    O5  432   0.553   2.508  11.761 -0.1133  0.0547  0.0013
   27TMC2    H5  433   0.565   2.411  11.759  2.7653  0.3907  0.6829
   28MPD2     C  434   0.164   1.743  12.222 -0.2139 -0.5360 -0.3221
   28MPD2    C1  435   0.169   1.828  12.331 -0.6085 -0.4754  0.0033
   28MPD2    C2  436   0.226   1.954  12.306  0.0160  0.8860 -0.0349
   28MPD2    C3  437   0.283   1.978  12.179 -0.0067  0.4279  0.1887
   28MPD2    C4  438   0.286   1.879  12.082  0.6618 -0.9127  0.2888
   28MPD2    C5  439   0.221   1.759  12.105  0.1395  0.4289  0.6045
   28MPD2     H  440   0.218   2.033  12.379 -0.3965 -0.0715  0.9676
   28MPD2    H1  441   0.319   1.889  11.980 -0.4259  0.4179  0.0700
   28MPD2    H2  442   0.115   1.648  12.241 -1.3441  0.0735 -0.1576
   28MPD2    H3  443   0.216   1.675  12.035 -0.4006  0.4507  0.6130
   28MPD2     N  444   0.352   2.102  12.168  0.0169 -0.0205 -0.0205
   28MPD2    H5  445   0.351   2.157  12.254 -1.3806 -1.3120  0.7898
   28MPD2    N1  446   0.106   1.788  12.449  0.1301  0.3139  0.6675
   28MPD2    H7  447   0.073   1.692  12.451  1.0728 -0.0602 -1.9462
   29TMC2    C1  448   0.401   4.232  14.355 -0.8076 -0.6039  0.0347
   29TMC2    C2  449   0.427   4.269  14.481  0.2039 -0.1413  0.0424
   29TMC2    C3  450   0.441   4.402  14.504 -0.0802  0.0800  0.0679
   29TMC2    C4  451   0.404   4.314  14.249  0.1263 -0.1832  0.3824
   29TMC2    C5  452   0.427   4.446  14.271 -0.6045  0.0171  0.1953
   29TMC2    C6  453   0.458   4.491  14.399 -0.2083  0.1448  0.0499
   29TMC2     C  454   0.352   4.099  14.332 -0.0521 -0.4267 -0.1855
   29TMC2     O  455   0.379   4.010  14.414  0.2341 -0.0327 -0.1926
   29TMC2     H  456   0.402   4.212  14.570  2.0805  1.2863  1.4870
   29TMC2    H1  457   0.411   4.275  14.148 -0.1257 -0.3914  0.4464
   29TMC2    H2  458   0.481   4.595  14.418  0.1386  0.3924 -1.7245
   29TMC2    C7  459   0.469   4.524  14.152 -0.1738 -0.7393  0.7101
   29TMC2    C8  460   0.389   4.456  14.627 -0.8133 -0.4551 -0.8569
   29TMC2    O1  461   0.427   4.481  14.047  0.1361 -0.4674  0.1644
   29TMC2    O2  462   0.411   4.572  14.659  0.0620  0.0402  0.6748
   29TMC2    O5  463   0.271   4.397  14.638  0.2677  1.0265  0.7802
   29TMC2    H5  464   0.280   4.309  14.596  1.3896  0.7357  1.6239
   30MPD2     C  465   0.025   3.817  14.055 -0.1892  0.6997 -0.2669
   30MPD2    C1  466   0.116   3.778  14.154 -0.6526 -0.0038  0.0816
   30MPD2    C2  467   0.194   3.876  14.217  0.4771 -0.2884  0.1888
   30MPD2    C3  468   0.181   4.007  14.182 -0.0921  0.6115  0.2494
   30MPD2    C4  469   0.085   4.038  14.084 -0.0255 -0.4458  0.0416
   30MPD2    C5  470   0.006   3.946  14.021 -0.3368  0.8190  0.9418
   30MPD2     H  471   0.267   3.853  14.294 -0.5044  1.9405  1.7740
   30MPD2    H1  472   0.066   4.141  14.055  0.3051 -0.1900  0.7250
   30MPD2    H2  473   4.707   3.744  13.998  1.0607  0.7840 -1.5726
   30MPD2    H3  474   4.672   3.985  13.950  0.6264  1.7679  0.4746
   30MPD2     N  475   0.246   4.113  14.239 -0.5147 -0.0509  0.1097
   30MPD2    H5  476   0.229   4.211  14.218 -0.5643  0.0514  0.6123
   30MPD2    N1  477   0.141   3.644  14.195  0.2307 -0.1643 -0.3140
   30MPD2    H7  478   0.221   3.622  14.252 -0.1487 -2.2550 -0.5755
   31TMC2    C1  479   3.279   2.773  15.434  0.4482 -0.3095 -0.5067
   31TMC2    C2  480   3.178   2.801  15.519  0.4190 -0.6274 -0.1290
   31TMC2    C3  481   3.201   2.779  15.653 -0.1811  0.3415  0.5480
   31TMC2    C4  482   3.400   2.707  15.476  0.0856  0.5791  0.1548
   31TMC2    C5  483   3.417   2.684  15.614 -0.6256 -0.6608 -0.4889
   31TMC2    C6  484   3.316   2.722  15.695  0.2105  0.1324 -0.0339
   31TMC2     C  485   3.275   2.837  15.299  0.8942  0.4435 -0.2389
   31TMC2     O  486   3.165   2.874  15.261 -0.4396 -0.2761 -0.1706
   31TMC2     H  487   3.079   2.817  15.478  0.3890  0.0086  0.1855
   31TMC2    H1  488   3.462   2.663  15.399  0.7689 -0.5169  1.3269
   31TMC2    H2  489   3.320   2.710  15.802 -0.4124 -0.6531 -0.0891
   31TMC2    C7  490   3.527   2.610  15.668  0.2374  1.3298 -0.3803
   31TMC2    C8  491   3.096   2.739  15.735  0.2245 -0.2793 -0.1132
   31TMC2    O1  492   3.516   2.563  15.780 -0.1593  0.2788  0.0762
   31TMC2    O2  493   3.085   2.632  15.799 -0.2963  0.0162 -0.2130
   31TMC2    O5  494   2.992   2.824  15.714  1.0505 -0.6441  0.0506
   31TMC2    H5  495   3.013   2.912  15.675  0.4689 -0.3098  0.4851
   32MPD2     C  496   3.483   3.104  14.929  0.0877  0.4976  0.6008
   32MPD2    C1  497   3.358   3.044  14.936 -0.0967  0.3028  0.5727
   32MPD2    C2  498   3.325   2.967  15.047  0.2012  0.3706 -0.4014
   32MPD2    C3  499   3.423   2.949  15.145  0.1535  0.4102  0.2523
   32MPD2    C4  500   3.554   2.999  15.124 -0.0506  0.9456 -0.0751
   32MPD2    C5  501   3.584   3.089  15.023 -0.0125 -0.3225 -0.6837
   32MPD2     H  502   3.224   2.930  15.061 -0.8525  3.0978 -0.8474
   32MPD2    H1  503   3.630   2.985  15.200 -0.5236  0.3889  0.2992
   32MPD2    H2  504   3.498   3.160  14.837  2.2524  0.5167  0.9837
   32MPD2    H3  505   3.681   3.136  15.019  0.3164 -1.3163 -4.8436
   32MPD2     N  506   3.397   2.866  15.256 -0.2852 -0.4573 -0.0145
   32MPD2    H5  507   3.475   2.846  15.318  0.8492 -0.2076 -1.3446
   32MPD2    N1  508   3.275   3.065  14.823 -0.1251 -0.0070 -0.5765
   32MPD2    H7  509   3.320   3.120  14.750  0.5689  2.4045  1.6683
   33TMC2    C1  510   2.553   0.731  10.617  0.5947  0.0247 -0.3207
   33TMC2    C2  511   2.428   0.685  10.589 -0.0399 -0.0130  1.1132
   33TMC2    C3  512   2.336   0.776  10.537 -1.1053 -0.3269  0.5039
   33TMC2    C4  513   2.594   0.860  10.601 -0.5945  0.4999  0.2027
   33TMC2    C5  514   2.498   0.937  10.538 -0.3506 -0.4658  0.2777
   33TMC2    C6  515   2.370   0.900  10.505 -0.9304 -0.9078 -0.1483
   33TMC2     C  516   2.639   0.639  10.679 -0.0489 -0.0777 -0.6311
   33TMC2     O  517   2.603   0.524  10.698 -0.0092  0.6499 -0.1850
   33TMC2     H  518   2.392   0.588  10.618  0.4689 -0.3394  0.6510
   33TMC2    H1  519   2.687   0.900  10.641 -0.0167 -0.8100  0.1578
   33TMC2    H2  520   2.294   0.966  10.465  0.2260  0.3380 -0.3169
   33TMC2    C7  521   2.534   1.078  10.542 -0.1591  0.4460 -0.5814
   33TMC2    C8  522   2.210   0.716  10.504 -0.4314  0.0336  0.7926
   33TMC2    O1  523   2.652   1.117  10.543 -0.8372 -0.6394  0.0804
   33TMC2    O2  524   2.191   0.596  10.509 -0.1206 -0.2766  0.1222
   33TMC2    O5  525   2.120   0.814  10.521 -0.2985 -0.0119  0.2660
   33TMC2    H5  526   2.153   0.893  10.568 -0.2984  0.8130 -1.1094
   34MPD2     C  527   3.057   0.476  10.917  0.3677  0.1865  0.3180
   34MPD2    C1  528   2.922   0.435  10.929  0.2730  0.0429 -0.6265
   34MPD2    C2  529   2.826   0.500  10.856  0.3825  0.2367  0.6194
   34MPD2    C3  530   2.860   0.614  10.782  0.1043 -0.2253  0.0718
   34MPD2    C4  531   2.990   0.661  10.773 -0.6776  0.7252  0.6062
   34MPD2    C5  532   3.082   0.593  10.847  0.2196  0.6002 -0.0453
   34MPD2     H  533   2.728   0.455  10.857 -0.1900  1.4341 -1.0439
   34MPD2    H1  534   3.010   0.750  10.714 -0.6030  0.0117 -0.4501
   34MPD2    H2  535   3.138   0.420  10.961  1.6516 -0.0497 -2.3580
   34MPD2    H3  536   3.184   0.629  10.849 -0.0535  1.4330 -1.2089
   34MPD2     N  537   2.766   0.685  10.710 -0.4756 -0.5480 -0.1451
   34MPD2    H5  538   2.794   0.769  10.660  0.3457  0.7289  2.4220
   34MPD2    N1  539   2.897   0.318  11.006 -0.1082  0.2936  0.8206
   34MPD2    H7  540   2.974   0.255  11.028  0.5879  0.5877 -0.7416
   35TMC2    C1  541   3.755   2.144  11.627  0.4846 -0.7740  0.6438
   35TMC2    C2  542   3.630   2.211  11.616 -0.0844 -0.6593  0.6135
   35TMC2    C3  543   3.523   2.155  11.679  0.1472  0.2287 -0.9396
   35TMC2    C4  544   3.765   2.027  11.698 -0.6652 -0.4662 -0.7329
   35TMC2    C5  545   3.646   1.977  11.744 -0.7016 -0.4198  0.0515
   35TMC2    C6  546   3.521   2.032  11.739 -0.6702  0.2821  0.0231
   35TMC2     C  547   3.864   2.240  11.641 -0.2411  0.3290 -0.5991
   35TMC2     O  548   3.860   2.337  11.563 -0.3816 -0.6746  0.3758
   35TMC2     H  549   3.621   2.315  11.586  1.7006 -0.9326 -0.8765
   35TMC2    H1  550   3.854   1.965  11.700  0.9742  1.9416  1.0683
   35TMC2    H2  551   3.429   1.989  11.777 -0.0665 -0.4785  0.6022
   35TMC2    C7  552   3.638   1.836  11.754  0.1878  0.0886 -0.0477
   35TMC2    C8  553   3.412   2.241  11.714  0.0011 -0.4478  0.0841
   35TMC2    O1  554   3.552   1.780  11.692 -0.0717  0.1716 -0.0271
   35TMC2    O2  555   3.343   2.217  11.814 -0.0575  0.1044 -0.0795
   35TMC2    O5  556   3.358   2.272  11.596 -0.0168  0.6796  0.5903
   35TMC2    H5  557   3.410   2.258  11.514 -2.3045 -0.1267 -0.7041
   36MPD2     C  558   4.295   2.382  11.870 -0.0378  0.5677 -0.5921
   36MPD2    C1  559   4.238   2.289  11.954 -0.8914 -0.1280 -0.0694
   36MPD2    C2  560   4.115   2.246  11.916 -0.0141  0.2446 -0.2551
   36MPD2    C3  561   4.049   2.293  11.799 -0.0328 -0.3973 -0.5922
   36MPD2    C4  562   4.107   2.391  11.721 -0.5299 -0.0675  0.8748
   36MPD2    C5  563   4.231   2.437  11.761 -0.0515 -0.4682  0.1935
   36MPD2     H  564   4.064   2.173  11.979  2.1091 -0.1579  0.9931
   36MPD2    H1  565   4.069   2.415  11.622 -3.3916 -1.2355  1.7061
   36MPD2    H2  566   4.395   2.410  11.901 -0.2126 -0.2010  0.6552
   36MPD2    H3  567   4.288   2.511  11.705 -0.8822  0.5448  0.6828
   36MPD2     N  568   3.942   2.216  11.753  0.0297 -0.0578 -0.9845
   36MPD2    H5  569   3.929   2.133  11.811 -0.3436  1.1361  0.6290
   36MPD2    N1  570   4.301   2.222  12.059  0.3430 -0.0325 -0.2528
   36MPD2    H7  571   4.282   2.126  12.086  0.0038 -0.1439 -0.8658
   37TMC2    C1  572   1.676   2.393  12.237 -0.5282 -0.5600  0.2434
   37TMC2    C2  573   1.559   2.423  12.303  0.1924  0.4956 -0.3101
   37TMC2    C3  574   1.463   2.476  12.226 -0.7352 -0.5329  0.0011
   37TMC2    C4  575   1.687   2.415  12.103  0.3132 -0.3230 -0.4155
   37TMC2    C5  576   1.590   2.473  12.034 -0.4583  0.5942  0.3686
   37TMC2    C6  577   1.474   2.501  12.090  0.6529 -0.3434 -0.5433
   37TMC2     C  578   1.789   2.336  12.315  0.4222 -0.7830 -0.6917
   37TMC2     O  579   1.771   2.286  12.427 -0.2327  0.6626 -0.6712
   37TMC2     H  580   1.551   2.382  12.403 -0.8432 -2.2432 -1.5110
   37TMC2    H1  581   1.767   2.377  12.040  0.6081 -0.6522  0.1622
   37TMC2    H2  582   1.386   2.546  12.045 -0.1694  0.2587  1.6353
   37TMC2    C7  583   1.631   2.492  11.893 -0.0122 -0.5210 -0.0524
   37TMC2    C8  584   1.329   2.486  12.277 -0.3266  0.1624  0.3157
   37TMC2    O1  585   1.748   2.521  11.864 -0.5497  0.1898  0.0393
   37TMC2    O2  586   1.239   2.425  12.214 -0.7515 -0.0405 -0.5288
   37TMC2    O5  587   1.339   2.502  12.415 -0.0284 -0.1359 -0.2239
   37TMC2    H5  588   1.419   2.557  12.429 -1.0697  1.4666 -0.4603
   38MPD2     C  589   2.270   2.134  12.345  0.5017  0.1834 -0.2155
   38MPD2    C1  590   2.263   2.217  12.237 -0.2301  0.1356 -0.8627
   38MPD2    C2  591   2.136   2.269  12.205  0.2186  0.2783 -0.0132
   38MPD2    C3  592   2.020   2.257  12.279  0.1222 -0.1293 -0.1089
   38MPD2    C4  593   2.041   2.194  12.402 -0.1265 -0.3019  0.3264
   38MPD2    C5  594   2.160   2.124  12.428  0.9915 -0.3346 -0.9719
   38MPD2     H  595   2.128   2.329  12.115  1.9056  1.5720  0.6824
   38MPD2    H1  596   1.960   2.175  12.471 -2.6798  0.5728 -2.3999
   38MPD2    H2  597   2.358   2.078  12.375  1.2474  1.4693  0.0449
   38MPD2    H3  598   2.169   2.076  12.524 -0.6392 -1.0370 -1.1768
   38MPD2     N  599   1.902   2.325  12.239  0.5110 -0.7551 -0.1725
   38MPD2    H5  600   1.896   2.372  12.149  3.0803 -0.2339 -0.0720
   38MPD2    N1  601   2.356   2.211  12.131 -0.3879  0.4385  0.3863
   38MPD2    H7  602   2.321   2.253  12.045 -0.0156  1.4414  0.7182
   39TMC2    C1  603   0.943   4.473   1.193  0.0743  0.1872  0.2566
   39TMC2    C2  604   1.048   4.435   1.115 -0.0179  0.1910 -0.6791
   39TMC2    C3  605   1.171   4.453   1.170  0.3342 -0.4285  0.8208
   39TMC2    C4  606   0.954   4.547   1.304  0.3713 -0.4230  0.8447
   39TMC2    C5  607   1.081   4.575   1.351 -0.8069  0.1083 -0.0313
   39TMC2    C6  608   1.193   4.526   1.284  0.3152 -0.5666 -0.7787
   39TMC2     C  609   0.810   4.434   1.154  0.1354 -0.3364 -0.4883
   39TMC2     O  610   0.716   4.489   1.207  0.3296 -0.3051 -0.1334
   39TMC2     H  611   1.041   4.372   1.027  1.9180  0.0164 -0.7015
   39TMC2    H1  612   0.867   4.572   1.364 -0.7406 -1.2388 -0.4367
   39TMC2    H2  613   1.289   4.569   1.309  1.4279 -2.0961 -2.3814
   39TMC2    C7  614   1.093   4.674   1.454 -0.2298 -0.4349 -0.1197
   39TMC2    C8  615   1.288   4.397   1.105 -0.3172  0.1960  0.1094
   39TMC2    O1  616   0.988   4.727   1.483 -0.1414 -0.3027  0.1058
   39TMC2    O2  617   1.285   4.376   0.985 -0.2504 -0.8790  0.1660
   39TMC2    O5  618   1.400   4.393   1.183 -0.0648  0.4094 -0.0370
   39TMC2    H5  619   1.389   4.381   1.279 -0.1255  0.8623  0.0135
   40MPD2     C  620   0.726   4.098   1.050 -0.1000  0.1045  0.5495
   40MPD2    C1  621   0.706   4.229   1.076 -0.1624 -0.6212  0.0350
   40MPD2    C2  622   0.590   4.289   1.039  0.0673  0.4784  0.2168
   40MPD2    C3  623   0.489   4.206   0.989 -0.4277 -0.3963  0.1150
   40MPD2    C4  624   0.506   4.066   0.978 -0.6501 -0.2478  0.0735
   40MPD2    C5  625   0.629   4.014   1.000  0.7391  0.1019  0.0852
   40MPD2     H  626   0.568   4.395   1.048  1.1411  0.6009  1.3610
   40MPD2    H1  627   0.428   4.006   0.933 -1.6889  2.2024 -1.4002
   40MPD2    H2  628   0.817   4.048   1.080 -0.1276  1.2651  2.5170
   40MPD2    H3  629   0.647   3.908   0.988 -2.0385 -0.5019  1.3513
   40MPD2     N  630   0.365   4.245   0.943 -0.0069  0.1352  1.1094
   40MPD2    H5  631   0.313   4.175   0.890  1.5829  0.3055 -0.6674
   40MPD2    N1  632   0.820   4.306   1.106  0.5009  0.1843 -0.2034
   40MPD2    H7  633   0.907   4.253   1.113 -0.1696 -0.6964  1.5077
   41TMC2    C1  634   3.544   2.280  13.791 -0.0051 -0.2578 -0.3147
   41TMC2    C2  635   3.442   2.280  13.697 -0.1136 -0.2561 -0.0003
   41TMC2    C3  636   3.473   2.343  13.581 -0.3279  0.3263 -0.0298
   41TMC2    C4  637   3.670   2.337  13.775  0.0265 -0.5513 -0.4176
   41TMC2    C5  638   3.697   2.373  13.646  0.8731  0.4071  0.5169
   41TMC2    C6  639   3.599   2.378  13.549  0.5576  0.2998 -0.9611
   41TMC2     C  640   3.505   2.203  13.904  0.4808  0.1793  0.2706
   41TMC2     O  641   3.405   2.135  13.900  0.3458  0.0225 -0.3639
   41TMC2     H  642   3.337   2.261  13.720 -0.3759  0.5628 -0.5041
   41TMC2    H1  643   3.749   2.343  13.849 -2.7722 -1.7147  2.7103
   41TMC2    H2  644   3.618   2.436  13.459 -0.0987  1.6122 -0.2497
   41TMC2    C7  645   3.836   2.400  13.616 -0.6717 -0.1304  1.1630
   41TMC2    C8  646   3.368   2.382  13.492  0.4982  0.1002  0.0346
   41TMC2    O1  647   3.911   2.423  13.714 -0.0282 -0.3529 -0.0404
   41TMC2    O2  648   3.375   2.482  13.421 -0.1922 -0.3885 -0.6069
   41TMC2    O5  649   3.316   2.263  13.457  0.3280  0.6162 -0.2113
   41TMC2    H5  650   3.371   2.183  13.474  0.1708  0.7101  0.7429
   42MPD2     C  651   3.459   2.095  14.179  0.2235  0.3378  0.6915
   42MPD2    C1  652   3.551   2.197  14.145 -0.4260  0.2156 -1.0042
   42MPD2    C2  653   3.636   2.259  14.243 -0.0258  0.7179 -0.0289
   42MPD2    C3  654   3.615   2.218  14.379 -0.0667  0.6394  0.6841
   42MPD2    C4  655   3.540   2.101  14.405  0.2359  0.1888  0.0645
   42MPD2    C5  656   3.464   2.049  14.304  0.3421  0.1382  0.2666
   42MPD2     H  657   3.699   2.340  14.210  0.4912 -0.2081 -1.3289
   42MPD2    H1  658   3.533   2.062  14.506  1.9043 -0.7688 -0.1852
   42MPD2    H2  659   3.392   2.041  14.114 -0.2236  1.1263  0.5086
   42MPD2    H3  660   3.395   1.975  14.343 -0.6912  0.5873 -0.7134
   42MPD2     N  661   3.673   2.285  14.483 -0.7245 -0.3425 -0.3797
   42MPD2    H5  662   3.676   2.249  14.577  2.9428  0.1121 -0.3138
   42MPD2    N1  663   3.572   2.244  14.010  0.2151 -0.2735 -0.7595
   42MPD2    H7  664   3.650   2.306  13.991  0.2892  0.3838  1.6969
   43TMC2    C1  665   0.556   0.845   0.584 -0.0657  0.1199 -0.7282
   43TMC2    C2  666   0.434   0.832   0.642  0.2391 -0.2071 -0.5753
   43TMC2    C3  667   0.406   0.906   0.752  0.1823  1.0290 -0.1494
   43TMC2    C4  668   0.642   0.947   0.617 -0.0412 -0.1303 -0.4571
   43TMC2    C5  669   0.604   1.031   0.719  0.2508 -0.0617 -0.7951
   43TMC2    C6  670   0.489   1.006   0.792  0.0454  0.4721 -0.1668
   43TMC2     C  671   0.608   0.754   0.490  0.7600  1.0443 -0.0092
   43TMC2     O  672   0.725   0.724   0.502  0.2090  0.3328 -0.3452
   43TMC2     H  673   0.375   0.745   0.615  1.8392 -1.9793  1.6739
   43TMC2    H1  674   0.720   0.973   0.546  1.2962 -1.0713  0.6696
   43TMC2    H2  675   0.444   1.072   0.865  0.6703 -0.4458  1.0552
   43TMC2    C7  676   0.720   1.093   0.789  0.3499  0.8118  0.1296
   43TMC2    C8  677   0.270   0.916   0.802  0.1178  0.6941  0.1588
   43TMC2    O1  678   0.827   1.100   0.727 -0.4831 -0.0486  0.3262
   43TMC2    O2  679   0.243   0.962   0.908 -0.4542 -0.2094 -0.2360
   43TMC2    O5  680   0.184   0.851   0.717  0.1595  0.0835  0.9358
   43TMC2    H5  681   0.094   0.889   0.727 -0.1515 -0.8188  1.5937
   44MPD2     C  682   0.526   0.382   0.147 -1.0070 -0.1313  0.3182
   44MPD2    C1  683   0.642   0.427   0.203  0.4723  0.0633  0.3210
   44MPD2    C2  684   0.636   0.532   0.290  0.5577 -0.4053  0.2900
   44MPD2    C3  685   0.516   0.585   0.327  0.2794 -0.4455  0.3823
   44MPD2    C4  686   0.395   0.536   0.278 -0.2908  0.2513 -0.1631
   44MPD2    C5  687   0.407   0.426   0.193 -0.6937 -0.4668 -0.9934
   44MPD2     H  688   0.726   0.571   0.337 -0.4368  0.3651  1.5457
   44MPD2    H1  689   0.299   0.570   0.315 -0.5103  1.8175 -2.1679
   44MPD2    H2  690   0.525   0.310   0.066  0.7494  1.3396 -1.0007
   44MPD2    H3  691   0.314   0.391   0.150  0.0202 -1.1785 -1.9494
   44MPD2     N  692   0.506   0.702   0.408 -0.2969 -0.1488  0.6497
   44MPD2    H5  693   0.412   0.738   0.422 -0.6282 -0.8817  0.3332
   44MPD2    N1  694   0.765   0.383   0.153  0.9024 -0.5344 -0.2826
   44MPD2    H7  695   0.848   0.421   0.197 -0.0047  1.4432 -0.2787
   45TMC2    C1  696   0.673   2.573   9.757 -0.9805 -0.5308 -0.0035
   45TMC2    C2  697   0.625   2.584   9.629 -0.6025 -0.4563  0.0532
   45TMC2    C3  698   0.633   2.713   9.569 -0.5243  0.3264  0.5258
   45TMC2    C4  699   0.731   2.681   9.818  0.2281 -0.4378  0.3643
   45TMC2    C5  700   0.739   2.807   9.753  0.1716  0.5552 -0.0444
   45TMC2    C6  701   0.694   2.828   9.624  0.0551  0.1494 -0.5181
   45TMC2     C  702   0.713   2.443   9.814  0.4548 -0.1165  0.2673
   45TMC2     O  703   0.755   2.447   9.929 -0.1615 -0.5373 -0.3587
   45TMC2     H  704   0.557   2.512   9.585 -0.5590  0.2171 -1.1062
   45TMC2    H1  705   0.783   2.671   9.912  0.3191 -1.3666  0.2145
   45TMC2    H2  706   0.696   2.922   9.571 -0.6747  0.8112  0.6304
   45TMC2    C7  707   0.807   2.917   9.833  0.4450 -0.9470  0.0115
   45TMC2    C8  708   0.575   2.724   9.437  0.3001  0.0044 -0.0903
   45TMC2    O1  709   0.807   2.905   9.952  0.4960 -0.3317  0.2009
   45TMC2    O2  710   0.568   2.828   9.370 -0.0018  0.7437  0.0448
   45TMC2    O5  711   0.553   2.603   9.385 -0.1320 -0.1718  0.2648
   45TMC2    H5  712   0.598   2.530   9.433 -0.6909 -1.6047 -1.3660
   46MPD2     C  713   0.776   2.158   9.879  0.5842  0.1906 -0.6412
   46MPD2    C1  714   0.717   2.198   9.765  0.2047 -0.1849  0.8466
   46MPD2    C2  715   0.674   2.096   9.677 -0.1453 -0.9051  0.5574
   46MPD2    C3  716   0.693   1.963   9.703 -0.5539 -0.3816 -0.1135
   46MPD2    C4  717   0.770   1.926   9.811  0.5266  0.1464  0.1189
   46MPD2    C5  718   0.816   2.023   9.893 -0.0319  0.3092  0.0813
   46MPD2     H  719   0.640   2.123   9.578 -2.0566  0.4314  1.5761
   46MPD2    H1  720   0.795   1.823   9.833 -1.4695 -0.4002 -0.1085
   46MPD2    H2  721   0.834   2.222   9.944 -1.3486 -0.2004  1.4392
   46MPD2    H3  722   0.882   1.998   9.975 -0.1246  2.1218  0.7157
   46MPD2     N  723   0.638   1.878   9.608 -0.5660 -0.1216 -0.3343
   46MPD2    H5  724   0.581   1.927   9.540  0.3680  0.2967 -0.8265
   46MPD2    N1  725   0.679   2.334   9.734  0.0911  0.0349  0.4975
   46MPD2    H7  726   0.656   2.350   9.637 -1.7195  0.0318  0.9309
   47TMC2    C1  727   2.750   2.809   8.872  0.0856 -0.6377 -1.7463
   47TMC2    C2  728   2.663   2.785   8.771 -0.5614 -0.3654  0.0496
   47TMC2    C3  729   2.564   2.871   8.754  0.2337 -0.2110 -0.0183
   47TMC2    C4  730   2.739   2.927   8.948  0.1564  0.4161 -0.2559
   47TMC2    C5  731   2.643   3.016   8.906 -0.4768 -0.0409 -0.5489
   47TMC2    C6  732   2.553   2.990   8.821 -0.4629  0.2584  0.4986
   47TMC2     C  733   2.877   2.734   8.875  0.7419  0.2737 -0.6627
   47TMC2     O  734   2.918   2.679   8.771  1.0190  0.4382  0.0802
   47TMC2     H  735   2.662   2.688   8.722 -0.8297  0.4085 -1.4988
   47TMC2    H1  736   2.808   2.956   9.027 -0.3936  0.9113  0.0347
   47TMC2    H2  737   2.478   3.064   8.796 -0.6503 -0.6554 -1.7143
   47TMC2    C7  738   2.622   3.143   8.974 -0.0101  0.0153  0.3200
   47TMC2    C8  739   2.479   2.860   8.637  0.7559 -0.4821  0.0090
   47TMC2    O1  740   2.511   3.188   8.976 -0.0582  0.0647  0.2665
   47TMC2    O2  741   2.519   2.844   8.524 -0.0870 -0.6091 -0.5951
   47TMC2    O5  742   2.350   2.874   8.678  0.6904 -0.6674 -0.4820
   47TMC2    H5  743   2.337   2.861   8.774  2.1112 -1.9988 -0.4720
   48MPD2     C  744   3.149   2.625   8.930  0.2015  0.3594 -0.1941
   48MPD2    C1  745   3.058   2.676   9.026 -0.1135 -0.2076 -0.2809
   48MPD2    C2  746   3.090   2.671   9.160  0.2264  0.6108  0.0314
   48MPD2    C3  747   3.211   2.621   9.205 -0.4639 -0.0126  0.9458
   48MPD2    C4  748   3.310   2.576   9.110  0.3532  0.1380 -0.5028
   48MPD2    C5  749   3.269   2.578   8.978  0.1344 -0.1238 -0.0217
   48MPD2     H  750   3.013   2.703   9.229  0.4802  2.2235 -0.4320
   48MPD2    H1  751   3.404   2.531   9.140 -0.7422 -1.7329  0.1305
   48MPD2    H2  752   3.138   2.629   8.823  2.3826  2.5948 -0.3318
   48MPD2    H3  753   3.341   2.550   8.902 -0.2317 -1.9136  0.2867
   48MPD2     N  754   3.220   2.603   9.346  0.2557  0.8008  0.6375
   48MPD2    H5  755   3.133   2.616   9.395 -0.5159  0.0261 -0.5301
   48MPD2    N1  756   2.931   2.725   8.998  0.2437  0.5755  0.2988
   48MPD2    H7  757   2.882   2.763   9.079  2.9152 -0.1894  2.2792
   49TMC2    C1  758   2.209   0.260  10.340  0.2288 -0.2218 -0.2578
   49TMC2    C2  759   2.281   0.376  10.346 -0.6559  0.1342 -0.1446
   49TMC2    C3  760   2.302   0.434  10.217  0.0320 -0.2096  0.3517
   49TMC2    C4  761   2.149   0.203  10.231 -0.5143  0.2213  0.1493
   49TMC2    C5  762   2.157   0.273  10.119 -0.3301  0.4013  0.0194
   49TMC2    C6  763   2.238   0.384  10.107  0.3416  0.4556  0.2160
   49TMC2     C  764   2.168   0.211  10.470 -0.1174  0.1386 -0.2459
   49TMC2     O  765   2.151   0.088  10.458  0.1930 -0.0216  0.2128
   49TMC2     H  766   2.332   0.421  10.430 -0.7161  1.0796 -0.6073
   49TMC2    H1  767   2.087   0.114  10.239  1.1158 -0.8695  0.7846
   49TMC2    H2  768   2.250   0.428  10.009 -0.7653 -1.1447 -0.6419
   49TMC2    C7  769   2.106   0.231   9.990 -0.6376  0.2314 -0.6009
   49TMC2    C8  770   2.378   0.555  10.202  1.2764 -0.5102  0.7067
   49TMC2    O1  771   2.102   0.305   9.889 -0.9277  0.1585  0.6561
   49TMC2    O2  772   2.356   0.632  10.110  0.4636  0.2387 -0.0937
   49TMC2    O5  773   2.473   0.561  10.300 -0.7947  0.1010  0.1096
   49TMC2    H5  774   2.478   0.475  10.348  0.3434  0.6268  0.9130
   50MPD2     C  775   2.090   0.145  10.750 -0.3250 -0.6591  0.3208
   50MPD2    C1  776   2.096   0.270  10.695  0.0766  0.3453  0.2940
   50MPD2    C2  777   2.079   0.382  10.778 -0.3151  0.0709 -0.5910
   50MPD2    C3  778   2.050   0.372  10.913 -0.5284  1.4059  0.5127
   50MPD2    C4  779   2.045   0.244  10.969 -0.0854 -0.8755 -0.7658
   50MPD2    C5  780   2.070   0.139  10.883 -0.5681  0.0784 -0.7209
   50MPD2     H  781   2.090   0.482  10.737 -1.0039  0.9204  1.3329
   50MPD2    H1  782   2.021   0.219  11.072 -0.6798 -1.4920 -1.0530
   50MPD2    H2  783   2.117   0.054  10.697 -2.2860 -1.7836  1.2272
   50MPD2    H3  784   2.071   0.038  10.922 -0.0001  1.2841  2.3685
   50MPD2     N  785   2.006   0.479  10.994  0.1212  0.4832  1.2109
   50MPD2    H5  786   1.975   0.463  11.089  0.5407 -1.1073  1.0745
   50MPD2    N1  787   2.139   0.302  10.566 -0.1725  0.1457  0.4757
   50MPD2    H7  788   2.155   0.399  10.540  0.0730 -0.0629 -0.1570
   51TMC2    C1  789   3.016   4.096   2.097  0.2264 -0.4311  0.2979
   51TMC2    C2  790   3.071   4.005   2.176  0.4499  0.1982  0.0123
   51TMC2    C3  791   3.180   4.053   2.249 -0.1411 -0.0234 -0.5290
   51TMC2    C4  792   3.058   4.224   2.089  0.5935 -0.4332 -0.1661
   51TMC2    C5  793   3.165   4.265   2.166  0.3393 -0.2179  0.4772
   51TMC2    C6  794   3.235   4.181   2.237 -0.2283  0.2359  0.0511
   51TMC2     C  795   2.888   4.060   2.044 -0.3535 -0.2512 -0.1238
   51TMC2     O  796   2.863   3.944   2.016  0.1635  0.5301 -0.4306
   51TMC2     H  797   3.029   3.907   2.193  1.5547 -0.7184 -2.5905
   51TMC2    H1  798   3.011   4.292   2.018  0.8445 -2.2776 -2.0929
   51TMC2    H2  799   3.313   4.204   2.309 -0.2124  1.1871 -0.2623
   51TMC2    C7  800   3.206   4.404   2.156 -0.6775  0.3045  0.1051
   51TMC2    C8  801   3.244   3.951   2.324  0.3471  0.2632 -0.0021
   51TMC2    O1  802   3.121   4.485   2.116  0.4577  0.4296 -0.5933
   51TMC2    O2  803   3.184   3.857   2.364  0.3809  0.1032  0.1126
   51TMC2    O5  804   3.369   3.940   2.286  0.2003 -0.1039  0.1120
   51TMC2    H5  805   3.409   4.020   2.243  2.5118  1.2762  4.8430
   52MPD2     C  806   2.385   4.134   1.974 -0.0759  0.1270 -0.4099
   52MPD2    C1  807   2.466   4.045   1.907  0.0960  0.2436 -0.3177
   52MPD2    C2  808   2.601   4.059   1.932 -0.5452  0.5138 -0.0450
   52MPD2    C3  809   2.653   4.156   2.026 -0.2140  0.1434 -0.2808
   52MPD2    C4  810   2.565   4.239   2.088 -0.1496  0.3681 -0.0159
   52MPD2    C5  811   2.433   4.226   2.065  0.0600  0.0878  0.2692
   52MPD2     H  812   2.677   4.000   1.881  0.6463  0.7431  1.4621
   52MPD2    H1  813   2.594   4.330   2.139  2.0434  0.4610 -1.4299
   52MPD2    H2  814   2.278   4.128   1.957 -0.3960  1.0046  1.3110
   52MPD2    H3  815   2.365   4.295   2.113 -0.9100 -1.9967  1.9371
   52MPD2     N  816   2.794   4.157   2.066 -0.2775 -0.6767 -0.3086
   52MPD2    H5  817   2.810   4.237   2.126 -1.8709 -0.6238  0.0523
   52MPD2    N1  818   2.417   3.964   1.800  0.2623 -0.2275 -0.1064
   52MPD2    H7  819   2.485   3.920   1.738 -0.4888 -1.6248  0.0564
   53TMC2    C1  820   1.902   2.555  11.226  0.2243  0.3384  0.2818
   53TMC2    C2  821   1.967   2.676  11.189  0.0791  0.6654 -0.3958
   53TMC2    C3  822   2.094   2.695  11.237  0.0617 -0.3166  0.4231
   53TMC2    C4  823   1.955   2.469  11.317  0.5637 -0.0343 -0.4878
   53TMC2    C5  824   2.086   2.492  11.363  0.4697 -0.7832 -0.0866
   53TMC2    C6  825   2.158   2.605  11.325  0.0499 -0.4498 -0.3935
   53TMC2     C  826   1.757   2.569  11.251  0.5995  0.0351 -0.3489
   53TMC2     O  827   1.676   2.599  11.161  0.8135 -0.2036  0.3865
   53TMC2     H  828   1.912   2.747  11.129 -0.5425  2.0824  1.8425
   53TMC2    H1  829   1.897   2.388  11.360 -0.8538  1.3733  0.2682
   53TMC2    H2  830   2.253   2.632  11.368  0.1177  0.3728 -1.0593
   53TMC2    C7  831   2.072   2.485  11.507  0.2418  0.9047  0.0576
   53TMC2    C8  832   2.187   2.787  11.172  0.1937  0.9574 -0.4785
   53TMC2    O1  833   1.957   2.501  11.546  0.4396 -0.0279  0.3264
   53TMC2    O2  834   2.292   2.821  11.218  0.0636  0.0505 -0.2939
   53TMC2    O5  835   2.120   2.842  11.072  0.0786 -0.0078 -0.7555
   53TMC2    H5  836   2.039   2.798  11.039 -0.4776 -0.3463  1.0544
   54MPD2     C  837   1.503   2.608  11.409  0.4074 -0.6554 -0.0681
   54MPD2    C1  838   1.622   2.566  11.466  0.1639 -0.1709 -0.1458
   54MPD2    C2  839   1.634   2.541  11.597  0.0762 -0.1130 -1.4160
   54MPD2    C3  840   1.526   2.555  11.681 -0.7874 -0.2071 -0.4942
   54MPD2    C4  841   1.406   2.595  11.621  0.6885  0.0560  0.0353
   54MPD2    C5  842   1.391   2.624  11.486  0.1122  0.5085  0.0472
   54MPD2     H  843   1.725   2.492  11.628 -1.7490 -3.3982 -1.1661
   54MPD2    H1  844   1.317   2.612  11.680  0.1960 -3.4030  0.2749
   54MPD2    H2  845   1.489   2.629  11.304  0.0741  0.3636  0.1823
   54MPD2    H3  846   1.297   2.653  11.440  0.2678  0.9122 -0.0170
   54MPD2     N  847   1.520   2.510  11.817 -0.2305  0.0466 -0.0675
   54MPD2    H5  848   1.424   2.507  11.848  1.0470 -0.6508  3.8525
   54MPD2    N1  849   1.739   2.554  11.386  0.3222 -0.0929  0.4268
   54MPD2    H7  850   1.825   2.543  11.440 -0.3416  0.1893  1.5394
   55TMC2    C1  851   3.534   0.387  17.357  0.0740  0.8595 -0.2916
   55TMC2    C2  852   3.481   0.343  17.244 -0.2341 -0.7339 -0.2626
   55TMC2    C3  853   3.466   0.208  17.242 -0.1601 -0.1227 -0.2275
   55TMC2    C4  854   3.563   0.314  17.471 -0.7614  0.0202  0.2364
   55TMC2    C5  855   3.534   0.175  17.465 -0.1417 -0.0021  0.1427
   55TMC2    C6  856   3.485   0.125  17.350  0.1882  0.7794  0.0719
   55TMC2     C  857   3.526   0.532  17.384 -1.0204 -0.0302 -0.3242
   55TMC2     O  858   3.500   0.564  17.500 -0.2792  0.4847 -0.5003
   55TMC2     H  859   3.448   0.402  17.159 -3.1253 -0.1905  1.2365
   55TMC2    H1  860   3.600   0.369  17.557  1.3634 -2.1426  0.6816
   55TMC2    H2  861   3.490   0.019  17.328 -2.2610 -0.1248  3.9860
   55TMC2    C7  862   3.543   0.095  17.585  0.0927  0.4194 -0.0660
   55TMC2    C8  863   3.398   0.149  17.128 -0.3645 -0.3864  0.1206
   55TMC2    O1  864   3.556   4.714  17.564  1.2971 -0.0787  0.1906
   55TMC2    O2  865   3.387   0.029  17.111  0.2894  0.0649 -0.5735
   55TMC2    O5  866   3.311   0.237  17.078  0.1888  0.2737  0.4051
   55TMC2    H5  867   3.317   0.324  17.122  0.2409  0.6404 -0.3341
   56MPD2     C  868   3.494   0.815  17.154  1.5106  0.1144  0.4812
   56MPD2    C1  869   3.505   0.752  17.277 -0.2202 -0.0323  0.9887
   56MPD2    C2  870   3.489   0.832  17.389 -0.0546  0.4982 -0.5526
   56MPD2    C3  871   3.460   0.971  17.377 -0.5331 -0.3811 -0.0030
   56MPD2    C4  872   3.480   1.030  17.257  0.1522  0.2058  0.6816
   56MPD2    C5  873   3.496   0.951  17.149  0.2001  0.8616  0.0494
   56MPD2     H  874   3.473   0.791  17.488 -0.0794  0.1200 -0.7113
   56MPD2    H1  875   3.494   1.137  17.247  1.4218 -0.0735 -0.5364
   56MPD2    H2  876   3.511   0.755  17.066 -0.4502  1.2811 -0.6925
   56MPD2    H3  877   3.521   0.996  17.053  0.7768  0.4201 -0.0103
   56MPD2     N  878   3.401   1.041  17.488 -0.0651 -0.0293  0.0812
   56MPD2    H5  879   3.376   0.995  17.575 -0.2914 -1.3964 -0.7135
   56MPD2    N1  880   3.539   0.615  17.274  0.7046  0.2354 -0.0606
   56MPD2    H7  881   3.563   0.571  17.185  4.3082 -0.4737  1.2709
   57TMC2    C1  882   2.758   0.844  13.483 -0.2125  0.2633  0.3054
   57TMC2    C2  883   2.857   0.845  13.577 -0.3116  0.6372 -0.5769
   57TMC2    C3  884   2.959   0.757  13.562 -0.4329 -0.2891 -0.1001
   57TMC2    C4  885   2.752   0.756  13.377  0.5668 -0.0397  0.0387
   57TMC2    C5  886   2.850   0.658  13.377 -0.5650  0.0173  0.4584
   57TMC2    C6  887   2.954   0.654  13.471  0.5764  0.3740 -0.5817
   57TMC2     C  888   2.651   0.934  13.497 -0.9327  0.3806  0.3722
   57TMC2     O  889   2.563   0.924  13.415  0.5396 -0.0901  0.5169
   57TMC2     H  890   2.846   0.897  13.672  2.3750  1.1442 -0.5524
   57TMC2    H1  891   2.661   0.750  13.318  0.8356 -0.7981 -0.2934
   57TMC2    H2  892   3.038   0.586  13.464  2.0296  2.2441 -1.3011
   57TMC2    C7  893   2.823   0.547  13.291  0.4988  0.1254  0.5944
   57TMC2    C8  894   3.055   0.745  13.670  0.7055  0.3766 -0.9421
   57TMC2    O1  895   2.717   0.539  13.234  0.3852 -0.6217 -0.0288
   57TMC2    O2  896   3.069   0.847  13.741  0.7294  0.7663  0.1898
   57TMC2    O5  897   3.038   0.618  13.721  0.3542 -0.2996 -0.0975
   57TMC2    H5  898   3.013   0.548  13.658  0.0750  2.0267 -2.5682
   58MPD2     C  899   2.388   1.320  13.696 -0.1080  0.2751 -0.1502
   58MPD2    C1  900   2.375   1.247  13.580  0.1060 -0.7029 -0.6263
   58MPD2    C2  901   2.468   1.156  13.545 -0.7200  0.8215 -0.1211
   58MPD2    C3  902   2.575   1.128  13.627  0.3845  0.8408 -0.0368
   58MPD2    C4  903   2.584   1.197  13.743 -0.4067  0.4095 -0.1836
   58MPD2    C5  904   2.496   1.297  13.777  0.7202 -0.0112 -0.3046
   58MPD2     H  905   2.455   1.118  13.445  0.1181  0.8167 -0.2284
   58MPD2    H1  906   2.672   1.182  13.806 -0.5701 -0.8653 -0.2604
   58MPD2    H2  907   2.316   1.397  13.720  0.6848  0.6347  1.0998
   58MPD2    H3  908   2.495   1.347  13.873  1.7376 -3.0246  1.3115
   58MPD2     N  909   2.669   1.026  13.599  0.4492  0.0552 -0.0318
   58MPD2    H5  910   2.748   1.024  13.663 -0.1383 -0.5550  0.6801
   58MPD2    N1  911   2.266   1.254  13.487 -0.9165 -0.1385  1.0556
   58MPD2    H7  912   2.247   1.170  13.432  0.3445  1.3101 -1.5828
   59TMC2    C1  913   4.636   1.161  12.784 -0.5770  0.1803  0.0217
   59TMC2    C2  914   4.581   1.039  12.787  0.1948 -0.1472 -0.4252
   59TMC2    C3  915   4.563   0.978  12.665 -0.7443  0.5971  0.3946
   59TMC2    C4  916   4.657   1.230  12.662 -0.6971  0.0111 -0.0304
   59TMC2    C5  917   4.636   1.166  12.543 -0.0160 -0.1696  0.2865
   59TMC2    C6  918   4.589   1.038  12.548  0.4379  0.2603 -0.4908
   59TMC2     C  919   4.620   1.242  12.912  0.6469 -0.1969  0.3137
   59TMC2     O  920   4.548   1.206  13.004  0.1814 -0.0588  0.5658
   59TMC2     H  921   4.553   0.992  12.881  0.5945 -2.6398 -1.5484
   59TMC2    H1  922   4.702   1.328  12.651 -2.0277  0.5955 -0.2711
   59TMC2    H2  923   4.548   0.994  12.458 -1.6522  0.6908  0.2604
   59TMC2    C7  924   4.645   1.229  12.415 -0.1039  0.8183  0.3195
   59TMC2    C8  925   4.447   0.890  12.657  0.0345 -0.7975 -0.3336
   59TMC2    O1  926   4.647   1.148  12.325  0.5490  0.5975 -0.0378
   59TMC2    O2  927   4.349   0.910  12.726  0.0065 -0.1343  0.5673
   59TMC2    O5  928   4.479   0.790  12.571  0.6639 -1.1649 -0.1672
   59TMC2    H5  929   4.574   0.771  12.557  0.3701 -3.1862  0.5231
   60MPD2     C  930   4.617   1.475  13.088  0.0904 -0.8105 -0.0735
   60MPD2    C1  931   4.722   1.422  13.019  0.1334  0.4405 -0.7034
   60MPD2    C2  932   0.115   1.464  13.043 -0.3851 -0.0297 -0.6894
   60MPD2    C3  933   0.146   1.532  13.154 -0.8422  0.0320 -0.1360
   60MPD2    C4  934   0.043   1.576  13.235 -0.0500  0.2663  0.2174
   60MPD2    C5  935   4.649   1.550  13.199 -0.1540 -0.2335 -0.2748
   60MPD2     H  936   0.190   1.428  12.974  0.3142 -0.8287  0.4949
   60MPD2    H1  937   0.054   1.642  13.320  0.2144 -0.4906  0.7711
   60MPD2    H2  938   4.516   1.440  13.075  0.2593 -1.9391  1.6407
   60MPD2    H3  939   4.571   1.597  13.258  1.4522  2.4402 -0.2835
   60MPD2     N  940   0.279   1.573  13.191  0.6733  0.3817 -0.3075
   60MPD2    H5  941   0.291   1.645  13.262  2.5192 -1.0958  0.8926
   60MPD2    N1  942   4.714   1.336  12.913 -0.1269 -0.1426  0.4773
   60MPD2    H7  943   0.055   1.317  12.852  1.0600  0.6426  1.7620
   61TMC2    C1  944   3.983   2.815  15.890  0.7007 -0.2753 -0.6062
   61TMC2    C2  945   3.935   2.724  15.982 -0.2897 -0.4344 -0.1998
   61TMC2    C3  946   3.798   2.704  15.984 -0.7255  0.2879 -0.0738
   61TMC2    C4  947   3.900   2.893  15.814  0.5876 -0.3219 -0.1013
   61TMC2    C5  948   3.764   2.856  15.812  0.4326 -0.0996 -0.1018
   61TMC2    C6  949   3.713   2.767  15.902 -0.7616  0.4302  0.2809
   61TMC2     C  950   4.127   2.831  15.896 -0.3243  0.6894  0.4678
   61TMC2     O  951   4.185   2.803  15.999 -0.0399 -0.3112 -0.4386
   61TMC2     H  952   4.005   2.671  16.045 -0.2510  1.1702  1.1090
   61TMC2    H1  953   3.940   2.983  15.768 -0.7753  0.6524  0.6265
   61TMC2    H2  954   3.605   2.759  15.914 -0.6113 -0.9564  0.7757
   61TMC2    C7  955   3.670   2.931  15.736 -0.7309 -0.3761  0.2966
   61TMC2    C8  956   3.766   2.574  16.048 -0.2600  0.2506  0.4629
   61TMC2    O1  957   3.548   2.926  15.758 -0.2912  0.2706 -0.1436
   61TMC2    O2  958   3.835   2.520  16.134 -0.1252  0.0934 -0.1334
   61TMC2    O5  959   3.651   2.513  16.009 -0.5625 -0.2989  0.3579
   61TMC2    H5  960   3.607   2.552  15.931 -0.7864 -2.0766 -0.4257
   62MPD2     C  961   4.411   2.895  15.844 -0.0419  0.7416 -0.3239
   62MPD2    C1  962   4.312   2.904  15.748 -1.4187  0.7785  0.5548
   62MPD2    C2  963   4.344   2.964  15.627 -0.4929  0.3338 -0.1905
   62MPD2    C3  964   4.481   2.975  15.592  0.8280 -0.1540  0.2534
   62MPD2    C4  965   4.583   2.944  15.680 -0.1839  0.3919  0.6324
   62MPD2    C5  966   4.544   2.919  15.813 -0.1901 -0.1224 -0.0741
   62MPD2     H  967   4.259   2.999  15.569  1.1136  0.4900 -2.4334
   62MPD2    H1  968   4.688   2.956  15.658  0.2392  0.7533  2.8238
   62MPD2    H2  969   4.386   2.873  15.947 -1.4597  3.4883 -0.0683
   62MPD2    H3  970   4.624   2.930  15.885  0.9012  0.2084 -1.3384
   62MPD2     N  971   4.494   3.041  15.467 -0.7538 -0.0633 -0.1671
   62MPD2    H5  972   4.409   3.083  15.429 -0.6742  0.5755  0.3604
   62MPD2    N1  973   4.182   2.890  15.783  0.3006 -0.0407  0.1660
   62MPD2    H7  974   4.115   2.916  15.711  1.8193  0.3651 -1.0958
   63TMC2    C1  975   3.277   2.770  10.708 -0.0807 -0.4176  0.1670
   63TMC2    C2  976   3.352   2.768  10.825 -0.5469  0.6002 -0.3237
   63TMC2    C3  977   3.477   2.823  10.814  0.5549  0.2685 -0.2365
   63TMC2    C4  978   3.324   2.829  10.591  0.1872  0.2436  0.9564
   63TMC2    C5  979   3.449   2.879  10.590  0.5016 -0.5609  0.1220
   63TMC2    C6  980   3.525   2.871  10.700  0.3870  0.5699  0.5166
   63TMC2     C  981   3.159   2.682  10.716 -0.1845 -0.1548  0.0470
   63TMC2     O  982   3.113   2.668  10.824  0.1667  0.0443 -0.4199
   63TMC2     H  983   3.316   2.728  10.919  1.2378  0.9795  0.5257
   63TMC2    H1  984   3.260   2.832  10.504  1.5637  3.0664  0.0524
   63TMC2    H2  985   3.618   2.927  10.707  0.5320  0.1823  1.7131
   63TMC2    C7  986   3.503   2.929  10.466  0.3710  1.0150 -0.0551
   63TMC2    C8  987   3.563   2.835  10.935  0.9873  0.5140  0.5040
   63TMC2    O1  988   3.423   2.952  10.372  0.0865 -0.1306 -0.8896
   63TMC2    O2  989   3.660   2.762  10.966 -0.1867 -0.0438 -0.1578
   63TMC2    O5  990   3.479   2.891  11.019 -0.3376  0.1191  0.1386
   63TMC2    H5  991   3.422   2.956  10.973 -0.1066  0.4144  0.2686
   64MPD2     C  992   2.857   2.309  10.556 -0.2709  0.0095 -0.0373
   64MPD2    C1  993   2.915   2.329  10.678  0.4141 -0.0725 -0.0971
   64MPD2    C2  994   2.995   2.441  10.692 -0.1587  0.3703  0.0044
   64MPD2    C3  995   3.037   2.517  10.587  0.2242 -0.7220  0.0669
   64MPD2    C4  996   2.991   2.490  10.462 -0.6642  0.3565  0.2636
   64MPD2    C5  997   2.899   2.392  10.446  0.3649 -0.3780  0.2755
   64MPD2     H  998   3.026   2.460  10.795 -2.2285 -2.3756  1.1420
   64MPD2    H1  999   3.035   2.549  10.382  0.8830 -1.0371  0.0870
   64MPD2    H2 1000   2.782   2.235  10.532 -1.3980  2.2273 -3.3319
   64MPD2    H3 1001   2.848   2.384  10.351  1.5517 -3.7768 -0.0583
   64MPD2     N 1002   3.121   2.629  10.595 -0.3661 -0.0692 -0.3905
   64MPD2    H5 1003   3.164   2.661  10.509 -1.2099 -1.5800 -1.3641
   64MPD2    N1 1004   2.896   2.255  10.793  0.1200  0.5691  0.2068
   64MPD2    H7 1005   2.960   2.271  10.869 -0.4910 -1.6057  1.1780
   65TMC2    C1 1006   0.233   2.503  15.152  0.2882  0.0474  0.0802
   65TMC2    C2 1007   0.099   2.509  15.173  0.4254  0.0410  0.1298
   65TMC2    C3 1008   0.057   2.590  15.273  0.0845  0.1214 -0.2932
   65TMC2    C4 1009   0.325   2.568  15.223  0.6354  0.2638  0.2420
   65TMC2    C5 1010   0.275   2.645  15.329 -0.1321 -0.3902 -0.6228
   65TMC2    C6 1011   0.143   2.650  15.355 -0.4831  0.1233  0.0473
   65TMC2     C 1012   0.282   2.410  15.058 -0.3173  0.4705  0.3465
   65TMC2     O 1013   0.396   2.412  15.021  0.1327  0.2802  0.1326
   65TMC2     H 1014   0.031   2.483  15.093 -0.5276  2.4002  0.1608
   65TMC2    H1 1015   0.430   2.556  15.199  0.3368 -0.7578 -0.5321
   65TMC2    H2 1016   0.101   2.729  15.417 -0.1216  0.6630 -0.3911
   65TMC2    C7 1017   0.358   2.729  15.407 -0.1644 -0.1299  0.4899
   65TMC2    C8 1018   4.658   2.624  15.291 -0.3979 -0.9064  0.5493
   65TMC2    O1 1019   0.466   2.760  15.366  0.0391 -0.2235  0.4962
   65TMC2    O2 1020   4.567   2.545  15.283  0.0598 -0.3281  0.4879
   65TMC2    O5 1021   4.652   2.757  15.267 -0.5317 -0.1549  0.5212
   65TMC2    H5 1022   0.004   2.797  15.262 -1.2747  1.3076 -1.0545
   66MPD2     C 1023   0.293   2.226  14.833 -0.4091  1.4113  0.2664
   66MPD2    C1 1024   0.216   2.210  14.951 -0.3607  0.4702 -0.1760
   66MPD2    C2 1025   0.148   2.089  14.973  0.2553  0.7733  0.5616
   66MPD2    C3 1026   0.160   1.982  14.892  0.4451  0.0272  0.0353
   66MPD2    C4 1027   0.251   1.992  14.787 -0.4207 -0.0150 -0.3447
   66MPD2    C5 1028   0.311   2.116  14.756 -0.2036  0.6138 -1.2955
   66MPD2     H 1029   0.088   2.091  15.063  0.7090 -0.5711  0.8836
   66MPD2    H1 1030   0.277   1.902  14.732  3.4346  1.1774 -0.5337
   66MPD2    H2 1031   0.344   2.319  14.811  1.3593  0.7025  1.3563
   66MPD2    H3 1032   0.377   2.128  14.671 -1.2877  0.0079 -2.2158
   66MPD2     N 1033   0.097   1.862  14.929 -0.5589 -0.1552 -0.7204
   66MPD2    H5 1034   0.036   1.872  15.009 -1.8784  1.6784 -1.9515
   66MPD2    N1 1035   0.201   2.306  15.045  0.5415 -0.2764  0.1363
   66MPD2    H7 1036   0.121   2.294  15.106  0.8859  1.5429  0.9515
   67TMC2    C1 1037   0.471   1.510  13.989 -0.2149  0.3934 -0.0965
   67TMC2    C2 1038   0.441   1.639  14.009  0.1396  0.4105 -0.0874
   67TMC2    C3 1039   0.529   1.717  14.084 -0.1452 -0.0801 -0.0173
   67TMC2    C4 1040   0.591   1.454  14.029 -0.1126  0.0764 -0.2785
   67TMC2    C5 1041   0.678   1.531  14.087 -0.4290  0.4079 -0.0869
   67TMC2    C6 1042   0.651   1.662  14.120  0.1014  0.4443 -0.3322
   67TMC2     C 1043   0.357   1.421  13.964  0.0553  0.0987 -0.2113
   67TMC2     O 1044   0.252   1.478  13.946 -0.7185 -0.3152 -0.0444
   67TMC2     H 1045   0.346   1.679  13.973 -0.2678  1.4017  2.0857
   67TMC2    H1 1046   0.612   1.348  14.031 -1.5327 -0.2279 -1.6124
   67TMC2    H2 1047   0.729   1.723  14.165  0.2142  0.3812 -0.4447
   67TMC2    C7 1048   0.766   1.464  14.185 -0.6030 -0.3809  0.3798
   67TMC2    C8 1049   0.473   1.747  14.216  0.9199 -0.1856 -0.0239
   67TMC2    O1 1050   0.802   1.348  14.170 -0.3289 -0.2217  0.3047
   67TMC2    O2 1051   0.553   1.759  14.310 -0.1444  0.3727 -0.9236
   67TMC2    O5 1052   0.350   1.700  14.225  0.2739  0.6000  0.0706
   67TMC2    H5 1053   0.292   1.719  14.148  0.5917 -1.5981 -0.7053
   68MPD2     C 1054   0.327   1.062  13.868  0.3604 -0.5281 -0.2399
   68MPD2    C1 1055   0.285   1.188  13.917 -0.4382  0.7519 -0.8802
   68MPD2    C2 1056   0.146   1.201  13.945  0.1966 -0.6239  0.1955
   68MPD2    C3 1057   0.060   1.093  13.922  0.1861  0.2220 -0.5880
   68MPD2    C4 1058   0.098   0.982  13.857  0.9930 -0.8387 -0.8272
   68MPD2    C5 1059   0.235   0.963  13.841 -0.2524  0.4527  0.1277
   68MPD2     H 1060   0.104   1.295  13.978  1.0455 -0.5697  1.1368
   68MPD2    H1 1061   0.029   0.900  13.838  1.6985 -1.2003 -1.7948
   68MPD2    H2 1062   0.429   1.035  13.845 -0.1352 -1.3334 -1.5056
   68MPD2    H3 1063   0.265   0.869  13.796 -0.1574 -0.8111  2.8323
   68MPD2     N 1064   4.667   1.092  13.974  0.1308 -0.0461  0.0668
   68MPD2    H5 1065   4.603   1.021  13.941 -0.5447  0.4426  0.3351
   68MPD2    N1 1066   0.381   1.293  13.936 -0.4316  0.4772  0.3530
   68MPD2    H7 1067   0.480   1.282  13.919 -0.7064  0.2637 -1.1241
   69TMC2    C1 1068   2.114   3.058  12.101 -0.1379 -0.6765  0.5899
   69TMC2    C2 1069   2.014   3.105  12.017 -0.7720 -0.1984 -0.1505
   69TMC2    C3 1070   2.032   3.077  11.884  0.8619 -0.0551  0.5287
   69TMC2    C4 1071   2.205   2.969  12.059 -0.6783  0.8679  0.0510
   69TMC2    C5 1072   2.211   2.937  11.925  0.4172 -0.2692  0.1565
   69TMC2    C6 1073   2.125   2.996  11.840 -0.0585  0.8779 -0.6594
   69TMC2     C 1074   2.117   3.086  12.241 -0.9853  0.3541  0.0324
   69TMC2     O 1075   2.126   3.202  12.274 -0.3909  0.5584  0.2495
   69TMC2     H 1076   1.923   3.147  12.058 -0.7241  0.5884 -0.8540
   69TMC2    H1 1077   2.280   2.935  12.130 -0.8117 -0.5574 -0.4894
   69TMC2    H2 1078   2.124   2.963  11.736  0.8222  0.3169 -0.4940
   69TMC2    C7 1079   2.326   2.862  11.879  0.1192 -0.1440 -0.2415
   69TMC2    C8 1080   1.909   3.078  11.810  0.1654 -0.7948  0.7832
   69TMC2    O1 1081   2.411   2.850  11.967 -0.5099 -0.6320 -0.2526
   69TMC2    O2 1082   1.841   2.978  11.785 -0.7065  0.0783 -0.3641
   69TMC2    O5 1083   1.857   3.202  11.833  0.1395  0.3649  0.1661
   69TMC2    H5 1084   1.923   3.264  11.872  1.6640 -0.9018 -0.3793
   70MPD2     C 1085   2.214   3.056  12.531 -0.4602 -0.4160 -0.0294
   70MPD2    C1 1086   2.176   2.960  12.444  0.5060 -0.1345 -0.1219
   70MPD2    C2 1087   2.154   2.839  12.492  0.8063  0.4653  0.5608
   70MPD2    C3 1088   2.182   2.795  12.623 -0.2424  0.6897  0.0655
   70MPD2    C4 1089   2.240   2.887  12.709 -0.5813  0.6159 -0.6417
   70MPD2    C5 1090   2.248   3.016  12.660 -0.4542 -0.1203  0.5652
   70MPD2     H 1091   2.113   2.767  12.422  0.6801  0.5355  0.5644
   70MPD2    H1 1092   2.255   2.872  12.816  1.4351 -0.0807 -1.0109
   70MPD2    H2 1093   2.216   3.159  12.497  0.4217 -0.6014 -0.5446
   70MPD2    H3 1094   2.283   3.096  12.725  2.2651 -1.3682  0.6441
   70MPD2     N 1095   2.154   2.665  12.673 -0.1434  0.2665  0.3973
   70MPD2    H5 1096   2.186   2.643  12.766  1.0004  0.6863  0.1064
   70MPD2    N1 1097   2.137   2.970  12.310  0.2621 -0.4334  0.2509
   70MPD2    H7 1098   2.135   2.887  12.251 -1.2415 -0.0580 -0.2367
   71TMC2    C1 1099   0.576   3.434   1.503 -0.3817 -0.0907  0.3819
   71TMC2    C2 1100   0.707   3.478   1.533  0.1695  0.8498 -0.6280
   71TMC2    C3 1101   0.713   3.549   1.657  0.6008 -0.7231  0.5504
   71TMC2    C4 1102   0.463   3.452   1.579 -0.2584  0.1182  0.4484
   71TMC2    C5 1103   0.481   3.537   1.680  0.2923 -0.4116  0.4304
   71TMC2    C6 1104   0.605   3.585   1.723  0.3684 -0.1224  0.2166
   71TMC2     C 1105   0.554   3.406   1.364 -0.0024 -0.4130  0.6763
   71TMC2     O 1106   0.624   3.467   1.282 -0.2492 -0.3568  0.3289
   71TMC2     H 1107   0.787   3.481   1.461  0.9972 -2.1996  0.1677
   71TMC2    H1 1108   0.366   3.440   1.533  0.6068 -1.2206 -1.0337
   71TMC2    H2 1109   0.618   3.653   1.807  0.7575 -0.6417  0.5737
   71TMC2    C7 1110   0.372   3.581   1.762  0.0423  0.6791  0.3299
   71TMC2    C8 1111   0.840   3.578   1.723 -0.0423  0.0907 -0.3640
   71TMC2    O1 1112   0.399   3.631   1.873 -0.1778 -0.2151 -0.1262
   71TMC2    O2 1113   0.858   3.679   1.795  0.9428 -0.2402  0.3055
   71TMC2    O5 1114   0.928   3.476   1.702 -0.3158 -0.2133 -0.2638
   71TMC2    H5 1115   0.885   3.402   1.653 -0.1668  1.5083 -2.9560
   72MPD2     C 1116   0.304   3.151   0.994 -0.6781  0.2090  0.0563
   72MPD2    C1 1117   0.343   3.286   0.995  0.0250  0.1070 -0.4643
   72MPD2    C2 1118   0.407   3.333   1.112 -0.3789 -0.0670  0.1310
   72MPD2    C3 1119   0.417   3.252   1.221 -0.1775 -0.3719 -0.6403
   72MPD2    C4 1120   0.368   3.124   1.218  0.5809 -0.7695  0.2065
   72MPD2    C5 1121   0.322   3.072   1.104  0.4135  0.0039 -0.8452
   72MPD2     H 1122   0.449   3.431   1.126  0.4219 -0.2892 -0.7554
   72MPD2    H1 1123   0.363   3.063   1.308 -0.3885  0.3642  0.9312
   72MPD2    H2 1124   0.275   3.096   0.904 -1.1314 -0.3405  0.5362
   72MPD2    H3 1125   0.305   2.965   1.103 -0.5512  0.1622 -1.4019
   72MPD2     N 1126   0.470   3.302   1.349 -0.0054  0.1948 -0.5354
   72MPD2    H5 1127   0.471   3.248   1.434 -1.8445  0.8297 -0.1231
   72MPD2    N1 1128   0.304   3.377   0.898 -0.3496 -0.3543  0.4225
   72MPD2    H7 1129   0.325   3.474   0.918 -0.3208 -0.6895  2.0243
   73TMC2    C1 1130   4.207   0.100  14.005  0.4967  0.3556  0.6568
   73TMC2    C2 1131   4.252   0.215  14.065 -0.4501 -0.3717 -0.0476
   73TMC2    C3 1132   4.331   0.205  14.180 -1.1070 -0.0384  0.8381
   73TMC2    C4 1133   4.260   4.717  14.041 -0.1569 -0.6523 -0.0182
   73TMC2    C5 1134   4.351   4.713  14.140 -0.0544 -0.3666 -0.4149
   73TMC2    C6 1135   4.377   0.082  14.216 -0.3566 -0.4701  0.0183
   73TMC2     C 1136   4.227   0.115  13.861  0.0571 -0.4631  0.5982
   73TMC2     O 1137   4.284   0.020  13.806 -0.1840 -0.8201 -0.3323
   73TMC2     H 1138   4.217   0.316  14.044  0.0054 -0.3799 -0.8147
   73TMC2    H1 1139   4.244   4.632  13.976 -1.0325  0.9114 -1.8248
   73TMC2    H2 1140   4.455   0.072  14.292 -0.0799 -1.0034 -0.3353
   73TMC2    C7 1141   4.475   4.657  14.103 -0.0991 -0.1913 -0.7562
   73TMC2    C8 1142   4.385   0.324  14.238  0.6802  0.6092 -0.2384
   73TMC2    O1 1143   4.565   4.643  14.189  0.2056 -0.5998  0.2439
   73TMC2    O2 1144   4.372   0.432  14.179  0.2536 -0.3459 -0.2584
   73TMC2    O5 1145   4.406   0.294  14.366 -0.6679  0.0253  0.3162
   73TMC2    H5 1146   4.350   0.217  14.390  0.2928 -0.3297  1.3726
   74MPD2     C 1147   4.203   0.310  13.394 -0.3999 -0.2011  0.4522
   74MPD2    C1 1148   4.302   0.230  13.447 -0.3622  0.0044 -0.7947
   74MPD2    C2 1149   4.288   0.198  13.583 -0.2610  0.1130 -0.4825
   74MPD2    C3 1150   4.187   0.252  13.661 -0.1246 -0.2604 -0.7675
   74MPD2    C4 1151   4.091   0.325  13.600 -0.8256  0.9988 -0.0970
   74MPD2    C5 1152   4.095   0.357  13.463 -0.3175  0.6376  0.1456
   74MPD2     H 1153   4.368   0.141  13.630  0.8879  1.1672 -1.1494
   74MPD2    H1 1154   4.018   0.365  13.668 -0.2390 -1.5295  2.0360
   74MPD2    H2 1155   4.208   0.344  13.291  1.8841 -0.7568  0.3782
   74MPD2    H3 1156   4.023   0.421  13.414 -2.2905 -0.1221  2.0622
   74MPD2     N 1157   4.163   0.217  13.801  0.2448 -0.1835 -0.3758
   74MPD2    H5 1158   4.093   0.267  13.855  1.5047  0.8398  0.3215
   74MPD2    N1 1159   4.412   0.196  13.364 -0.5661  0.1734 -0.8655
   74MPD2    H7 1160   4.409   0.239  13.272 -1.8881  1.1977 -0.3430
   75TMC2    C1 1161   4.480   1.121  14.110  0.1038 -0.0587  0.2563
   75TMC2    C2 1162   4.436   1.166  14.226  0.1064  0.2387 -0.0858
   75TMC2    C3 1163   4.302   1.163  14.249  0.2934  0.0672  0.6006
   75TMC2    C4 1164   4.393   1.074  14.017 -0.2116 -0.6753  0.4562
   75TMC2    C5 1165   4.260   1.069  14.044  0.2090 -0.2971  0.2119
   75TMC2    C6 1166   4.213   1.094  14.171 -0.4992 -0.3745  0.4656
   75TMC2     C 1167   4.617   1.162  14.077 -0.8907  0.5335  0.0178
   75TMC2     O 1168   4.670   1.255  14.141 -0.1942 -0.1568  0.3680
   75TMC2     H 1169   4.511   1.196  14.298  0.0735  0.8177 -0.2947
   75TMC2    H1 1170   4.432   1.060  13.917 -1.7168  1.8568 -0.4890
   75TMC2    H2 1171   4.109   1.092  14.202 -0.2378  4.0080  1.6376
   75TMC2    C7 1172   4.162   1.056  13.933  0.1531  1.2544 -0.1112
   75TMC2    C8 1173   4.234   1.236  14.354 -0.8781  0.5780 -0.8719
   75TMC2    O1 1174   4.212   1.085  13.826  0.1358  0.2693  0.3314
   75TMC2    O2 1175   4.142   1.202  14.421  0.2040 -0.2528 -0.4908
   75TMC2    O5 1176   4.310   1.342  14.389  0.2114 -0.8614  0.1336
   75TMC2    H5 1177   4.381   1.366  14.325  0.6344  0.4865  1.0893
   76TMC2    C1 1178   3.499   1.698  12.093 -0.0890 -0.3403  0.0865
   76TMC2    C2 1179   3.442   1.594  12.028 -0.0357 -0.3659  0.8329
   76TMC2    C3 1180   3.494   1.471  12.056  0.0654  0.2824  0.1560
   76TMC2    C4 1181   3.616   1.680  12.161 -0.4490 -0.3045 -0.7824
   76TMC2    C5 1182   3.665   1.554  12.182  0.5664 -0.4614 -0.3563
   76TMC2    C6 1183   3.604   1.447  12.134 -0.4640  0.2068 -0.5356
   76TMC2     C 1184   3.444   1.828  12.083  0.0857  0.3621 -0.0366
   76TMC2     O 1185   3.395   1.851  11.974 -0.5848 -0.5618  0.2568
   76TMC2     H 1186   3.356   1.601  11.962 -1.4804  0.7348  2.8376
   76TMC2    H1 1187   3.666   1.767  12.204  0.0500 -1.2610  0.5658
   76TMC2    H2 1188   3.640   1.347  12.157 -0.5610 -0.2140 -2.2340
   76TMC2    C7 1189   3.802   1.528  12.230 -0.3228  0.8096  0.3660
   76TMC2    C8 1190   3.412   1.355  12.018 -0.2031 -0.3132  0.0793
   76TMC2    O1 1191   3.862   1.431  12.195 -0.7151 -0.4264 -0.7049
   76TMC2    O2 1192   3.446   1.240  12.026  0.3778  0.1890  0.0000
   76TMC2    O5 1193   3.283   1.393  12.050 -0.2051  0.2744 -0.8098
   76TMC2    H5 1194   3.268   1.489  12.060  1.5812  0.5456 -0.6140
   77MPD2     C 1195   3.213   2.231  12.284 -0.1918  0.0310 -0.4192
   77MPD2    C1 1196   3.222   2.199  12.154 -0.1053  0.4629  0.3340
   77MPD2    C2 1197   3.298   2.089  12.122  0.5807  0.3431 -0.1157
   77MPD2    C3 1198   3.368   2.017  12.223 -0.2911  0.1003 -0.2973
   77MPD2    C4 1199   3.357   2.060  12.352 -0.4850  0.1530  0.3413
   77MPD2    C5 1200   3.280   2.168  12.384 -0.0049  0.2217 -0.2544
   77MPD2     H 1201   3.319   2.060  12.020  1.1003  1.4541 -0.3161
   77MPD2    H1 1202   3.402   2.000  12.430  2.1896  1.4554 -0.1858
   77MPD2    H2 1203   3.161   2.322  12.313  1.8878  0.6541  1.3188
   77MPD2    H3 1204   3.299   2.208  12.483 -1.3253 -1.6418  0.7507
   77MPD2     N 1205   3.446   1.902  12.203  0.5190 -0.4775  0.0218
   77MPD2    H5 1206   3.470   1.859  12.292  1.5119  0.1907  0.0669
   77MPD2    N1 1207   3.169   2.280  12.047  0.0908  0.3003  0.0149
   77MPD2    H7 1208   3.203   2.252  11.955  0.3293 -1.3226  0.5984
   78TMC2    C1 1209   4.653   3.911   1.560 -0.8045 -0.1701 -0.4033
   78TMC2    C2 1210   4.620   3.904   1.691  0.6854 -0.1459  0.4365
   78TMC2    C3 1211   4.728   3.909   1.782  0.2808  0.6774  0.4002
   78TMC2    C4 1212   0.052   3.902   1.515  0.7392  0.1616 -0.2010
   78TMC2    C5 1213   0.154   3.895   1.611 -1.2000 -0.1284  0.7950
   78TMC2    C6 1214   0.124   3.905   1.747  0.7480  0.4001 -0.3785
   78TMC2     C 1215   4.536   3.924   1.472  0.1929  0.3210  0.3394
   78TMC2     O 1216   4.429   3.956   1.522  0.2528  0.0083  0.9756
   78TMC2     H 1217   4.516   3.906   1.721  0.1772 -2.8082 -1.1050
   78TMC2    H1 1218   0.083   3.908   1.411 -0.7627 -1.5029 -0.7439
   78TMC2    H2 1219   0.195   3.871   1.821 -0.8743  2.0780  1.9113
   78TMC2    C7 1220   0.294   3.889   1.562  0.1510 -0.1049  0.3934
   78TMC2    C8 1221   4.710   3.958   1.917  0.4669  0.3727  0.2206
   78TMC2    O1 1222   0.323   3.832   1.457  0.4067  0.2910 -0.4045
   78TMC2    O2 1223   4.608   3.943   1.983  0.7035  0.3696  0.1363
   78TMC2    O5 1224   0.052   4.064   1.921 -0.6012  0.6213 -0.4936
   78TMC2    H5 1225   0.130   4.056   1.863  0.4860  0.7245  0.9382
   79MPD1     C 1226   4.309   3.910   1.012 -0.0902  0.4823  0.6468
   79MPD1    C1 1227   4.267   3.963   1.128 -1.0074  0.9253  0.1301
   79MPD1    C2 1228   4.347   3.949   1.238  0.0324  0.5675  0.1726
   79MPD1    C3 1229   4.478   3.900   1.231 -0.0706  0.2448 -0.0763
   79MPD1    C4 1230   4.525   3.862   1.109 -0.0374  0.7788 -0.2236
   79MPD1    C5 1231   4.436   3.864   1.004  0.0018  0.8050  0.1981
   79MPD1     H 1232   4.311   3.983   1.335  1.0542  1.7649  0.1260
   79MPD1    H1 1233   4.629   3.832   1.096 -0.4024 -1.3996  1.9285
   79MPD1    H2 1234   4.250   3.895   0.922 -1.6598  1.0674  1.5816
   79MPD1    H3 1235   4.472   3.830   0.908 -1.0370  2.0863 -0.6351
   79MPD1     N 1236   4.567   3.889   1.342 -0.3973 -0.4328 -0.2522
   79MPD1    H5 1237   4.655   3.850   1.311  0.5046  1.3030  0.1694
   79MPD1    N1 1238   4.137   3.997   1.139 -0.1538  0.1057  0.3049
   79MPD1    H6 1239   4.107   4.044   1.224  0.2656  0.8139  0.0599
   79MPD1    H7 1240   4.076   3.917   1.124  0.1034 -0.1489  0.6294
   80TMC2    C1 1241   1.621   2.208  11.423 -0.5966 -0.1929  0.7289
   80TMC2    C2 1242   1.519   2.238  11.336 -0.0211 -0.3791  0.1601
   80TMC2    C3 1243   1.388   2.247  11.374  0.2311 -0.3525  0.2796
   80TMC2    C4 1244   1.592   2.147  11.541  0.5695 -0.3542  0.5026
   80TMC2    C5 1245   1.463   2.159  11.585  0.6950  0.1000 -0.6393
   80TMC2    C6 1246   1.361   2.211  11.508  0.4898 -0.1534 -0.6639
   80TMC2     C 1247   1.740   2.174  11.359 -0.2805  0.5893 -0.0633
   80TMC2     O 1248   1.737   2.178  11.237  0.4451  0.0435  0.6835
   80TMC2     H 1249   1.546   2.269  11.236  2.1659  1.3604  1.2900
   80TMC2    H1 1250   1.662   2.080  11.591  0.6633 -0.1116  0.6925
   80TMC2    H2 1251   1.269   2.247  11.551 -0.1457 -2.9160  0.2194
   80TMC2    C7 1252   1.434   2.159  11.728 -0.5321  0.3627  0.5023
   80TMC2    C8 1253   1.291   2.313  11.293 -0.1504 -0.4350  0.3079
   80TMC2    O1 1254   1.319   2.198  11.756  0.3919  0.6517  0.0001
   80TMC2    O2 1255   1.318   2.385  11.195 -0.1713  0.1093  0.4621
   80TMC2    O5 1256   1.169   2.277  11.337 -0.6415 -0.4644 -0.5011
   80TMC2    H5 1257   1.162   2.201  11.398  0.9188 -1.5975 -1.7310
   81MPD2     C 1258   2.017   2.131  11.256  0.0122 -0.2701 -0.5527
   81MPD2    C1 1259   1.978   2.138  11.390 -0.3447  0.6345  0.5357
   81MPD2    C2 1260   2.083   2.137  11.485 -0.0031 -0.5101  0.8968
   81MPD2    C3 1261   2.218   2.122  11.454 -0.3864 -0.7192  0.8058
   81MPD2    C4 1262   2.249   2.118  11.324 -0.3557  0.0621  0.0499
   81MPD2    C5 1263   2.152   2.125  11.227  0.2255  0.1345  0.2503
   81MPD2     H 1264   2.056   2.142  11.589 -2.1358  1.3895  0.2484
   81MPD2    H1 1265   2.353   2.112  11.293 -1.1212 -1.1848 -2.2723
   81MPD2    H2 1266   1.950   2.145  11.172 -0.5427  4.6761  0.6662
   81MPD2    H3 1267   2.180   2.118  11.122 -0.5656 -0.4764  0.0804
   81MPD2     N 1268   2.318   2.117  11.552  0.1546  0.1102 -0.6604
   81MPD2    H5 1269   2.411   2.126  11.512  0.6982 -0.5451  0.4502
   81MPD2    N1 1270   1.847   2.158  11.440  0.1265  0.7344  0.6768
   81MPD2    H7 1271   1.837   2.174  11.539 -0.0432  0.1247  0.7577
   82TMC2    C1 1272   0.389   1.027  10.705  1.1717 -0.3918 -0.0976
   82TMC2    C2 1273   0.498   1.077  10.776  0.8780 -0.0483 -0.4474
   82TMC2    C3 1274   0.577   0.985  10.830  0.9276 -0.1771  0.1134
   82TMC2    C4 1275   0.363   0.892  10.691 -0.3174 -0.1678 -0.3405
   82TMC2    C5 1276   0.430   0.803  10.765  0.2618  0.3783 -0.0422
   82TMC2    C6 1277   0.536   0.852  10.845  0.1932 -0.4939  0.1764
   82TMC2     C 1278   0.310   1.121  10.626 -0.2026 -0.0102  0.6249
   82TMC2     O 1279   0.267   1.084  10.518  0.3603  0.2503 -0.1360
   82TMC2     H 1280   0.518   1.184  10.773  0.5050  0.0737  1.4895
   82TMC2    H1 1281   0.285   0.856  10.624 -2.0478  1.4889  0.7705
   82TMC2    H2 1282   0.600   0.783  10.898  0.5571  0.7106  1.3164
   82TMC2    C7 1283   0.343   0.719  10.844 -0.0351 -0.1127  0.1298
   82TMC2    C8 1284   0.691   1.026  10.906  0.1468 -0.2262  0.3134
   82TMC2    O1 1285   0.373   0.704  10.962 -0.1651 -0.0807  0.3884
   82TMC2    O2 1286   0.748   0.943  10.981 -0.6535 -0.0279 -0.0064
   82TMC2    O5 1287   0.754   1.132  10.851 -0.0523 -0.4444  0.4351
   82TMC2    H5 1288   0.725   1.151  10.759 -1.6692 -0.5289  0.9248
   83MPD2     C 1289   4.725   1.527  10.646 -0.0063  0.3254  0.5778
   83MPD2    C1 1290   0.004   1.436  10.545 -0.3172 -0.1066 -0.2338
   83MPD2    C2 1291   0.090   1.329  10.564  0.2126 -0.1947  0.8493
   83MPD2    C3 1292   0.164   1.322  10.685 -0.5493  0.1030 -0.2258
   83MPD2    C4 1293   0.155   1.417  10.780  0.0612  0.2552  0.4364
   83MPD2    C5 1294   0.072   1.520  10.758  0.5651  0.2788 -0.2961
   83MPD2     H 1295   0.111   1.247  10.497 -1.2623 -0.5452  0.8263
   83MPD2    H1 1296   0.204   1.415  10.878  0.6666  0.0340  0.1310
   83MPD2    H2 1297   4.657   1.611  10.632  2.1834  1.7695 -1.3708
   83MPD2    H3 1298   0.061   1.595  10.836 -1.5316  0.1967 -0.5079
   83MPD2     N 1299   0.272   1.230  10.707 -0.4463  0.6041  0.5845
   83MPD2    H5 1300   0.318   1.244  10.796 -2.0213 -0.7380  1.6022
   83MPD2    N1 1301   4.671   1.446  10.429  0.2292  0.1360  0.8347
   83MPD2    H7 1302   4.618   1.532  10.426 -1.7221 -1.1073 -0.2948
   84TMC2    C1 1303   1.846   0.902  11.099  0.0296  0.5946 -0.0708
   84TMC2    C2 1304   1.856   0.881  11.226 -0.6888 -0.0873  0.4261
   84TMC2    C3 1305   1.912   0.768  11.276 -0.2330 -0.0018  0.6628
   84TMC2    C4 1306   1.897   0.817  11.009 -0.5299  0.0587  0.0026
   84TMC2    C5 1307   1.950   0.697  11.056 -0.0834 -0.4997  0.5628
   84TMC2    C6 1308   1.962   0.678  11.188  0.8092  0.3727 -0.3992
   84TMC2     C 1309   1.758   1.008  11.063  0.2562 -0.4146 -0.3659
   84TMC2     O 1310   1.675   1.038  11.152 -0.7738 -0.3203  0.7161
   84TMC2     H 1311   1.814   0.955  11.293  0.6606  2.1810 -1.2595
   84TMC2    H1 1312   1.905   0.845  10.904 -0.9280  0.6559  0.1328
   84TMC2    H2 1313   2.011   0.590  11.227 -0.0390  0.1690  0.2168
   84TMC2    C7 1314   1.990   0.605  10.946 -0.1819  0.2690  0.2515
   84TMC2    C8 1315   1.917   0.729  11.413 -0.1864 -0.8945  0.7690
   84TMC2    O1 1316   1.978   0.643  10.833  0.1511  0.0109 -0.2250
   84TMC2    O2 1317   2.008   0.665  11.464 -0.1855 -0.0956 -0.4653
   84TMC2    O5 1318   1.831   0.808  11.481 -0.3380 -0.4930  0.2813
   84TMC2    H5 1319   1.843   0.796  11.577 -0.5858  1.8459  0.5943
   85TMC2    C1 1320   2.775   3.704  16.123 -0.4864 -0.4251  0.3547
   85TMC2    C2 1321   2.776   3.820  16.189  0.7100 -0.7781  0.0420
   85TMC2    C3 1322   2.826   3.930  16.132 -0.4562  0.3144  0.2586
   85TMC2    C4 1323   2.836   3.695  16.000  0.2957  0.2807 -0.1018
   85TMC2    C5 1324   2.881   3.805  15.943  0.1717 -0.6714  0.7103
   85TMC2    C6 1325   2.885   3.922  16.012  0.4405 -0.1898  0.4492
   85TMC2     C 1326   2.809   3.599  16.216  0.4661 -0.1441 -0.2945
   85TMC2     O 1327   2.882   3.624  16.310  0.0291 -0.3927  0.0424
   85TMC2     H 1328   2.725   3.831  16.284 -0.4026  0.6817 -0.7227
   85TMC2    H1 1329   2.845   3.598  15.952 -1.7230  0.4652 -0.8610
   85TMC2    H2 1330   2.919   4.016  15.968 -1.1211  0.1690  0.0109
   85TMC2    C7 1331   2.874   3.815  15.799 -0.6790 -0.3482 -0.1676
   85TMC2    C8 1332   2.773   4.060  16.171 -0.0918 -0.6821  0.1050
   85TMC2    O1 1333   2.895   3.924  15.749 -0.1076  0.0214 -0.1518
   85TMC2    O2 1334   2.663   4.066  16.228  0.2608  0.6634  0.1648
   85TMC2    O5 1335   2.875   4.144  16.186 -0.2614 -0.2458  0.1816
   85TMC2    H5 1336   2.963   4.105  16.169  0.3243  0.3352  1.8373
   86MPD2     C 1337   2.760   3.120  16.376  0.8146 -0.3880  0.5999
   86MPD2    C1 1338   2.672   3.138  16.278 -0.0907  0.3885  0.1399
   86MPD2    C2 1339   2.665   3.262  16.211 -0.0237 -0.1011 -0.0546
   86MPD2    C3 1340   2.748   3.362  16.254  0.0616 -0.1887 -0.2776
   86MPD2    C4 1341   2.840   3.334  16.355  0.0855  0.1542 -0.2302
   86MPD2    C5 1342   2.841   3.217  16.422 -0.7379  0.1688  0.3334
   86MPD2     H 1343   2.591   3.276  16.133 -0.7840  0.5467  0.7785
   86MPD2    H1 1344   2.907   3.412  16.388 -3.3055  2.6409  0.7908
   86MPD2    H2 1345   2.785   3.020  16.408  1.4773 -0.5869 -0.5359
   86MPD2    H3 1346   2.911   3.181  16.497 -0.3136 -0.2309 -0.2591
   86MPD2     N 1347   2.741   3.485  16.188 -0.0048 -0.3885 -0.1482
   86MPD2    H5 1348   2.676   3.502  16.113 -0.5556  0.1675  0.4508
   86MPD2    N1 1349   2.591   3.027  16.237  0.0775 -0.3536  0.0199
   86MPD2    H7 1350   2.532   3.046  16.156  0.0222 -1.5110 -0.2128
   87TMC2    C1 1351   4.593   1.630   0.684 -0.1043  0.1718 -1.0439
   87TMC2    C2 1352   4.664   1.568   0.790  0.0119  0.6201  0.1744
   87TMC2    C3 1353   4.647   1.613   0.921  0.2879  0.2279  0.4906
   87TMC2    C4 1354   4.489   1.717   0.705  0.2250 -0.4675 -0.1579
   87TMC2    C5 1355   4.484   1.765   0.835 -0.2496  1.0596 -0.1777
   87TMC2    C6 1356   4.561   1.716   0.942 -0.2698  1.0370  0.1051
   87TMC2     C 1357   4.629   1.605   0.547 -0.5101  0.5726 -0.0760
   87TMC2     O 1358   4.544   1.634   0.461  0.4828  0.1153 -0.0971
   87TMC2     H 1359   0.001   1.493   0.768 -1.2709 -0.9776  1.3050
   87TMC2    H1 1360   4.445   1.769   0.621 -0.2803  1.2195  1.1435
   87TMC2    H2 1361   4.557   1.764   1.039 -0.5516 -1.3725  1.2813
   87TMC2    C7 1362   4.403   1.890   0.848 -0.2629 -0.3798 -0.4279
   87TMC2    C8 1363   0.010   1.597   1.018  1.0031  0.3094 -0.0895
   87TMC2    O1 1364   4.393   1.940   0.736 -1.0863  0.1038 -0.0741
   87TMC2    O2 1365   4.724   1.604   1.138 -0.0657  0.4312  0.4177
   87TMC2    O5 1366   0.124   1.634   0.968  0.5937 -0.2539 -0.5815
   87TMC2    H5 1367   0.123   1.641   0.870 -0.2705 -1.8316 -0.6863
   88MPD2     C 1368   4.351   2.126   1.136 -0.2229 -0.2086  0.0218
   88MPD2    C1 1369   4.345   2.084   1.004 -0.0635  0.1940 -0.5734
   88MPD2    C2 1370   4.291   2.169   0.915  0.5262  0.3532  0.0271
   88MPD2    C3 1371   4.260   2.303   0.953 -0.5408  0.4212 -0.1742
   88MPD2    C4 1372   4.275   2.346   1.080 -0.0441 -0.1085  0.1087
   88MPD2    C5 1373   4.315   2.252   1.173  0.4617  0.2425 -0.3121
   88MPD2     H 1374   4.287   2.137   0.811 -1.7605 -0.1555  0.2664
   88MPD2    H1 1375   4.234   2.444   1.101  0.8734  0.0968  0.9365
   88MPD2    H2 1376   4.380   2.059   1.216 -0.7477  2.3083  2.3505
   88MPD2    H3 1377   4.316   2.272   1.280  1.5147  0.4416 -0.3622
   88MPD2     N 1378   4.193   2.392   0.860  0.1597 -0.0704  0.2660
   88MPD2    H5 1379   4.158   2.481   0.896  0.4440  0.1281  0.0576
   88MPD2    N1 1380   4.392   1.950   0.973 -0.6454  0.2839 -0.2579
   88MPD2    H7 1381   4.418   1.889   1.050 -0.2990  0.1518 -0.4786
   89TMC2    C1 1382   1.062   0.514   1.912  0.6017  0.4001 -0.5938
   89TMC2    C2 1383   1.034   0.560   2.038 -0.6223  0.5803 -0.2657
   89TMC2    C3 1384   0.925   0.645   2.053  0.0712  0.0075 -0.1482
   89TMC2    C4 1385   0.981   0.545   1.810 -0.7841 -0.0262  0.7870
   89TMC2    C5 1386   0.873   0.632   1.827 -0.1647  0.0032 -0.3246
   89TMC2    C6 1387   0.837   0.674   1.951 -0.3792  0.2603  0.3750
   89TMC2     C 1388   1.178   0.433   1.891  0.8948 -0.9033  0.0430
   89TMC2     O 1389   1.278   0.466   1.954 -0.0517  0.0525 -0.1098
   89TMC2     H 1390   1.108   0.539   2.114 -1.6139  1.8962  1.0666
   89TMC2    H1 1391   1.020   0.540   1.709 -1.8087 -2.0872  0.5027
   89TMC2    H2 1392   0.756   0.743   1.974  0.0721 -0.0276  2.7644
   89TMC2    C7 1393   0.791   0.657   1.716  0.2463  0.8055 -0.5898
   89TMC2    C8 1394   0.924   0.735   2.169  0.5678 -0.2422  0.5265
   89TMC2    O1 1395   0.668   0.662   1.732  0.3312 -0.2168  0.7683
   89TMC2    O2 1396   0.863   0.840   2.181 -0.8038 -0.1241 -0.4745
   89TMC2    O5 1397   0.956   0.653   2.266 -0.4635  0.0311  0.1290
   89TMC2    H5 1398   0.976   0.561   2.239  1.5631  0.3303  0.6071
   90MPD2     C 1399   1.392   0.019   1.654 -0.9791  0.4452  0.0481
   90MPD2    C1 1400   1.260   0.026   1.612 -1.0145 -0.0193  0.7726
   90MPD2    C2 1401   1.180   0.125   1.670 -0.4044  0.4819  0.5706
   90MPD2    C3 1402   1.234   0.229   1.749  0.3790  1.4765 -0.1329
   90MPD2    C4 1403   1.370   0.214   1.780 -0.3298 -0.0261  0.2726
   90MPD2    C5 1404   1.438   0.108   1.740  0.0664 -0.6850 -0.2016
   90MPD2     H 1405   1.074   0.119   1.652  0.1907  0.2228 -2.8718
   90MPD2    H1 1406   1.413   0.282   1.853  0.3108  0.1355 -0.2612
   90MPD2    H2 1407   1.456   4.678   1.617 -1.1563 -0.2636  1.2611
   90MPD2    H3 1408   1.539   0.092   1.777  0.1653  2.5541  0.9666
   90MPD2     N 1409   1.153   0.336   1.793 -0.1232 -0.0952 -0.1171
   90MPD2    H5 1410   1.056   0.319   1.768 -0.8552 -0.7670  3.2558
   90MPD2    N1 1411   1.216   4.671   1.517 -0.4777 -0.0956  0.5641
   90MPD2    H7 1412   1.286   4.606   1.481 -2.3423 -1.6854 -0.2358
   91TMC2    C1 1413   2.331   4.389  16.032  0.2223  0.9663 -0.2127
   91TMC2    C2 1414   2.370   4.483  16.115  0.3851 -0.6242  0.0761
   91TMC2    C3 1415   2.290   4.504  16.223  0.5220  0.0605 -0.2579
   91TMC2    C4 1416   2.211   4.329  16.038  0.4371 -0.0209  0.9926
   91TMC2    C5 1417   2.138   4.342  16.159  1.3298 -0.6809  0.3356
   91TMC2    C6 1418   2.183   4.424  16.261 -0.7158  0.5289 -0.7888
   91TMC2     C 1419   2.422   4.356  15.918 -0.0462 -0.3654 -0.5290
   91TMC2     O 1420   2.380   4.318  15.812  0.2520 -0.0644  0.3803
   91TMC2     H 1421   2.448   4.557  16.098  0.9181 -0.5003  3.1475
   91TMC2    H1 1422   2.195   4.254  15.962  0.6844  1.4745 -0.5156
   91TMC2    H2 1423   2.119   4.451  16.345 -0.7293  0.3291 -0.7366
   91TMC2    C7 1424   2.041   4.242  16.199 -0.2565 -0.4209  0.0544
   91TMC2    C8 1425   2.339   4.607  16.305  0.3248  0.4386 -0.3714
   91TMC2    O1 1426   2.041   4.212  16.316 -0.1309 -0.6754 -0.1328
   91TMC2    O2 1427   2.371   4.714  16.258 -0.3784 -0.1215  0.6555
   91TMC2    O5 1428   2.338   4.577  16.439  0.1058 -0.5051 -0.3072
   91TMC2    H5 1429   2.344   4.479  16.450 -0.0999 -0.2819  1.7076
   92MPD2     C 1430   2.659   4.264  15.764 -0.3432 -0.3707 -0.2631
   92MPD2    C1 1431   2.671   4.321  15.883 -0.1568  0.6320  0.1112
   92MPD2    C2 1432   2.793   4.343  15.940 -0.3195  0.0126  0.7861
   92MPD2    C3 1433   2.910   4.303  15.878  0.2931 -1.0247  0.0470
   92MPD2    C4 1434   2.894   4.225  15.763 -0.3091 -0.0012 -0.1686
   92MPD2    C5 1435   2.768   4.213  15.711 -0.2789 -0.3231 -0.0704
   92MPD2     H 1436   2.786   4.389  16.038 -0.7912  0.1246  0.6975
   92MPD2    H1 1437   2.978   4.183  15.710 -0.8310 -0.0607 -0.9527
   92MPD2    H2 1438   2.563   4.242  15.718 -0.5315 -0.8473  0.3581
   92MPD2    H3 1439   2.757   4.148  15.624  1.2676  1.5731 -1.6828
   92MPD2     N 1440   3.039   4.339  15.923  0.2401 -0.0157  0.2007
   92MPD2    H5 1441   3.124   4.311  15.874  0.5815  1.7932 -0.2190
   92MPD2    N1 1442   2.555   4.376  15.948 -0.3437 -0.4499  0.1647
   92MPD2    H7 1443   2.575   4.416  16.039 -1.2189  2.3502 -0.8574
   93TMC2    C1 1444   4.331   4.158  13.817 -0.3070  0.7755  0.1831
   93TMC2    C2 1445   4.337   4.197  13.950 -0.1458 -0.0571 -0.5019
   93TMC2    C3 1446   4.457   4.250  13.991 -1.0094 -0.2880  0.1466
   93TMC2    C4 1447   4.442   4.161  13.729  0.1212  0.0759 -0.6879
   93TMC2    C5 1448   4.557   4.230  13.779 -0.0645 -0.5411  0.0937
   93TMC2    C6 1449   4.565   4.271  13.911  0.2701 -0.3888 -0.1454
   93TMC2     C 1450   4.223   4.076  13.769  0.0523  0.5420  0.4657
   93TMC2     O 1451   4.240   3.993  13.681  0.4671  0.2511  0.2316
   93TMC2     H 1452   4.255   4.165  14.015  0.9520 -1.0530  0.3880
   93TMC2    H1 1453   4.450   4.108  13.635  0.2270 -1.3671  0.1391
   93TMC2    H2 1454   4.650   4.324  13.953 -0.1312 -0.6891  1.0598
   93TMC2    C7 1455   4.681   4.243  13.705  0.1223 -0.4650  0.4474
   93TMC2    C8 1456   4.477   4.276  14.133 -0.1769 -0.4207  0.0201
   93TMC2    O1 1457   0.048   4.226  13.769 -0.2038  0.3603  0.0798
   93TMC2    O2 1458   4.585   4.285  14.192 -0.0255  1.0541 -0.1044
   93TMC2    O5 1459   4.359   4.330  14.179 -0.0032  0.0759 -0.1241
   93TMC2    H5 1460   4.279   4.312  14.126 -1.1576  2.3739  0.8447
   94MPD2     C 1461   3.961   3.938  13.756  0.0487  0.0698  0.6661
   94MPD2    C1 1462   3.969   4.068  13.794  0.4187 -0.1317  0.2740
   94MPD2    C2 1463   3.857   4.136  13.836  0.4437 -0.7702 -0.1317
   94MPD2    C3 1464   3.742   4.064  13.844 -0.2521 -0.3459  0.6178
   94MPD2    C4 1465   3.731   3.930  13.813 -0.3462 -0.3326  0.7221
   94MPD2    C5 1466   3.842   3.868  13.764 -0.3908 -0.0408 -0.2367
   94MPD2     H 1467   3.870   4.235  13.879  0.2426  0.2506 -2.4205
   94MPD2    H1 1468   3.635   3.881  13.809 -0.9095  0.8235  0.1600
   94MPD2    H2 1469   4.046   3.881  13.722 -0.6666 -0.6859  0.1279
   94MPD2    H3 1470   3.837   3.763  13.736 -2.0410 -0.1978  0.6059
   94MPD2     N 1471   3.615   4.125  13.878 -0.5686 -0.7388  0.5864
   94MPD2    H5 1472   3.539   4.062  13.902 -0.9356 -0.7725 -0.6816
   94MPD2    N1 1473   4.099   4.129  13.807  0.6516  0.2055 -0.1468
   94MPD2    H7 1474   4.092   4.220  13.850 -2.2491 -0.0749 -0.0450
   95TMC2    C1 1475   3.875   2.041  15.206  0.0624  0.7450  0.0480
   95TMC2    C2 1476   3.742   2.022  15.165  0.2763 -1.0153  0.6460
   95TMC2    C3 1477   3.675   2.135  15.151  0.7154 -0.1188  0.2581
   95TMC2    C4 1478   3.937   2.162  15.210  0.6493  0.2691  0.2200
   95TMC2    C5 1479   3.861   2.272  15.201 -0.3416  0.5858 -0.5154
   95TMC2    C6 1480   3.726   2.261  15.172 -0.4770  0.4495 -0.3189
   95TMC2     C 1481   3.971   1.934  15.174 -0.0212 -0.3829  0.0174
   95TMC2     O 1482   4.076   1.972  15.126  0.4564 -0.4678 -0.9704
   95TMC2     H 1483   3.712   1.923  15.133  3.1583 -1.3691 -0.9941
   95TMC2    H1 1484   4.040   2.170  15.241  0.4862 -0.7943  1.0747
   95TMC2    H2 1485   3.663   2.348  15.158 -1.4329 -0.2892 -0.6678
   95TMC2    C7 1486   3.923   2.400  15.221 -0.2084 -0.3758  0.0320
   95TMC2    C8 1487   3.534   2.140  15.147  0.5567 -0.4069 -0.1325
   95TMC2    O1 1488   4.034   2.392  15.275  0.3894  0.5054 -0.0246
   95TMC2    O2 1489   3.477   2.244  15.111  0.0105  0.3995  0.2203
   95TMC2    O5 1490   3.481   2.016  15.147  0.2127 -0.1406  0.0293
   95TMC2    H5 1491   3.539   1.943  15.176 -1.0494 -0.0902  2.6700
   96MPD2     C 1492   4.103   1.440  15.144  0.0095 -0.3709  0.5946
   96MPD2    C1 1493   4.175   1.553  15.107 -0.1558 -0.0704 -0.2423
   96MPD2    C2 1494   4.119   1.680  15.125 -1.0354  0.3556  0.4394
   96MPD2    C3 1495   3.989   1.688  15.182 -0.4751 -0.8282 -0.3613
   96MPD2    C4 1496   3.923   1.570  15.219 -0.2399 -0.1108 -0.3441
   96MPD2    C5 1497   3.981   1.451  15.199  0.3447  0.2886  0.8018
   96MPD2     H 1498   4.170   1.769  15.091 -0.0459  0.2717  1.7174
   96MPD2    H1 1499   3.821   1.566  15.256 -0.6840  1.2381 -1.4400
   96MPD2    H2 1500   4.151   1.344  15.132 -0.7000 -0.5238 -0.9890
   96MPD2    H3 1501   3.929   1.357  15.215 -0.9021  1.0550  1.2586
   96MPD2     N 1502   3.920   1.809  15.202 -0.3051 -0.5856 -0.1172
   96MPD2    H5 1503   3.827   1.811  15.243 -0.5692 -0.6569 -0.7182
   96MPD2    N1 1504   4.304   1.538  15.052  0.4892 -0.2116 -0.2041
   96MPD2    H7 1505   4.335   1.442  15.050  2.1955  0.2897  2.2305
   97TMC2    C1 1506   2.022   4.259  17.530  0.4213  0.4299 -0.4307
   97TMC2    C2 1507   1.964   4.214  17.422  0.2781 -0.3373 -0.5936
   97TMC2    C3 1508   1.904   4.306  17.338  0.3467  0.0624  0.9155
   97TMC2    C4 1509   2.019   4.387  17.567  0.2738  0.0400 -0.1627
   97TMC2    C5 1510   1.960   4.477  17.479 -0.6104  0.3821  0.1318
   97TMC2    C6 1511   1.900   4.434  17.361 -0.2105  0.1674  0.9075
   97TMC2     C 1512   2.072   4.157  17.618  0.3898  0.2107  0.4400
   97TMC2     O 1513   2.029   4.041  17.604  0.0646 -0.2233 -0.0362
   97TMC2     H 1514   1.967   4.109  17.395 -0.9484 -0.1658 -1.4518
   97TMC2    H1 1515   2.042   4.416  17.668  0.3400  0.7883 -0.3969
   97TMC2    H2 1516   1.869   4.503  17.284  1.0196 -0.8470 -0.4869
   97TMC2    C7 1517   1.976   4.618  17.517  0.1268  0.1934  0.5004
   97TMC2    C8 1518   1.806   4.251  17.244 -0.3177 -0.3207 -0.7924
   97TMC2    O1 1519   2.065   4.643  17.600 -0.3301 -0.9084  0.2984
   97TMC2    O2 1520   1.794   4.134  17.208  0.0397  0.8296  0.1962
   97TMC2    O5 1521   1.709   4.338  17.241 -0.3056 -0.2768 -0.0740
   97TMC2    H5 1522   1.712   4.419  17.296  3.2080 -0.1016 -0.5253
   98MPD2     C 1523   2.330   4.019   0.289  0.1062  0.3034  0.1383
   98MPD2    C1 1524   2.215   3.971   0.231  0.4729  0.7196 -0.1097
   98MPD2    C2 1525   2.163   4.025   0.116 -0.0686 -0.2424  0.5989
   98MPD2    C3 1526   2.231   4.133   0.056  0.4928  0.0464 -0.1331
   98MPD2    C4 1527   2.352   4.173   0.107  0.2749  0.0760  0.1710
   98MPD2    C5 1528   2.406   4.106   0.219 -0.4254 -0.2459  0.1019
   98MPD2     H 1529   2.067   4.004   0.071  0.7763 -2.1292 -0.3345
   98MPD2    H1 1530   2.418   4.248   0.064  1.2803 -0.5151  0.6940
   98MPD2    H2 1531   2.364   3.975   0.382 -2.1544  0.5786  1.0956
   98MPD2    H3 1532   2.502   4.133   0.262  0.0463  1.8245 -2.2324
   98MPD2     N 1533   2.180   4.204  17.699  0.7187  0.0740 -0.4765
   98MPD2    H5 1534   2.228   4.290  17.673  0.3758  0.6234  0.6975
   98MPD2    N1 1535   2.140   3.878   0.309  0.0911 -0.2873  0.3889
   98MPD2    H7 1536   2.190   3.848   0.392 -1.6445 -2.3403  0.6674
   99TMC2    C1 1537   0.845   1.066   1.607 -0.0484  0.2496 -0.3702
   99TMC2    C2 1538   0.885   1.130   1.716  0.8390  0.0926  0.1022
   99TMC2    C3 1539   0.802   1.131   1.825  0.3633  0.2757 -0.3477
   99TMC2    C4 1540   0.730   1.000   1.595  0.2380  0.0504  0.9325
   99TMC2    C5 1541   0.652   0.984   1.711 -0.7139  0.8644  0.5083
   99TMC2    C6 1542   0.685   1.052   1.828 -0.1797  0.5191  0.1365
   99TMC2     C 1543   0.913   1.111   1.487 -0.2844  0.4243 -0.4081
   99TMC2     O 1544   1.026   1.153   1.497 -0.1797  0.7354 -0.5491
   99TMC2     H 1545   0.966   1.200   1.703  0.3961  0.8555  1.4138
   99TMC2    H1 1546   0.709   0.938   1.509 -0.1762  0.3107  0.8426
   99TMC2    H2 1547   0.610   1.062   1.905 -2.3993  2.4964 -2.2619
   99TMC2    C7 1548   0.521   0.922   1.720  0.4220 -0.8289 -0.0078
   99TMC2    C8 1549   0.799   1.261   1.888 -0.1997 -0.6483  0.0524
   99TMC2    O1 1550   0.471   0.902   1.831  0.1156 -0.3026  0.3493
   99TMC2    O2 1551   0.829   1.361   1.823  0.7089 -0.4080 -0.0711
   99TMC2    O5 1552   0.703   1.254   1.983  0.0204  0.0973 -0.8365
   99TMC2    H5 1553   0.705   1.165   2.025  2.7308 -0.1804 -1.5827
  100MPD2     C 1554   0.989   1.193   1.209 -0.6078 -0.2245 -0.3610
  100MPD2    C1 1555   0.863   1.146   1.249  0.4699  0.7384  0.2506
  100MPD2    C2 1556   0.770   1.121   1.148  0.3287  0.1306  0.7772
  100MPD2    C3 1557   0.793   1.141   1.014 -0.0255 -0.6656  0.6661
  100MPD2    C4 1558   0.914   1.191   0.981 -0.2405  1.3432  0.4646
  100MPD2    C5 1559   1.009   1.223   1.075  0.0355  0.2777 -0.7934
  100MPD2     H 1560   0.674   1.073   1.163 -0.1798  0.8028 -0.3498
  100MPD2    H1 1561   0.940   1.230   0.883 -0.8967  1.4494  0.3314
  100MPD2    H2 1562   1.070   1.216   1.277  0.7318  1.3614 -2.5227
  100MPD2    H3 1563   1.104   1.263   1.041  0.7273  0.7727  1.7283
  100MPD2     N 1564   0.688   1.120   0.921 -0.3352  0.0984  0.6240
  100MPD2    H5 1565   0.601   1.084   0.960  1.2858 -2.5328  1.8515
  100MPD2    N1 1566   0.825   1.111   1.380 -0.1470  0.5646  0.5859
  100MPD2    H7 1567   0.734   1.066   1.385  0.3881 -0.4677  1.0298
  101TMC2    C1 1568   1.246   2.315  13.113 -0.2997  0.4096  0.0471
  101TMC2    C2 1569   1.326   2.252  13.207  0.8330  0.6178  0.0338
  101TMC2    C3 1570   1.461   2.243  13.190  0.3169  0.1001 -0.5359
  101TMC2    C4 1571   1.297   2.363  12.997  0.0994 -0.1844  0.1389
  101TMC2    C5 1572   1.431   2.341  12.971  0.0165  0.1010  0.8324
  101TMC2    C6 1573   1.513   2.279  13.064 -0.2370 -0.0260 -0.4162
  101TMC2     C 1574   1.117   2.254  13.101  0.2192 -0.0490  0.2304
  101TMC2     O 1575   1.057   2.207  13.197  0.2120  0.0423  0.6718
  101TMC2     H 1576   1.278   2.228  13.301  1.4714 -1.4116 -0.1598
  101TMC2    H1 1577   1.239   2.422  12.927  0.2248  1.2778  1.2705
  101TMC2    H2 1578   1.616   2.254  13.040  0.5572  1.4199  1.4804
  101TMC2    C7 1579   1.485   2.419  12.865 -0.0146 -0.0457  0.1152
  101TMC2    C8 1580   1.532   2.136  13.253 -0.5559 -0.0138  0.0218
  101TMC2    O1 1581   1.406   2.461  12.782 -0.1243 -0.9631  0.6392
  101TMC2    O2 1582   1.602   2.060  13.190 -0.2694  0.5480 -0.0086
  101TMC2    O5 1583   1.464   2.095  13.362 -0.3605 -0.5306 -0.3736
  101TMC2    H5 1584   1.414   2.168  13.405  2.2022  1.1863 -0.3094
  102MPD2     C 1585   1.006   2.119  12.775 -0.4268 -0.2387 -0.1747
  102MPD2    C1 1586   1.023   2.122  12.911 -0.1483  0.0287 -0.4064
  102MPD2    C2 1587   0.975   2.016  12.981  0.8082 -0.4523 -0.1336
  102MPD2    C3 1588   0.919   1.903  12.925  1.4170 -0.2181 -0.5641
  102MPD2    C4 1589   0.907   1.904  12.789 -0.0293 -0.2880 -0.0648
  102MPD2    C5 1590   0.948   2.011  12.712 -0.0634  0.5850  0.2625
  102MPD2     H 1591   0.974   2.018  13.089  0.0464  2.3974 -0.1824
  102MPD2    H1 1592   0.861   1.821  12.738 -1.6697  0.2583  0.5231
  102MPD2    H2 1593   1.058   2.195  12.717  0.2153  0.5814  1.5007
  102MPD2    H3 1594   0.953   2.005  12.604  1.2321  0.4986  0.3226
  102MPD2     N 1595   0.856   1.817  13.013 -0.8528 -0.3334 -0.0979
  102MPD2    H5 1596   0.851   1.842  13.111 -0.6572 -1.7474  0.2707
  102MPD2    N1 1597   1.099   2.227  12.970 -0.6271  0.3575  0.2462
  102MPD2    H7 1598   1.148   2.297  12.916 -0.7506  0.4719  0.2802
  103TMC2    C1 1599   4.163   2.001  12.775 -0.3369 -0.2775  0.4730
  103TMC2    C2 1600   4.298   2.015  12.752 -0.0369 -0.4166  0.1073
  103TMC2    C3 1601   4.362   2.113  12.819  0.3516 -0.1318  0.3219
  103TMC2    C4 1602   4.092   2.077  12.859 -0.3924 -0.2745  0.0007
  103TMC2    C5 1603   4.163   2.169  12.933 -0.3476 -0.6859 -0.1551
  103TMC2    C6 1604   4.300   2.187  12.915 -0.0305 -1.1600  0.2023
  103TMC2     C 1605   4.081   1.895  12.725 -0.3853 -0.2333  0.5317
  103TMC2     O 1606   3.964   1.913  12.698  0.9480  0.7250 -0.3677
  103TMC2     H 1607   4.347   1.964  12.669  0.7269 -1.6975  1.3419
  103TMC2    H1 1608   3.986   2.057  12.875 -0.9411  1.1739 -1.8360
  103TMC2    H2 1609   4.359   2.268  12.956  1.1686 -3.9289  3.9213
  103TMC2    C7 1610   4.097   2.234  13.042 -0.2552 -0.6528  0.8481
  103TMC2    C8 1611   4.488   2.162  12.764  0.6602 -0.1277 -0.0613
  103TMC2    O1 1612   3.976   2.222  13.041 -0.5430 -0.3809 -0.0410
  103TMC2    O2 1613   4.519   2.154  12.644 -0.6329  0.1238 -0.1768
  103TMC2    O5 1614   4.569   2.188  12.865  1.1071 -0.1443  0.3942
  103TMC2    H5 1615   4.532   2.193  12.956  1.1015  1.5948  0.3023
  104MPD2     C 1616   4.207   1.610  12.546 -0.2998  0.1014 -0.5004
  104MPD2    C1 1617   4.107   1.692  12.586 -0.5763 -0.0527  0.8014
  104MPD2    C2 1618   3.987   1.694  12.511 -0.6734 -0.6415  0.1381
  104MPD2    C3 1619   3.961   1.608  12.407 -0.1532 -0.1592  0.7653
  104MPD2    C4 1620   4.067   1.526  12.368 -0.2793 -0.8510  0.0562
  104MPD2    C5 1621   4.185   1.527  12.436 -0.2169  0.4736 -0.1819
  104MPD2     H 1622   3.910   1.770  12.525  0.5143  0.4338  0.9205
  104MPD2    H1 1623   4.069   1.469  12.276 -1.0384  1.7632 -1.5631
  104MPD2    H2 1624   4.307   1.620  12.586 -0.7642  0.5244  0.5470
  104MPD2    H3 1625   4.258   1.456  12.399 -2.4226 -1.3566 -0.9941
  104MPD2     N 1626   3.837   1.615  12.334 -0.0905  0.3466 -0.2064
  104MPD2    H5 1627   3.765   1.669  12.379  3.2669  4.1857  0.5915
  104MPD2    N1 1628   4.152   1.787  12.686 -0.2795  0.2605  0.2248
  104MPD2    H7 1629   4.251   1.774  12.707 -0.1772  0.4943 -0.1102
  105TMC2    C1 1630   4.604   1.370  17.354  0.1436  0.1436  0.3773
  105TMC2    C2 1631   4.488   1.430  17.371  0.1817  0.6288 -0.5183
  105TMC2    C3 1632   4.469   1.507  17.483 -0.3879 -0.2768  0.3904
  105TMC2    C4 1633   4.702   1.360  17.448 -0.0614  0.2507  0.2886
  105TMC2    C5 1634   4.683   1.432  17.562  0.0572 -0.7493 -0.2757
  105TMC2    C6 1635   4.568   1.504  17.582 -0.0719  0.2871 -0.9075
  105TMC2     C 1636   4.632   1.297  17.229  0.6101  0.2125  0.1942
  105TMC2     O 1637   4.575   1.190  17.226 -0.1481 -0.1160  0.8076
  105TMC2     H 1638   4.433   1.451  17.280 -0.3330 -0.1343 -0.3873
  105TMC2    H1 1639   0.056   1.309  17.421  0.6305  1.3995  0.5255
  105TMC2    H2 1640   4.571   1.576  17.664 -2.6952 -0.4502 -0.1640
  105TMC2    C7 1641   0.050   1.445  17.667  0.4132 -1.0570 -0.5261
  105TMC2    C8 1642   4.366   1.609  17.480  0.0289  0.4366 -0.8403
  105TMC2    O1 1643   0.166   1.418  17.637 -0.0111 -0.2760  0.3213
  105TMC2    O2 1644   4.368   1.710  17.549  0.4804  0.4297 -0.0963
  105TMC2    O5 1645   4.254   1.559  17.423 -0.1355  0.5871 -0.1830
  105TMC2    H5 1646   4.273   1.467  17.395  1.1239  0.8462 -0.1998
  106MPD2     C 1647   0.267   1.124  16.923  0.3737  0.4244  0.1633
  106MPD2    C1 1648   0.287   1.262  16.952 -0.0317  0.7360 -0.0032
  106MPD2    C2 1649   0.201   1.314  17.042  0.8029 -0.5974 -0.0405
  106MPD2    C3 1650   0.090   1.251  17.087 -0.0713 -0.7022 -0.1753
  106MPD2    C4 1651   0.068   1.113  17.065  0.1642  0.5430  0.9182
  106MPD2    C5 1652   0.163   1.048  16.989 -0.2227  1.0830 -0.2212
  106MPD2     H 1653   0.215   1.417  17.074 -0.2927 -0.2781 -0.5835
  106MPD2    H1 1654   4.718   1.057  17.095 -1.0367  2.1453  0.4116
  106MPD2    H2 1655   0.337   1.060  16.872  0.1046  1.7801 -1.8842
  106MPD2    H3 1656   0.132   0.950  16.953  0.0215  1.0358 -0.3008
  106MPD2     N 1657   0.011   1.332  17.174 -0.2764 -0.1770 -0.1702
  106MPD2    H5 1658   0.049   1.419  17.210 -0.0947 -1.1493  1.9802
  106MPD2    N1 1659   0.390   1.340  16.898 -0.3243 -0.0268  0.0688
  106MPD2    H7 1660   0.403   1.436  16.928  0.3816  0.3369 -1.4040
  107TMC2    C1 1661   1.264   1.497  11.332  0.4814  0.4097  0.2307
  107TMC2    C2 1662   1.180   1.606  11.340 -0.4618  0.0858  0.5013
  107TMC2    C3 1663   1.162   1.675  11.227  0.1721  0.1636 -0.6264
  107TMC2    C4 1664   1.330   1.464  11.217  0.3552  0.3552 -0.6158
  107TMC2    C5 1665   1.300   1.532  11.103  0.2849  0.0213 -0.1626
  107TMC2    C6 1666   1.226   1.643  11.109 -0.4397 -0.4681  0.2079
  107TMC2     C 1667   1.256   1.401  11.442  0.4203 -0.6020  1.1671
  107TMC2     O 1668   1.155   1.411  11.513  0.8309 -0.1812  0.1570
  107TMC2     H 1669   1.141   1.642  11.435  0.1395  2.1216 -0.0136
  107TMC2    H1 1670   1.413   1.394  11.215  0.8125  0.9195 -1.3932
  107TMC2    H2 1671   1.212   1.703  11.020 -0.7971 -1.1317 -0.1845
  107TMC2    C7 1672   1.359   1.501  10.975 -0.5373  0.8608  0.1715
  107TMC2    C8 1673   1.138   1.819  11.242  0.4589  0.7884 -0.3223
  107TMC2    O1 1674   1.350   1.575  10.881  0.0165  0.7553 -0.5519
  107TMC2    O2 1675   1.178   1.905  11.161 -0.2123  0.4573  0.1120
  107TMC2    O5 1676   1.042   1.821  11.337  0.2016 -0.1755 -0.0600
  107TMC2    H5 1677   1.012   1.736  11.375  0.7519 -0.1770  0.3612
  108MPD2     C 1678   1.497   1.117  11.518 -0.3598  0.2910 -0.3128
  108MPD2    C1 1679   1.374   1.192  11.524  0.5375  0.3885 -0.3735
  108MPD2    C2 1680   1.284   1.153  11.621 -0.4463  0.1972  0.0432
  108MPD2    C3 1681   1.306   1.041  11.699 -0.5063  0.2069  0.4045
  108MPD2    C4 1682   1.420   0.972  11.688 -0.7309  0.3672  0.3549
  108MPD2    C5 1683   1.515   1.010  11.600  0.0209 -0.0525 -0.5617
  108MPD2     H 1684   1.196   1.214  11.635  0.1345  0.8433  0.8871
  108MPD2    H1 1685   1.430   0.885  11.751  3.8629  1.2738  0.8277
  108MPD2    H2 1686   1.577   1.133  11.448 -0.1357 -0.7255 -0.2968
  108MPD2    H3 1687   1.608   0.957  11.583  0.5978  0.8831 -0.2619
  108MPD2     N 1688   1.205   0.989  11.792  0.0332  0.2213  0.4263
  108MPD2    H5 1689   1.238   0.910  11.847  1.0291  0.0221 -0.4561
  108MPD2    N1 1690   1.356   1.303  11.439 -0.5035 -0.0160 -0.3925
  108MPD2    H7 1691   1.431   1.317  11.372 -1.1687 -0.4883 -1.2283
  109TMC2    C1 1692   1.085   2.865   0.657  0.1145 -0.3388 -0.8107
  109TMC2    C2 1693   1.041   2.766   0.569  0.3538  0.5891  0.1430
  109TMC2    C3 1694   1.114   2.769   0.449 -0.2143 -0.2841 -0.6952
  109TMC2    C4 1695   1.181   2.957   0.621 -0.9721  0.2266  0.0278
  109TMC2    C5 1696   1.236   2.957   0.500  0.0860  0.1268 -0.2324
  109TMC2    C6 1697   1.202   2.862   0.410  0.1544 -0.0363 -0.4490
  109TMC2     C 1698   0.999   2.900   0.767 -0.0854 -0.9108  0.4504
  109TMC2     O 1699   0.958   2.804   0.826 -0.0289 -0.2416  0.2255
  109TMC2     H 1700   0.959   2.702   0.598  1.2612  0.5358  2.6028
  109TMC2    H1 1701   1.222   3.028   0.693 -3.1375  1.9757 -0.4661
  109TMC2    H2 1702   1.234   2.865   0.307  0.2196  0.2491 -0.4204
  109TMC2    C7 1703   1.332   3.055   0.464 -0.1799  0.4610  0.0869
  109TMC2    C8 1704   1.075   2.673   0.345  0.1598  0.9355  0.0326
  109TMC2    O1 1705   1.326   3.170   0.511  0.4756 -0.0908  0.0028
  109TMC2    O2 1706   1.167   2.616   0.281  0.3593 -0.1202 -0.2334
  109TMC2    O5 1707   0.982   2.752   0.288  0.2512  0.0751  0.3073
  109TMC2    H5 1708   0.949   2.816   0.354  0.0948 -0.4970  0.7830
  110MPD2     C 1709   0.743   3.223   1.071 -0.2618  0.7753 -0.3431
  110MPD2    C1 1710   0.836   3.293   1.002  0.0151  0.6256 -0.0987
  110MPD2    C2 1711   0.918   3.232   0.907 -0.1359  0.3756  0.4201
  110MPD2    C3 1712   0.913   3.093   0.896  0.0341  0.0926  0.1955
  110MPD2    C4 1713   0.817   3.021   0.962 -0.8080  0.6219 -0.4596
  110MPD2    C5 1714   0.727   3.089   1.047  0.2184 -0.3300  0.7856
  110MPD2     H 1715   0.991   3.287   0.849  1.3761 -1.2913  0.7291
  110MPD2    H1 1716   0.798   2.916   0.946  1.0812  0.1325  0.5539
  110MPD2    H2 1717   0.681   3.267   1.148 -0.7502  3.0465 -2.0392
  110MPD2    H3 1718   0.647   3.026   1.083 -0.6465 -0.7419 -1.9361
  110MPD2     N 1719   1.000   3.034   0.799  0.6419  0.4965 -0.2236
  110MPD2    H5 1720   1.063   3.099   0.753  1.0248  0.1349 -0.2149
  110MPD2    N1 1721   0.841   3.429   1.038 -0.0220 -0.7575  0.1231
  110MPD2    H7 1722   0.781   3.458   1.115  0.3000  1.6798 -0.5287
  111TMC2    C1 1723   0.767   2.854  11.598  0.5657  0.6251  0.0571
  111TMC2    C2 1724   0.660   2.886  11.684 -0.9589  0.0286  0.1589
  111TMC2    C3 1725   0.699   2.977  11.776 -0.5788  0.1808 -0.8168
  111TMC2    C4 1726   0.902   2.895  11.612 -0.0504 -0.4112 -0.0668
  111TMC2    C5 1727   0.925   2.974  11.719 -0.4798 -0.1629 -0.2421
  111TMC2    C6 1728   0.826   3.017  11.800  1.1518  0.1458  0.1348
  111TMC2     C 1729   0.742   2.780  11.477 -0.5161 -0.0429  0.5146
  111TMC2     O 1730   0.817   2.800  11.380  0.3077 -0.2466 -0.1729
  111TMC2     H 1731   0.556   2.869  11.658 -0.6815 -0.0040 -0.9535
  111TMC2    H1 1732   0.978   2.876  11.537 -0.1108  2.6603 -0.9158
  111TMC2    H2 1733   0.856   3.082  11.881  1.5861  1.0574 -0.7610
  111TMC2    C7 1734   1.063   2.979  11.766  0.4092 -0.4330 -0.4830
  111TMC2    C8 1735   0.603   3.043  11.855  0.5254  0.0643 -0.4910
  111TMC2    O1 1736   1.083   2.950  11.884 -0.0036  0.4753  0.1870
  111TMC2    O2 1737   0.609   3.164  11.882 -0.5654 -0.2470 -0.0755
  111TMC2    O5 1738   0.551   2.950  11.936 -0.6589 -0.3233  0.0126
  111TMC2    H5 1739   0.565   2.855  11.914 -0.0967 -0.4256  0.8124
  112MPD2     C 1740   0.512   2.420  11.180  0.3368 -0.9451  0.2648
  112MPD2    C1 1741   0.622   2.501  11.151 -0.0840 -0.3198  0.1546
  112MPD2    C2 1742   0.671   2.586  11.252 -0.2391  0.0675 -0.0541
  112MPD2    C3 1743   0.621   2.585  11.384  0.3516  0.2570 -0.3450
  112MPD2    C4 1744   0.530   2.491  11.417  0.6289 -0.6869  0.0993
  112MPD2    C5 1745   0.467   2.421  11.314  0.0074  0.4636  0.3855
  112MPD2     H 1746   0.757   2.648  11.225  0.4153 -0.8486 -0.0797
  112MPD2    H1 1747   0.492   2.481  11.518  0.3642 -0.1109  0.0563
  112MPD2    H2 1748   0.457   2.360  11.109  1.4035 -1.7436  0.1025
  112MPD2    H3 1749   0.383   2.355  11.329 -0.4756  0.9423 -0.1647
  112MPD2     N 1750   0.663   2.672  11.489 -0.0879 -0.5587 -0.0138
  112MPD2    H5 1751   0.632   2.656  11.584 -2.6508  2.6235 -0.3129
  112MPD2    N1 1752   0.664   2.513  11.021  0.0094  0.2716 -0.2748
  112MPD2    H7 1753   0.737   2.582  11.003 -0.4643  0.5129 -1.2627
  113TMC2    C1 1754   4.093   0.932   0.085 -0.0132 -0.9506 -1.1862
  113TMC2    C2 1755   4.001   1.032   0.067 -0.6596  0.3949 -0.1562
  113TMC2    C3 1756   3.882   0.998   0.021 -0.2603 -0.4527 -0.4782
  113TMC2    C4 1757   4.063   0.803   0.062 -0.1471  0.2373 -0.3327
  113TMC2    C5 1758   3.940   0.774   0.012  0.8090 -0.4563  0.1377
  113TMC2    C6 1759   3.845   0.866  17.737  0.3079 -0.2867  0.8055
  113TMC2     C 1760   4.183   0.949   0.202  0.2446 -0.0391  0.0175
  113TMC2     O 1761   4.158   1.044   0.276  0.4400  0.5547  0.2531
  113TMC2     H 1762   4.017   1.135   0.099  2.0507  0.7221 -2.4970
  113TMC2    H1 1763   4.131   0.722   0.084  0.4515  0.9983  0.6706
  113TMC2    H2 1764   3.741   0.845  17.715  0.5035  0.3612 -0.7358
  113TMC2    C7 1765   3.889   0.641   0.046  0.6223  0.7261  0.4931
  113TMC2    C8 1766   3.768   1.085   0.051  0.6427 -0.1630 -0.4798
  113TMC2    O1 1767   3.822   0.591  17.709 -0.0752  0.0312  0.6910
  113TMC2    O2 1768   3.771   1.166   0.142 -0.2934  0.0991 -0.1117
  113TMC2    O5 1769   3.704   1.100  17.681 -0.4129  0.2044  0.0663
  113TMC2    H5 1770   3.753   1.046  17.615  0.4341  0.4311  0.5082
  114MPD2     C 1771   4.600   0.819   0.490  0.0746 -0.6829  0.0211
  114MPD2    C1 1772   4.501   0.916   0.516 -0.3823  0.0505  0.7456
  114MPD2    C2 1773   4.401   0.933   0.422 -0.5477  0.0830  0.6421
  114MPD2    C3 1774   4.396   0.862   0.304 -0.7960  0.8131 -0.1306
  114MPD2    C4 1775   4.500   0.780   0.277  0.3350 -0.5982  0.4552
  114MPD2    C5 1776   4.592   0.747   0.372  0.5524  0.1947  0.3631
  114MPD2     H 1777   4.330   1.011   0.445 -0.1939  1.0798 -1.6289
  114MPD2    H1 1778   4.511   0.723   0.185 -0.4925  1.8482 -1.1680
  114MPD2    H2 1779   4.683   0.800   0.557  0.2774 -0.7607 -0.2532
  114MPD2    H3 1780   4.682   0.688   0.354 -0.8821 -2.1408  0.9078
  114MPD2     N 1781   4.290   0.860   0.209 -0.0527 -0.0728 -0.2445
  114MPD2    H5 1782   4.302   0.807   0.123  3.0508  0.0855  0.1002
  114MPD2    N1 1783   4.499   1.009   0.624 -0.3261 -0.2817  0.1012
  114MPD2    H7 1784   4.423   1.076   0.619  0.2034  0.3017 -0.1705
  115TMC2    C1 1785   0.498   3.601  17.330  0.1854 -0.4292 -0.3753
  115TMC2    C2 1786   0.615   3.544  17.321  1.0887  0.3777 -0.3274
  115TMC2    C3 1787   0.727   3.615  17.311 -0.2487 -0.1099  0.0230
  115TMC2    C4 1788   0.485   3.740  17.322 -0.0309  0.2517 -0.1531
  115TMC2    C5 1789   0.598   3.813  17.302  0.1294  0.3460  0.3996
  115TMC2    C6 1790   0.727   3.753  17.295  0.2542 -0.0136 -0.2009
  115TMC2     C 1791   0.384   3.507  17.323  0.8481 -0.0118  0.8098
  115TMC2     O 1792   0.403   3.392  17.280 -0.0740  0.0435 -0.1516
  115TMC2     H 1793   0.619   3.437  17.333  0.1639  0.1032 -2.4463
  115TMC2    H1 1794   0.391   3.791  17.341  1.3533  2.1502  1.6195
  115TMC2    H2 1795   0.821   3.807  17.292  0.5834 -0.5996 -0.5231
  115TMC2    C7 1796   0.596   3.959  17.307  0.2147  0.0273  0.1804
  115TMC2    C8 1797   0.856   3.548  17.326 -0.1778  0.5788  0.1526
  115TMC2    O1 1798   0.531   4.014  17.392 -0.3941 -0.5298 -0.3598
  115TMC2    O2 1799   0.940   3.613  17.384  0.7701 -0.2667 -0.0834
  115TMC2    O5 1800   0.849   3.414  17.322 -0.2909 -0.3174  0.2981
  115TMC2    H5 1801   0.771   3.384  17.269  1.3783 -0.5929 -1.9942
  116MPD2     C 1802   4.624   3.415  17.360  0.5616  0.0940 -0.3966
  116MPD2    C1 1803   4.716   3.326  17.327  0.0459  0.8108 -0.4537
  116MPD2    C2 1804   0.109   3.370  17.332  0.4120  0.0714  0.3391
  116MPD2    C3 1805   0.142   3.505  17.366  0.1614  0.1345 -0.8082
  116MPD2    C4 1806   0.042   3.592  17.412  0.2639  0.7515  1.2661
  116MPD2    C5 1807   4.647   3.543  17.403 -0.2537 -0.1538  0.8184
  116MPD2     H 1808   0.188   3.302  17.306 -0.8231 -1.4010  0.4552
  116MPD2    H1 1809   0.065   3.695  17.438 -0.4408  0.7957  1.7149
  116MPD2    H2 1810   4.519   3.389  17.348  0.9026 -1.7471  0.6387
  116MPD2    H3 1811   4.558   3.603  17.413 -0.0816  0.5142 -1.8005
  116MPD2     N 1812   0.271   3.562  17.370  0.1081  0.3852 -0.1875
  116MPD2    H5 1813   0.272   3.661  17.390 -0.0557  0.5743 -1.1207
  116MPD2    N1 1814   4.671   3.202  17.280  0.2449  0.6611 -0.2726
  116MPD2    H7 1815   4.575   3.176  17.301 -0.1068  1.3091 -1.0428
  117TMC2    C1 1816   3.732   4.516  14.192  0.3658  0.3195  0.3616
  117TMC2    C2 1817   3.822   4.429  14.143  1.0444 -0.5127 -0.5365
  117TMC2    C3 1818   3.915   4.493  14.063  0.7988  0.8385  0.0123
  117TMC2    C4 1819   3.708   4.653  14.159 -0.4721  0.2631 -0.4762
  117TMC2    C5 1820   3.796   4.701  14.069 -0.0904  0.4930  0.0338
  117TMC2    C6 1821   3.900   4.625  14.016 -0.3127  0.7862 -0.4562
  117TMC2     C 1822   3.605   4.454  14.229 -0.7800  0.3353  0.5133
  117TMC2     O 1823   3.605   4.342  14.282  0.2511  0.0380 -0.3028
  117TMC2     H 1824   3.806   4.324  14.164 -3.4841  0.4699  0.8925
  117TMC2    H1 1825   3.643   4.718  14.217 -2.3960 -2.7058  0.7281
  117TMC2    H2 1826   3.969   4.673  13.947  1.2886 -2.3370 -1.0160
  117TMC2    C7 1827   3.811   0.106  14.056  0.1245 -0.6077 -0.0588
  117TMC2    C8 1828   4.025   4.423  14.005  0.6403 -0.0347 -0.1798
  117TMC2    O1 1829   3.924   0.143  14.069 -0.1160 -0.4215 -0.2277
  117TMC2    O2 1830   4.071   4.442  13.895  0.3708  0.4600 -0.3065
  117TMC2    O5 1831   4.071   4.333  14.095  0.1049 -0.0161  0.7274
  117TMC2    H5 1832   4.020   4.330  14.179  0.9006  1.2027  1.2577
  118MPD2     C 1833   3.562   0.394  14.035 -0.8854  0.2231 -0.0561
  118MPD2    C1 1834   3.686   0.327  14.030 -0.6155 -0.2232 -0.2128
  118MPD2    C2 1835   3.795   0.403  13.995 -0.4372 -0.7261 -0.0269
  118MPD2    C3 1836   3.782   0.539  13.955  0.8919  0.1194  0.7668
  118MPD2    C4 1837   3.660   0.600  13.967  0.5429  0.2688 -0.1076
  118MPD2    C5 1838   3.553   0.528  14.009 -0.1467  0.4036 -0.2416
  118MPD2     H 1839   3.896   0.362  14.002 -0.4979 -0.8718 -0.0129
  118MPD2    H1 1840   3.638   0.701  13.933 -1.7941 -0.9747 -2.4041
  118MPD2    H2 1841   3.475   0.346  14.079  0.1423 -1.8201 -0.2456
  118MPD2    H3 1842   3.455   0.569  14.032 -0.6403 -0.7560 -0.2401
  118MPD2     N 1843   3.893   0.625  13.904  0.4649 -0.2414 -0.5290
  118MPD2    H5 1844   3.876   0.713  13.857 -0.9493  0.4035  1.1555
  118MPD2    N1 1845   3.693   0.186  14.055  0.0915  0.4854  0.1556
  118MPD2    H7 1846   3.602   0.143  14.064 -0.6197  1.4695 -2.2033
  119TMC2    C1 1847   1.995   0.453  12.993  0.1358  0.5865 -0.2232
  119TMC2    C2 1848   2.046   0.363  13.079  0.0018  0.0756  0.1788
  119TMC2    C3 1849   1.974   0.250  13.107  0.2646  0.1090  0.0093
  119TMC2    C4 1850   1.870   0.444  12.939 -0.5482  0.5791  0.1378
  119TMC2    C5 1851   1.801   0.329  12.961  0.3005  0.2506 -0.4785
  119TMC2    C6 1852   1.855   0.228  13.039  0.3306  0.3380  0.1373
  119TMC2     C 1853   2.065   0.585  12.977 -0.2047 -0.1260 -0.0983
  119TMC2     O 1854   1.990   0.673  12.931 -0.3704  0.5020  0.8416
  119TMC2     H 1855   2.136   0.387  13.135  1.0739 -2.2730 -0.5114
  119TMC2    H1 1856   1.825   0.525  12.882  2.0130 -0.3461 -3.2176
  119TMC2    H2 1857   1.783   0.151  13.066  1.3708 -0.2052  1.3751
  119TMC2    C7 1858   1.661   0.347  12.948 -0.1235  0.2191  0.1019
  119TMC2    C8 1859   2.008   0.158  13.210 -0.0663  0.0397 -0.4056
  119TMC2    O1 1860   1.610   0.266  12.876  0.1384 -0.5609 -0.1245
  119TMC2    O2 1861   1.920   0.088  13.258  0.3549 -0.0157 -0.1164
  119TMC2    O5 1862   2.129   0.109  13.180 -0.3008 -0.2133 -0.2135
  119TMC2    H5 1863   2.172   0.132  13.095 -0.4778  1.5176  0.1597
  120MPD2     C 1864   2.433   0.939  13.066 -0.4189  0.2850  0.1897
  120MPD2    C1 1865   2.297   0.951  13.050 -0.2081  0.1355  0.7347
  120MPD2    C2 1866   2.222   0.839  13.029  0.2053 -0.1883  0.5320
  120MPD2    C3 1867   2.277   0.712  13.025 -0.1769 -0.4352  0.3020
  120MPD2    C4 1868   2.412   0.702  13.043 -0.0516 -0.6419  0.1341
  120MPD2    C5 1869   2.487   0.812  13.058 -0.1643  0.0642 -0.3955
  120MPD2     H 1870   2.113   0.843  13.022  0.3224  6.2939  2.0652
  120MPD2    H1 1871   2.457   0.605  13.055 -1.1060 -0.9351  1.7778
  120MPD2    H2 1872   2.493   1.024  13.099  0.1808 -0.2896  0.5768
  120MPD2    H3 1873   2.595   0.806  13.060 -0.0074  2.1448 -1.7914
  120MPD2     N 1874   2.196   0.595  13.024 -0.7743  0.1071  0.4144
  120MPD2    H5 1875   2.243   0.508  13.046  0.1347  0.4579 -0.1717
  120MPD2    N1 1876   2.237   1.072  13.084 -0.8262 -0.8807 -0.0808
  120MPD2    H7 1877   2.298   1.138  13.130 -0.8823 -0.4089 -0.6868
  121TMC2    C1 1878   3.203   2.779  14.257 -0.3070  0.3327 -0.4227
  121TMC2    C2 1879   3.220   2.730  14.384 -0.1206  0.1319  0.1745
  121TMC2    C3 1880   3.118   2.651  14.421  0.0635  0.3054  0.0203
  121TMC2    C4 1881   3.101   2.756  14.173 -0.4770 -0.1524  0.5422
  121TMC2    C5 1882   3.011   2.661  14.214 -1.0628 -0.1751 -0.0643
  121TMC2    C6 1883   3.018   2.597  14.339 -0.1577  0.1597  0.1183
  121TMC2     C 1884   3.326   2.842  14.215  1.0304  0.3926  1.3646
  121TMC2     O 1885   3.409   2.862  14.304  0.3110  0.0201 -0.4892
  121TMC2     H 1886   3.304   2.750  14.449 -0.0616  0.2573  0.0621
  121TMC2    H1 1887   3.107   2.786  14.069  0.4064  0.9482  0.9057
  121TMC2    H2 1888   2.935   2.530  14.360  0.5579 -0.4872  0.8814
  121TMC2    C7 1889   2.898   2.630  14.128 -0.6793  0.5963 -0.0844
  121TMC2    C8 1890   3.093   2.625  14.556  0.3354 -0.4848  0.3429
  121TMC2    O1 1891   2.861   2.719  14.049 -0.1285 -0.3178 -0.8530
  121TMC2    O2 1892   3.183   2.615  14.641  0.7363  0.0057 -0.4399
  121TMC2    O5 1893   2.972   2.675  14.583  0.9358 -0.0847 -0.4346
  121TMC2    H5 1894   2.915   2.693  14.505  2.7624  3.1821 -0.9856
  122MPD2     C 1895   3.555   2.946  14.066  0.1078  0.0025  0.5609
  122MPD2    C1 1896   3.430   2.937  14.011  0.4557  0.3954  0.8568
  122MPD2    C2 1897   3.405   2.980  13.883 -0.7516 -0.2473  0.4901
  122MPD2    C3 1898   3.502   3.049  13.810  0.1693  0.4791 -0.9666
  122MPD2    C4 1899   3.629   3.057  13.872 -0.4373 -0.7800  0.3744
  122MPD2    C5 1900   3.660   3.005  13.998  0.4768  0.0501  0.0079
  122MPD2     H 1901   3.309   2.957  13.838 -2.1634  3.0579  1.8263
  122MPD2    H1 1902   3.707   3.117  13.826 -1.6739  0.8339  0.3620
  122MPD2    H2 1903   3.583   2.918  14.167  4.0417 -0.3108 -0.5837
  122MPD2    H3 1904   3.760   3.020  14.036  0.3324 -1.8570  1.1325
  122MPD2     N 1905   3.487   3.116  13.679 -0.1101 -0.4332  0.0496
  122MPD2    H5 1906   3.560   3.180  13.649  1.2739 -1.8552  0.4060
  122MPD2    N1 1907   3.328   2.875  14.084 -0.4776 -0.5295 -0.2118
  122MPD2    H7 1908   3.243   2.856  14.031 -0.4195 -0.3092 -0.3827
  123TMC2    C1 1909   1.699   1.579   9.971  0.1599 -0.5874  0.0641
  123TMC2    C2 1910   1.687   1.713   9.959  0.9176  0.7460  0.9192
  123TMC2    C3 1911   1.621   1.767   9.849  0.6352  0.1817  0.3769
  123TMC2    C4 1912   1.656   1.490   9.878 -0.3608 -0.0639 -0.0775
  123TMC2    C5 1913   1.590   1.545   9.772  0.2422  0.4493 -0.1616
  123TMC2    C6 1914   1.557   1.685   9.757 -0.3049  0.7408 -0.0326
  123TMC2     C 1915   1.731   1.537  10.104  0.2606  0.8182 -1.0180
  123TMC2     O 1916   1.781   1.624  10.171  0.0740  0.1829 -0.3916
  123TMC2     H 1917   1.771   1.769   9.998  0.5824  1.7140  0.2596
  123TMC2    H1 1918   1.694   1.389   9.874 -2.1121 -0.5440 -4.8382
  123TMC2    H2 1919   1.504   1.730   9.674 -0.0375  1.2257  0.0581
  123TMC2    C7 1920   1.546   1.459   9.665  0.7885 -0.0337  0.9782
  123TMC2    C8 1921   1.603   1.908   9.836 -1.4887  0.5179 -0.0493
  123TMC2    O1 1922   1.499   1.514   9.567  0.0930 -0.0186  0.0355
  123TMC2    O2 1923   1.570   1.956   9.728 -0.0013 -0.1729  0.4713
  123TMC2    O5 1924   1.658   1.972   9.942  0.1203  0.4095  0.2855
  123TMC2    H5 1925   1.678   1.931  10.029 -0.5459 -1.0176 -0.2246
  124MPD2     C 1926   1.842   1.186  10.448  0.4691  0.1312  0.1324
  124MPD2    C1 1927   1.754   1.125  10.358  0.7671  0.2229  0.1104
  124MPD2    C2 1928   1.708   1.205  10.246  0.6510 -0.1385  0.5295
  124MPD2    C3 1929   1.751   1.338  10.239 -0.2818 -1.2050  0.8763
  124MPD2    C4 1930   1.825   1.395  10.341  0.0876 -0.0865  0.6089
  124MPD2    C5 1931   1.878   1.316  10.436 -0.0660 -0.0935  0.0805
  124MPD2     H 1932   1.651   1.170  10.161  1.9433  0.6167 -0.6367
  124MPD2    H1 1933   1.858   1.498  10.337 -0.0133 -0.0704  0.1789
  124MPD2    H2 1934   1.884   1.133  10.533 -0.6613  0.3374  0.8121
  124MPD2    H3 1935   1.949   1.356  10.507 -1.3921  0.8374  0.8818
  124MPD2     N 1936   1.714   1.401  10.120 -0.1761 -0.4746  0.0955
  124MPD2    H5 1937   1.667   1.347  10.049 -0.0450 -1.3378  0.6702
  124MPD2    N1 1938   1.719   0.990  10.373 -0.4757 -0.2578  0.3123
  124MPD2    H7 1939   1.761   0.943  10.453 -0.4398  0.2396  0.5867
  125TMC2    C1 1940   2.142   3.466   9.552 -0.0504 -0.0121  0.3478
  125TMC2    C2 1941   2.096   3.577   9.627 -0.0871 -0.0545  0.2279
  125TMC2    C3 1942   2.178   3.682   9.634 -0.1246  0.8809 -0.7693
  125TMC2    C4 1943   2.256   3.459   9.483  0.2460  0.2909 -0.4262
  125TMC2    C5 1944   2.323   3.578   9.477  0.4881  0.5355  0.3285
  125TMC2    C6 1945   2.291   3.681   9.557  0.0378  0.4235  0.1019
  125TMC2     C 1946   2.087   3.339   9.590  0.1887  0.3974  0.7195
  125TMC2     O 1947   2.169   3.248   9.596  0.1917 -0.2968  0.6555
  125TMC2     H 1948   2.012   3.571   9.694 -1.1826  0.9575 -1.0382
  125TMC2    H1 1949   2.299   3.366   9.448  0.8953  0.2136  0.5602
  125TMC2    H2 1950   2.364   3.762   9.557 -0.0639  0.5245  1.7434
  125TMC2    C7 1951   2.462   3.562   9.436 -0.1575  0.3624 -0.3835
  125TMC2    C8 1952   2.145   3.790   9.726 -0.1082 -0.4291  0.4832
  125TMC2    O1 1953   2.545   3.620   9.506  0.0029 -0.0827 -0.1620
  125TMC2    O2 1954   2.087   3.769   9.832  0.3176  0.1965  0.4538
  125TMC2    O5 1955   2.239   3.881   9.711  0.2829 -0.6672  0.3536
  125TMC2    H5 1956   2.263   3.885   9.616  0.8438  2.4029  0.6259
  126MPD1     C 1957   1.691   3.038   9.767  0.7061  0.2548  0.7368
  126MPD1    C1 1958   1.640   3.148   9.707  0.1139 -0.2386 -0.6728
  126MPD1    C2 1959   1.730   3.246   9.654 -0.1668  0.8124  0.6487
  126MPD1    C3 1960   1.869   3.237   9.667  0.0551  0.4686 -0.2000
  126MPD1    C4 1961   1.912   3.122   9.734  0.2206 -0.0619  0.4302
  126MPD1    C5 1962   1.827   3.027   9.785  0.4189  0.3575  0.1765
  126MPD1     H 1963   1.690   3.335   9.607 -1.7142  0.8853  2.0961
  126MPD1    H1 1964   2.016   3.116   9.765  0.4880 -2.0514 -0.8850
  126MPD1    H2 1965   1.636   2.957   9.814 -0.7166 -0.2492 -1.8322
  126MPD1    H3 1966   1.863   2.947   9.849  1.5207  0.6922 -0.0266
  126MPD1     N 1967   1.950   3.346   9.623 -0.0762 -0.4813  0.5396
  126MPD1    H5 1968   1.896   3.428   9.599  0.1492 -0.5090 -0.0835
  126MPD1    N1 1969   1.504   3.152   9.679  0.5767  0.5344 -0.3068
  126MPD1    H6 1970   1.476   3.249   9.690 -0.0690  0.4329 -1.0822
  126MPD1    H7 1971   1.454   3.106   9.754 -0.9886 -0.4934 -1.9952
  127TMC2    C1 1972   2.883   1.956  10.430 -0.3016  0.0546 -0.8225
  127TMC2    C2 1973   2.992   1.920  10.503 -0.2539  0.6839  0.6373
  127TMC2    C3 1974   2.962   1.833  10.600 -0.0893 -0.1833 -0.6301
  127TMC2    C4 1975   2.759   1.909  10.443  0.1264 -0.7607 -0.8885
  127TMC2    C5 1976   2.738   1.819  10.545  0.0440 -0.4635 -0.0079
  127TMC2    C6 1977   2.844   1.779  10.629 -0.1148 -0.8447 -0.4622
  127TMC2     C 1978   2.913   2.053  10.328 -0.2606  0.8346 -0.6061
  127TMC2     O 1979   3.027   2.093  10.317  0.0798  0.7166  0.2237
  127TMC2     H 1980   3.095   1.928  10.470 -0.3154  0.2983  0.3462
  127TMC2    H1 1981   2.674   1.939  10.383 -1.3886 -1.5116  0.8878
  127TMC2    H2 1982   2.845   1.694  10.696  1.3687 -2.1757 -2.1647
  127TMC2    C7 1983   2.609   1.749  10.541  0.1076 -0.2037 -0.1258
  127TMC2    C8 1984   3.077   1.760  10.644  0.3842  0.6565  0.4408
  127TMC2    O1 1985   2.516   1.832  10.536  0.4700 -0.1091  0.3353
  127TMC2    O2 1986   3.078   1.639  10.653  0.4736  0.4881  0.9805
  127TMC2    O5 1987   3.137   1.848  10.722 -0.8537  0.5304 -0.2214
  127TMC2    H5 1988   3.118   1.938  10.689 -3.1074 -0.3811 -1.4119
  128MPD2     C 1989   2.688   2.248  10.104  0.0350 -0.4666 -0.3570
  128MPD2    C1 1990   2.808   2.190  10.142  0.2907 -0.7020 -0.2930
  128MPD2    C2 1991   2.922   2.229  10.079 -0.0703  0.1811  0.6243
  128MPD2    C3 1992   2.909   2.300   9.962  0.2709  0.7729 -0.1775
  128MPD2    C4 1993   2.788   2.358   9.928 -0.2297  0.1491 -0.7244
  128MPD2    C5 1994   2.674   2.332  10.002 -0.9038 -0.0978 -0.5610
  128MPD2     H 1995   3.017   2.182  10.102 -0.0054  0.3514  0.7046
  128MPD2    H1 1996   2.777   2.413   9.836 -3.2510 -0.4345 -0.7104
  128MPD2    H2 1997   2.597   2.209  10.149 -0.2837  1.6821  0.8471
  128MPD2    H3 1998   2.582   2.384   9.976 -2.1480 -2.0639 -0.0688
  128MPD2     N 1999   3.031   2.320   9.886 -0.4116 -0.1596 -0.3935
  128MPD2    H5 2000   3.117   2.273   9.915 -1.6217 -1.1527  1.5678
  128MPD2    N1 2001   2.803   2.096  10.252 -0.4691  0.2145  0.2806
  128MPD2    H7 2002   2.712   2.069  10.290  0.4741 -0.2248  2.1896
  129TMC2    C1 2003   2.140   2.779   1.484  0.3429  0.1452  0.0714
  129TMC2    C2 2004   2.232   2.803   1.580 -0.2652  0.4738  0.0155
  129TMC2    C3 2005   2.319   2.696   1.606  0.0256 -0.2808 -0.2132
  129TMC2    C4 2006   2.129   2.662   1.418 -0.0324  0.6289  0.4687
  129TMC2    C5 2007   2.222   2.564   1.446  0.3441  0.5608 -0.4081
  129TMC2    C6 2008   2.323   2.578   1.536 -0.0994  0.6763  0.0130
  129TMC2     C 2009   2.036   2.879   1.454  0.0529  0.1033 -0.0015
  129TMC2     O 2010   1.926   2.833   1.429  0.3086 -0.3686  0.4143
  129TMC2     H 2011   2.238   2.895   1.637 -1.2012 -0.5949  1.8169
  129TMC2    H1 2012   2.038   2.640   1.362  1.6720 -3.4148 -0.6862
  129TMC2    H2 2013   2.394   2.499   1.557  0.2710  0.9630 -0.1755
  129TMC2    C7 2014   2.176   2.425   1.402  0.4560  0.0310 -0.6966
  129TMC2    C8 2015   2.427   2.708   1.705 -0.0093 -0.3138  0.0514
  129TMC2    O1 2016   2.071   2.424   1.336 -0.2639  0.0195  0.9460
  129TMC2    O2 2017   2.471   2.816   1.742 -1.0624  0.0834 -0.4721
  129TMC2    O5 2018   2.434   2.592   1.768  0.2159  0.3518 -0.4943
  129TMC2    H5 2019   2.387   2.515   1.731  1.9498 -1.1853  0.4999
  130MPD2     C 2020   1.873   3.130   1.457  0.3118 -0.6789  0.2030
  130MPD2    C1 2021   2.012   3.129   1.468 -0.3240 -0.6026  0.2022
  130MPD2    C2 2022   2.075   3.250   1.487 -0.2700  0.0998 -0.3433
  130MPD2    C3 2023   2.001   3.366   1.503  0.7432  0.1310 -0.1911
  130MPD2    C4 2024   1.868   3.360   1.497 -0.2443 -0.2585  0.2972
  130MPD2    C5 2025   1.801   3.241   1.477 -0.0995  0.0234 -0.1076
  130MPD2     H 2026   2.183   3.247   1.501 -0.2597  1.3026 -0.2217
  130MPD2    H1 2027   1.811   3.451   1.486 -0.2200 -0.2029  0.6290
  130MPD2    H2 2028   1.815   3.040   1.443  0.7010 -0.5317 -2.4288
  130MPD2    H3 2029   1.695   3.245   1.456 -0.3545  0.6871  1.2787
  130MPD2     N 2030   2.067   3.489   1.517 -0.4846  0.3814 -0.2032
  130MPD2    H5 2031   2.164   3.479   1.491 -1.0237 -0.2401 -1.9538
  130MPD2    N1 2032   2.088   3.007   1.466  0.1709 -0.2946  0.1909
  130MPD2    H7 2033   2.189   3.016   1.463  0.0114  1.0236 -1.0998
  131TMC2    C1 2034   1.173   1.273   9.828 -0.1358  0.1792  0.4440
  131TMC2    C2 2035   1.154   1.295   9.694 -0.3658 -0.4123 -0.1383
  131TMC2    C3 2036   1.171   1.426   9.655 -0.3754  0.6688 -0.0883
  131TMC2    C4 2037   1.209   1.371   9.915  0.3386 -0.5240  0.1941
  131TMC2    C5 2038   1.235   1.495   9.860 -0.0125  0.9643  0.3041
  131TMC2    C6 2039   1.210   1.530   9.733 -0.1380  0.2452  0.0360
  131TMC2     C 2040   1.220   1.141   9.869 -0.7504 -0.8771  0.4876
  131TMC2     O 2041   1.300   1.149   9.963 -0.4640  0.0847 -0.0287
  131TMC2     H 2042   1.124   1.215   9.627 -0.0482  1.3743 -2.4321
  131TMC2    H1 2043   1.223   1.358  10.022  1.6390  0.7656  0.1748
  131TMC2    H2 2044   1.256   1.620   9.694  0.9580  0.6521  2.2464
  131TMC2    C7 2045   1.299   1.589   9.942  0.4563  0.9377 -0.3526
  131TMC2    C8 2046   1.174   1.450   9.512 -0.1563  0.0356 -0.7188
  131TMC2    O1 2047   1.358   1.545  10.038 -0.2865  0.5289 -0.3923
  131TMC2    O2 2048   1.192   1.367   9.423  0.3382  0.3155 -0.6628
  131TMC2    O5 2049   1.112   1.568   9.501 -0.3099 -0.0804  0.7728
  131TMC2    H5 2050   1.100   1.625   9.580 -1.6146 -1.3303  1.4788
  132MPD2     C 2051   1.115   0.795   9.775 -0.6820 -0.3923  0.2388
  132MPD2    C1 2052   1.197   0.897   9.832  1.0665 -0.1091 -0.3424
  132MPD2    C2 2053   1.308   0.848   9.906 -0.1152  0.3211 -0.1353
  132MPD2    C3 2054   1.330   0.714   9.937  0.1870  1.0889  0.5102
  132MPD2    C4 2055   1.236   0.621   9.890  0.4413  0.7291 -0.1375
  132MPD2    C5 2056   1.147   0.662   9.795  0.1290 -0.3487 -0.0524
  132MPD2     H 2057   1.372   0.926   9.947  2.2683 -1.4725 -0.4550
  132MPD2    H1 2058   1.249   0.515   9.908  0.4621  0.6460 -0.6498
  132MPD2    H2 2059   1.036   0.813   9.704 -0.1312  0.4952 -0.1405
  132MPD2    H3 2060   1.079   0.587   9.757 -0.9373  0.3776  0.3950
  132MPD2     N 2061   1.438   0.683  10.025  0.1199 -0.2214  0.0005
  132MPD2    H5 2062   1.500   0.761  10.045  0.0345 -0.5005  1.3636
  132MPD2    N1 2063   1.165   1.034   9.802 -0.5287  0.4986  0.0064
  132MPD2    H7 2064   1.087   1.055   9.741  0.1899  0.5644 -0.8944
  133TMC2    C1 2065   0.864   0.739   9.379 -0.3865 -0.3418  0.1992
  133TMC2    C2 2066   0.988   0.774   9.367  0.3816  0.1332  0.2464
  133TMC2    C3 2067   1.081   0.680   9.383 -0.2462  0.5122 -0.2109
  133TMC2    C4 2068   0.827   0.612   9.422  0.1837  0.2868 -0.5273
  133TMC2    C5 2069   0.921   0.523   9.458 -0.4650 -0.0653 -0.1669
  133TMC2    C6 2070   1.050   0.552   9.433  0.0148 -0.1069 -0.3316
  133TMC2     C 2071   0.766   0.842   9.351 -0.6227  0.1244 -0.6356
  133TMC2     O 2072   0.810   0.950   9.321  0.4468 -0.6108  0.3269
  133TMC2     H 2073   1.019   0.870   9.328  3.7096 -0.5714  1.1750
  133TMC2    H1 2074   0.724   0.582   9.435  0.2169  0.4244  0.0593
  133TMC2    H2 2075   1.128   0.477   9.442 -0.0810 -0.2508 -0.7156
  133TMC2    C7 2076   0.890   0.453   9.579  0.2613  0.2052 -0.1403
  133TMC2    C8 2077   1.207   0.684   9.306 -1.1984  0.3861 -0.0949
  133TMC2    O1 2078   0.806   0.500   9.656 -0.3295  0.6471 -0.7704
  133TMC2    O2 2079   1.308   0.730   9.355 -0.2727  0.2723 -0.6861
  133TMC2    O5 2080   1.200   0.624   9.183 -0.6255  0.1621  0.4309
  133TMC2    H5 2081   1.110   0.601   9.152 -0.0636 -0.9848 -0.3787
  134MPD2     C 2082   0.394   0.822   9.350  0.0380 -0.2123  0.0608
  134MPD2    C1 2083   0.518   0.879   9.371  1.3205 -0.2505  0.4601
  134MPD2    C2 2084   0.533   1.012   9.397 -0.9793 -0.3809  0.2402
  134MPD2    C3 2085   0.420   1.091   9.396 -0.6242  0.2127 -0.4044
  134MPD2    C4 2086   0.298   1.026   9.389 -0.7749 -0.1194 -0.4621
  134MPD2    C5 2087   0.281   0.895   9.359  0.1682 -0.1105  0.4017
  134MPD2     H 2088   0.630   1.058   9.411 -0.9859 -0.6588  1.1973
  134MPD2    H1 2089   0.204   1.080   9.400 -0.3177  0.4939  0.4529
  134MPD2    H2 2090   0.383   0.715   9.333 -0.1400 -0.3132  0.8251
  134MPD2    H3 2091   0.179   0.859   9.355  0.6909 -1.4896 -0.8235
  134MPD2     N 2092   0.420   1.229   9.422 -0.4068  0.1481 -0.1352
  134MPD2    H5 2093   0.327   1.267   9.431 -0.1348  0.8276 -0.2054
  134MPD2    N1 2094   0.635   0.797   9.350  0.1546  0.5173  0.7762
  134MPD2    H7 2095   0.621   0.706   9.309 -0.4313  0.7312  0.4946
  135TMC2    C1 2096   2.035   4.035   9.368  0.2980 -0.6022  0.9358
  135TMC2    C2 2097   1.972   4.081   9.256 -0.3848 -0.1096 -0.3719
  135TMC2    C3 2098   1.879   4.180   9.275 -0.1015 -1.2824 -0.3903
  135TMC2    C4 2099   2.010   4.087   9.492 -0.4010 -0.1300  0.3004
  135TMC2    C5 2100   1.905   4.182   9.505  0.0877 -0.2849 -0.4550
  135TMC2    C6 2101   1.845   4.237   9.395  0.3285  0.5041 -0.7379
  135TMC2     C 2102   2.157   3.958   9.361 -0.7591 -0.3633  0.7622
  135TMC2     O 2103   2.229   3.958   9.461  0.0129  0.6372  0.0194
  135TMC2     H 2104   2.001   4.041   9.159 -0.6171 -1.0842 -0.0411
  135TMC2    H1 2105   2.070   4.059   9.577  0.7175 -1.1800 -0.8269
  135TMC2    H2 2106   1.758   4.301   9.403  0.7691  1.0813 -0.5601
  135TMC2    C7 2107   1.804   4.173   9.613 -0.4798 -0.4225 -0.2469
  135TMC2    C8 2108   1.869   4.256   9.161  0.0583 -0.4100  0.2430
  135TMC2    O1 2109   1.726   4.265   9.629  0.2049 -0.3248  0.0880
  135TMC2    O2 2110   1.945   4.255   9.066  0.8985 -0.0947 -0.3582
  135TMC2    O5 2111   1.739   4.297   9.151 -0.3170  0.2218 -0.1708
  135TMC2    H5 2112   1.683   4.276   9.228  0.0062 -2.2569 -0.5897
  136MPD2     C 2113   2.414   3.832   9.271  0.2120 -0.9185 -0.1177
  136MPD2    C1 2114   2.296   3.810   9.208  0.2365  0.2334 -1.0494
  136MPD2    C2 2115   2.288   3.734   9.092  0.4996 -0.3063  0.4050
  136MPD2    C3 2116   2.408   3.693   9.038 -0.0599 -0.5084 -0.0398
  136MPD2    C4 2117   2.529   3.730   9.090 -0.2299 -0.3677  0.1688
  136MPD2    C5 2118   2.526   3.792   9.205 -0.8737 -0.4049 -0.1890
  136MPD2     H 2119   2.199   3.709   9.035 -0.1526  0.8245  0.9001
  136MPD2    H1 2120   2.621   3.692   9.047 -0.2088 -3.3655  2.8073
  136MPD2    H2 2121   2.425   3.882   9.367  2.4826  1.6274 -1.7034
  136MPD2    H3 2122   2.616   3.823   9.259 -1.4586  0.8240  0.0887
  136MPD2     N 2123   2.418   3.613   8.922  0.6814 -0.1333 -0.1131
  136MPD2    H5 2124   2.500   3.593   8.866 -1.3586 -2.5088 -2.2889
  136MPD2    N1 2125   2.177   3.880   9.249 -0.1779  0.1380 -0.6648
  136MPD2    H7 2126   2.101   3.872   9.181 -1.3419  0.1897  0.6235
  137TMC2    C1 2127   1.628   3.365   9.339 -0.0594  0.3528 -0.4672
  137TMC2    C2 2128   1.609   3.504   9.321 -0.2146 -0.1279 -0.2156
  137TMC2    C3 2129   1.478   3.553   9.321 -0.7184 -0.1702 -0.0883
  137TMC2    C4 2130   1.524   3.282   9.366 -0.9639 -0.4618  0.2723
  137TMC2    C5 2131   1.394   3.334   9.376  0.3803 -0.0202 -0.0203
  137TMC2    C6 2132   1.371   3.470   9.345  0.1436  0.3456  0.0162
  137TMC2     C 2133   1.761   3.313   9.320 -0.1920  0.4171  0.7519
  137TMC2     O 2134   1.856   3.389   9.355 -0.0218 -0.1942 -0.5683
  137TMC2     H 2135   1.692   3.565   9.287 -0.0338  0.3813  1.1349
  137TMC2    H1 2136   1.543   3.177   9.381 -0.4664 -0.7280 -2.2752
  137TMC2    H2 2137   1.268   3.503   9.341  0.2923  1.2231  3.3022
  137TMC2    C7 2138   1.276   3.243   9.373 -0.6964 -0.0172  0.1766
  137TMC2    C8 2139   1.459   3.686   9.262 -0.3645 -0.1666  0.2558
  137TMC2    O1 2140   1.171   3.291   9.331 -0.2480 -0.3421  0.1925
  137TMC2    O2 2141   1.546   3.745   9.201 -0.0662  0.1739  0.5141
  137TMC2    O5 2142   1.365   3.754   9.330 -0.0101  0.2585 -0.5534
  137TMC2    H5 2143   1.289   3.701   9.361  2.0937 -0.0894  3.9916
  138MPD2     C 2144   1.857   2.988   9.178 -0.2120 -0.0808 -0.8673
  138MPD2    C1 2145   1.880   3.106   9.253  0.1082  0.1214  0.3663
  138MPD2    C2 2146   2.008   3.131   9.303 -0.0724  0.2499 -0.0212
  138MPD2    C3 2147   2.112   3.054   9.255  0.5328  0.1445 -0.3073
  138MPD2    C4 2148   2.090   2.944   9.177 -0.3059 -0.2688 -0.1277
  138MPD2    C5 2149   1.958   2.907   9.147 -0.1837 -0.6382 -0.5330
  138MPD2     H 2150   2.030   3.225   9.353 -1.6174  0.9358 -0.6131
  138MPD2    H1 2151   2.170   2.876   9.152 -0.2928  0.3469 -1.7703
  138MPD2    H2 2152   1.753   2.964   9.161 -1.0037  1.0833  2.2125
  138MPD2    H3 2153   1.944   2.816   9.090  1.3047 -1.5673  0.5864
  138MPD2     N 2154   2.236   3.073   9.311  0.6206  0.3484  0.5924
  138MPD2    H5 2155   2.243   3.144   9.383  3.0507  0.8693 -0.1538
  138MPD2    N1 2156   1.761   3.185   9.273  0.2110  0.3431 -0.3928
  138MPD2    H7 2157   1.674   3.154   9.231  0.5007 -0.4967 -0.3691
  139TMC2    C1 2158   3.374   0.358  13.115 -0.0853 -0.1070 -0.2745
  139TMC2    C2 2159   3.332   0.293  12.998  0.3638 -0.1219  0.3467
  139TMC2    C3 2160   3.225   0.344  12.932  0.6320  0.6732 -0.7535
  139TMC2    C4 2161   3.325   0.476  13.158 -0.3325  0.4508 -0.3680
  139TMC2    C5 2162   3.224   0.519  13.081  0.3766  0.1247 -0.2469
  139TMC2    C6 2163   3.168   0.455  12.975  0.1031 -0.3661  0.1190
  139TMC2     C 2164   3.481   0.280  13.189 -0.2029 -0.1453 -0.3445
  139TMC2     O 2165   3.544   0.198  13.123 -0.8889  0.3116  0.0333
  139TMC2     H 2166   3.373   0.197  12.969  0.3842  0.0887 -0.3006
  139TMC2    H1 2167   3.340   0.520  13.256  1.3441 -0.8327 -0.0325
  139TMC2    H2 2168   3.088   0.505  12.920  0.8437 -0.9516 -1.5043
  139TMC2    C7 2169   3.177   0.653  13.102 -0.1420  0.3347  0.2023
  139TMC2    C8 2170   3.189   0.286  12.811 -0.3026 -0.4964 -0.4222
  139TMC2    O1 2171   3.061   0.685  13.085 -0.3986  0.0899 -0.1945
  139TMC2    O2 2172   3.188   0.160  12.804  0.6183 -0.4337  0.2320
  139TMC2    O5 2173   3.232   0.378  12.723  0.1575  0.1923  0.0773
  139TMC2    H5 2174   3.242   0.466  12.765  0.0756 -0.7549  2.0976
  140MPD2     C 2175   3.521   0.332  13.551 -0.4756 -0.3267 -0.1696
  140MPD2    C1 2176   3.555   0.273  13.429  0.1145 -0.3409  0.1761
  140MPD2    C2 2177   3.659   0.176  13.427  0.0643  0.0073  0.1665
  140MPD2    C3 2178   3.741   0.152  13.536 -0.1773 -0.0425 -0.3143
  140MPD2    C4 2179   3.700   0.201  13.659  1.0502 -0.2215 -0.0455
  140MPD2    C5 2180   3.591   0.286  13.664  0.0374  0.2247  0.2223
  140MPD2     H 2181   3.692   0.134  13.332 -0.8921  0.5830 -0.4221
  140MPD2    H1 2182   3.762   0.175  13.745  0.2607  0.4619  0.7302
  140MPD2    H2 2183   3.449   0.413  13.555  0.3033  0.3677 -0.3648
  140MPD2    H3 2184   3.574   0.333  13.760  1.0659  1.1934 -0.0702
  140MPD2     N 2185   3.840   0.057  13.520 -0.4036 -0.2387 -0.2729
  140MPD2    H5 2186   3.857   0.045  13.421  0.1946  4.7775 -0.7599
  140MPD2    N1 2187   3.478   0.316  13.320 -0.4049 -0.2072 -0.1459
  140MPD2    H7 2188   3.403   0.379  13.347 -0.0775 -0.8414  2.2773
  141TMC2    C1 2189   3.800   2.459  14.593  0.1183  0.4545  0.2776
  141TMC2    C2 2190   3.867   2.378  14.679  0.5758  0.4961 -0.0612
  141TMC2    C3 2191   3.935   2.433  14.782 -0.1003 -0.6426  0.3863
  141TMC2    C4 2192   3.804   2.595  14.600  0.1900  0.9253  0.0990
  141TMC2    C5 2193   3.882   2.646  14.698 -0.2078 -0.1610 -0.1009
  141TMC2    C6 2194   3.938   2.572  14.794  0.5912 -0.4367  0.5350
  141TMC2     C 2195   3.743   2.402  14.472  0.7930 -0.4175 -0.1480
  141TMC2     O 2196   3.735   2.481  14.378 -0.0716  0.1188 -0.3941
  141TMC2     H 2197   3.882   2.276  14.646 -1.7270  0.0245  0.3836
  141TMC2    H1 2198   3.771   2.663  14.521 -2.6849 -1.6988 -0.9688
  141TMC2    H2 2199   3.978   2.628  14.878 -1.4044 -2.1312  2.6151
  141TMC2    C7 2200   3.891   2.793  14.700 -0.6357  0.6169 -0.0409
  141TMC2    C8 2201   3.999   2.349  14.876  0.6992 -0.1617  0.8702
  141TMC2    O1 2202   3.821   2.859  14.626 -0.0443  0.1750  0.0819
  141TMC2    O2 2203   4.101   2.389  14.934 -0.2344 -0.1211  0.1287
  141TMC2    O5 2204   3.955   2.221  14.861 -0.2886 -0.2037  0.3558
  141TMC2    H5 2205   3.864   2.213  14.826 -0.3081  0.2385  0.3020
  142TMC2    C1 2206   1.692   0.456   9.746 -0.1116 -0.4831 -0.0101
  142TMC2    C2 2207   1.599   0.377   9.677 -0.3668  0.3899 -0.1264
  142TMC2    C3 2208   1.506   0.438   9.601  0.6646 -0.2430  0.1462
  142TMC2    C4 2209   1.680   0.593   9.744 -0.2402 -0.2440  0.0105
  142TMC2    C5 2210   1.575   0.650   9.680  0.7003 -0.3400  0.3686
  142TMC2    C6 2211   1.483   0.573   9.608  0.2160  0.3644  0.0638
  142TMC2     C 2212   1.753   0.404   9.865 -0.0354  0.2099  0.7383
  142TMC2     O 2213   1.704   0.301   9.914  0.0362 -0.1176  0.1315
  142TMC2     H 2214   1.608   0.269   9.673 -2.5305  0.1702  1.2178
  142TMC2    H1 2215   1.733   0.655   9.816  1.9352  1.5319 -3.1306
  142TMC2    H2 2216   1.397   0.615   9.556  1.5233  1.2196 -1.4324
  142TMC2    C7 2217   1.563   0.794   9.676  0.3287  0.3475 -0.6975
  142TMC2    C8 2218   1.395   0.368   9.533 -0.0245 -0.1098  0.3673
  142TMC2    O1 2219   1.632   0.854   9.754 -0.1429  0.1128  0.2790
  142TMC2    O2 2220   1.341   0.394   9.427  0.9392  0.2518 -0.2182
  142TMC2    O5 2221   1.318   0.327   9.637  0.1440 -0.1902 -0.6345
  142TMC2    H5 2222   1.371   0.311   9.718 -3.5546 -0.3321  1.7920
  143MPD2     C 2223   1.945   0.558  10.313 -0.4530  0.5091 -0.2212
  143MPD2    C1 2224   1.867   0.445  10.282  0.7408  0.0327  0.5290
  143MPD2    C2 2225   1.832   0.410  10.152  0.1161 -0.9789 -0.3581
  143MPD2    C3 2226   1.879   0.499  10.050  0.3265  0.4541 -0.1937
  143MPD2    C4 2227   1.955   0.608  10.080  0.2043  0.1151 -0.5864
  143MPD2    C5 2228   1.986   0.634  10.208 -0.6576  0.1421  0.1078
  143MPD2     H 2229   1.780   0.319  10.126  0.2572 -0.9578 -0.7131
  143MPD2    H1 2230   1.988   0.672   9.999 -0.2005  0.2120 -0.6720
  143MPD2    H2 2231   1.971   0.583  10.415  1.1414 -0.2434 -0.4501
  143MPD2    H3 2232   2.047   0.720  10.232  1.8311 -1.4335 -0.6296
  143MPD2     N 2233   1.847   0.486   9.914  0.0438  0.1320 -0.1133
  143MPD2    H5 2234   1.876   0.566   9.858  1.0694  0.9394  1.5765
  143MPD2    N1 2235   1.822   0.368  10.395 -0.7382  0.0008 -0.9101
  143MPD2    H7 2236   1.833   0.405  10.489 -2.5694 -3.4109  0.6309
  144TMC2    C1 2237   0.281   4.510   0.269  0.4022 -0.2281  0.5348
  144TMC2    C2 2238   0.351   4.397   0.237 -0.3106 -0.4366  0.1838
  144TMC2    C3 2239   0.483   4.399   0.252 -0.6213  0.1697 -0.1557
  144TMC2    C4 2240   0.344   4.632   0.297 -1.2543 -0.2210  0.8193
  144TMC2    C5 2241   0.482   4.635   0.307 -0.4980 -0.2694  1.0560
  144TMC2    C6 2242   0.552   4.513   0.289  0.3884  0.2711 -0.3642
  144TMC2     C 2243   0.141   4.497   0.246 -0.0645  0.5025 -0.1118
  144TMC2     O 2244   0.104   4.414   0.168  0.0588 -0.3702 -0.0563
  144TMC2     H 2245   0.305   4.299   0.232 -0.6442 -0.2304 -0.8294
  144TMC2    H1 2246   0.286   4.723   0.286 -0.2156  0.4225  0.7791
  144TMC2    H2 2247   0.654   4.512   0.327 -0.2269  0.4764  1.3200
  144TMC2    C7 2248   0.557   0.008   0.361  0.7594 -0.0292  0.4702
  144TMC2    C8 2249   0.558   4.280   0.250 -0.2573 -0.2825 -0.4143
  144TMC2    O1 2250   0.678   0.001   0.357  0.1098 -0.3210  0.4350
  144TMC2    O2 2251   0.664   4.258   0.312  0.3294  0.5518  0.7450
  144TMC2    O5 2252   0.512   4.212   0.140 -0.0172  0.2983  0.6513
  144TMC2    H5 2253   0.436   4.242   0.086  0.8166  1.3576  0.0635
  145MPD2     C 2254   4.405   4.677   0.262  0.0315  0.2731  0.5181
  145MPD2    C1 2255   4.462   4.588   0.171  0.5474 -0.1160 -1.0503
  145MPD2    C2 2256   4.597   4.564   0.183 -0.4894  0.1634  0.7463
  145MPD2    C3 2257   4.675   4.626   0.281  0.3673 -0.5115  0.3690
  145MPD2    C4 2258   4.609   4.709   0.368 -0.2186  0.0132 -0.1222
  145MPD2    C5 2259   4.479   4.736   0.358  0.2882  0.0787  0.4298
  145MPD2     H 2260   4.632   4.493   0.109  0.5958 -0.1901  1.5828
  145MPD2    H1 2261   4.662   0.027   0.443  1.7896 -1.3537 -0.5199
  145MPD2    H2 2262   4.306   4.718   0.271 -1.1854 -2.2931 -1.2648
  145MPD2    H3 2263   4.428   0.066   0.426  0.6810 -2.3341  3.1136
  145MPD2     N 2264   0.074   4.602   0.300 -0.2084 -0.1294 -0.0562
  145MPD2    H5 2265   0.122   4.664   0.364  0.6395  0.4011 -1.2020
  145MPD2    N1 2266   4.395   4.522   0.077  0.1568  0.1102  0.6772
  145MPD2    H7 2267   4.441   4.466   0.005 -0.7495  0.0823  0.1218
  146TMC2    C1 2268   0.352   3.470  12.617  0.3190 -0.3785 -0.2725
  146TMC2    C2 2269   0.233   3.498  12.565  0.6111  0.2847  0.1241
  146TMC2    C3 2270   0.195   3.455  12.437 -0.2402  0.1994 -0.3994
  146TMC2    C4 2271   0.436   3.380  12.550  0.7558 -0.3242 -0.0339
  146TMC2    C5 2272   0.396   3.326  12.430 -0.5630  0.8403  0.2347
  146TMC2    C6 2273   0.281   3.364  12.372  0.0450 -0.0910 -0.0915
  146TMC2     C 2274   0.390   3.538  12.738 -0.4857 -1.2561 -0.4804
  146TMC2     O 2275   0.341   3.647  12.751 -0.5510  0.1123 -0.0901
  146TMC2     H 2276   0.169   3.566  12.621 -0.4698 -1.8962  1.5377
  146TMC2    H1 2277   0.530   3.348  12.595  1.3058  0.1240 -0.8685
  146TMC2    H2 2278   0.273   3.325  12.272 -0.6825 -0.3624  0.0702
  146TMC2    C7 2279   0.481   3.235  12.354 -0.5671  0.1995 -0.0879
  146TMC2    C8 2280   0.123   3.554  12.366  0.2046 -0.9148 -0.1764
  146TMC2    O1 2281   0.458   3.205  12.236  0.6046 -0.5291 -0.1743
  146TMC2    O2 2282   0.092   3.664  12.406 -0.2145 -0.3347 -0.0466
  146TMC2    O5 2283   0.095   3.506  12.246  0.5654 -0.7807  0.0589
  146TMC2    H5 2284   0.086   3.408  12.240 -0.8113 -0.4994 -2.7455
  147MPD2     C 2285   0.863   2.899  12.294 -0.1350  0.4472 -0.3966
  147MPD2    C1 2286   0.876   2.967  12.417  0.4296  1.1271 -0.3535
  147MPD2    C2 2287   0.774   3.047  12.463  0.2214  0.6838  0.2932
  147MPD2    C3 2288   0.673   3.081  12.373 -0.4985 -0.2447 -0.7965
  147MPD2    C4 2289   0.666   3.017  12.246 -0.4395  0.4349 -0.4557
  147MPD2    C5 2290   0.754   2.919  12.215 -0.0144 -0.0090  0.4323
  147MPD2     H 2291   0.787   3.091  12.561  1.4646 -0.2720  0.5632
  147MPD2    H1 2292   0.587   3.031  12.174  1.0572  1.3275 -1.9162
  147MPD2    H2 2293   0.933   2.827  12.255  1.3174 -0.2132  3.5104
  147MPD2    H3 2294   0.740   2.862  12.124  1.3274  0.4962 -0.0906
  147MPD2     N 2295   0.588   3.193  12.424  0.1652  0.1311  0.5260
  147MPD2    H5 2296   0.604   3.220  12.520 -0.0997 -0.4807  0.7417
  147MPD2    N1 2297   0.994   2.942  12.489 -0.1628  0.4377  0.0714
  147MPD2    H7 2298   1.075   2.917  12.433 -0.7243 -3.7868  1.1512
  148TMC2    C1 2299   0.972   1.459  10.977  0.2356  0.7931 -0.0907
  148TMC2    C2 2300   0.952   1.375  11.077  0.4813 -0.0057  0.1031
  148TMC2    C3 2301   0.992   1.245  11.063 -0.1926 -0.3850  0.0586
  148TMC2    C4 2302   1.053   1.432  10.870  0.3456 -0.2098  0.2899
  148TMC2    C5 2303   1.101   1.302  10.860  0.1192 -0.6599 -0.1460
  148TMC2    C6 2304   1.058   1.208  10.953 -0.3465  0.3166 -0.4304
  148TMC2     C 2305   0.858   1.545  10.955  1.0007  0.0497  0.3732
  148TMC2     O 2306   0.813   1.607  11.051 -0.3077  0.7102  0.1505
  148TMC2     H 2307   0.882   1.414  11.151  3.5933  0.0920  3.0117
  148TMC2    H1 2308   1.056   1.506  10.791 -2.2401  1.0156  1.3257
  148TMC2    H2 2309   1.078   1.103  10.933  0.4242  0.8678 -2.5912
  148TMC2    C7 2310   1.145   1.251  10.728 -0.4473  0.1813  1.0051
  148TMC2    C8 2311   0.971   1.145  11.171  0.6839 -0.3541  0.1739
  148TMC2    O1 2312   1.129   1.129  10.705 -0.2316 -0.2087 -0.8295
  148TMC2    O2 2313   1.059   1.063  11.196 -0.3835  0.0260  0.5530
  148TMC2    O5 2314   0.837   1.139  11.180 -0.8393  0.6043  0.1821
  148TMC2    H5 2315   0.798   1.211  11.126  0.6393  0.3109 -1.2678
  149MPD2     C 2316   0.612   1.671  10.862  0.4249 -0.2733 -0.6245
  149MPD2    C1 2317   0.677   1.563  10.795 -0.3860  0.4443 -1.0243
  149MPD2    C2 2318   0.614   1.504  10.688  0.3530 -0.3579 -0.6939
  149MPD2    C3 2319   0.489   1.550  10.644 -0.5842  0.4270  0.0046
  149MPD2    C4 2320   0.436   1.658  10.712 -0.1670  0.0968 -0.1410
  149MPD2    C5 2321   0.490   1.718  10.824  0.1974 -0.1701 -0.3645
  149MPD2     H 2322   0.661   1.411  10.658  0.5308 -1.1492  2.0855
  149MPD2    H1 2323   0.348   1.711  10.678  1.1145  1.0653 -1.9414
  149MPD2    H2 2324   0.660   1.727  10.941 -1.7179  1.2521 -0.3955
  149MPD2    H3 2325   0.441   1.804  10.870 -0.9516 -0.5557 -0.8642
  149MPD2     N 2326   0.413   1.510  10.534  0.7060  0.0151 -0.0287
  149MPD2    H5 2327   0.318   1.546  10.530  0.6749 -0.3070 -2.5821
  149MPD2    N1 2328   0.801   1.511  10.836 -0.3554 -0.1675  0.5732
  149MPD2    H7 2329   0.840   1.436  10.780  3.2805  1.0650  1.4118
  150TMC2    C1 2330   3.082   1.523  12.601 -0.3288  0.1529  0.0011
  150TMC2    C2 2331   3.023   1.622  12.522 -0.3446  0.6008 -0.3595
  150TMC2    C3 2332   3.076   1.745  12.533 -0.7837  0.1764  0.6159
  150TMC2    C4 2333   3.194   1.546  12.685 -0.4944  0.7113 -0.1212
  150TMC2    C5 2334   3.240   1.672  12.690 -0.1090  0.0033  0.1214
  150TMC2    C6 2335   3.184   1.771  12.611  0.2518  0.1417  0.3012
  150TMC2     C 2336   3.017   1.399  12.619 -0.4034 -0.0181  0.1385
  150TMC2     O 2337   3.091   1.313  12.670 -0.8379 -0.0888  0.1351
  150TMC2     H 2338   2.939   1.605  12.457  0.7777 -1.4120 -1.2903
  150TMC2    H1 2339   3.233   1.463  12.743  0.0928  2.1565  1.5453
  150TMC2    H2 2340   3.227   1.870  12.599  1.8796 -0.7729 -1.4240
  150TMC2    C7 2341   3.378   1.704  12.721  0.2357  0.2978 -0.2104
  150TMC2    C8 2342   3.020   1.837  12.439  0.3060 -0.5583 -0.2592
  150TMC2    O1 2343   3.425   1.812  12.693  0.3966  0.5431 -0.1200
  150TMC2    O2 2344   3.015   1.809  12.322 -0.7456 -0.0573  0.5346
  150TMC2    O5 2345   3.028   1.957  12.499  0.1980 -0.1148 -0.2484
  150TMC2    H5 2346   3.066   1.956  12.590 -0.3524 -0.7177 -0.0270
  151MPD2     C 2347   2.701   1.016  12.501 -0.2696  0.5971  0.3370
  151MPD2    C1 2348   2.640   1.139  12.461 -0.0284  0.1443 -0.3053
  151MPD2    C2 2349   2.708   1.254  12.489 -0.6860 -0.1863 -0.0722
  151MPD2    C3 2350   2.828   1.262  12.550  1.0092  0.4164  0.3077
  151MPD2    C4 2351   2.889   1.137  12.581  0.4926  0.1458 -0.5086
  151MPD2    C5 2352   2.821   1.016  12.563  0.0809  0.4276 -0.3101
  151MPD2     H 2353   2.663   1.339  12.440 -2.8336 -0.8281  0.8100
  151MPD2    H1 2354   2.989   1.124  12.621  0.9998  2.7681 -0.9795
  151MPD2    H2 2355   2.669   0.916  12.473  1.2193 -0.0306  0.8320
  151MPD2    H3 2356   2.873   0.924  12.587 -1.3248 -0.5002 -0.8144
  151MPD2     N 2357   2.890   1.384  12.564  0.1774  0.3645  0.2204
  151MPD2    H5 2358   2.844   1.460  12.515  1.0599  0.4228 -0.5189
  151MPD2    N1 2359   2.512   1.132  12.408  0.2631  0.3165  0.6107
  151MPD2    H7 2360   2.485   1.036  12.390  0.0064  1.1176 -3.4850
  152TMC2    C1 2361   2.632   1.358  12.836  0.1487  0.0997 -0.1450
  152TMC2    C2 2362   2.660   1.228  12.861 -0.5736  0.3422 -0.0295
  152TMC2    C3 2363   2.776   1.194  12.919  0.4202  0.0767 -0.2374
  152TMC2    C4 2364   2.709   1.463  12.863 -0.1916  0.5625 -0.4319
  152TMC2    C5 2365   2.828   1.428  12.922  0.4720 -0.5668 -0.1456
  152TMC2    C6 2366   2.857   1.300  12.959  0.0944  0.1733  0.8635
  152TMC2     C 2367   2.506   1.385  12.773 -0.3289  0.3080  0.5458
  152TMC2     O 2368   2.513   1.482  12.695  0.4508  0.4337  0.7046
  152TMC2     H 2369   2.597   1.145  12.831  1.3571 -0.6200 -1.5134
  152TMC2    H1 2370   2.674   1.563  12.843  4.2789  2.5061  1.3528
  152TMC2    H2 2371   2.944   1.277  13.020  1.1392 -0.3577 -0.8086
  152TMC2    C7 2372   2.914   1.535  12.969  0.3114 -0.3638 -0.0413
  152TMC2    C8 2373   2.815   1.052  12.927  0.7749  0.1010 -0.0607
  152TMC2    O1 2374   2.865   1.649  12.979 -0.1902  0.0058  0.5211
  152TMC2    O2 2375   2.729   0.974  12.884 -0.1420  0.3124  0.3375
  152TMC2    O5 2376   2.950   1.042  12.911 -0.4401  0.7205 -0.8958
  152TMC2    H5 2377   3.000   1.125  12.930 -1.2679  1.1408 -0.5857
  153MPD2     C 2378   2.202   1.186  12.737 -0.4308  0.2797 -0.1936
  153MPD2    C1 2379   2.291   1.285  12.712  0.3278 -0.1709 -0.3917
  153MPD2    C2 2380   2.253   1.381  12.618 -0.5474 -0.0962 -0.0402
  153MPD2    C3 2381   2.140   1.384  12.550 -0.7338 -0.2054 -0.5000
  153MPD2    C4 2382   2.050   1.281  12.566  0.1474 -1.1453 -0.5573
  153MPD2    C5 2383   2.084   1.189  12.662  0.5230 -0.5055  0.1024
  153MPD2     H 2384   2.326   1.456  12.588 -0.6938 -1.3087 -3.5152
  153MPD2    H1 2385   1.951   1.276  12.521 -1.3947  1.1528  2.5789
  153MPD2    H2 2386   2.218   1.107  12.808  1.4306  0.0233 -0.8842
  153MPD2    H3 2387   2.012   1.109  12.667 -0.2222 -0.0523 -3.4758
  153MPD2     N 2388   2.113   1.501  12.477  0.0018  0.8378  0.6408
  153MPD2    H5 2389   2.187   1.571  12.475 -0.2587  1.0702 -1.0647
  153MPD2    N1 2390   2.416   1.280  12.778  0.0514 -0.0010  0.6179
  153MPD2    H7 2391   2.433   1.200  12.838 -1.4152 -0.6624  0.1521
  154TMC2    C1 2392   4.680   1.158   0.323 -0.5898 -0.0136  1.4108
  154TMC2    C2 2393   4.728   1.217   0.446 -0.1388  0.6725 -0.1453
  154TMC2    C3 2394   0.101   1.164   0.505 -0.5444 -0.1449  0.2179
  154TMC2    C4 2395   0.007   1.047   0.267  0.5824 -0.9449  0.2411
  154TMC2    C5 2396   0.123   1.010   0.329 -0.1738 -1.0984 -0.2105
  154TMC2    C6 2397   0.172   1.061   0.445 -0.8823 -0.4978  1.1611
  154TMC2     C 2398   4.557   1.207   0.270  0.0608 -0.1548  0.1703
  154TMC2     O 2399   4.495   1.292   0.333 -0.0989  0.9030 -0.5521
  154TMC2     H 2400   4.672   1.298   0.491 -1.0632 -0.0301 -0.0132
  154TMC2    H1 2401   4.705   0.987   0.186  1.6239 -0.7076 -0.4338
  154TMC2    H2 2402   0.258   1.010   0.486 -0.6386 -0.7504  0.3380
  154TMC2    C7 2403   0.205   0.917   0.252 -0.7590 -0.1161 -0.3940
  154TMC2    C8 2404   0.174   1.240   0.608 -0.6946  0.0119  0.1798
  154TMC2    O1 2405   0.287   0.862   0.321  0.1121  0.0569  0.6809
  154TMC2    O2 2406   0.116   1.300   0.701  0.1721 -0.0460  0.4578
  154TMC2    O5 2407   0.289   1.176   0.622 -0.2405 -0.4682 -0.3180
  154TMC2    H5 2408   0.327   1.129   0.545 -0.5235 -0.9349 -0.1709
  155MPD2     C 2409   4.441   1.155  17.672  0.6479 -0.3407 -0.6718
  155MPD2    C1 2410   4.435   1.206   0.050 -0.2095 -0.0335  0.9294
  155MPD2    C2 2411   4.333   1.295   0.089 -0.7830  0.5320 -0.3228
  155MPD2    C3 2412   4.230   1.317  17.747 -0.1782 -0.3656 -0.2634
  155MPD2    C4 2413   4.227   1.252  17.626  0.8659  0.3031 -0.3235
  155MPD2    C5 2414   4.335   1.174  17.587 -0.1462 -0.8949 -0.0818
  155MPD2     H 2415   4.331   1.329   0.192  0.7596 -1.2034  0.2724
  155MPD2    H1 2416   4.153   1.268  17.549 -0.4979  0.7445  1.0802
  155MPD2    H2 2417   4.524   1.101  17.628 -0.7413  0.3821 -4.2343
  155MPD2    H3 2418   4.323   1.124  17.492  2.9748  0.1575 -1.0325
  155MPD2     N 2419   4.124   1.400   0.035  0.3381 -0.0994 -0.4947
  155MPD2    H5 2420   4.141   1.439   0.127  1.4381  0.1641 -0.8005
  155MPD2    N1 2421   4.541   1.167   0.138 -0.0495  0.6152  0.3220
  155MPD2    H7 2422   4.614   1.110   0.096  1.2539  1.7102  1.1137
  156TMC2    C1 2423   2.797   2.935  10.898 -0.3038 -0.0011 -0.1606
  156TMC2    C2 2424   2.873   2.916  10.787  0.1549 -0.1960  0.2636
  156TMC2    C3 2425   2.872   3.007  10.681  0.4197 -0.6389 -1.0670
  156TMC2    C4 2426   2.736   3.060  10.914 -0.0266 -0.3077 -0.2557
  156TMC2    C5 2427   2.743   3.148  10.807 -0.3022 -0.2239  0.9189
  156TMC2    C6 2428   2.802   3.127  10.690  0.8005  1.0068  0.3981
  156TMC2     C 2429   2.822   2.875  11.025  0.3736  0.4347 -0.7237
  156TMC2     O 2430   2.721   2.846  11.089 -0.6876  0.7450  0.0255
  156TMC2     H 2431   2.926   2.822  10.775  0.0785 -0.3272  0.9324
  156TMC2    H1 2432   2.701   3.087  11.013 -1.0224  0.6407 -0.8660
  156TMC2    H2 2433   2.768   3.187  10.606 -0.2343 -1.3315 -0.8674
  156TMC2    C7 2434   2.663   3.268  10.826 -0.2218 -0.0256  0.2331
  156TMC2    C8 2435   2.961   2.982  10.573  0.1059 -0.4340 -0.1131
  156TMC2    O1 2436   2.673   3.363  10.747  0.1988 -0.2362  0.8938
  156TMC2    O2 2437   2.941   3.018  10.459  0.0814 -0.2860  0.1335
  156TMC2    O5 2438   3.068   3.012  10.641 -0.0392  0.6394 -0.1221
  156TMC2    H5 2439   3.065   2.990  10.737  1.0350  1.0460  0.0048
  157MPD2     C 2440   3.137   2.862  11.207  0.0640  0.4541 -0.5079
  157MPD2    C1 2441   3.004   2.877  11.191  0.3963 -0.1864 -0.7942
  157MPD2    C2 2442   2.915   2.904  11.294 -0.0229 -0.4751 -0.6311
  157MPD2    C3 2443   2.970   2.926  11.417 -0.8298 -0.6217  0.3991
  157MPD2    C4 2444   3.106   2.911  11.431  0.0944 -0.7640 -0.1970
  157MPD2    C5 2445   3.185   2.882  11.328  0.6535  0.4102  0.0887
  157MPD2     H 2446   2.811   2.921  11.270 -0.6446  0.2075  2.6500
  157MPD2    H1 2447   3.146   2.934  11.529 -2.0369  1.5935  0.1157
  157MPD2    H2 2448   3.203   2.839  11.124  0.3712  0.1132 -0.1654
  157MPD2    H3 2449   3.288   2.875  11.362  0.8307  0.1088 -0.5048
  157MPD2     N 2450   2.875   2.970  11.516 -0.2182  0.0523 -0.1245
  157MPD2    H5 2451   2.785   2.998  11.479  0.5756 -0.3015 -2.3728
  157MPD2    N1 2452   2.955   2.872  11.062  0.0606  0.1805 -0.1523
  157MPD2    H7 2453   3.017   2.911  10.992  1.2981 -1.7505 -0.1298
  158TMC2    C1 2454   2.201   2.309  13.253  0.2572 -0.2984 -0.2666
  158TMC2    C2 2455   2.081   2.372  13.261 -0.3584  0.5536  0.9094
  158TMC2    C3 2456   1.976   2.294  13.224  0.2432 -0.2008  0.0196
  158TMC2    C4 2457   2.219   2.181  13.210 -0.6160  0.2202 -0.0004
  158TMC2    C5 2458   2.105   2.110  13.175  0.7007 -0.0883 -0.7740
  158TMC2    C6 2459   1.981   2.161  13.186 -0.1256 -0.3205  0.0326
  158TMC2     C 2460   2.315   2.399  13.268 -0.2546 -0.0564  0.5591
  158TMC2     O 2461   2.303   2.502  13.208 -0.6998 -0.3103  0.1987
  158TMC2     H 2462   2.075   2.469  13.309  2.1210  1.1868 -0.0969
  158TMC2    H1 2463   2.316   2.140  13.183  0.5760  1.7999  1.9383
  158TMC2    H2 2464   1.892   2.104  13.162 -0.6082  0.8424 -0.9206
  158TMC2    C7 2465   2.111   1.975  13.116 -0.4836  0.2863 -0.3354
  158TMC2    C8 2466   1.847   2.364  13.232 -0.2333  0.1229  0.4238
  158TMC2    O1 2467   2.025   1.944  13.036  0.8328 -0.0416  0.4611
  158TMC2    O2 2468   1.843   2.459  13.307 -0.5592 -0.4496  0.1876
  158TMC2    O5 2469   1.798   2.352  13.106  0.6274  0.0629  0.0493
  158TMC2    H5 2470   1.841   2.281  13.054 -1.1163 -0.6226 -0.4605
  159MPD2     C 2471   2.803   2.504  13.367 -0.4393 -0.6588 -0.6508
  159MPD2    C1 2472   2.768   2.387  13.442 -0.0406  0.7858  0.1470
  159MPD2    C2 2473   2.644   2.334  13.417 -0.0731 -0.0858  0.0516
  159MPD2    C3 2474   2.552   2.397  13.337 -0.2631 -0.4823 -0.9312
  159MPD2    C4 2475   2.585   2.507  13.262 -0.4640  0.6039 -0.3865
  159MPD2    C5 2476   2.714   2.553  13.269 -0.0301 -0.0687 -0.0033
  159MPD2     H 2477   2.610   2.243  13.466  1.0875 -1.7913 -2.3051
  159MPD2    H1 2478   2.522   2.558  13.191  0.0751 -1.4116 -2.3192
  159MPD2    H2 2479   2.898   2.554  13.381 -2.0036  1.4541  2.2564
  159MPD2    H3 2480   2.736   2.641  13.209 -0.6881  0.0900 -0.0127
  159MPD2     N 2481   2.423   2.341  13.329  0.2686  0.4055 -0.2682
  159MPD2    H5 2482   2.407   2.254  13.380 -2.0159 -0.0250 -1.7294
  159MPD2    N1 2483   2.855   2.316  13.530 -0.2256 -0.5349  0.1277
  159MPD2    H7 2484   2.824   2.229  13.571  2.3850 -1.3953  0.2343
  160TMC2    C1 2485   3.248   0.356   1.101  0.1196 -0.4589  0.5039
  160TMC2    C2 2486   3.221   0.235   1.144  0.3231 -0.1135 -0.0334
  160TMC2    C3 2487   3.263   0.126   1.072  0.2320  0.1360  0.1365
  160TMC2    C4 2488   3.316   0.381   0.979  0.2066  0.0243 -0.5272
  160TMC2    C5 2489   3.366   0.272   0.917 -0.3601 -0.5736  0.1203
  160TMC2    C6 2490   3.343   0.144   0.960  0.6697  0.0353 -0.9165
  160TMC2     C 2491   3.158   0.461   1.152  0.0500 -0.6621  0.4179
  160TMC2     O 2492   3.088   0.424   1.245  0.2588 -0.3018  0.3650
  160TMC2     H 2493   3.193   0.218   1.248  0.0633 -0.6521 -0.1901
  160TMC2    H1 2494   3.334   0.483   0.946 -3.2318  0.2947 -1.5832
  160TMC2    H2 2495   3.383   0.055   0.912  0.8193 -0.4234  0.0563
  160TMC2    C7 2496   3.427   0.281   0.783 -0.4825 -0.5921  0.0089
  160TMC2    C8 2497   3.268   4.737   1.140 -0.1892  0.8684  1.4205
  160TMC2    O1 2498   3.431   0.174   0.723 -0.4804  0.1590 -0.0637
  160TMC2    O2 2499   3.350   4.652   1.110  0.5336  0.0323  0.1415
  160TMC2    O5 2500   3.145   4.716   1.201  0.2376 -0.0821 -0.2282
  160TMC2    H5 2501   3.078   0.050   1.198 -1.1394 -1.4554 -1.6472
  161MPD2     C 2502   3.020   0.705   1.230 -0.6132 -0.4889  0.5609
  161MPD2    C1 2503   3.046   0.678   1.093  0.6859 -0.1103 -0.0048
  161MPD2    C2 2504   2.997   0.763   0.991 -0.7405 -0.3322 -0.1157
  161MPD2    C3 2505   2.930   0.879   1.032  0.1088  0.3418  1.1007
  161MPD2    C4 2506   2.924   0.910   1.164  0.2053  0.7823 -0.4859
  161MPD2    C5 2507   2.962   0.820   1.262 -0.4085  0.0517 -0.7640
  161MPD2     H 2508   3.023   0.739   0.889  0.1510  2.2113 -0.4897
  161MPD2    H1 2509   2.859   0.989   1.200 -0.6325 -1.2601  2.4998
  161MPD2    H2 2510   3.067   0.654   1.313  0.8223  1.5545  0.9936
  161MPD2    H3 2511   2.950   0.842   1.367 -0.1727 -1.7001 -0.3758
  161MPD2     N 2512   2.878   0.972   0.933  0.6758  0.3694  0.3133
  161MPD2    H5 2513   2.840   1.062   0.962 -3.4441 -0.7557 -1.5380
  161MPD2    N1 2514   3.133   0.571   1.062  0.0284  0.0558 -0.8790
  161MPD2    H7 2515   3.173   0.567   0.969  0.6048 -1.0800 -0.5893
  162TMC2    C1 2516   0.818   2.544   0.956 -0.7010  0.5049  0.5167
  162TMC2    C2 2517   0.702   2.598   1.008 -0.6567 -0.6437  0.3380
  162TMC2    C3 2518   0.705   2.621   1.137 -0.3685 -0.1143 -0.0722
  162TMC2    C4 2519   0.929   2.506   1.028 -0.0900  1.1362 -0.0331
  162TMC2    C5 2520   0.921   2.539   1.159  0.1824  0.0598 -0.6541
  162TMC2    C6 2521   0.812   2.587   1.219 -0.1425  0.4117  0.5786
  162TMC2     C 2522   0.818   2.505   0.809 -0.1306 -0.1926 -0.1408
  162TMC2     O 2523   0.896   2.412   0.782  0.0335  0.4793 -0.0456
  162TMC2     H 2524   0.628   2.639   0.941 -0.1438 -0.2695  0.0031
  162TMC2    H1 2525   1.019   2.470   0.979 -1.2260  0.0524 -1.3255
  162TMC2    H2 2526   0.823   2.627   1.320 -1.1296  2.8757 -0.2786
  162TMC2    C7 2527   1.047   2.524   1.238 -0.5093 -0.3466 -0.7866
  162TMC2    C8 2528   0.603   2.710   1.178 -0.6940 -0.4976  0.4103
  162TMC2    O1 2529   1.047   2.581   1.344 -0.0202 -0.3275 -0.3860
  162TMC2    O2 2530   0.606   2.807   1.255 -0.3680  0.5863 -0.6456
  162TMC2    O5 2531   0.490   2.647   1.137  0.2763  0.1498  0.4463
  162TMC2    H5 2532   0.517   2.568   1.085 -2.2722 -0.3968 -0.0881
  163MPD2     C 2533   0.690   2.538   0.304 -0.4354 -0.4591 -0.1176
  163MPD2    C1 2534   0.795   2.471   0.367 -0.1084  0.0399 -0.1812
  163MPD2    C2 2535   0.805   2.475   0.510  0.6408  0.6685 -0.1098
  163MPD2    C3 2536   0.716   2.554   0.582 -0.1563 -0.4398 -0.1438
  163MPD2    C4 2537   0.613   2.627   0.507 -0.4470 -0.1969 -0.2425
  163MPD2    C5 2538   0.600   2.613   0.371 -0.9312 -0.7142  0.1653
  163MPD2     H 2539   0.889   2.433   0.564 -0.5915 -0.6043  0.7935
  163MPD2    H1 2540   0.541   2.689   0.559 -1.5852  0.2604 -2.3793
  163MPD2    H2 2541   0.689   2.536   0.196 -1.1934 -1.0680 -0.0944
  163MPD2    H3 2542   0.526   2.668   0.314  0.4729  1.5631  0.5303
  163MPD2     N 2543   0.723   2.561   0.725  0.4702 -0.3196 -0.1300
  163MPD2    H5 2544   0.657   2.628   0.764 -1.3882 -0.9727 -2.1420
  163MPD2    N1 2545   0.885   2.397   0.290 -0.0539 -0.5427  0.3705
  163MPD2    H7 2546   0.893   2.417   0.191 -2.4774 -0.6645  0.1441
  164TMC2    C1 2547   1.232   2.037  10.545  0.3937  0.7646 -0.9755
  164TMC2    C2 2548   1.253   2.150  10.472 -0.5963  0.1565  0.1020
  164TMC2    C3 2549   1.177   2.260  10.491  0.1888 -0.1854  0.2280
  164TMC2    C4 2550   1.123   2.036  10.634  0.4086  0.5819 -0.2028
  164TMC2    C5 2551   1.032   2.138  10.633 -0.6219 -0.1740 -0.4125
  164TMC2    C6 2552   1.061   2.256  10.565 -0.0783 -0.5340  0.1972
  164TMC2     C 2553   1.333   1.933  10.556 -0.5912  0.0068  0.0412
  164TMC2     O 2554   1.295   1.819  10.588 -0.3286 -0.1725  0.1991
  164TMC2     H 2555   1.343   2.164  10.413 -0.0149  1.4844  1.3316
  164TMC2    H1 2556   1.113   1.951  10.701  0.8740  1.0990  0.5154
  164TMC2    H2 2557   0.984   2.331  10.552  1.5402  0.8657 -1.2273
  164TMC2    C7 2558   0.912   2.146  10.718  0.0626 -0.0516  0.0480
  164TMC2    C8 2559   1.210   2.372  10.403  0.6321  0.3625 -0.1999
  164TMC2    O1 2560   0.830   2.238  10.700 -0.2202 -0.2540  0.1552
  164TMC2    O2 2561   1.276   2.363  10.304  0.2689  0.1263  0.4038
  164TMC2    O5 2562   1.153   2.482  10.448  0.5173  0.4778  0.3199
  164TMC2    H5 2563   1.114   2.473  10.538 -0.8765 -0.8884 -0.4049
  165TMC2    C1 2564   3.274   0.280   1.891 -0.1599  0.0414  0.1242
  165TMC2    C2 2565   3.161   0.359   1.905 -0.5500 -0.1634  0.1428
  165TMC2    C3 2566   3.119   0.450   1.813 -0.7377  0.5337 -0.7171
  165TMC2    C4 2567   3.338   0.301   1.773  0.2659 -0.2274 -0.3411
  165TMC2    C5 2568   3.301   0.401   1.685 -0.0610  0.3703 -1.3939
  165TMC2    C6 2569   3.184   0.477   1.700 -0.3398  0.2969 -0.1388
  165TMC2     C 2570   3.284   0.155   1.965 -0.0478 -0.2342 -0.7497
  165TMC2     O 2571   3.188   0.118   2.028  0.1825 -0.6366 -0.6230
  165TMC2     H 2572   3.128   0.371   2.008 -0.2207 -1.5255  0.3985
  165TMC2    H1 2573   3.423   0.241   1.742  1.5162  2.1076 -1.4269
  165TMC2    H2 2574   3.151   0.556   1.634 -0.0487  0.5866  0.0590
  165TMC2    C7 2575   3.379   0.404   1.560  0.2805  0.3277  0.5460
  165TMC2    C8 2576   2.985   0.513   1.829  0.5192 -0.6265  1.1493
  165TMC2    O1 2577   3.464   0.317   1.535 -0.0426 -0.2501 -0.1086
  165TMC2    O2 2578   2.937   0.585   1.742 -0.0306 -0.2668 -0.1979
  165TMC2    O5 2579   2.926   0.395   1.868  0.5577  0.1180 -0.1213
  165TMC2    H5 2580   2.967   0.351   1.945 -2.3608 -0.1923  1.2836
  166MPD2     C 2581   3.559   4.484   2.114  0.0082 -0.3148 -0.0629
  166MPD2    C1 2582   3.425   4.509   2.116  0.4219 -0.3441  0.2116
  166MPD2    C2 2583   3.371   4.634   2.073  0.0877  0.4560 -0.0938
  166MPD2    C3 2584   3.459   4.729   2.021 -0.3959 -0.1267 -0.6753
  166MPD2    C4 2585   3.591   4.696   2.004  0.0200 -0.0591 -0.3252
  166MPD2    C5 2586   3.641   4.583   2.061 -0.4803 -0.0426 -0.0977
  166MPD2     H 2587   3.265   4.658   2.080  0.3608  1.1740  1.4583
  166MPD2    H1 2588   3.655   0.029   1.953 -0.1903  1.0124  0.8980
  166MPD2    H2 2589   3.606   4.392   2.144  0.5004 -0.8129 -2.3687
  166MPD2    H3 2590   3.748   4.565   2.065 -0.1681  1.6839 -0.7329
  166MPD2     N 2591   3.412   0.110   1.960 -0.0891 -0.1076  0.2517
  166MPD2    H5 2592   3.487   0.173   1.934  0.2061 -0.6980 -0.3129
  166MPD2    N1 2593   3.347   4.406   2.159 -0.3270 -0.0295 -0.5278
  166MPD2    H7 2594   3.401   4.324   2.184  2.0192  1.8333  0.5839
  167TMC2    C1 2595   0.789   2.401  13.036 -0.4900  0.1431 -0.4234
  167TMC2    C2 2596   0.809   2.431  13.169 -0.3230  0.4484  0.3069
  167TMC2    C3 2597   0.775   2.340  13.267  0.7854 -0.1976  0.4452
  167TMC2    C4 2598   0.725   2.281  13.004  0.3613 -0.0272 -0.3415
  167TMC2    C5 2599   0.687   2.193  13.104 -0.0137 -0.1331 -0.1538
  167TMC2    C6 2600   0.712   2.218  13.236  0.3370  0.0120  0.7065
  167TMC2     C 2601   0.871   2.472  12.937  0.1000  0.1101 -0.0490
  167TMC2     O 2602   0.968   2.529  12.987  0.0148  0.7084 -0.5312
  167TMC2     H 2603   0.854   2.527  13.195 -1.6783  1.3210 -0.5753
  167TMC2    H1 2604   0.724   2.251  12.900  1.1128 -0.0306 -0.3478
  167TMC2    H2 2605   0.689   2.146  13.313 -1.4098  0.0283  0.2062
  167TMC2    C7 2606   0.589   2.092  13.083 -0.6752 -0.0777  0.0833
  167TMC2    C8 2607   0.777   2.372  13.403 -0.3896 -0.4594  0.0162
  167TMC2    O1 2608   0.521   2.060  13.181 -0.3651  0.1749 -0.1180
  167TMC2    O2 2609   0.696   2.452  13.448  0.2353  0.0286  0.3431
  167TMC2    O5 2610   0.821   2.263  13.472 -0.0300  0.0199  0.0711
  167TMC2    H5 2611   0.856   2.190  13.417 -0.1872 -1.9770  2.6698
  168MPD2     C 2612   1.019   2.567  12.683  0.5830 -0.0991  0.6112
  168MPD2    C1 2613   0.895   2.497  12.690  0.5510 -0.0931 -0.5102
  168MPD2    C2 2614   0.822   2.473  12.582 -0.2587 -0.7845 -0.3093
  168MPD2    C3 2615   0.864   2.516  12.457 -0.1791  0.4762 -0.0809
  168MPD2    C4 2616   0.988   2.576  12.448  0.4791 -0.2610  0.0639
  168MPD2    C5 2617   1.060   2.609  12.556 -0.1036  0.1723 -0.5066
  168MPD2     H 2618   0.727   2.424  12.598 -0.9427  0.5924 -0.1707
  168MPD2    H1 2619   1.028   2.594  12.348 -2.7561 -3.6183 -1.8455
  168MPD2    H2 2620   1.079   2.593  12.770 -0.0678 -0.2048  1.0959
  168MPD2    H3 2621   1.165   2.635  12.541  0.0259  0.7662  1.5393
  168MPD2     N 2622   0.788   2.488  12.341 -0.5883  0.0949  0.4502
  168MPD2    H5 2623   0.819   2.523  12.251 -1.3293 -0.2878  0.0444
  168MPD2    N1 2624   0.825   2.469  12.809  0.3266  0.0491 -0.4836
  168MPD2    H7 2625   0.735   2.424  12.797 -0.4484  2.5190 -3.8703
  169MPD1     C 2626   1.960   1.843   9.620 -0.1903 -0.2432  0.1834
  169MPD1    C1 2627   1.936   1.716   9.671  0.8353  0.1009  0.6890
  169MPD1    C2 2628   1.979   1.690   9.802 -0.2570 -0.1666  0.5918
  169MPD1    C3 2629   2.026   1.801   9.882  0.2735 -0.2880 -0.3444
  169MPD1    C4 2630   2.025   1.929   9.830 -0.7168 -0.0952 -0.4724
  169MPD1    C5 2631   1.995   1.952   9.699  0.1314 -0.3545 -0.6355
  169MPD1     H 2632   1.975   1.586   9.830 -0.9066 -0.2203  0.3247
  169MPD1    H1 2633   2.034   2.015   9.896  3.1382 -1.4705  0.7869
  169MPD1    H2 2634   1.932   1.858   9.516  0.6485  0.6005  0.0740
  169MPD1    H3 2635   1.983   2.052   9.659  0.1505 -0.7298 -1.5890
  169MPD1     N 2636   2.067   1.777  10.015  0.3325 -0.1150  0.1172
  169MPD1    H5 2637   2.072   1.685  10.057  0.0987 -0.0954  0.1861
  169MPD1    N1 2638   1.917   1.610   9.587  0.2292 -0.5439 -0.0015
  169MPD1    H6 2639   1.871   1.625   9.498 -0.5850 -1.6861  0.2280
  169MPD1    H7 2640   1.863   1.535   9.630  1.0127 -1.2918 -0.3092
  170MPD1     C 2641   2.251   3.617  12.761 -0.0219  0.3965  0.4984
  170MPD1    C1 2642   2.299   3.632  12.892  0.3419  0.2367  0.5250
  170MPD1    C2 2643   2.218   3.662  12.996  0.1637  0.7213 -0.3362
  170MPD1    C3 2644   2.084   3.667  12.987  0.2608  0.0933  0.1982
  170MPD1    C4 2645   2.034   3.650  12.862 -0.1197 -0.3649 -0.3472
  170MPD1    C5 2646   2.116   3.620  12.757  0.1436  0.1322 -0.1493
  170MPD1     H 2647   2.258   3.688  13.093  1.8422  0.1479 -0.8702
  170MPD1    H1 2648   1.931   3.670  12.833 -0.3358 -0.1447  0.5805
  170MPD1    H2 2649   2.310   3.592  12.674 -1.1343 -0.1315 -0.1144
  170MPD1    H3 2650   2.068   3.614  12.660  0.6993  1.3244 -0.5050
  170MPD1     N 2651   2.010   3.698  13.103 -0.0299  0.0254  0.1817
  170MPD1    H5 2652   2.055   3.688  13.194 -0.1663 -1.0701  0.1307
  170MPD1    N1 2653   2.433   3.602  12.917  0.0326  0.4721  0.5668
  170MPD1    H6 2654   2.473   3.644  13.001  0.5880 -0.4944  0.7880
  170MPD1    H7 2655   2.484   3.631  12.834 -0.2175 -0.4186  0.0973
  171MPD1     C 2656   0.504   0.569  14.943 -0.0160  0.3811 -0.3670
  171MPD1    C1 2657   0.487   0.426  14.942 -0.5168 -0.4647 -0.8393
  171MPD1    C2 2658   0.531   0.369  15.059 -0.4143  0.5485  0.3229
  171MPD1    C3 2659   0.589   0.433  15.161  0.9407 -0.0088 -0.5009
  171MPD1    C4 2660   0.597   0.571  15.160 -0.0142 -0.0523 -0.1114
  171MPD1    C5 2661   0.544   0.639  15.054  0.2434 -0.1720 -0.4091
  171MPD1     H 2662   0.508   0.264  15.072  1.6856  0.0931  0.3468
  171MPD1    H1 2663   0.629   0.618  15.252 -0.2739  0.9688 -0.5388
  171MPD1    H2 2664   0.455   0.624  14.863 -1.3164  1.5594  1.2298
  171MPD1    H3 2665   0.560   0.745  15.043  0.5274 -0.0530  1.1603
  171MPD1     N 2666   0.632   0.364  15.277  0.0115  0.5951 -0.4016
  171MPD1    H5 2667   0.676   0.417  15.352 -0.7369  1.4156 -0.5524
  171MPD1    N1 2668   0.404   0.363  14.843  0.0219 -0.3658 -0.1971
  171MPD1    H6 2669   0.453   0.284  14.803 -0.4729  0.4085 -2.3549
  171MPD1    H7 2670   0.380   0.428  14.768 -0.8248  1.3904  1.5896
  172MPD1     C 2671   4.641   3.920  17.384 -1.1845 -0.1375 -0.2195
  172MPD1    C1 2672   4.618   3.967  17.512  0.1598  0.3120  0.9644
  172MPD1    C2 2673   4.642   4.102  17.527  0.5287 -0.0640  0.1092
  172MPD1    C3 2674   4.708   4.176  17.438  0.5672 -0.3023  0.4373
  172MPD1    C4 2675   0.004   4.121  17.315  0.3377  0.1153 -0.6942
  172MPD1    C5 2676   4.699   3.992  17.290 -0.7805  0.1938 -0.1805
  172MPD1     H 2677   4.602   4.145  17.618  1.6774 -1.9932  1.5083
  172MPD1    H1 2678   0.062   4.168  17.236 -2.1332  1.4494 -1.7328
  172MPD1    H2 2679   4.607   3.822  17.356  2.9128 -1.9423  1.1183
  172MPD1    H3 2680   4.719   3.945  17.195  0.3281  0.1589  0.0780
  172MPD1     N 2681   0.002   4.315  17.451 -0.4774 -0.3808 -0.2982
  172MPD1    H5 2682   0.060   4.348  17.375  0.2930  0.2637  0.5613
  172MPD1    N1 2683   4.547   3.894  17.613  0.2195 -0.2493 -0.5049
  172MPD1    H6 2684   4.568   3.795  17.600 -0.4446 -0.1855 -1.9781
  172MPD1    H7 2685   4.568   3.921  17.709 -0.7633 -0.0728 -0.3348
  173MPD1     C 2686   1.078   0.020  13.368  0.3439 -0.8234  0.4858
  173MPD1    C1 2687   0.964   4.723  13.441  0.0172  0.1745  0.0294
  173MPD1    C2 2688   0.987   4.657  13.558  0.5129  0.3490 -0.2378
  173MPD1    C3 2689   1.113   4.611  13.595  0.5699  0.2562 -0.1445
  173MPD1    C4 2690   1.223   4.644  13.512 -0.3424 -0.1827  0.7879
  173MPD1    C5 2691   1.210   4.723  13.404  0.6416  0.2725 -0.8447
  173MPD1     H 2692   0.906   4.623  13.622 -0.2818  3.5884  0.5209
  173MPD1    H1 2693   1.327   4.621  13.533  0.0373 -0.0017 -0.9101
  173MPD1    H2 2694   1.062   0.070  13.273  0.8104 -0.9036  0.3676
  173MPD1    H3 2695   1.300   4.731  13.343 -0.3145 -0.8036 -2.3881
  173MPD1     N 2696   1.129   4.543  13.715  0.8714 -0.5408  0.1071
  173MPD1    H5 2697   1.046   4.498  13.753 -1.2307  1.2805 -2.3053
  173MPD1    N1 2698   0.842   0.036  13.396  0.5239  0.1282  0.2722
  173MPD1    H6 2699   0.845   0.036  13.295  2.3959  1.0112  0.3387
  173MPD1    H7 2700   0.758   4.734  13.439  0.1248 -2.1594 -2.6152
  174MPD1     C 2701   1.690   3.779  14.028 -0.1385  0.4002 -0.1620
  174MPD1    C1 2702   1.667   3.852  14.144  0.7443  0.1969  0.4898
  174MPD1    C2 2703   1.616   3.981  14.134 -0.7908  0.2160 -0.2063
  174MPD1    C3 2704   1.581   4.031  14.011 -0.2522  0.3384 -0.4205
  174MPD1    C4 2705   1.597   3.957  13.895 -0.0289  0.3725  0.0139
  174MPD1    C5 2706   1.653   3.828  13.902  0.5993  0.5933 -0.0010
  174MPD1     H 2707   1.605   4.040  14.225  2.5368  3.2005 -1.7666
  174MPD1    H1 2708   1.556   3.994  13.802 -0.7020 -0.7901 -0.1535
  174MPD1    H2 2709   1.731   3.679  14.033  1.6430  1.0674 -1.6846
  174MPD1    H3 2710   1.667   3.780  13.806  2.6447  0.2846  0.4459
  174MPD1     N 2711   1.499   4.146  13.995 -0.0249  0.8589 -0.1651
  174MPD1    H5 2712   1.495   4.181  13.900  0.1622  2.0249  0.2596
  174MPD1    N1 2713   1.710   3.800  14.265  0.3671 -0.0809  0.4448
  174MPD1    H6 2714   1.644   3.831  14.336 -1.2990 -1.6871 -0.4298
  174MPD1    H7 2715   1.724   3.699  14.266  1.0642  0.0019 -1.5217
  175MPD1     C 2716   4.252   0.238  15.160 -0.3203 -0.3455 -0.1577
  175MPD1    C1 2717   4.121   0.206  15.198  0.2730  0.3879 -0.6726
  175MPD1    C2 2718   4.082   0.233  15.330 -0.1920  0.2272 -0.1190
  175MPD1    C3 2719   4.172   0.294  15.421  0.2541  0.0648 -0.5927
  175MPD1    C4 2720   4.301   0.330  15.380 -0.5892 -0.7834  0.0775
  175MPD1    C5 2721   4.339   0.297  15.251 -0.9428 -0.6601  0.1502
  175MPD1     H 2722   3.983   0.205  15.363 -0.0121  0.5760  0.7245
  175MPD1    H1 2723   4.368   0.373  15.454  0.5670  1.2937 -2.2038
  175MPD1    H2 2724   4.289   0.224  15.059 -1.0464  3.1007 -0.9156
  175MPD1    H3 2725   4.436   0.321  15.209 -1.4048 -1.3643 -1.3010
  175MPD1     N 2726   4.143   0.321  15.555 -0.1120  0.6694  0.7215
  175MPD1    H5 2727   4.220   0.358  15.609  0.9251  1.3029 -1.2013
  175MPD1    N1 2728   4.041   0.136  15.107 -0.1733  0.6838  0.4085
  175MPD1    H6 2729   4.062   0.166  15.012 -0.9968 -0.5324 -0.1477
  175MPD1    H7 2730   3.944   0.166  15.114 -1.2561 -2.8330  0.1476
  176MPD1     C 2731   1.382   2.457  16.800  0.4882  0.5080 -0.0274
  176MPD1    C1 2732   1.435   2.543  16.713  0.9515  0.1287 -0.5209
  176MPD1    C2 2733   1.492   2.658  16.771  0.2089 -0.0134 -1.1041
  176MPD1    C3 2734   1.494   2.680  16.909 -0.0818 -0.7804  0.0117
  176MPD1    C4 2735   1.435   2.594  16.994 -0.0458 -0.2144  0.5657
  176MPD1    C5 2736   1.385   2.482  16.934  0.6193  0.3301 -0.3785
  176MPD1     H 2737   1.534   2.726  16.698  1.1098 -1.2550 -1.7472
  176MPD1    H1 2738   1.446   2.608  17.101  0.2527 -2.9237  0.8950
  176MPD1    H2 2739   1.352   2.359  16.763 -0.5642 -0.2363  2.7066
  176MPD1    H3 2740   1.350   2.401  16.997 -1.9049  0.2806 -1.8418
  176MPD1     N 2741   1.568   2.797  16.949 -0.3599  0.1530  0.0478
  176MPD1    H5 2742   1.619   2.841  16.873 -0.3967 -0.7955 -0.5192
  176MPD1    N1 2743   1.441   2.509  16.581 -0.0291 -0.3370 -0.1976
  176MPD1    H6 2744   1.347   2.484  16.552 -0.3263  0.7090 -0.1304
  176MPD1    H7 2745   1.502   2.427  16.576 -3.0614 -2.4309 -2.3474
  177MPD1     C 2746   3.813   2.264  10.219 -0.8466 -0.1128 -0.1163
  177MPD1    C1 2747   3.680   2.272  10.270  0.4693  0.2674 -0.2287
  177MPD1    C2 2748   3.581   2.322  10.184 -0.7892 -0.3666  0.2128
  177MPD1    C3 2749   3.605   2.347  10.047 -0.1109  0.4391 -0.3508
  177MPD1    C4 2750   3.732   2.319  10.001 -0.2077 -0.6245 -0.1681
  177MPD1    C5 2751   3.833   2.275  10.086  0.0401  0.1854  0.3398
  177MPD1     H 2752   3.484   2.335  10.231 -2.5297 -3.6510 -2.4716
  177MPD1    H1 2753   3.757   2.328   9.896  1.6706  2.5957  0.5800
  177MPD1    H2 2754   3.899   2.241  10.279  0.0003  1.6462 -0.6604
  177MPD1    H3 2755   3.935   2.254  10.056  0.0851 -1.1817  1.4585
  177MPD1     N 2756   3.501   2.369   9.954  0.1282  0.2031  0.3391
  177MPD1    H5 2757   3.407   2.356   9.991  0.8235  0.9746  2.3736
  177MPD1    N1 2758   3.660   2.254  10.405 -0.1600  0.4594 -0.2836
  177MPD1    H6 2759   3.719   2.186  10.453  0.6754  2.1368  1.0689
  177MPD1    H7 2760   3.567   2.221  10.428  0.8199 -1.2339  1.2907
  178MPD1     C 2761   1.953   3.328   0.674 -0.0727  0.2152 -0.3308
  178MPD1    C1 2762   1.907   3.228   0.583  0.8842 -0.0769 -0.9778
  178MPD1    C2 2763   1.979   3.216   0.465  0.0048  0.4340  0.1956
  178MPD1    C3 2764   2.080   3.310   0.431 -0.1910 -0.7596  1.2966
  178MPD1    C4 2765   2.109   3.410   0.515 -0.0356  0.2337  0.5971
  178MPD1    C5 2766   2.052   3.416   0.641 -0.4095 -0.2099 -0.3552
  178MPD1     H 2767   1.951   3.131   0.404  0.8821  0.9596 -0.9401
  178MPD1    H1 2768   2.195   3.471   0.490  0.5366 -0.6554  0.3950
  178MPD1    H2 2769   1.902   3.342   0.769  0.1989  0.1298 -0.1726
  178MPD1    H3 2770   2.093   3.491   0.708  0.8237 -0.7623 -0.4940
  178MPD1     N 2771   2.154   3.310   0.308 -0.3238 -0.4112  0.4759
  178MPD1    H5 2772   2.210   3.393   0.292  2.1541 -2.8535 -3.3584
  178MPD1    N1 2773   1.805   3.131   0.613 -0.0208 -0.4190 -0.1519
  178MPD1    H6 2774   1.746   3.112   0.532 -1.3002 -0.5459  0.8196
  178MPD1    H7 2775   1.740   3.184   0.670 -0.0296  0.3756 -0.9038
  179MPD1     C 2776   1.485   1.936  15.280  0.5422  0.3191  0.7641
  179MPD1    C1 2777   1.451   1.891  15.152 -0.2975  0.2102 -0.2408
  179MPD1    C2 2778   1.427   1.756  15.137 -0.0841  0.7914 -0.3229
  179MPD1    C3 2779   1.427   1.683  15.253  0.0841 -0.1407 -0.6539
  179MPD1    C4 2780   1.462   1.729  15.376  0.1778 -0.0242  0.0462
  179MPD1    C5 2781   1.496   1.855  15.393 -0.2945 -0.0965  0.1089
  179MPD1     H 2782   1.412   1.711  15.039 -1.1499 -1.1934  0.7564
  179MPD1    H1 2783   1.474   1.660  15.460 -0.4968  0.6697  0.7142
  179MPD1    H2 2784   1.503   2.040  15.303  0.4590  0.4622  0.1939
  179MPD1    H3 2785   1.529   1.894  15.489 -0.6032 -0.1292  0.2263
  179MPD1     N 2786   1.409   1.542  15.251 -0.3462  0.1651  0.0672
  179MPD1    H5 2787   1.427   1.493  15.338  0.2344  0.4727  0.1203
  179MPD1    N1 2788   1.451   1.976  15.038  0.3130  0.1394  0.0378
  179MPD1    H6 2789   1.453   2.078  15.042 -0.6428  0.2174 -1.5668
  179MPD1    H7 2790   1.406   1.946  14.952  1.1815 -0.0414 -0.3568
  180MPD1     C 2791   1.697   2.543  14.644 -0.2857 -0.0782  0.8928
  180MPD1    C1 2792   1.699   2.638  14.542  1.3142  1.2830  0.6115
  180MPD1    C2 2793   1.601   2.740  14.531  0.0748  0.2117  0.0760
  180MPD1    C3 2794   1.524   2.772  14.639 -0.2918 -0.3670  0.0198
  180MPD1    C4 2795   1.531   2.682  14.743 -0.3126 -1.0929  0.6241
  180MPD1    C5 2796   1.608   2.567  14.742  0.3905 -0.0705  0.4880
  180MPD1     H 2797   1.604   2.815  14.453 -3.2365 -0.2861 -0.5399
  180MPD1    H1 2798   1.469   2.706  14.828  1.2650  0.8236  1.2291
  180MPD1    H2 2799   1.766   2.459  14.651  1.3715  1.0199 -2.0651
  180MPD1    H3 2800   1.614   2.508  14.833 -0.1204  0.7863  1.0789
  180MPD1     N 2801   1.430   2.876  14.634  0.0538 -0.4447  0.3131
  180MPD1    H5 2802   1.431   2.927  14.546 -0.4577 -1.2320 -0.1573
  180MPD1    N1 2803   1.786   2.621  14.437  0.0821 -0.7347 -0.4145
  180MPD1    H6 2804   1.826   2.709  14.407  0.0729 -0.5694  0.0544
  180MPD1    H7 2805   1.861   2.562  14.472  0.7254 -0.2475 -0.9838
  181MPD1     C 2806   2.256   3.910  10.207  0.2366  0.0256 -0.4899
  181MPD1    C1 2807   2.285   4.023  10.278  0.2971 -0.0599 -0.6079
  181MPD1    C2 2808   2.337   4.130  10.210  0.3145 -0.5542  0.1950
  181MPD1    C3 2809   2.382   4.124  10.082  0.0246  0.1144 -0.0348
  181MPD1    C4 2810   2.349   4.005  10.010 -0.0898 -0.6393 -0.0424
  181MPD1    C5 2811   2.293   3.897  10.078 -0.1458  0.0814 -0.3631
  181MPD1     H 2812   2.345   4.219  10.271  1.2530 -0.7996  0.4252
  181MPD1    H1 2813   2.376   3.989   9.907  2.1863  1.2856  0.2574
  181MPD1    H2 2814   2.206   3.831  10.261 -0.6104 -0.0818 -1.4174
  181MPD1    H3 2815   2.257   3.813  10.021 -0.0522 -1.1444  1.3957
  181MPD1     N 2816   2.443   4.228  10.009 -0.6102 -0.0529 -0.3980
  181MPD1    H5 2817   2.462   4.204   9.913  0.3845 -1.4100  0.1470
  181MPD1    N1 2818   2.234   4.044  10.408  0.6224 -0.0678  0.8262
  181MPD1    H6 2819   2.306   4.094  10.459 -1.4052  0.7323  2.9100
  181MPD1    H7 2820   2.208   3.962  10.462  1.0592  0.5212  1.9108
  182MPD1     C 2821   0.158   4.172   1.348  0.2089  0.0006 -0.1412
  182MPD1    C1 2822   0.153   4.119   1.223 -0.1332 -0.0487  0.0019
  182MPD1    C2 2823   0.039   4.156   1.145  0.3170  0.6399 -0.2293
  182MPD1    C3 2824   4.674   4.240   1.190 -1.3537  0.2481 -0.0381
  182MPD1    C4 2825   4.687   4.306   1.309  0.3305  0.6353  0.0892
  182MPD1    C5 2826   0.059   4.268   1.386  0.3105  0.1620  0.5908
  182MPD1     H 2827   0.046   4.100   1.053 -0.4080  0.3802 -0.1301
  182MPD1    H1 2828   4.627   4.393   1.332 -0.6022  0.3511 -1.3053
  182MPD1    H2 2829   0.235   4.135   1.415 -0.4769  0.0320  0.6696
  182MPD1    H3 2830   0.072   4.324   1.478  0.3075 -2.9148  2.4892
  182MPD1     N 2831   4.570   4.276   1.107 -0.3094  0.3285 -0.0417
  182MPD1    H5 2832   4.498   4.335   1.148 -1.2903 -0.3907 -0.7385
  182MPD1    N1 2833   0.234   4.008   1.183 -0.2349 -0.0463  0.1785
  182MPD1    H6 2834   0.245   4.006   1.082 -2.5220 -0.6747 -0.0437
  182MPD1    H7 2835   0.328   4.017   1.220 -0.2948  1.6967 -0.1017
  183MPD1     C 2836   3.707   3.239   8.853 -0.1566 -0.3672  0.1675
  183MPD1    C1 2837   3.773   3.265   8.969  0.6779  0.1693  0.8003
  183MPD1    C2 2838   3.738   3.382   9.040 -0.1535 -0.1484  0.7415
  183MPD1    C3 2839   3.623   3.460   9.002  0.4099 -0.2819  0.2840
  183MPD1    C4 2840   3.554   3.414   8.890 -0.5121  0.4769 -0.2329
  183MPD1    C5 2841   3.599   3.311   8.811  0.5911  0.1249  0.4042
  183MPD1     H 2842   3.796   3.419   9.124  1.2924 -1.2026  0.1897
  183MPD1    H1 2843   3.466   3.464   8.851 -1.8077 -1.8330 -0.3018
  183MPD1    H2 2844   3.741   3.167   8.780  0.0517  0.3134 -0.4163
  183MPD1    H3 2845   3.539   3.279   8.727  1.1952 -0.8466  0.3500
  183MPD1     N 2846   3.581   3.568   9.089  0.1047 -0.5299 -0.2675
  183MPD1    H5 2847   3.655   3.597   9.153 -0.6073 -1.4043  0.9484
  183MPD1    N1 2848   3.890   3.193   8.995 -0.3500 -0.1867 -0.4645
  183MPD1    H6 2849   3.901   3.107   8.941 -2.2063 -1.0909  0.5970
  183MPD1    H7 2850   3.930   3.189   9.089 -1.0245 -1.0819 -0.2136
  184MPD1     C 2851   2.255   2.663  10.171  0.3026 -0.2087  0.0747
  184MPD1    C1 2852   2.383   2.685  10.227 -0.0877 -0.0353  0.7973
  184MPD1    C2 2853   2.491   2.701  10.147 -0.3492 -0.5882  0.3957
  184MPD1    C3 2854   2.481   2.686  10.008  0.2289  0.5807  0.3763
  184MPD1    C4 2855   2.356   2.647   9.956  0.3657 -0.1067 -1.0990
  184MPD1    C5 2856   2.249   2.640  10.038  0.2800  0.2230 -0.5571
  184MPD1     H 2857   2.584   2.720  10.198  1.2641 -2.5714 -1.8296
  184MPD1    H1 2858   2.341   2.632   9.850  1.0555 -2.8394 -0.8066
  184MPD1    H2 2859   2.165   2.639  10.227  0.3263  0.8487  0.5674
  184MPD1    H3 2860   2.159   2.600   9.992  1.5119 -1.4804 -1.4658
  184MPD1     N 2861   2.589   2.694   9.918  0.1586  0.3559 -0.6637
  184MPD1    H5 2862   2.565   2.675   9.821  1.9396 -0.9330 -0.8588
  184MPD1    N1 2863   2.399   2.708  10.367  0.2685 -0.3011 -0.1710
  184MPD1    H6 2864   2.339   2.643  10.419 -1.0402  0.8477 -0.2513
  184MPD1    H7 2865   2.492   2.695  10.405  0.9317  1.3048 -1.2592
  185MPD1     C 2866   2.576   2.521   9.082  0.9802  0.1785  0.3217
  185MPD1    C1 2867   2.709   2.515   9.106 -0.0968  0.0237 -0.9889
  185MPD1    C2 2868   2.761   2.567   9.222  0.8358 -0.3297  0.0708
  185MPD1    C3 2869   2.681   2.627   9.321  0.5413 -0.1374 -0.2903
  185MPD1    C4 2870   2.541   2.636   9.296 -1.3451 -0.2314  0.0835
  185MPD1    C5 2871   2.490   2.577   9.177  0.2926  0.4645 -0.3296
  185MPD1     H 2872   2.859   2.535   9.255  0.4703  1.7780  3.2185
  185MPD1    H1 2873   2.478   2.681   9.372 -2.0366 -0.0383 -0.6109
  185MPD1    H2 2874   2.526   2.488   8.991 -0.7219  2.8094  0.2817
  185MPD1    H3 2875   2.385   2.580   9.151  0.2317  1.9927  0.1197
  185MPD1     N 2876   2.723   2.678   9.450  0.3828  0.2998 -0.2769
  185MPD1    H5 2877   2.651   2.690   9.521  0.4232  1.1140 -0.3816
  185MPD1    N1 2878   2.793   2.439   9.017  0.3123  0.2706 -0.6532
  185MPD1    H6 2879   2.774   2.443   8.917  0.6194  0.7415 -0.6889
  185MPD1    H7 2880   2.890   2.463   9.038  0.0691  0.7738 -0.0970
  186MPD1     C 2881   1.633   1.412  15.729  0.5281 -0.4299 -0.9708
  186MPD1    C1 2882   1.737   1.481  15.677  0.6896  0.5824  0.3454
  186MPD1    C2 2883   1.783   1.584  15.750  0.2624 -0.1717  0.6441
  186MPD1    C3 2884   1.724   1.633  15.870  0.5184  0.0001 -0.1219
  186MPD1    C4 2885   1.622   1.561  15.921  0.2172 -0.4746 -0.3702
  186MPD1    C5 2886   1.571   1.457  15.844 -0.0834  0.0627  0.0098
  186MPD1     H 2887   1.874   1.632  15.716 -0.6652 -0.0751 -1.7204
  186MPD1    H1 2888   1.578   1.592  16.015  3.2507 -0.3044  0.9876
  186MPD1    H2 2889   1.615   1.310  15.699 -0.0578 -0.2981 -1.0739
  186MPD1    H3 2890   1.499   1.394  15.895  1.8055 -2.0954  0.0423
  186MPD1     N 2891   1.766   1.745  15.946 -1.3101  0.9828 -0.0508
  186MPD1    H5 2892   1.705   1.780  16.019 -2.9707 -0.3352 -0.8245
  186MPD1    N1 2893   1.806   1.433  15.565  0.8982 -0.4448  0.5696
  186MPD1    H6 2894   1.846   1.506  15.506 -2.1002  1.6505  1.0779
  186MPD1    H7 2895   1.746   1.384  15.499  0.8818  0.2898  0.0416
  187MPD1     C 2896   1.774   3.720  17.602  0.4052 -0.1275 -0.5441
  187MPD1    C1 2897   1.651   3.659  17.624 -0.2912  0.1530  0.7760
  187MPD1    C2 2898   1.548   3.700  17.544  0.5832 -0.2294 -0.1677
  187MPD1    C3 2899   1.575   3.792  17.435  0.4900 -0.3897 -0.5091
  187MPD1    C4 2900   1.703   3.846  17.416  0.0888 -0.4404 -0.1152
  187MPD1    C5 2901   1.805   3.812  17.504  0.1401  0.1358 -0.2235
  187MPD1     H 2902   1.447   3.663  17.556 -0.1326  1.4721 -1.0962
  187MPD1    H1 2903   1.736   3.910  17.335 -0.6112  0.7398  0.5321
  187MPD1    H2 2904   1.852   3.698  17.674  0.9914 -0.9333 -1.4329
  187MPD1    H3 2905   1.898   3.865  17.517  0.9086 -1.6559  1.5972
  187MPD1     N 2906   1.483   3.823  17.338  0.0897  0.2448 -0.4993
  187MPD1    H5 2907   1.515   3.880  17.260 -1.3026 -0.6483 -1.7231
  187MPD1    N1 2908   1.626   3.592  17.739  0.1574  0.4136 -0.2779
  187MPD1    H6 2909   1.709   3.546   0.025 -0.7954 -0.4976  0.7652
  187MPD1    H7 2910   1.542   3.536   0.000  0.1133  0.8629  1.6978
  188MPD1     C 2911   0.672   3.462  10.164  0.1938 -0.0783  0.3730
  188MPD1    C1 2912   0.680   3.397  10.285 -0.4319  0.8187 -1.2254
  188MPD1    C2 2913   0.665   3.261  10.275  0.2749  0.1845 -0.8476
  188MPD1    C3 2914   0.653   3.195  10.155 -0.5380 -0.2810 -0.3966
  188MPD1    C4 2915   0.647   3.268  10.035 -0.0556  0.0785  0.0353
  188MPD1    C5 2916   0.666   3.404  10.044  0.5754  0.2596  0.5697
  188MPD1     H 2917   0.673   3.199  10.364 -1.1800  1.3773  0.1079
  188MPD1    H1 2918   0.654   3.216   9.940  2.0692  0.9525 -0.2712
  188MPD1    H2 2919   0.693   3.568  10.156  0.7454 -0.2500 -0.4865
  188MPD1    H3 2920   0.677   3.473   9.961  0.5186 -0.5786 -0.1311
  188MPD1     N 2921   0.646   3.056  10.139 -0.4485 -0.3706  1.0545
  188MPD1    H5 2922   0.637   3.026  10.042  1.6219  0.7905  0.5010
  188MPD1    N1 2923   0.694   3.465  10.405  0.1373  0.3166 -0.2750
  188MPD1    H6 2924   0.751   3.418  10.474  0.4772  1.6294  0.3299
  188MPD1    H7 2925   0.722   3.562  10.396 -1.9544  0.9743  0.3883
  189MPD1     C 2926   2.910   0.027   0.314  0.5125 -0.4747 -0.1358
  189MPD1    C1 2927   2.781   4.709   0.308 -0.0874 -0.1891  0.2306
  189MPD1    C2 2928   2.675   0.047   0.286 -0.1046 -0.3369 -0.4118
  189MPD1    C3 2929   2.698   0.179   0.249  0.5763  0.2155 -0.1203
  189MPD1    C4 2930   2.827   0.227   0.230  0.1749 -0.3410 -1.2602
  189MPD1    C5 2931   2.930   0.154   0.274  0.5034  0.0617  0.3824
  189MPD1     H 2932   2.577   0.001   0.294 -0.4188  0.3547 -0.2647
  189MPD1    H1 2933   2.854   0.326   0.194  2.0473 -0.3235  0.1630
  189MPD1    H2 2934   2.994   4.700   0.335 -0.8556 -2.8421 -1.9288
  189MPD1    H3 2935   3.031   0.189   0.259  1.6139 -3.2945 -0.1260
  189MPD1     N 2936   2.578   0.260   0.220 -0.0196  0.4589  0.2567
  189MPD1    H5 2937   2.486   0.219   0.226  1.6469 -3.2988  0.4473
  189MPD1    N1 2938   2.761   4.594   0.375  0.1477  0.0888  0.1447
  189MPD1    H6 2939   2.841   4.531   0.374 -1.7693 -2.3494  1.4293
  189MPD1    H7 2940   2.675   4.545   0.351 -1.2945  1.6884  1.9970
  190MPD1     C 2941   1.881   3.653  15.252  0.2802 -0.0589 -0.4926
  190MPD1    C1 2942   1.916   3.532  15.201 -1.4951 -0.3160 -0.1986
  190MPD1    C2 2943   1.969   3.436  15.283  0.0797  0.2880 -0.9284
  190MPD1    C3 2944   1.994   3.453  15.418 -0.8810 -0.0734 -0.5922
  190MPD1    C4 2945   1.966   3.582  15.454  0.3780  1.3224 -0.3798
  190MPD1    C5 2946   1.907   3.678  15.382  0.6636 -0.6143  0.0803
  190MPD1     H 2947   2.003   3.347  15.232 -3.2410 -0.4699 -1.8060
  190MPD1    H1 2948   1.987   3.622  15.553 -0.6193 -1.9373  1.1562
  190MPD1    H2 2949   1.842   3.731  15.188  1.1444  0.5129 -0.3300
  190MPD1    H3 2950   1.885   3.772  15.431  1.0073 -0.5213  0.0549
  190MPD1     N 2951   2.054   3.354  15.491 -0.4737 -0.2025  0.2540
  190MPD1    H5 2952   2.090   3.278  15.433 -1.6248 -0.4233 -0.1635
  190MPD1    N1 2953   1.918   3.504  15.063  0.0756 -0.1024 -0.8278
  190MPD1    H6 2954   1.901   3.407  15.037 -1.3520  0.1239 -0.7240
  190MPD1    H7 2955   1.848   3.554  15.009 -1.2866 -0.8949  0.2190
  191MPD1     C 2956   0.499   0.294  12.217 -0.1810 -0.3236 -0.4293
  191MPD1    C1 2957   0.490   0.304  12.079  0.1910 -0.6278  0.1226
  191MPD1    C2 2958   0.606   0.286  12.008 -0.2256  0.4441  0.0520
  191MPD1    C3 2959   0.722   0.248  12.071 -0.9168  0.2431 -0.5984
  191MPD1    C4 2960   0.724   0.226  12.206  0.3535 -0.2344 -0.0261
  191MPD1    C5 2961   0.611   0.261  12.284  0.0075  0.0527 -0.2042
  191MPD1     H 2962   0.604   0.303  11.901  0.1582  1.3120  0.1774
  191MPD1    H1 2963   0.815   0.209  12.263 -0.3009 -2.2975  0.4384
  191MPD1    H2 2964   0.407   0.293  12.275 -0.0591  0.7122 -0.2346
  191MPD1    H3 2965   0.617   0.229  12.387  0.0850 -1.3062 -0.6306
  191MPD1     N 2966   0.839   0.241  11.994 -0.3659 -0.4887  0.3965
  191MPD1    H5 2967   0.836   0.270  11.897  0.4222 -0.7329  0.3004
  191MPD1    N1 2968   0.376   0.345  12.009  1.2120  0.2281  0.3175
  191MPD1    H6 2969   0.367   0.444  11.984  1.4001 -0.2817 -1.8205
  191MPD1    H7 2970   0.292   0.333  12.066  0.7932  0.9368 -0.1458
  192MPD1     C 2971   1.302   0.434  11.165 -0.1092  0.9976  0.1188
  192MPD1    C1 2972   1.202   0.493  11.244 -0.7255 -0.2404  0.3610
  192MPD1    C2 2973   1.181   0.446  11.366  0.4544  0.2305  0.0484
  192MPD1    C3 2974   1.259   0.339  11.415  0.1763 -0.1705  0.2856
  192MPD1    C4 2975   1.357   0.278  11.341 -0.1061 -0.0437  0.4565
  192MPD1    C5 2976   1.376   0.330  11.219  0.0352 -0.0350 -0.2415
  192MPD1     H 2977   1.104   0.493  11.426  0.3087  0.3104 -0.2033
  192MPD1    H1 2978   1.421   0.199  11.379  2.1982  1.3669 -0.5205
  192MPD1    H2 2979   1.344   0.475  11.074 -1.3800 -0.0155 -0.9346
  192MPD1    H3 2980   1.452   0.298  11.149  0.8005  0.1644  0.5061
  192MPD1     N 2981   1.245   0.284  11.543 -0.0003 -0.0418 -0.2994
  192MPD1    H5 2982   1.320   0.222  11.574 -0.0094 -0.1106 -0.4166
  192MPD1    N1 2983   1.142   0.611  11.201 -0.3942 -0.1585  0.4450
  192MPD1    H6 2984   1.136   0.623  11.100  1.6917  0.5629  0.4106
  192MPD1    H7 2985   1.043   0.617  11.224 -0.4544  0.5740 -0.0200
  193MPD1     C 2986   0.443   0.045  15.842  0.1792  0.4174  0.0522
  193MPD1    C1 2987   0.566   0.016  15.898  1.2699 -0.1062  0.0026
  193MPD1    C2 2988   0.634   0.118  15.965 -0.4271 -0.1921 -0.1838
  193MPD1    C3 2989   0.575   0.247  15.974  0.2195 -0.7618  0.7418
  193MPD1    C4 2990   0.453   0.273  15.916  0.0301  0.7480  0.6412
  193MPD1    C5 2991   0.390   0.171  15.855  0.4971 -0.3461  0.2112
  193MPD1     H 2992   0.731   0.108  16.014 -1.1505 -2.7592  0.7093
  193MPD1    H1 2993   0.405   0.370  15.918  0.3358  0.9220 -0.1769
  193MPD1    H2 2994   0.372   4.710  15.804 -0.3166  1.7190 -1.4931
  193MPD1    H3 2995   0.290   0.191  15.818  1.9004  0.7599 -2.9912
  193MPD1     N 2996   0.649   0.343  16.050 -0.6444  0.1310 -0.5518
  193MPD1    H5 2997   0.739   0.314  16.087 -0.5397  1.1631 -0.0060
  193MPD1    N1 2998   0.626   4.625  15.891 -0.1559  0.6936 -0.0697
  193MPD1    H6 2999   0.563   4.559  15.847  1.8156 -0.9051 -0.4771
  193MPD1    H7 3000   0.712   4.632  15.838 -0.4505  2.4139 -0.3240
  194MPD1     C 3001   3.151   2.342  16.015  0.0303  0.5601  0.1409
  194MPD1    C1 3002   3.277   2.387  16.028  0.1986 -1.1193  0.2456
  194MPD1    C2 3003   3.364   2.309  16.096  0.5732 -0.6668  0.1074
  194MPD1    C3 3004   3.320   2.190  16.144  0.1047  0.9075 -0.1054
  194MPD1    C4 3005   3.193   2.141  16.127 -0.2857  0.2857  0.4585
  194MPD1    C5 3006   3.109   2.224  16.063 -0.6945 -0.2550 -0.7090
  194MPD1     H 3007   3.468   2.337  16.110  0.9888 -1.4499 -1.3664
  194MPD1    H1 3008   3.158   2.043  16.156  1.5282 -1.1024 -2.0549
  194MPD1    H2 3009   3.078   2.404  15.966 -0.9820  0.0732  1.0388
  194MPD1    H3 3010   3.003   2.202  16.068 -0.9622  1.8832  2.7452
  194MPD1     N 3011   3.402   2.106  16.232  0.4254  0.0746  0.1203
  194MPD1    H5 3012   3.360   2.020  16.267 -0.1006  0.4055  0.3056
  194MPD1    N1 3013   3.307   2.517  15.982  0.0918 -0.6466 -0.5654
  194MPD1    H6 3014   3.238   2.546  15.913 -0.2403  1.9684  0.8443
  194MPD1    H7 3015   3.396   2.522  15.933 -0.3613  0.9438 -1.2311
  195MPD1     C 3016   1.320   4.337  17.401 -0.5451 -0.3206  0.2354
  195MPD1    C1 3017   1.186   4.309  17.365  0.4477  0.2974  0.3629
  195MPD1    C2 3018   1.127   4.198  17.405  0.1255 -0.0257 -0.5624
  195MPD1    C3 3019   1.197   4.097  17.470 -0.1378 -0.0174 -0.0544
  195MPD1    C4 3020   1.328   4.124  17.506  0.1271  0.1360  0.6928
  195MPD1    C5 3021   1.386   4.241  17.462 -0.3942 -0.4304  0.8779
  195MPD1     H 3022   1.025   4.172  17.379  0.1274 -0.2432 -0.3583
  195MPD1    H1 3023   1.396   4.058  17.559 -0.9010 -2.0830 -0.7795
  195MPD1    H2 3024   1.381   4.425  17.382  0.9244 -0.9863  1.8532
  195MPD1    H3 3025   1.493   4.240  17.473 -0.0608  3.2772 -2.0382
  195MPD1     N 3026   1.130   3.983  17.526  0.0441  0.0275  0.6462
  195MPD1    H5 3027   1.191   3.928  17.586 -1.5998  1.4259  3.5906
  195MPD1    N1 3028   1.107   4.413  17.322  1.1279 -0.2615  0.5831
  195MPD1    H6 3029   1.025   4.387  17.268  0.6064 -1.1100  1.7891
  195MPD1    H7 3030   1.161   4.477  17.264 -1.4803 -0.2514 -1.8092
  196MPD1     C 3031   4.322   3.316   0.216  0.0352 -0.4032 -0.2339
  196MPD1    C1 3032   4.408   3.401   0.152  0.1053  0.2295 -0.0398
  196MPD1    C2 3033   4.524   3.438   0.222 -0.1766 -0.3690 -0.3811
  196MPD1    C3 3034   4.533   3.421   0.363  0.1250  0.1120 -0.7444
  196MPD1    C4 3035   4.427   3.362   0.423 -0.1959 -0.0588 -0.2317
  196MPD1    C5 3036   4.319   3.301   0.350  0.3584 -0.5664  0.4652
  196MPD1     H 3037   4.615   3.482   0.182 -0.1326 -0.8041 -0.7672
  196MPD1    H1 3038   4.438   3.347   0.530  0.8217 -0.4619 -0.3855
  196MPD1    H2 3039   4.239   3.271   0.164 -0.3054 -0.4152  0.3150
  196MPD1    H3 3040   4.241   3.252   0.406 -0.8761 -1.4265 -2.0116
  196MPD1     N 3041   4.638   3.475   0.448  0.2879  0.1236 -0.0157
  196MPD1    H5 3042   4.616   3.463   0.546 -0.7160  0.6864 -0.1717
  196MPD1    N1 3043   4.409   3.402   0.014  1.2447 -0.4289  0.0904
  196MPD1    H6 3044   4.310   3.398  17.738  1.3895 -0.8214 -0.4056
  196MPD1    H7 3045   4.455   3.323  17.720  3.5050  0.1961  1.3507
  197MPD1     C 3046   4.202   0.563  17.143  0.1634  0.6033 -0.0955
  197MPD1    C1 3047   4.262   0.691  17.130 -0.6330 -0.0479 -0.5829
  197MPD1    C2 3048   4.247   0.764  17.019  0.3950 -0.1703 -0.8910
  197MPD1    C3 3049   4.160   0.722  16.925 -0.2609 -0.5649 -0.2026
  197MPD1    C4 3050   4.102   0.597  16.934  0.0962 -0.4441  0.8761
  197MPD1    C5 3051   4.118   0.522  17.046 -0.0922  0.3663 -0.6613
  197MPD1     H 3052   4.313   0.849  17.003  0.5754 -0.1719 -0.1571
  197MPD1    H1 3053   4.033   0.562  16.858 -0.6959  1.3421  0.7772
  197MPD1    H2 3054   4.202   0.496  17.229  0.4980  0.5863 -0.1085
  197MPD1    H3 3055   4.066   0.427  17.050  0.8710 -0.0781  1.4632
  197MPD1     N 3056   4.139   0.795  16.810 -0.7670 -0.0285 -0.5536
  197MPD1    H5 3057   4.089   0.746  16.737  0.7836 -1.5576 -0.5928
  197MPD1    N1 3058   4.352   0.735  17.229 -0.4818  0.3077  0.0990
  197MPD1    H6 3059   4.333   0.706  17.325  3.0386 -1.3765  0.2664
  197MPD1    H7 3060   4.359   0.837  17.233 -1.2805  0.4171 -1.1499
  198MPD1     C 3061   1.540   2.872  15.592  0.5001 -0.5816  0.0661
  198MPD1    C1 3062   1.557   2.946  15.707  0.2592 -0.9864  0.4649
  198MPD1    C2 3063   1.588   3.085  15.703  1.2815 -0.3528  0.2615
  198MPD1    C3 3064   1.574   3.150  15.582 -0.1203 -0.4252  0.0642
  198MPD1    C4 3065   1.520   3.086  15.468 -0.2039 -0.2552  0.0194
  198MPD1    C5 3066   1.508   2.945  15.479  0.3009  0.0772 -0.3298
  198MPD1     H 3067   1.613   3.139  15.794  2.4498  1.0211 -0.9032
  198MPD1    H1 3068   1.519   3.139  15.373  1.6476  0.7295  0.5355
  198MPD1    H2 3069   1.537   2.765  15.604 -0.4029 -0.3735  1.7048
  198MPD1    H3 3070   1.489   2.887  15.390 -0.5122  0.6336 -0.5089
  198MPD1     N 3071   1.595   3.292  15.588 -0.3366 -0.4841 -0.3278
  198MPD1    H5 3072   1.603   3.321  15.685  0.0089  2.2682 -1.1869
  198MPD1    N1 3073   1.559   2.882  15.829  0.1188  0.2513  0.5810
  198MPD1    H6 3074   1.512   2.938  15.899 -3.1717 -0.6956 -0.8740
  198MPD1    H7 3075   1.510   2.793  15.832  1.1947 -0.3506  0.2804
  199MPD1     C 3076   3.374   0.654  10.646 -0.0029  0.0614 -0.3221
  199MPD1    C1 3077   3.318   0.539  10.608  0.1602  0.1101  0.1323
  199MPD1    C2 3078   3.222   0.541  10.511  0.4641  1.0627  0.2297
  199MPD1    C3 3079   3.157   0.657  10.473 -0.0129 -0.1264 -0.1814
  199MPD1    C4 3080   3.212   0.775  10.515 -0.1912  0.2593 -0.1344
  199MPD1    C5 3081   3.333   0.770  10.594  0.1567 -0.6097  0.0191
  199MPD1     H 3082   3.181   0.451  10.467 -0.9273  1.5604  0.5071
  199MPD1    H1 3083   3.180   0.876  10.493 -0.8831  0.7038  2.9840
  199MPD1    H2 3084   3.461   0.653  10.711 -1.6633 -0.1592  1.8587
  199MPD1    H3 3085   3.367   0.871  10.616 -1.6428 -0.0556  0.2361
  199MPD1     N 3086   3.043   0.660  10.389 -0.0757  0.0003  0.4892
  199MPD1    H5 3087   3.022   0.755  10.360 -0.7125 -0.4238 -0.4678
  199MPD1    N1 3088   3.382   0.421  10.643 -0.2538  0.1424 -0.0924
  199MPD1    H6 3089   3.424   0.417  10.735  0.2201 -0.5874 -0.3351
  199MPD1    H7 3090   3.317   0.342  10.642 -1.5659  1.2270  0.2204
  200MPD1     C 3091   1.786   0.494  14.728  0.0552 -0.3515 -0.5160
  200MPD1    C1 3092   1.790   0.422  14.614  0.1693  0.0729 -0.3217
  200MPD1    C2 3093   1.921   0.394  14.557  0.0179  0.2240 -0.2721
  200MPD1    C3 3094   2.035   0.426  14.627 -0.6453  0.2658 -0.6974
  200MPD1    C4 3095   2.023   0.485  14.750 -0.0234  0.6368 -0.0610
  200MPD1    C5 3096   1.900   0.520  14.797 -0.5495  0.0333  0.0168
  200MPD1     H 3097   1.920   0.351  14.457 -1.3360 -0.2523 -0.0598
  200MPD1    H1 3098   2.099   0.510  14.822  0.2007 -2.3446  0.7634
  200MPD1    H2 3099   1.693   0.525  14.774  1.4749 -1.7123  3.2914
  200MPD1    H3 3100   1.893   0.571  14.893  0.2524  1.4426 -0.6769
  200MPD1     N 3101   2.158   0.404  14.565  0.1683  0.4611  0.4062
  200MPD1    H5 3102   2.158   0.346  14.481  0.5028  0.9821  0.0471
  200MPD1    N1 3103   1.678   0.399  14.530  0.1421 -0.0948 -0.2651
  200MPD1    H6 3104   1.590   0.390  14.580  0.3266  0.7663  0.1955
  200MPD1    H7 3105   1.694   0.310  14.482  1.6473 -0.7714  1.4627
  201MPD1     C 3106   4.532   3.489  13.686 -0.2079 -0.0169  0.3549
  201MPD1    C1 3107   4.615   3.593  13.709 -0.0150  0.0919 -0.7749
  201MPD1    C2 3108   0.001   3.566  13.764  0.1781 -0.3676  0.5520
  201MPD1    C3 3109   0.059   3.437  13.756  0.1238  0.2440  0.1570
  201MPD1    C4 3110   4.717   3.338  13.710 -0.4187 -0.4048 -0.0367
  201MPD1    C5 3111   4.584   3.362  13.689  0.8105  0.0866  0.0045
  201MPD1     H 3112   0.049   3.650  13.812 -1.2780  0.7277  0.0765
  201MPD1    H1 3113   0.015   3.236  13.707 -2.7491 -1.2135 -0.5309
  201MPD1    H2 3114   4.429   3.493  13.651  0.5396  1.9061 -1.5698
  201MPD1    H3 3115   4.513   3.283  13.666  1.0719  0.3046 -1.5611
  201MPD1     N 3116   0.191   3.406  13.793  0.6919 -0.4489 -0.0865
  201MPD1    H5 3117   0.225   3.312  13.773 -1.6424 -1.1946 -0.5312
  201MPD1    N1 3118   4.566   3.727  13.713  0.3770  0.0684  0.3548
  201MPD1    H6 3119   4.506   3.734  13.631  0.3414 -0.1080  0.3655
  201MPD1    H7 3120   4.643   3.786  13.681 -0.6527  1.6894  0.8559
  202MPD1     C 3121   4.119   2.751   9.014  0.1456 -0.0649  0.5450
  202MPD1    C1 3122   4.008   2.833   9.043  0.7243  0.0138  0.7189
  202MPD1    C2 3123   4.031   2.925   9.145 -0.7450 -0.1192  0.2263
  202MPD1    C3 3124   4.131   2.914   9.234  0.1503  0.7555 -0.4447
  202MPD1    C4 3125   4.231   2.818   9.211  0.2464 -0.6293 -0.0703
  202MPD1    C5 3126   4.223   2.732   9.103 -0.5333 -0.6484 -0.0366
  202MPD1     H 3127   3.948   2.992   9.166  1.6357  2.7702  0.3099
  202MPD1    H1 3128   4.313   2.803   9.280  1.0305 -1.3706 -1.1617
  202MPD1    H2 3129   4.123   2.694   8.921 -1.4422 -0.9474  1.0138
  202MPD1    H3 3130   4.305   2.667   9.076 -0.5540 -0.0700 -1.4971
  202MPD1     N 3131   4.159   2.985   9.352  0.7189  0.5732 -0.1809
  202MPD1    H5 3132   4.244   2.961   9.401  0.0823  1.2902  1.3017
  202MPD1    N1 3133   3.913   2.866   8.952 -0.0961  0.2975  1.2421
  202MPD1    H6 3134   3.827   2.909   8.985  0.0192 -0.9281  3.1285
  202MPD1    H7 3135   3.902   2.777   8.903 -0.7032  0.9957  0.0924
  203MPD1     C 3136   3.464   4.671  12.903 -0.4576  0.5279  0.1357
  203MPD1    C1 3137   3.360   4.586  12.883  0.5120  0.1619 -0.3550
  203MPD1    C2 3138   3.386   4.448  12.879 -0.7189 -0.2119 -0.5552
  203MPD1    C3 3139   3.522   4.401  12.876 -0.2775 -0.4053 -0.4102
  203MPD1    C4 3140   3.622   4.494  12.889 -0.6474 -0.1221 -0.5767
  203MPD1    C5 3141   3.589   4.624  12.904  0.3279 -0.1073  0.0980
  203MPD1     H 3142   3.304   4.377  12.871 -0.4039 -0.4867 -1.3800
  203MPD1    H1 3143   3.729   4.475  12.894 -0.7065 -0.5002 -0.7629
  203MPD1    H2 3144   3.450   0.041  12.898 -1.6127  0.3621 -0.2024
  203MPD1    H3 3145   3.656   4.709  12.914  0.1469 -0.0432  0.8260
  203MPD1     N 3146   3.541   4.259  12.852 -0.1464 -0.5409 -0.1355
  203MPD1    H5 3147   3.466   4.201  12.816 -0.2489  0.8739 -2.2355
  203MPD1    N1 3148   3.226   4.633  12.912 -0.3952  0.2244  0.4215
  203MPD1    H6 3149   3.207   4.729  12.881 -0.5289  0.0203 -0.1279
  203MPD1    H7 3150   3.149   4.570  12.892 -0.1845 -0.3877  1.5620
  204MPD1     C 3151   3.071   1.570  17.271  0.4334  1.1528 -0.1419
  204MPD1    C1 3152   3.107   1.536  17.147 -0.9219  0.6889 -0.0900
  204MPD1    C2 3153   3.106   1.402  17.111 -0.3026 -0.0722  0.7556
  204MPD1    C3 3154   3.062   1.301  17.191 -0.2047 -0.8086  0.3061
  204MPD1    C4 3155   3.002   1.338  17.311 -0.1212 -0.2051  0.1031
  204MPD1    C5 3156   3.008   1.470  17.352 -0.1996 -0.5805 -0.4641
  204MPD1     H 3157   3.150   1.368  17.017 -0.6908  0.5386  0.3546
  204MPD1    H1 3158   2.950   1.266  17.372 -2.0459 -0.1502 -1.4406
  204MPD1    H2 3159   3.081   1.676  17.291 -1.6184  1.4805 -0.8137
  204MPD1    H3 3160   2.960   1.497  17.445  1.5523 -0.9737  0.5407
  204MPD1     N 3161   3.078   1.169  17.148 -0.1333 -0.4766 -0.5654
  204MPD1    H5 3162   3.126   1.145  17.062  1.2135 -0.0255  0.0727
  204MPD1    N1 3163   3.178   1.634  17.078 -0.2423 -0.2088 -0.1955
  204MPD1    H6 3164   3.162   1.725  17.122  1.6905  0.6277 -1.2451
  204MPD1    H7 3165   3.170   1.641  16.977  1.6970 -1.3327 -0.4126
  205MPD1     C 3166   2.396   4.707  16.802  0.4054 -0.4377  0.4502
  205MPD1    C1 3167   2.389   4.588  16.871  0.4977 -0.9932  0.3983
  205MPD1    C2 3168   2.470   4.578  16.987  0.0461 -0.2325  0.1180
  205MPD1    C3 3169   2.554   4.677  17.028  0.2597 -0.0503  0.4310
  205MPD1    C4 3170   2.548   0.064  16.968  0.0492 -0.3441 -0.5551
  205MPD1    C5 3171   2.470   0.070  16.852  0.0300  0.7207 -0.1348
  205MPD1     H 3172   2.464   4.486  17.044 -1.3367  0.0472  0.4251
  205MPD1    H1 3173   2.616   0.147  16.983 -1.1858  0.5042  0.3851
  205MPD1    H2 3174   2.347   4.729  16.708 -0.5135 -0.2967  0.9573
  205MPD1    H3 3175   2.477   0.163  16.796 -0.4912  0.7097 -0.2138
  205MPD1     N 3176   2.660   4.656  17.125  0.3327 -0.1107 -0.2719
  205MPD1    H5 3177   2.735   4.722  17.146  0.9949 -0.8239 -0.3719
  205MPD1    N1 3178   2.331   4.472  16.817 -0.0406  0.4303 -0.5355
  205MPD1    H6 3179   2.247   4.492  16.764 -0.9995 -1.0321  0.4370
  205MPD1    H7 3180   2.314   4.401  16.888  1.0716  1.5225  0.8184
  206MPD1     C 3181   4.392   2.244  16.620  0.0622  1.1505  0.2276
  206MPD1    C1 3182   4.339   2.119  16.626 -0.6848 -0.0116 -0.1701
  206MPD1    C2 3183   4.246   2.079  16.529 -0.3360 -0.1600  0.0198
  206MPD1    C3 3184   4.222   2.166  16.420 -0.5291  0.0259  0.1658
  206MPD1    C4 3185   4.278   2.297  16.414 -0.7467  0.2495 -0.0763
  206MPD1    C5 3186   4.364   2.326  16.516 -0.0466 -0.1031  0.0166
  206MPD1     H 3187   4.196   1.983  16.540 -0.8662  0.2971  1.5925
  206MPD1    H1 3188   4.279   2.371  16.335  0.2524  2.9810  2.5119
  206MPD1    H2 3189   4.462   2.269  16.699  0.8219 -0.7850  0.1532
  206MPD1    H3 3190   4.421   2.417  16.503 -0.1793 -0.1379 -0.8375
  206MPD1     N 3191   4.133   2.128  16.313  0.0044 -0.0342  0.2711
  206MPD1    H5 3192   4.106   2.195  16.243 -0.6012 -1.8282 -1.2183
  206MPD1    N1 3193   4.362   2.047  16.741 -0.2931 -0.0674 -0.6671
  206MPD1    H6 3194   4.334   1.950  16.729  1.3172 -0.3679 -2.1018
  206MPD1    H7 3195   4.458   2.045  16.775 -1.1014 -2.8425  1.4272
  207MPD1     C 3196   2.016   4.286  11.058  0.4367  0.8035  0.4749
  207MPD1    C1 3197   2.076   4.332  10.940 -0.3812 -0.0457 -0.0107
  207MPD1    C2 3198   2.004   4.411  10.853  0.0781  0.7702  0.1676
  207MPD1    C3 3199   1.873   4.444  10.869 -0.0110 -0.3905  0.2745
  207MPD1    C4 3200   1.810   4.385  10.978 -0.0158  0.9961 -0.1865
  207MPD1    C5 3201   1.882   4.321  11.076 -0.4702 -0.0691  0.6801
  207MPD1     H 3202   2.060   4.457  10.773 -0.4634  1.6174  0.2817
  207MPD1    H1 3203   1.710   4.418  11.000  0.2314  1.6671 -0.0593
  207MPD1    H2 3204   2.063   4.229  11.137 -0.6860 -1.1066 -0.2474
  207MPD1    H3 3205   1.839   4.317  11.176 -1.3302 -0.9143  0.2838
  207MPD1     N 3206   1.805   4.548  10.797 -0.4525 -0.8254  0.1006
  207MPD1    H5 3207   1.709   4.568  10.824 -0.5377 -0.3287 -0.5757
  207MPD1    N1 3208   2.214   4.324  10.929 -0.3051 -0.4880 -0.1288
  207MPD1    H6 3209   2.245   4.370  10.844  0.2418  1.6333  1.2121
  207MPD1    H7 3210   2.258   4.382  11.000  1.3392 -2.5041  0.4958
  208MPD1     C 3211   3.880   4.076  16.934 -0.1757  0.0911  0.3119
  208MPD1    C1 3212   3.778   4.145  16.991 -0.7278  0.2683 -1.1313
  208MPD1    C2 3213   3.766   4.140  17.126 -0.2511  0.4540 -0.0973
  208MPD1    C3 3214   3.850   4.069  17.207 -0.4558  0.1686 -0.0025
  208MPD1    C4 3215   3.948   3.993  17.147  0.4381 -0.1256  0.1100
  208MPD1    C5 3216   3.969   4.002  17.014 -0.1695  0.1011 -0.1752
  208MPD1     H 3217   3.676   4.188  17.163 -0.2637 -0.8971  1.6450
  208MPD1    H1 3218   3.995   3.910  17.198  4.1052  0.0183 -3.0418
  208MPD1    H2 3219   3.904   4.077  16.829 -1.2232  0.0753  0.0729
  208MPD1    H3 3220   4.051   3.949  16.965 -0.7118 -0.9298  0.0364
  208MPD1     N 3221   3.833   4.061  17.350 -0.0788  0.1218 -0.0674
  208MPD1    H5 3222   3.749   4.099  17.392  1.2037  2.8912 -0.0604
  208MPD1    N1 3223   3.683   4.204  16.913 -0.0317 -0.1243  0.0566
  208MPD1    H6 3224   3.722   4.234  16.824 -0.5025 -1.5763 -0.6353
  208MPD1    H7 3225   3.637   4.282  16.959  1.8137 -0.2712  2.1459
  209MPD1     C 3226   1.910   0.127  12.092  0.2900 -1.0929 -0.4960
  209MPD1    C1 3227   1.983   0.191  11.996 -0.0029 -0.4203 -0.2415
  209MPD1    C2 3228   1.911   0.269  11.909 -0.1939 -0.1195  0.0046
  209MPD1    C3 3229   1.778   0.302  11.920  1.1029 -0.4400 -0.5278
  209MPD1    C4 3230   1.711   0.251  12.028 -0.1553  0.1283  0.3242
  209MPD1    C5 3231   1.777   0.157  12.108  0.8430 -0.0145 -1.0108
  209MPD1     H 3232   1.971   0.303  11.825 -0.6495  2.4489  0.7425
  209MPD1    H1 3233   1.604   0.264  12.033 -0.1064  0.7699 -0.2410
  209MPD1    H2 3234   1.957   0.044  12.144 -3.0618 -1.8698  1.3030
  209MPD1    H3 3235   1.719   0.104  12.183  0.9591 -0.8262 -1.4842
  209MPD1     N 3236   1.720   0.380  11.816 -0.0860 -0.4296 -0.3594
  209MPD1    H5 3237   1.773   0.403  11.733 -0.2885  2.4516  0.2964
  209MPD1    N1 3238   2.113   0.156  11.960  0.1685 -0.3043 -0.1135
  209MPD1    H6 3239   2.170   0.131  12.041  4.1497  1.2167 -2.4441
  209MPD1    H7 3240   2.153   0.231  11.904  1.5457 -0.4788  0.6431
  210MPD1     C 3241   0.757   0.863  11.523 -0.6119  0.7010 -0.2011
  210MPD1    C1 3242   0.799   0.750  11.594 -0.5357  0.7171  0.9846
  210MPD1    C2 3243   0.931   0.716  11.609 -0.3899  0.6304  0.4861
  210MPD1    C3 3244   1.029   0.802  11.561  0.2686  0.5224  0.0646
  210MPD1    C4 3245   0.993   0.919  11.495  0.3937 -0.4672 -0.1558
  210MPD1    C5 3246   0.858   0.945  11.484  0.3027 -0.1458 -0.2536
  210MPD1     H 3247   0.967   0.633  11.669 -2.2060 -0.6553 -0.2503
  210MPD1    H1 3248   1.059   0.998  11.461 -1.2742  1.3824  0.8635
  210MPD1    H2 3249   0.651   0.877  11.502 -0.4123  1.3542 -0.7458
  210MPD1    H3 3250   0.837   1.031  11.422  3.2613  1.2376  0.6414
  210MPD1     N 3251   1.168   0.773  11.564 -0.3559 -0.1695  0.0733
  210MPD1    H5 3252   1.225   0.835  11.508  0.1438 -0.9357 -0.2613
  210MPD1    N1 3253   0.699   0.677  11.666 -0.5363  0.3988  0.1320
  210MPD1    H6 3254   0.623   0.677  11.598  0.7150  1.6438 -1.2908
  210MPD1    H7 3255   0.739   0.584  11.683 -0.3999  0.5195  0.4642
  211MPD1     C 3256   3.629   3.765  15.995 -0.9824 -0.0450 -0.6640
  211MPD1    C1 3257   3.502   3.779  15.938 -0.1141  0.2573  0.3266
  211MPD1    C2 3258   3.436   3.895  15.957  0.2544  0.5978  0.2560
  211MPD1    C3 3259   3.507   4.006  16.012 -0.1725  0.4390  0.1853
  211MPD1    C4 3260   3.635   3.990  16.056  0.2446  0.1858 -0.0476
  211MPD1    C5 3261   3.691   3.866  16.045  0.2553  0.6817  0.2870
  211MPD1     H 3262   3.333   3.900  15.926 -0.1572 -0.5093  1.4455
  211MPD1    H1 3263   3.694   4.068  16.103  0.7327  1.8659 -3.4644
  211MPD1    H2 3264   3.684   3.673  15.979  0.3354  0.6399 -0.0017
  211MPD1    H3 3265   3.794   3.839  16.068 -0.9358 -2.9675  1.2639
  211MPD1     N 3266   3.438   4.133  16.021 -0.4532 -0.2980  0.4582
  211MPD1    H5 3267   3.347   4.132  15.975 -0.2126 -0.2024 -0.0206
  211MPD1    N1 3268   3.440   3.667  15.891 -0.0699  0.6566 -0.0124
  211MPD1    H6 3269   3.379   3.697  15.816 -0.5275  0.0256  0.1055
  211MPD1    H7 3270   3.509   3.603  15.853 -0.1193 -0.1662  1.2887
  212MPD1     C 3271   2.934   2.671  16.447  0.4733 -0.1694  0.2409
  212MPD1    C1 3272   2.932   2.536  16.412  0.3273  0.5329  1.0102
  212MPD1    C2 3273   2.852   2.446  16.485 -0.6328 -0.7941 -0.9457
  212MPD1    C3 3274   2.776   2.490  16.590 -0.1485  0.4714 -0.1870
  212MPD1    C4 3275   2.781   2.622  16.623  0.0800 -0.5402 -0.8818
  212MPD1    C5 3276   2.846   2.712  16.546 -0.4639 -0.9205 -0.3530
  212MPD1     H 3277   2.844   2.345  16.448  1.5388 -1.2696 -0.1364
  212MPD1    H1 3278   2.717   2.661  16.701  0.2509 -0.9677 -0.5287
  212MPD1    H2 3279   2.992   2.746  16.393 -1.2891  1.7095  0.9647
  212MPD1    H3 3280   2.827   2.816  16.572 -1.3086 -1.2221  0.2389
  212MPD1     N 3281   2.684   2.414  16.664  0.0610  0.4675  0.2217
  212MPD1    H5 3282   2.642   2.463  16.743 -2.7833  0.6712 -1.4005
  212MPD1    N1 3283   3.011   2.499  16.303 -0.7041 -0.5584 -0.5451
  212MPD1    H6 3284   3.030   2.573  16.236  0.8296  1.6423  2.3463
  212MPD1    H7 3285   2.962   2.422  16.258 -0.5230 -1.5579  0.9583
  213MPD1     C 3286   0.050   2.586  14.808 -0.3355  0.4270 -0.4565
  213MPD1    C1 3287   0.184   2.588  14.796 -0.0506 -0.0461 -1.0708
  213MPD1    C2 3288   0.244   2.693  14.866  0.3808 -0.1862 -0.1558
  213MPD1    C3 3289   0.178   2.779  14.958  0.1196 -0.2195 -0.1518
  213MPD1    C4 3290   0.044   2.773  14.963  0.3022  0.2594 -0.2304
  213MPD1    C5 3291   4.718   2.671  14.893  1.3739  0.9033 -0.5015
  213MPD1     H 3292   0.348   2.722  14.850 -0.0672  1.6922  0.3277
  213MPD1    H1 3293   4.718   2.841  15.018 -0.5684 -0.0478 -0.8626
  213MPD1    H2 3294   4.724   2.521  14.749  0.0845 -0.2609 -0.1487
  213MPD1    H3 3295   4.610   2.662  14.891  1.5320 -0.4683 -2.3692
  213MPD1     N 3296   0.249   2.887  15.018  0.2988 -0.5778 -0.7041
  213MPD1    H5 3297   0.331   2.918  14.966  0.8410 -0.5522  0.1809
  213MPD1    N1 3298   0.246   2.534  14.682  0.1748 -0.7622  0.0275
  213MPD1    H6 3299   0.199   2.447  14.656 -0.9055  0.2244 -1.3036
  213MPD1    H7 3300   0.346   2.515  14.689 -0.1027 -2.3447 -0.2049
  214MPD1     C 3301   0.064   3.448  15.826 -0.0596  0.3783 -0.2945
  214MPD1    C1 3302   0.144   3.518  15.744  1.1055 -0.3011 -0.5064
  214MPD1    C2 3303   0.194   3.458  15.628 -0.5630  0.1459  0.9119
  214MPD1    C3 3304   0.164   3.321  15.601  0.1651 -0.3762 -0.4437
  214MPD1    C4 3305   0.071   3.261  15.688  0.8861  0.1290  0.5053
  214MPD1    C5 3306   0.017   3.324  15.798 -0.2738 -0.2726 -0.7956
  214MPD1     H 3307   0.257   3.522  15.568 -1.5366 -1.7400 -2.1124
  214MPD1    H1 3308   0.029   3.163  15.669  1.7725 -0.1236 -0.1419
  214MPD1    H2 3309   0.038   3.498  15.918  0.1745  0.3449 -0.2105
  214MPD1    H3 3310   4.677   3.279  15.857 -2.1623  1.7415 -1.7410
  214MPD1     N 3311   0.233   3.244  15.506  0.4294 -0.9124 -0.2692
  214MPD1    H5 3312   0.186   3.162  15.469  1.9174 -1.7092 -0.4019
  214MPD1    N1 3313   0.183   3.646  15.777  0.2475 -0.0302  0.1794
  214MPD1    H6 3314   0.206   3.708  15.699 -0.0411  0.0566  0.1662
  214MPD1    H7 3315   0.147   3.697  15.857 -2.7771  0.2313 -1.3709
  215MPD1     C 3316   1.178   3.955  10.886  0.0715  0.2012  0.0026
  215MPD1    C1 3317   1.091   4.064  10.861  0.1405 -0.1562 -0.1441
  215MPD1    C2 3318   1.042   4.136  10.967 -0.7490 -0.1569 -0.5851
  215MPD1    C3 3319   1.075   4.093  11.090  0.5877  0.5757 -0.3365
  215MPD1    C4 3320   1.169   3.997  11.111  0.1092  0.1556 -0.2589
  215MPD1    C5 3321   1.224   3.928  11.012  0.1127 -0.4532 -0.7343
  215MPD1     H 3322   0.966   4.210  10.948  1.9317  2.6518 -0.3099
  215MPD1    H1 3323   1.186   3.967  11.214 -1.0865  0.3583 -0.0081
  215MPD1    H2 3324   1.216   3.891  10.807  0.6084 -0.3322  0.6883
  215MPD1    H3 3325   1.294   3.845  11.022 -2.4430 -2.5472 -0.0719
  215MPD1     N 3326   1.015   4.166  11.201  0.3371 -0.4622  0.0841
  215MPD1    H5 3327   0.938   4.227  11.176  0.3065 -0.4270  0.2611
  215MPD1    N1 3328   1.040   4.082  10.735 -0.5534  0.0411 -0.3686
  215MPD1    H6 3329   1.111   4.042  10.675 -0.8714  2.2135 -2.1696
  215MPD1    H7 3330   0.952   4.032  10.734 -2.2236  2.9373  0.4675
  216MPD1     C 3331   2.191   2.214  17.709  0.1850 -0.7196 -0.6976
  216MPD1    C1 3332   2.285   2.299  17.653  0.4266 -0.1852 -0.2500
  216MPD1    C2 3333   2.358   2.246  17.543 -0.3087  0.1889 -0.4334
  216MPD1    C3 3334   2.325   2.124  17.483  0.0186 -0.3444 -0.3164
  216MPD1    C4 3335   2.220   2.057  17.533  0.0364 -0.2436 -0.0491
  216MPD1    C5 3336   2.157   2.101  17.643  0.2805 -0.2197 -0.9963
  216MPD1     H 3337   2.449   2.298  17.515  1.1252 -1.0757  1.8764
  216MPD1    H1 3338   2.186   1.959  17.503  2.2902 -0.6306 -1.3588
  216MPD1    H2 3339   2.146   2.244   0.054  1.7752  1.1564 -0.5474
  216MPD1    H3 3340   2.078   2.040  17.686  0.5635 -0.7084 -1.1819
  216MPD1     N 3341   2.410   2.070  17.382 -0.3799  0.4811  0.0205
  216MPD1    H5 3342   2.492   2.127  17.364 -0.8545  1.2513  0.2405
  216MPD1    N1 3343   2.330   2.411  17.723 -0.1359  0.1844  0.5282
  216MPD1    H6 3344   2.265   2.447   0.043  0.2098 -3.7467  2.8855
  216MPD1    H7 3345   2.371   2.480  17.660 -0.2669  0.5451  0.8391
  217MPD1     C 3346   1.743   2.945   8.692 -0.1152  0.2132 -0.3585
  217MPD1    C1 3347   1.830   2.925   8.580 -0.3036 -0.0802  0.0964
  217MPD1    C2 3348   1.953   2.988   8.585 -0.3989 -0.9209 -0.8473
  217MPD1    C3 3349   2.001   3.064   8.692  0.0458 -0.8833 -0.1076
  217MPD1    C4 3350   1.921   3.064   8.804  0.5063  0.4721 -0.0767
  217MPD1    C5 3351   1.798   3.009   8.802 -0.2588 -0.5063  0.4608
  217MPD1     H 3352   2.018   2.991   8.499 -0.5602  2.2512 -0.8583
  217MPD1    H1 3353   1.943   3.119   8.895  1.5305  0.1809 -0.1465
  217MPD1    H2 3354   1.641   2.911   8.702 -0.0537  0.3332  0.6968
  217MPD1    H3 3355   1.732   3.018   8.887  0.6002  1.1321  0.9512
  217MPD1     N 3356   2.120   3.136   8.701 -0.1557  0.2401  0.1552
  217MPD1    H5 3357   2.144   3.180   8.789 -0.7922  2.3076 -0.6845
  217MPD1    N1 3358   1.776   2.883   8.455 -0.1578  0.2585  0.0672
  217MPD1    H6 3359   1.855   2.851   8.400 -0.1730  1.4384 -0.6260
  217MPD1    H7 3360   1.706   2.814   8.480 -0.6778  1.2264  1.2809
  218MPD1     C 3361   4.384   4.678  12.946 -0.3430  0.6263  0.5129
  218MPD1    C1 3362   4.447   4.562  12.967 -0.5395  0.1465 -0.5546
  218MPD1    C2 3363   4.588   4.561  12.956  0.3607 -1.0259  0.2916
  218MPD1    C3 3364   4.656   4.671  12.913  0.1475  0.0045 -0.4880
  218MPD1    C4 3365   4.593   0.054  12.900  0.1243  0.1000  0.1790
  218MPD1    C5 3366   4.454   0.059  12.923 -0.6332 -0.0593  0.1730
  218MPD1     H 3367   4.644   4.469  12.971  1.7092 -0.2491 -0.0236
  218MPD1    H1 3368   4.646   0.142  12.864 -2.8631  2.0272  0.5453
  218MPD1    H2 3369   4.276   4.680  12.938 -0.2800 -2.1122 -0.7467
  218MPD1    H3 3370   4.393   0.146  12.904  0.0471  0.4688  0.4104
  218MPD1     N 3371   0.056   4.658  12.902 -0.7050 -0.3360 -0.0917
  218MPD1    H5 3372   0.097   4.569  12.929 -1.2982  0.6031  3.8500
  218MPD1    N1 3373   4.383   4.444  13.017  0.0018  0.7359  0.2114
  218MPD1    H6 3374   4.372   4.458  13.117 -1.4596 -0.4497  0.2292
  218MPD1    H7 3375   4.287   4.440  12.982 -0.1821 -2.0244  1.0517
  219MPD1     C 3376   0.493   4.488  11.971  0.6950 -0.4674  0.6603
  219MPD1    C1 3377   0.521   4.619  12.022 -0.2616  0.1403  0.1138
  219MPD1    C2 3378   0.478   4.639  12.154  0.0136 -0.0456 -0.6881
  219MPD1    C3 3379   0.410   4.544  12.227  0.5234 -0.2282  0.0775
  219MPD1    C4 3380   0.406   4.416  12.177  0.2739 -0.5181  0.8108
  219MPD1    C5 3381   0.452   4.385  12.054 -0.1860 -0.1190 -0.6102
  219MPD1     H 3382   0.494   0.001  12.194  1.7419 -0.0306 -1.4362
  219MPD1    H1 3383   0.364   4.332  12.230 -0.2818  0.6119  2.1524
  219MPD1    H2 3384   0.517   4.460  11.869  0.9554  2.4839 -0.0873
  219MPD1    H3 3385   0.440   4.286  12.013  2.1339 -0.9112  0.6034
  219MPD1     N 3386   0.373   4.554  12.361  0.0412 -0.0511 -0.4725
  219MPD1    H5 3387   0.341   4.466  12.400 -1.4513 -0.0862 -1.7457
  219MPD1    N1 3388   0.574   4.723  11.941  0.6996 -0.2216  0.0920
  219MPD1    H6 3389   0.617   0.048  12.009 -1.5921 -0.6014  1.9134
  219MPD1    H7 3390   0.639   4.687  11.872 -0.7602  0.0756 -1.4419
  220MPD1     C 3391   0.384   3.643  10.424  0.3578  0.3227 -0.2434
  220MPD1    C1 3392   0.260   3.676  10.380  0.7191  0.2004  0.7661
  220MPD1    C2 3393   0.193   3.756  10.460  0.5137  0.7842  0.3380
  220MPD1    C3 3394   0.240   3.812  10.578 -0.2667 -0.5256 -0.1619
  220MPD1    C4 3395   0.358   3.761  10.622  0.3503  0.8624  0.5884
  220MPD1    C5 3396   0.426   3.678  10.549 -0.2001  0.4355  0.0805
  220MPD1     H 3397   0.095   3.786  10.426  0.0046 -0.0801  1.0524
  220MPD1    H1 3398   0.400   3.808  10.710  2.5552  0.6092 -0.3202
  220MPD1    H2 3399   0.459   3.588  10.367 -0.0757  0.7236 -1.2022
  220MPD1    H3 3400   0.528   3.649  10.571 -0.2282 -1.0905 -1.7597
  220MPD1     N 3401   0.154   3.905  10.650 -0.3079  0.5528  0.2872
  220MPD1    H5 3402   0.071   3.926  10.596 -0.8372 -1.7309  0.2130
  220MPD1    N1 3403   0.219   3.649  10.246  0.5593  1.0561 -0.1476
  220MPD1    H6 3404   0.118   3.633  10.242  0.6431  1.1511 -2.9691
  220MPD1    H7 3405   0.255   3.557  10.222 -0.5022  0.4924  0.3928
  221MPD1     C 3406   3.006   4.387  16.565 -0.4947 -0.5400 -0.0972
  221MPD1    C1 3407   2.993   4.372  16.430  0.3840 -0.2897 -0.2378
  221MPD1    C2 3408   3.069   4.273  16.374  0.4571  0.1040  0.0294
  221MPD1    C3 3409   3.130   4.179  16.444 -0.6162 -0.2679  0.2280
  221MPD1    C4 3410   3.129   4.186  16.579 -0.6441 -0.7316  0.1060
  221MPD1    C5 3411   3.071   4.287  16.641  0.0702 -0.2526 -0.1894
  221MPD1     H 3412   3.076   4.274  16.266  0.6372 -1.2672  0.0247
  221MPD1    H1 3413   3.180   4.113  16.639 -0.6422  0.4430  1.5251
  221MPD1    H2 3414   2.965   4.473  16.617 -1.1174 -1.4504  0.9046
  221MPD1    H3 3415   3.081   4.300  16.748 -0.0242  0.0743 -0.2209
  221MPD1     N 3416   3.202   4.067  16.394 -0.5543 -0.1512 -0.1835
  221MPD1    H5 3417   3.256   4.016  16.463 -1.1207 -0.5063 -0.0048
  221MPD1    N1 3418   2.946   4.472  16.343  0.5264 -0.3629  0.7525
  221MPD1    H6 3419   2.859   4.512  16.378  1.1864  0.0870  1.8705
  221MPD1    H7 3420   2.938   4.436  16.248  0.4799  1.2925  0.1442
  222MPD1     C 3421   2.580   3.031  17.222 -1.0738  0.5159  0.0769
  222MPD1    C1 3422   2.443   3.043  17.246 -0.0134  0.6087 -0.0294
  222MPD1    C2 3423   2.407   3.006  17.376 -0.0913 -0.0174 -0.2652
  222MPD1    C3 3424   2.492   2.983  17.485 -0.2834 -0.1968  0.8788
  222MPD1    C4 3425   2.623   2.984  17.460  0.2356 -0.0711 -0.5208
  222MPD1    C5 3426   2.661   3.002  17.330 -0.2143 -0.2113 -0.3183
  222MPD1     H 3427   2.302   3.008  17.404  1.2033 -0.6097  4.5558
  222MPD1    H1 3428   2.694   2.976  17.541 -0.6853  1.1465  0.4187
  222MPD1    H2 3429   2.631   3.044  17.128  0.3417 -1.6702  0.5553
  222MPD1    H3 3430   2.769   3.002  17.324 -0.2421 -0.6990 -0.9049
  222MPD1     N 3431   2.448   2.944  17.615  0.0419  0.9561 -0.3291
  222MPD1    H5 3432   2.525   2.938  17.681 -1.6007 -2.2947  1.3041
  222MPD1    N1 3433   2.352   3.059  17.139  0.4286 -0.1669 -0.2255
  222MPD1    H6 3434   2.260   3.084  17.176  0.3749  0.0893 -0.5414
  222MPD1    H7 3435   2.371   3.127  17.067  2.9300 -0.4039  0.2050
  223MPD1     C 3436   1.845   2.304   0.486  0.2777 -0.6158  0.0027
  223MPD1    C1 3437   1.832   2.423   0.554 -0.3375  0.3353  0.1310
  223MPD1    C2 3438   1.926   2.520   0.521 -0.1779  0.1075 -0.1399
  223MPD1    C3 3439   2.019   2.505   0.421 -0.2245 -0.3251  0.4389
  223MPD1    C4 3440   2.024   2.384   0.360  0.6657  0.4935 -0.7449
  223MPD1    C5 3441   1.937   2.286   0.388  0.2387 -0.4311  0.2926
  223MPD1     H 3442   1.913   2.619   0.563 -0.9983 -0.1054  0.1055
  223MPD1    H1 3443   2.101   2.363   0.287  1.0954 -0.2923 -0.0639
  223MPD1    H2 3444   1.779   2.222   0.508 -0.9450  1.1534  2.9049
  223MPD1    H3 3445   1.950   2.187   0.345  0.4533  1.2012 -3.4390
  223MPD1     N 3446   2.098   2.608   0.370  1.0832  0.3483 -0.3470
  223MPD1    H5 3447   2.081   2.696   0.418 -1.8402 -0.6354  0.4102
  223MPD1    N1 3448   1.731   2.448   0.644 -0.4216 -0.0568  0.4338
  223MPD1    H6 3449   1.698   2.543   0.657  0.2414 -0.0461  2.0770
  223MPD1    H7 3450   1.654   2.382   0.634  0.1548 -0.9441  1.8544
  224MPD1     C 3451   2.526   3.583   8.333 -0.0215 -0.8338  0.3301
  224MPD1    C1 3452   2.452   3.687   8.379 -0.5193  0.1547 -0.0948
  224MPD1    C2 3453   2.479   3.749   8.502 -0.7975  0.1340 -0.3065
  224MPD1    C3 3454   2.584   3.705   8.582 -0.0823 -0.4660 -0.5171
  224MPD1    C4 3455   2.649   3.593   8.536  0.4694 -0.0155 -0.4004
  224MPD1    C5 3456   2.625   3.535   8.413  0.4650  0.6853 -0.2043
  224MPD1     H 3457   2.417   3.835   8.523  0.5457  1.2004 -0.7143
  224MPD1    H1 3458   2.740   3.556   8.581  0.2050 -1.4505 -1.0262
  224MPD1    H2 3459   2.502   3.537   8.238  2.1031  0.6006 -0.8980
  224MPD1    H3 3460   2.683   3.448   8.386  1.3442  1.4738 -0.8612
  224MPD1     N 3461   2.628   3.776   8.698 -0.6193  0.1749 -0.4361
  224MPD1    H5 3462   2.701   3.733   8.755 -0.8811 -2.8175 -2.3577
  224MPD1    N1 3463   2.362   3.741   8.283 -0.2995  0.1010  0.3386
  224MPD1    H6 3464   2.328   3.669   8.220  1.1238 -1.3103  1.1888
  224MPD1    H7 3465   2.279   3.781   8.327 -1.2702  0.1056 -1.4787
  225MPD1     C 3466   0.600   0.803  12.294  0.3730  0.7015  0.4207
  225MPD1    C1 3467   0.566   0.670  12.259 -0.0938 -0.2309  0.3487
  225MPD1    C2 3468   0.440   0.654  12.213  0.1508 -0.3182  0.0073
  225MPD1    C3 3469   0.355   0.754  12.175 -0.0856 -0.2539 -0.2679
  225MPD1    C4 3470   0.400   0.882  12.186  0.4317  0.4379 -0.3577
  225MPD1    C5 3471   0.527   0.906  12.247 -0.0123  0.5663  0.4626
  225MPD1     H 3472   0.413   0.552  12.188  0.3414 -0.2002 -0.6796
  225MPD1    H1 3473   0.337   0.965  12.158 -0.4715 -0.4729 -1.0308
  225MPD1    H2 3474   0.693   0.826  12.345  1.0397 -3.1380  0.9018
  225MPD1    H3 3475   0.571   1.005  12.249 -0.5560  0.8394 -0.9104
  225MPD1     N 3476   0.222   0.727  12.143  0.0129  0.1084  0.2195
  225MPD1    H5 3477   0.164   0.809  12.127 -0.2053 -0.4520 -1.9068
  225MPD1    N1 3478   0.644   0.556  12.288 -0.5424 -0.2554 -0.5935
  225MPD1    H6 3479   0.620   0.477  12.229 -3.0618 -0.0718  0.1759
  225MPD1    H7 3480   0.737   0.585  12.258 -0.7233  1.0525  0.0948
  226MPD1     C 3481   1.815   0.081   9.154 -0.1195  0.4124  0.6122
  226MPD1    C1 3482   1.887   0.125   9.267 -0.6778 -0.0591 -0.0180
  226MPD1    C2 3483   2.013   0.085   9.271  0.1357  0.3615  0.6056
  226MPD1    C3 3484   2.083   0.017   9.171 -0.3372 -0.1396  0.2294
  226MPD1    C4 3485   2.016   4.737   9.052 -0.0110 -0.3765 -0.5747
  226MPD1    C5 3486   1.879   0.032   9.045 -0.4388  0.0984  0.2238
  226MPD1     H 3487   2.071   0.108   9.360  1.1104  0.3544 -0.0224
  226MPD1    H1 3488   2.070   4.712   8.962  1.4170 -1.1904  0.5158
  226MPD1    H2 3489   1.709   0.101   9.149 -0.3510 -0.2513  2.6170
  226MPD1    H3 3490   1.820   0.014   8.955  0.6950  1.2149 -0.7392
  226MPD1     N 3491   2.213   4.713   9.195 -0.9144  0.3254  0.2435
  226MPD1    H5 3492   2.253   0.005   9.283  3.6177 -2.5422 -0.8416
  226MPD1    N1 3493   1.819   0.200   9.365  0.2358  0.2612  0.6301
  226MPD1    H6 3494   1.744   0.255   9.326 -1.3352 -0.4799  2.6331
  226MPD1    H7 3495   1.881   0.258   9.421 -0.7510  1.6223  0.2907
  227MPD1     C 3496   2.995   0.144   9.808  0.1000 -0.5176 -0.1064
  227MPD1    C1 3497   3.069   0.088   9.703  0.9693 -0.1038 -0.1723
  227MPD1    C2 3498   3.000   0.046   9.592  0.4737  0.3905 -0.4127
  227MPD1    C3 3499   2.859   0.045   9.590  0.7003 -0.0844 -0.3161
  227MPD1    C4 3500   2.790   0.092   9.702  0.1040  0.5222 -0.0641
  227MPD1    C5 3501   2.858   0.149   9.803 -0.0636 -0.1443 -0.2057
  227MPD1     H 3502   3.051   4.737   9.509  0.0896 -0.6195 -0.0768
  227MPD1    H1 3503   2.683   0.082   9.712  0.4345 -1.0039  1.9747
  227MPD1    H2 3504   3.037   0.195   9.894 -1.2290 -0.3077  0.4162
  227MPD1    H3 3505   2.799   0.170   9.891  1.0613 -0.6479  0.6577
  227MPD1     N 3506   2.788   4.724   9.482  0.0216  0.2829 -0.8932
  227MPD1    H5 3507   2.853   4.692   9.411 -0.5794 -2.7195 -0.0758
  227MPD1    N1 3508   3.211   0.102   9.707  0.4502  0.2306  0.3640
  227MPD1    H6 3509   3.245   0.068   9.797 -1.7077 -2.0827  0.2922
  227MPD1    H7 3510   3.246   0.038   9.635 -1.5866 -0.4137 -0.0603
  228MPD1     C 3511   1.682   3.305  12.164 -0.2641  0.6426 -0.0281
  228MPD1    C1 3512   1.613   3.195  12.106 -0.8629  0.2390 -0.3743
  228MPD1    C2 3513   1.526   3.130  12.196 -0.1940 -0.0026 -0.1549
  228MPD1    C3 3514   1.517   3.157  12.331  0.4715 -0.9958 -0.5383
  228MPD1    C4 3515   1.607   3.256  12.380  0.4047 -0.3558 -0.2086
  228MPD1    C5 3516   1.679   3.332  12.298  0.5875  0.1589  0.1377
  228MPD1     H 3517   1.455   3.055  12.162 -1.1386  0.2746  1.2026
  228MPD1    H1 3518   1.611   3.279  12.486 -2.4341 -0.3401 -0.1110
  228MPD1    H2 3519   1.729   3.377  12.098  2.1820  0.6066  1.6655
  228MPD1    H3 3520   1.728   3.419  12.338  3.2283 -1.0685 -0.3899
  228MPD1     N 3521   1.444   3.071  12.416 -0.2495  0.2483  0.7328
  228MPD1    H5 3522   1.380   3.010  12.367  2.3375 -1.6948 -0.1815
  228MPD1    N1 3523   1.598   3.182  11.967 -0.4060  0.3320  0.5212
  228MPD1    H6 3524   1.682   3.208  11.916  0.1195 -1.3189  0.5472
  228MPD1    H7 3525   1.563   3.093  11.933  0.2198 -0.1034  1.0087
  229MPD1     C 3526   1.384   2.028  14.187  0.4028 -0.1177 -0.1508
  229MPD1    C1 3527   1.422   1.902  14.144 -0.0302 -0.6627 -0.3360
  229MPD1    C2 3528   1.463   1.810  14.229 -0.1311  0.3204  0.8593
  229MPD1    C3 3529   1.485   1.835  14.363 -0.6464 -0.1566  0.4609
  229MPD1    C4 3530   1.436   1.959  14.412  0.0610 -0.3268  0.4529
  229MPD1    C5 3531   1.393   2.053  14.323 -0.7428 -0.2644 -0.4877
  229MPD1     H 3532   1.498   1.717  14.186  2.1926  1.0389  1.2228
  229MPD1    H1 3533   1.443   1.988  14.516 -2.3564 -0.9146  0.7898
  229MPD1    H2 3534   1.361   2.104  14.114  2.0979  0.8881  0.3834
  229MPD1    H3 3535   1.364   2.151  14.358  3.1406  0.1764  1.5051
  229MPD1     N 3536   1.547   1.760  14.462 -0.2963  0.0684  0.2372
  229MPD1    H5 3537   1.547   1.792  14.559  1.0377 -0.1257  0.3096
  229MPD1    N1 3538   1.415   1.873  14.006  0.2159  0.1121 -0.2585
  229MPD1    H6 3539   1.465   1.794  13.966 -0.0551 -0.1832 -0.0130
  229MPD1    H7 3540   1.416   1.960  13.954  0.9598 -0.8137 -1.8038
  230MPD1     C 3541   1.941   1.611  15.345 -0.3347  0.0861 -1.1355
  230MPD1    C1 3542   2.025   1.539  15.263 -0.0949 -0.2720  0.2108
  230MPD1    C2 3543   1.969   1.500  15.144 -0.1310  0.4281 -0.1927
  230MPD1    C3 3544   1.848   1.547  15.097  1.2583  0.1388  0.5338
  230MPD1    C4 3545   1.775   1.637  15.177  0.2031  0.4162  0.1587
  230MPD1    C5 3546   1.822   1.661  15.303 -1.0846 -0.0836  0.4747
  230MPD1     H 3547   2.020   1.427  15.081  2.4287  1.8244  0.2443
  230MPD1    H1 3548   1.672   1.662  15.154 -0.1103 -0.8088  0.2112
  230MPD1    H2 3549   1.966   1.622  15.450  1.7293 -2.7381 -1.3409
  230MPD1    H3 3550   1.763   1.728  15.364 -2.5100 -1.4016  0.5624
  230MPD1     N 3551   1.794   1.497  14.974 -0.3310  0.2864 -0.7314
  230MPD1    H5 3552   1.852   1.433  14.920  0.1982  0.9688 -0.9683
  230MPD1    N1 3553   2.147   1.487  15.313 -0.1925 -0.1190 -0.9421
  230MPD1    H6 3554   2.211   1.449  15.244 -1.6902 -0.7968 -1.9713
  230MPD1    H7 3555   2.186   1.544  15.387 -1.6430 -2.8978  1.9584
  231MPD1     C 3556   0.693   4.084  15.672 -0.5057  0.4460  0.5629
  231MPD1    C1 3557   0.639   4.201  15.615  0.0280 -0.1836  0.1926
  231MPD1    C2 3558   0.604   4.189  15.479 -1.1951  0.1832  0.4660
  231MPD1    C3 3559   0.640   4.081  15.407  0.1187 -0.1703  0.0889
  231MPD1    C4 3560   0.704   3.976  15.465 -0.2261  0.3307 -0.0839
  231MPD1    C5 3561   0.727   3.974  15.597 -0.1572 -0.5137  0.2222
  231MPD1     H 3562   0.547   4.266  15.429  0.8894  0.4834 -1.4320
  231MPD1    H1 3563   0.730   3.887  15.410 -0.8587  0.4781 -0.6246
  231MPD1    H2 3564   0.713   4.080  15.778  1.6960  0.6403  0.1619
  231MPD1    H3 3565   0.762   3.883  15.645  1.1931 -0.4300 -0.6148
  231MPD1     N 3566   0.590   4.082  15.271 -0.2617  0.8933 -0.2171
  231MPD1    H5 3567   0.554   4.172  15.239  0.2947  1.4083  0.6220
  231MPD1    N1 3568   0.597   4.302  15.704  0.0922 -0.3405 -1.0140
  231MPD1    H6 3569   0.639   4.296  15.796  0.6426  2.3173 -1.0846
  231MPD1    H7 3570   0.586   4.396  15.667  0.0714  0.1426  0.1987
  232MPD1     C 3571   1.978   1.683   0.323 -0.0930  0.2000 -0.3759
  232MPD1    C1 3572   1.862   1.761   0.327  0.4969  0.3281 -0.0675
  232MPD1    C2 3573   1.750   1.708   0.267  0.4322  0.7422  0.1455
  232MPD1    C3 3574   1.731   1.575   0.231 -0.0615  0.5506  0.5426
  232MPD1    C4 3575   1.844   1.500   0.232  0.4401  0.6663 -0.6412
  232MPD1    C5 3576   1.960   1.550   0.289  0.1746  0.0328  0.0948
  232MPD1     H 3577   1.666   1.775   0.278 -1.4697 -1.5797 -0.2708
  232MPD1    H1 3578   1.842   1.392   0.218 -0.5015  0.4449  1.2520
  232MPD1    H2 3579   2.066   1.731   0.364 -1.2974  1.8494  0.2885
  232MPD1    H3 3580   2.053   1.495   0.292  0.5829  0.7734  1.0295
  232MPD1     N 3581   1.602   1.537   0.189 -0.0477  0.0943  0.7747
  232MPD1    H5 3582   1.529   1.608   0.186  1.8373  1.9286 -0.7938
  232MPD1    N1 3583   1.865   1.892   0.382  0.0105  0.1987  0.0043
  232MPD1    H6 3584   1.872   1.883   0.483  1.9194 -1.2357 -0.2500
  232MPD1    H7 3585   1.769   1.925   0.378  0.1416  0.4016 -1.5507
  233MPD1     C 3586   2.939   0.109   1.622  0.1310  0.0313  0.7001
  233MPD1    C1 3587   2.970   0.038   1.732  0.9760 -0.2293 -0.9104
  233MPD1    C2 3588   3.083   4.700   1.734 -0.4918  0.8487 -0.2339
  233MPD1    C3 3589   3.182   4.723   1.639 -0.5985 -0.0049 -0.0024
  233MPD1    C4 3590   3.159   0.073   1.534 -0.2416  0.1674 -0.3596
  233MPD1    C5 3591   3.033   0.132   1.527 -0.0286 -0.5820 -0.1597
  233MPD1     H 3592   3.098   4.630   1.816  0.6118  0.4229 -0.7997
  233MPD1    H1 3593   3.222   0.086   1.446 -0.2680 -1.0366 -0.5626
  233MPD1    H2 3594   2.835   0.126   1.599  0.3925  0.4334 -0.2048
  233MPD1    H3 3595   2.999   0.172   1.433  0.5466 -1.9532 -0.9558
  233MPD1     N 3596   3.301   4.644   1.627 -0.5714  0.2814  0.6923
  233MPD1    H5 3597   3.367   4.673   1.556 -1.4973  2.6254  0.7984
  233MPD1    N1 3598   2.874   0.009   1.829  0.4017 -0.4668 -0.2299
  233MPD1    H6 3599   2.912   4.738   1.922 -0.6070 -2.7686 -0.0483
  233MPD1    H7 3600   2.794   0.072   1.834  1.7344  1.3216 -1.3415
  234MPD1     C 3601   3.793   2.527   8.894  0.0167 -0.4756 -0.1482
  234MPD1    C1 3602   3.720   2.579   8.786 -0.4459  0.0355 -0.2820
  234MPD1    C2 3603   3.625   2.672   8.807 -0.2635  0.1968  0.8054
  234MPD1    C3 3604   3.607   2.728   8.933  0.1723  0.1818  0.4539
  234MPD1    C4 3605   3.659   2.664   9.045 -0.4058  0.3339  0.0192
  234MPD1    C5 3606   3.759   2.571   9.022  0.4915 -0.1846 -0.0839
  234MPD1     H 3607   3.580   2.712   8.717 -0.4329 -2.9344 -0.5052
  234MPD1    H1 3608   3.626   2.688   9.145  1.3135  0.5426  0.5372
  234MPD1    H2 3609   3.879   2.463   8.879 -0.7705 -1.3600 -0.9694
  234MPD1    H3 3610   3.808   2.528   9.109 -0.0170  0.6771  0.6251
  234MPD1     N 3611   3.530   2.846   8.939 -0.1649  0.5433  0.4009
  234MPD1    H5 3612   3.477   2.883   8.860  0.5190  1.7465  0.5004
  234MPD1    N1 3613   3.767   2.538   8.659  0.5931  0.9158  0.3194
  234MPD1    H6 3614   3.704   2.559   8.582 -0.0366 -0.1055  0.5620
  234MPD1    H7 3615   3.807   2.445   8.645 -2.8783 -0.7090  1.1846
  235MPD1     C 3616   1.058   0.657  10.870 -0.4391  0.6210  0.0635
  235MPD1    C1 3617   1.066   0.768  10.785  0.2956  0.1476  0.4259
  235MPD1    C2 3618   1.168   0.767  10.695 -0.4316  0.1392  0.1132
  235MPD1    C3 3619   1.269   0.671  10.690  0.0804  0.3541 -0.7507
  235MPD1    C4 3620   1.274   0.566  10.776 -0.2551 -0.1032 -0.0652
  235MPD1    C5 3621   1.168   0.564  10.872  1.1802 -0.3074  0.2687
  235MPD1     H 3622   1.186   0.852  10.631 -0.0797 -0.4691 -0.6098
  235MPD1    H1 3623   1.356   0.495  10.779  1.6696  2.1820  1.7928
  235MPD1    H2 3624   0.978   0.650  10.943  0.6135  0.7382  1.2229
  235MPD1    H3 3625   1.166   0.477  10.938 -0.7211 -1.1036 -0.8073
  235MPD1     N 3626   1.352   0.672  10.573 -0.1231 -0.3977 -0.7655
  235MPD1    H5 3627   1.331   0.744  10.505 -0.9602 -0.0144 -0.0907
  235MPD1    N1 3628   0.955   0.856  10.770  0.2652  1.0216  0.6329
  235MPD1    H6 3629   0.998   0.942  10.736 -0.5302  0.0477 -2.7608
  235MPD1    H7 3630   0.914   0.873  10.861 -1.5947 -1.1995  0.1877
  236MPD1     C 3631   4.585   1.748   9.728 -0.1159  0.1750  0.2519
  236MPD1    C1 3632   4.593   1.776   9.865  0.2701  0.5689 -0.3352
  236MPD1    C2 3633   4.690   1.715   9.938 -0.3882  0.5117  0.0076
  236MPD1    C3 3634   0.039   1.619   9.885  0.9152  0.5232 -0.3357
  236MPD1    C4 3635   0.026   1.585   9.749 -0.0879 -0.3888 -0.1594
  236MPD1    C5 3636   4.673   1.658   9.675  0.5071 -0.0183  0.0486
  236MPD1     H 3637   4.696   1.738  10.044  1.1752  1.9168 -0.3919
  236MPD1    H1 3638   0.087   1.511   9.699  1.8708  1.6010 -0.7515
  236MPD1    H2 3639   4.517   1.799   9.661 -0.0934 -1.2144 -0.8170
  236MPD1    H3 3640   4.662   1.635   9.570  2.2012  0.0422 -0.1356
  236MPD1     N 3641   0.127   1.547   9.969  0.3788 -0.0914 -0.8419
  236MPD1    H5 3642   0.174   1.472   9.919  0.5096 -0.7115  0.2018
  236MPD1    N1 3643   4.497   1.838   9.931  0.1594 -0.4477 -0.1560
  236MPD1    H6 3644   4.531   1.900  10.004  1.4274 -2.1989  0.7460
  236MPD1    H7 3645   4.437   1.891   9.868 -2.1190 -1.3330  1.2566
  237MPD1     C 3646   0.241   0.528  15.276 -0.4321 -0.4879  0.1628
  237MPD1    C1 3647   0.175   0.485  15.391 -0.3842  0.6321 -0.2268
  237MPD1    C2 3648   0.102   0.371  15.375  0.2538 -0.2631 -0.4447
  237MPD1    C3 3649   0.097   0.299  15.257  0.3018 -0.5319 -0.0238
  237MPD1    C4 3650   0.157   0.345  15.145  0.3607  0.2014 -0.0853
  237MPD1    C5 3651   0.220   0.466  15.158  0.6193  0.4309  0.4092
  237MPD1     H 3652   0.071   0.317  15.463 -1.4465  1.3345 -0.0849
  237MPD1    H1 3653   0.148   0.299  15.047  2.6162 -0.7314  0.1556
  237MPD1    H2 3654   0.302   0.618  15.281 -1.4528  0.0236  3.7740
  237MPD1    H3 3655   0.266   0.511  15.071  3.0175 -0.0828  1.4125
  237MPD1     N 3656   0.037   0.175  15.243 -0.4494 -0.3435  0.4844
  237MPD1    H5 3657   0.049   0.124  15.155  0.5722  0.3121  0.2381
  237MPD1    N1 3658   0.219   0.534  15.518 -0.0366 -0.3017  0.2697
  237MPD1    H6 3659   0.238   0.634  15.513 -1.1134 -0.0635  0.9275
  237MPD1    H7 3660   0.153   0.514  15.593  1.1313  3.2427  2.2481
  238MPD1     C 3661   2.162   2.900  15.398  0.3166  0.4365  0.1520
  238MPD1    C1 3662   2.200   2.967  15.282 -0.0841 -0.3463  0.3429
  238MPD1    C2 3663   2.101   3.042  15.219 -0.2578  0.1368  0.0280
  238MPD1    C3 3664   1.969   3.049  15.272 -0.0997 -0.6399 -0.4484
  238MPD1    C4 3665   1.940   2.982  15.390 -0.2027  0.3719 -0.0392
  238MPD1    C5 3666   2.037   2.914  15.452 -0.7512  0.4095  0.1843
  238MPD1     H 3667   2.125   3.083  15.121  3.2500 -0.8741  0.4867
  238MPD1    H1 3668   1.835   2.973  15.419 -0.6382 -0.0377 -1.7689
  238MPD1    H2 3669   2.229   2.834  15.451  0.9587 -0.4116 -1.7092
  238MPD1    H3 3670   2.007   2.858  15.539 -1.0384  0.5621  0.1839
  238MPD1     N 3671   1.856   3.110  15.217 -0.4344  0.2464 -0.3607
  238MPD1    H5 3672   1.770   3.104  15.272 -1.6149  0.1211 -2.2292
  238MPD1    N1 3673   2.328   2.954  15.220 -0.2353 -0.0514 -0.0482
  238MPD1    H6 3674   2.356   3.039  15.171 -1.1907 -1.1302 -2.4829
  238MPD1    H7 3675   2.401   2.931  15.286 -1.5245  1.2719  1.8212
  239MPD1     C 3676   2.094   3.763  14.732  0.3691  0.5374  0.0451
  239MPD1    C1 3677   2.121   3.897  14.754 -0.1337 -0.0793  0.2497
  239MPD1    C2 3678   2.074   3.996  14.662 -0.0019 -0.3248 -0.8308
  239MPD1    C3 3679   2.029   3.947  14.539  0.6882 -0.1448 -0.4492
  239MPD1    C4 3680   2.030   3.816  14.509  0.8939  0.8774 -0.5100
  239MPD1    C5 3681   2.057   3.718  14.602  0.4358  0.4181  0.2500
  239MPD1     H 3682   2.078   4.103  14.678 -0.8388 -0.4337  0.1156
  239MPD1    H1 3683   1.992   3.785  14.412  0.4993 -1.3291  0.3290
  239MPD1    H2 3684   2.116   3.696  14.815  1.8738 -0.4592 -1.1439
  239MPD1    H3 3685   2.050   3.611  14.589  1.3557  0.3458  0.3399
  239MPD1     N 3686   1.989   4.038  14.437 -0.2351  0.4681  0.1556
  239MPD1    H5 3687   1.973   4.001  14.344  0.0934 -0.3019  0.4063
  239MPD1    N1 3688   2.148   3.935  14.889  0.0535 -0.4303  0.3490
  239MPD1    H6 3689   2.198   4.024  14.892  1.4148 -1.2672  2.4688
  239MPD1    H7 3690   2.214   3.871  14.932 -0.1402 -0.1641  1.0468
  240MPD1     C 3691   0.542   4.088  14.029 -0.7379 -0.3318 -0.2747
  240MPD1    C1 3692   0.660   4.149  14.077 -0.4048 -0.4259  0.6854
  240MPD1    C2 3693   0.750   4.083  14.152 -0.4030  0.1890 -1.0794
  240MPD1    C3 3694   0.730   3.944  14.170 -0.7683  0.0988 -0.4362
  240MPD1    C4 3695   0.612   3.884  14.132  0.7204  0.8106 -0.1911
  240MPD1    C5 3696   0.518   3.960  14.060  0.4672 -0.2113  0.5380
  240MPD1     H 3697   0.824   4.150  14.195  0.7235 -3.0777  2.0764
  240MPD1    H1 3698   0.600   3.777  14.138 -1.8001  0.9736 -2.0981
  240MPD1    H2 3699   0.464   4.138  13.972 -0.2494  0.3959 -0.3026
  240MPD1    H3 3700   0.422   3.918  14.030  1.9853 -1.5841 -2.3474
  240MPD1     N 3701   0.828   3.860  14.221 -0.1709 -0.1275  0.3662
  240MPD1    H5 3702   0.812   3.761  14.239  1.1403 -0.9030 -2.6423
  240MPD1    N1 3703   0.668   4.290  14.066  0.1616  0.0281  0.4445
  240MPD1    H6 3704   0.610   4.327  13.992  1.6106 -0.8212 -1.1232
  240MPD1    H7 3705   0.760   4.334  14.063  0.7462 -1.3692 -2.3739
  241MPD1     C 3706   1.722   3.881  14.674  0.2433  0.1752 -0.1827
  241MPD1    C1 3707   1.677   3.749  14.679 -0.7107  0.2037  0.4751
  241MPD1    C2 3708   1.553   3.718  14.628 -0.0894  0.4271 -0.3180
  241MPD1    C3 3709   1.488   3.807  14.549 -0.1536  0.1306  0.2246
  241MPD1    C4 3710   1.548   3.923  14.523 -0.1769 -0.1836  0.2449
  241MPD1    C5 3711   1.664   3.967  14.583  0.1053  0.1006  0.5650
  241MPD1     H 3712   1.517   3.616  14.634  2.4379 -0.3629  1.3852
  241MPD1    H1 3713   1.501   3.991  14.453 -0.7475  0.2953  1.0892
  241MPD1    H2 3714   1.807   3.911  14.734 -1.6265  0.0938  2.4982
  241MPD1    H3 3715   1.712   4.061  14.558  1.1871 -0.2456  1.3248
  241MPD1     N 3716   1.362   3.781  14.497  0.5690 -0.2491 -0.2220
  241MPD1    H5 3717   1.337   3.851  14.428 -0.8981 -0.5164  0.0195
  241MPD1    N1 3718   1.738   3.663  14.774  0.8481 -0.3740  0.3642
  241MPD1    H6 3719   1.833   3.699  14.776  0.4665  0.7868 -2.3869
  241MPD1    H7 3720   1.730   3.575  14.722 -0.1725  0.2965 -0.6028
  242MPD1     C 3721   1.006   1.628  15.417  0.2516  0.5862  0.3856
  242MPD1    C1 3722   1.034   1.727  15.515  1.0488  0.4043  0.2468
  242MPD1    C2 3723   1.086   1.845  15.471  0.4972 -0.2879 -0.1431
  242MPD1    C3 3724   1.105   1.870  15.334  0.5699 -0.3259  0.4137
  242MPD1    C4 3725   1.086   1.771  15.242 -0.1033 -0.2470  0.5125
  242MPD1    C5 3726   1.036   1.651  15.285  0.3961  0.2698  0.1112
  242MPD1     H 3727   1.110   1.926  15.539  2.3435 -1.4959  0.6132
  242MPD1    H1 3728   1.115   1.783  15.139 -1.6504  1.7527  0.3036
  242MPD1    H2 3729   0.970   1.531  15.449 -0.0529  0.2683 -0.9003
  242MPD1    H3 3730   1.024   1.569  15.214 -4.4192 -0.6302  1.9771
  242MPD1     N 3731   1.158   1.995  15.284  0.9109  0.0025  0.3651
  242MPD1    H5 3732   1.149   1.998  15.183 -0.4713 -1.9520  0.4356
  242MPD1    N1 3733   1.003   1.701  15.649  0.5332  0.6013  0.5764
  242MPD1    H6 3734   0.909   1.663  15.651  0.3997  0.8859 -0.7142
  242MPD1    H7 3735   1.025   1.775  15.716 -0.1130  0.3633  1.0574
  243MPD1     C 3736   2.640   1.745  17.537  0.2672 -0.4385 -0.1075
  243MPD1    C1 3737   2.558   1.640  17.509  0.1814  0.0678  0.1078
  243MPD1    C2 3738   2.582   1.560  17.400  0.2822 -0.0148 -0.3100
  243MPD1    C3 3739   2.676   1.592  17.308 -0.9335  0.2089 -0.3031
  243MPD1    C4 3740   2.751   1.707  17.330 -0.0767 -0.4221  0.0982
  243MPD1    C5 3741   2.737   1.781  17.449 -0.2360 -0.1034  0.0375
  243MPD1     H 3742   2.519   1.472  17.391 -0.6502  0.6744 -0.4712
  243MPD1    H1 3743   2.825   1.739  17.258 -1.4279  0.2888 -0.9745
  243MPD1    H2 3744   2.630   1.806  17.626  0.5537 -0.0720 -0.3299
  243MPD1    H3 3745   2.805   1.864  17.464 -0.1244 -0.2489  0.3379
  243MPD1     N 3746   2.690   1.520  17.192  0.1491 -0.4259 -0.2752
  243MPD1    H5 3747   2.630   1.438  17.201  3.3559 -2.7413 -0.1422
  243MPD1    N1 3748   2.469   1.605  17.610 -0.2116 -0.2507 -0.1253
  243MPD1    H6 3749   2.395   1.539  17.584  0.0986 -0.9398  0.7292
  243MPD1    H7 3750   2.416   1.683  17.648  0.0442  0.5995 -1.5194
  244MPD1     C 3751   2.733   0.679  17.302  0.0105  0.7128 -0.0887
  244MPD1    C1 3752   2.691   0.795  17.365 -0.0701  0.4321  0.1264
  244MPD1    C2 3753   2.694   0.910  17.290 -0.0693 -0.2477  0.3717
  244MPD1    C3 3754   2.730   0.919  17.155  0.6867  0.0533  0.4259
  244MPD1    C4 3755   2.770   0.803  17.092 -0.6261 -0.4217 -0.0332
  244MPD1    C5 3756   2.762   0.685  17.165  0.1025 -0.2953 -0.3899
  244MPD1     H 3757   2.651   1.001  17.331  1.6230  0.4838  0.4933
  244MPD1    H1 3758   2.794   0.798  16.986  0.2994  1.7777  0.0681
  244MPD1    H2 3759   2.753   0.579  17.340  1.3311  1.2177  0.5284
  244MPD1    H3 3760   2.790   0.597  17.109 -0.4066  1.0314 -2.7582
  244MPD1     N 3761   2.715   1.049  17.094 -0.7032 -0.2401 -0.1587
  244MPD1    H5 3762   2.674   1.127  17.143 -0.3483 -0.4551  0.4831
  244MPD1    N1 3763   2.685   0.806  17.502 -0.4756  0.2560 -0.1616
  244MPD1    H6 3764   2.656   0.717  17.541 -1.0906 -0.2051 -1.6468
  244MPD1    H7 3765   2.620   0.878  17.533  0.5656  0.7565  0.8381
  245MPD1     C 3766   0.055   0.833  12.933  0.4091  0.5436 -0.8634
  245MPD1    C1 3767   0.129   0.943  12.925  0.6112  0.5415 -0.3737
  245MPD1    C2 3768   0.135   1.026  13.033 -0.3437 -0.2926 -0.0227
  245MPD1    C3 3769   0.066   1.006  13.149 -0.1871  0.0002 -0.1218
  245MPD1    C4 3770   4.716   0.899  13.147 -0.0798  0.4870  0.2203
  245MPD1    C5 3771   4.723   0.807  13.048 -0.6119  0.1368 -0.3607
  245MPD1     H 3772   0.201   1.112  13.029  1.4146 -1.5908  0.7826
  245MPD1    H1 3773   4.649   0.869  13.226 -0.4577  0.2392 -0.1910
  245MPD1    H2 3774   0.056   0.766  12.847  0.7029  2.1817 -2.1475
  245MPD1    H3 3775   4.656   0.723  13.054 -3.4629  2.3969 -0.5550
  245MPD1     N 3776   0.084   1.095  13.260  0.3926  0.8914  0.1577
  245MPD1    H5 3777   0.158   1.165  13.255  1.6710 -0.4872 -0.2242
  245MPD1    N1 3778   0.197   0.972  12.801  0.2521  0.0718  0.5893
  245MPD1    H6 3779   0.217   0.882  12.757  0.5282  1.7087 -2.5861
  245MPD1    H7 3780   0.272   1.040  12.808  0.9113 -0.7170  1.1528
  246MPD1     C 3781   1.019   0.079   9.896 -0.7645 -0.5767  0.1695
  246MPD1    C1 3782   1.058   0.041   9.770  0.2558 -0.4986  0.4890
  246MPD1    C2 3783   1.041   0.136   9.662  0.0576  0.2531 -0.1783
  246MPD1    C3 3784   0.987   0.260   9.692 -0.6093  0.3669 -0.3464
  246MPD1    C4 3785   0.953   0.292   9.825 -0.3031 -0.4964 -0.3464
  246MPD1    C5 3786   0.970   0.203   9.924  0.5998  0.3217 -0.2837
  246MPD1     H 3787   1.067   0.105   9.562  0.7974  1.8122 -0.4701
  246MPD1    H1 3788   0.913   0.385   9.865  0.6995 -0.8055  1.3898
  246MPD1    H2 3789   1.039   0.010   9.977 -0.2311  0.3231  0.7890
  246MPD1    H3 3790   0.970   0.235  10.028 -0.7467  1.6877 -0.6942
  246MPD1     N 3791   0.969   0.347   9.587 -0.5210 -0.2775 -0.4174
  246MPD1    H5 3792   1.019   0.327   9.501 -0.7724 -3.0403  0.0832
  246MPD1    N1 3793   1.100   4.645   9.757 -0.2662  0.1493 -0.1269
  246MPD1    H6 3794   1.166   4.642   9.680 -0.0912  1.0306 -0.0088
  246MPD1    H7 3795   1.140   4.605   9.841  1.2773 -2.1097 -1.9075
  247MPD1     C 3796   3.968   2.910  15.181  0.0761 -1.2941 -0.3579
  247MPD1    C1 3797   4.048   2.814  15.239 -0.1836 -0.3638  0.1044
  247MPD1    C2 3798   4.007   2.681  15.240 -0.9445  0.0572  0.3500
  247MPD1    C3 3799   3.894   2.639  15.172  0.7258 -0.3149 -0.4218
  247MPD1    C4 3800   3.824   2.735  15.103  0.1184  0.3184  0.0773
  247MPD1    C5 3801   3.864   2.864  15.111 -0.0871  0.0559  0.3659
  247MPD1     H 3802   4.068   2.618  15.303  1.7099  2.2854  0.0326
  247MPD1    H1 3803   3.733   2.708  15.051 -0.7240 -0.9961  2.2959
  247MPD1    H2 3804   3.977   3.018  15.176  0.2038 -1.2126  1.4086
  247MPD1    H3 3805   3.813   2.944  15.058 -1.6382 -2.3339 -1.7148
  247MPD1     N 3806   3.853   2.503  15.165  0.1887  0.4294 -0.4360
  247MPD1    H5 3807   3.773   2.483  15.106  0.9774  0.9502 -1.6699
  247MPD1    N1 3808   4.154   2.865  15.317  0.0449  0.5295  0.1785
  247MPD1    H6 3809   4.216   2.787  15.336 -0.4663 -0.0208 -0.3908
  247MPD1    H7 3810   4.199   2.945  15.272  1.7023 -0.9537 -0.7985
  248MPD1     C 3811   0.412   0.681  17.602  0.6284  0.4888 -0.1999
  248MPD1    C1 3812   0.299   0.742  17.555  0.1093 -0.3573 -0.9592
  248MPD1    C2 3813   0.216   0.813  17.647 -0.2571 -0.2538  0.5343
  248MPD1    C3 3814   0.259   0.838   0.027  0.3076  0.1338  0.7709
  248MPD1    C4 3815   0.389   0.794   0.057 -0.1423  0.7641  0.4121
  248MPD1    C5 3816   0.460   0.719  17.724  0.6268  0.3001  0.1710
  248MPD1     H 3817   0.118   0.842  17.612 -1.1922 -1.3435  2.2221
  248MPD1    H1 3818   0.434   0.811   0.154  0.7767 -1.3688  0.3570
  248MPD1    H2 3819   0.468   0.616  17.535 -0.8632 -0.9925 -0.0171
  248MPD1    H3 3820   0.559   0.683  17.748 -0.2099 -1.8005  0.5040
  248MPD1     N 3821   0.183   0.916   0.119 -0.0828  0.1594  0.5201
  248MPD1    H5 3822   0.102   0.961   0.079  0.8161 -0.4995 -2.0340
  248MPD1    N1 3823   0.249   0.710  17.424 -0.0437 -0.4557 -0.0109
  248MPD1    H6 3824   0.323   0.729  17.356 -2.2320 -1.3466 -2.6729
  248MPD1    H7 3825   0.175   0.769  17.385 -1.0760 -0.4628  1.9757
  249MPD1     C 3826   1.900   4.602   9.685 -0.1070  0.0308 -0.4301
  249MPD1    C1 3827   1.893   4.560   9.817  0.4818  0.6203 -0.2798
  249MPD1    C2 3828   1.933   4.643   9.921 -0.4471 -0.3387  0.1813
  249MPD1    C3 3829   1.989   0.026   9.889  0.5316  0.0231  0.0641
  249MPD1    C4 3830   2.003   0.058   9.758 -0.3748  0.2465 -0.0577
  249MPD1    C5 3831   1.956   4.721   9.655  0.0024 -0.0165  0.1974
  249MPD1     H 3832   1.923   4.607  10.023 -2.9901  0.7299  0.3054
  249MPD1    H1 3833   2.038   0.157   9.731 -1.0530  0.5595  0.2069
  249MPD1    H2 3834   1.870   4.536   9.604  2.5356 -0.7971 -0.7513
  249MPD1    H3 3835   1.975   0.010   9.552  0.2069 -1.7658 -0.2141
  249MPD1     N 3836   2.037   0.110   9.999 -0.7228 -0.1442  0.1773
  249MPD1    H5 3837   2.012   0.067  10.088 -1.4434  1.4989  0.7671
  249MPD1    N1 3838   1.869   4.425   9.841  0.4966  0.6267  0.1788
  249MPD1    H6 3839   1.822   4.413   9.930  0.4688 -1.9598 -0.1733
  249MPD1    H7 3840   1.821   4.370   9.770  1.1775  0.3442 -0.0629
  250MPD2     C 3841   3.439   3.947  13.152  0.7577 -0.5567 -0.4589
  250MPD2    C1 3842   3.364   4.053  13.106  0.1747 -0.3227  0.3312
  250MPD2    C2 3843   3.292   4.038  12.987  0.0263  0.2901 -0.5265
  250MPD2    C3 3844   3.305   3.925  12.911 -0.6093  0.2319  0.1374
  250MPD2    C4 3845   3.384   3.813  12.951 -0.2013  0.3394 -0.0645
  250MPD2    C5 3846   3.447   3.833  13.069 -0.2898 -0.3823 -0.5225
  250MPD2     H 3847   3.247   4.131  12.954  0.1297 -0.2141 -2.0868
  250MPD2    H1 3848   3.382   3.722  12.893  1.9125 -0.7498  1.5738
  250MPD2    H2 3849   3.484   3.962  13.250  0.9369  3.6034 -1.1703
  250MPD2    H3 3850   3.504   3.754  13.115  2.0398  1.8390  0.3979
  250MPD2     N 3851   3.229   3.913  12.790  0.1710 -0.1133 -0.6039
  250MPD2    H5 3852   3.224   3.817  12.758 -0.0537 -0.1292 -0.5233
  250MPD2    N1 3853   3.378   4.173  13.180  0.3083  0.0924  0.0365
  250MPD2    H7 3854   3.440   4.186  13.259  1.1898  0.2631 -0.6921
  251TMC3    C1 3855   3.347   4.409  13.233 -0.9298 -0.2006 -0.1551
  251TMC3    C2 3856   3.266   4.520  13.218 -0.1537 -0.5309  0.3619
  251TMC3    C3 3857   3.314   4.642  13.264  0.6560 -0.3849  0.3983
  251TMC3    C4 3858   3.481   4.430  13.263 -0.0018 -1.2465 -0.0987
  251TMC3    C5 3859   3.532   4.556  13.277 -0.3781  0.0434 -0.1284
  251TMC3    C6 3860   3.445   4.658  13.291 -0.5188  0.0886 -0.3941
  251TMC3     C 3861   3.303   4.292  13.159 -0.6194 -0.1089 -0.4961
  251TMC3     O 3862   3.203   4.305  13.091 -0.1673  0.1775 -0.2674
  251TMC3     H 3863   3.164   4.515  13.183 -0.0743  0.8903 -0.0802
  251TMC3    H1 3864   3.551   4.347  13.257 -0.2126 -1.4668  0.5366
  251TMC3    H2 3865   3.479   0.018  13.323  0.8208  0.0276 -1.6105
  251TMC3    C7 3866   3.669   4.570  13.258  0.6794 -0.1816 -0.5314
  251TMC3    C8 3867   3.234   0.027  13.277  1.1339 -0.1873 -0.1794
  251TMC3    O1 3868   3.736   4.471  13.291 -0.2233  0.1145 -0.0116
  251TMC3    O2 3869   3.247   0.088  13.387  0.0314  0.2950 -0.2408
  252TMC3    C1 3870   2.209   1.795  10.186 -0.3796  0.8878  0.1310
  252TMC3    C2 3871   2.337   1.835  10.178  0.3552  0.0927  0.2195
  252TMC3    C3 3872   2.435   1.737  10.194  0.1289 -0.3861  0.3415
  252TMC3    C4 3873   2.177   1.658  10.196  0.6873  0.5981  0.3056
  252TMC3    C5 3874   2.269   1.570  10.213 -0.5221 -0.3545  0.6062
  252TMC3    C6 3875   2.402   1.602  10.205  0.4038 -0.1006 -0.5679
  252TMC3     C 3876   2.118   1.866  10.097  0.4175  0.0944 -0.1538
  252TMC3     O 3877   2.135   1.984  10.086  0.5308  0.5166  0.4046
  252TMC3     H 3878   2.368   1.938  10.164 -0.0246 -0.0066 -1.3361
  252TMC3    H1 3879   2.074   1.632  10.217  0.7874 -0.3653 -0.3760
  252TMC3    H2 3880   2.485   1.535  10.217  0.4337  0.1391  0.5435
  252TMC3    C7 3881   2.223   1.435  10.232  0.4715  0.2222 -0.0395
  252TMC3    C8 3882   2.568   1.775  10.143  0.2284  0.4446 -0.4127
  252TMC3    O1 3883   2.104   1.417  10.219 -0.6149  0.0870 -0.6372
  252TMC3    O2 3884   2.571   1.895  10.105 -0.1839  0.6029 -0.5909
  253MPD2     C 3885   3.985   4.363  14.796 -0.3573  0.0497  0.8984
  253MPD2    C1 3886   3.858   4.407  14.822  0.2086 -0.0006 -0.3419
  253MPD2    C2 3887   3.829   4.458  14.947 -0.3271  0.2736 -0.0832
  253MPD2    C3 3888   3.934   4.481  15.039 -0.6150  0.5057  1.0988
  253MPD2    C4 3889   4.065   4.440  15.011 -0.3009  0.0305  0.5323
  253MPD2    C5 3890   4.080   4.376  14.894  0.9243  0.0172  0.1220
  253MPD2     H 3891   3.728   4.491  14.965 -0.8519 -1.3018 -0.2198
  253MPD2    H1 3892   4.152   4.449  15.074  0.3061 -1.2402 -0.1460
  253MPD2    H2 3893   4.009   4.324  14.698  0.0102  0.1199  0.9592
  253MPD2    H3 3894   4.174   4.327  14.873  0.4217 -0.4558 -1.0303
  253MPD2     N 3895   3.910   4.563  15.156 -0.4553  0.0921 -0.4558
  253MPD2    H5 3896   3.989   4.583  15.218 -1.1539 -0.7162  0.7078
  253MPD2    N1 3897   3.754   4.409  14.733 -0.0255  0.3225 -0.4161
  253MPD2    H7 3898   3.662   4.434  14.769  0.5225  1.3500  0.2987
  254TMC3    C1 3899   3.791   4.645  15.346  0.5861 -0.3942 -0.4257
  254TMC3    C2 3900   3.670   4.686  15.395  0.8842  0.2953  0.3966
  254TMC3    C3 3901   3.648   4.681  15.530  0.4527 -0.3821 -0.5749
  254TMC3    C4 3902   3.900   4.617  15.428  0.0383 -0.1640 -0.1975
  254TMC3    C5 3903   3.874   4.620  15.567 -0.8846  0.1118  0.1308
  254TMC3    C6 3904   3.749   4.653  15.615  0.3562  0.2140 -0.4188
  254TMC3     C 3905   3.787   4.604  15.207  0.3083 -0.4371 -0.3654
  254TMC3     O 3906   3.677   4.578  15.163 -0.2319  0.2878 -0.0397
  254TMC3     H 3907   3.592   4.706  15.323  0.9817 -0.0687  0.1947
  254TMC3    H1 3908   3.999   4.586  15.396  0.9389  2.2087  0.2829
  254TMC3    H2 3909   3.730   4.665  15.721  0.8846 -0.0284 -0.2957
  254TMC3    C7 3910   3.981   4.629  15.661  0.4748 -0.0837 -0.4504
  254TMC3    C8 3911   3.529   0.002  15.587 -0.3830  0.6329 -0.4876
  254TMC3    O1 3912   3.954   4.582  15.772 -0.3348 -0.0145 -0.7524
  254TMC3    O2 3913   3.484   4.687  15.692 -0.1377 -0.2692  0.5271
  255MPD2     C 3914   2.203   3.090  10.148  0.3348  0.2308 -0.3682
  255MPD2    C1 3915   2.142   3.167  10.057  0.7265 -0.2020 -0.8066
  255MPD2    C2 3916   2.200   3.177   9.931 -0.1534  0.2692 -0.3375
  255MPD2    C3 3917   2.326   3.118   9.905 -0.6136  0.6089 -0.1473
  255MPD2    C4 3918   2.384   3.041  10.003  0.2559 -0.1966 -0.8816
  255MPD2    C5 3919   2.324   3.034  10.127 -0.5902 -0.0440 -0.1785
  255MPD2     H 3920   2.156   3.242   9.856  1.7807 -0.9703 -2.5457
  255MPD2    H1 3921   2.490   3.018   9.993  0.3741 -0.1977  0.2643
  255MPD2    H2 3922   2.160   3.079  10.247  0.1577 -0.6120 -0.5373
  255MPD2    H3 3923   2.375   2.971  10.199  1.6014  1.1588 -0.6683
  255MPD2     N 3924   2.385   3.123   9.778  0.3061  0.0532  0.2136
  255MPD2    H5 3925   2.326   3.168   9.709  1.4901  2.2192  0.6001
  255MPD2    N1 3926   2.007   3.218  10.074 -0.4804  0.2329  0.5914
  255MPD2    H7 3927   1.946   3.176  10.144  0.7123  1.8240  2.5536
  256TMC3    C1 3928   1.815   3.338  10.015  0.6232 -0.0755 -0.8043
  256TMC3    C2 3929   1.776   3.469  10.021 -0.6659 -0.1012 -0.2476
  256TMC3    C3 3930   1.657   3.497  10.082  0.2071  0.3172 -0.5672
  256TMC3    C4 3931   1.738   3.231  10.062  0.0755 -0.1660 -0.3753
  256TMC3    C5 3932   1.613   3.265  10.117  0.2966 -0.1353  0.2098
  256TMC3    C6 3933   1.577   3.394  10.137 -0.4842 -0.5188  0.4276
  256TMC3     C 3934   1.957   3.329  10.014  0.7219 -0.7182  0.3401
  256TMC3     O 3935   2.013   3.402   9.931 -0.2586  0.2280 -0.1834
  256TMC3     H 3936   1.837   3.555   9.995 -1.0711  0.5874  1.0703
  256TMC3    H1 3937   1.767   3.130  10.035  1.2949  0.6612 -2.1602
  256TMC3    H2 3938   1.471   3.403  10.158 -1.3749 -2.0038 -3.4896
  256TMC3    C7 3939   1.527   3.154  10.146  0.5391  0.0740  0.2509
  256TMC3    C8 3940   1.599   3.634  10.074  0.3226 -0.2406  0.0868
  256TMC3    O1 3941   1.412   3.156  10.111 -0.9446 -0.1264 -0.0593
  256TMC3    O2 3942   1.496   3.661  10.133 -0.0816 -0.6762  0.0327
  257MPD2     C 3943   1.445   4.474  13.272 -0.1199  0.0227 -1.0803
  257MPD2    C1 3944   1.540   4.432  13.185 -0.4299  0.8497 -0.7224
  257MPD2    C2 3945   1.599   4.312  13.215 -0.0623  0.3105  0.0887
  257MPD2    C3 3946   1.565   4.231  13.323 -0.1787  0.6106 -0.2412
  257MPD2    C4 3947   1.470   4.277  13.405 -0.0401 -0.2532  0.1828
  257MPD2    C5 3948   1.413   4.396  13.380  0.0930 -0.5971  0.2231
  257MPD2     H 3949   1.672   4.279  13.141 -1.0522  0.9073 -1.1528
  257MPD2    H1 3950   1.440   4.217  13.490  0.2692 -0.5224  0.1029
  257MPD2    H2 3951   1.383   4.561  13.251  1.4097  1.0245 -1.4516
  257MPD2    H3 3952   1.331   4.431  13.441 -0.2355  0.5184 -0.8460
  257MPD2     N 3953   1.625   4.101  13.335  0.2152 -0.0454  0.1998
  257MPD2    H5 3954   1.693   4.084  13.261 -1.7692 -0.2169 -1.5702
  257MPD2    N1 3955   1.576   4.514  13.078  0.1314 -0.0857 -0.5067
  257MPD2    H7 3956   1.532   4.605  13.074  0.2400  0.0733  1.9137
  258TMC3    C1 3957   1.701   3.893  13.397 -0.8377 -0.0008 -1.0269
  258TMC3    C2 3958   1.741   3.870  13.272  0.0073  0.2331 -0.2367
  258TMC3    C3 3959   1.820   3.770  13.239  0.4125  0.4416  0.3103
  258TMC3    C4 3960   1.727   3.801  13.501 -0.6641 -0.4292  0.4333
  258TMC3    C5 3961   1.799   3.688  13.457 -0.0162  0.0291  0.3775
  258TMC3    C6 3962   1.848   3.676  13.332  0.2996 -1.0468 -0.0850
  258TMC3     C 3963   1.622   4.009  13.433 -0.4058  0.0410  0.2366
  258TMC3     O 3964   1.582   4.017  13.548  0.0055  0.7097 -0.7806
  258TMC3     H 3965   1.718   3.940  13.193  0.7396 -0.8046 -1.3781
  258TMC3    H1 3966   1.681   3.813  13.599  2.1501 -0.2679  1.7377
  258TMC3    H2 3967   1.910   3.590  13.311  1.1596 -0.1070 -1.3835
  258TMC3    C7 3968   1.837   3.586  13.555  0.0629  0.4181  0.1189
  258TMC3    C8 3969   1.885   3.768  13.111 -0.0048  0.1155  0.5635
  258TMC3    O1 3970   1.858   3.472  13.513  0.4137  0.1361  0.5724
  258TMC3    O2 3971   1.830   3.810  13.007  0.1547 -0.0289  0.0051
  259MPD2     C 3972   0.340   1.895   0.272 -0.0135 -0.3974  0.4259
  259MPD2    C1 3973   0.470   1.854   0.247 -0.0388  0.0215  0.0248
  259MPD2    C2 3974   0.520   1.878   0.118 -0.7377  0.3114 -0.4196
  259MPD2    C3 3975   0.440   1.920   0.017  0.8120 -0.2594 -0.0041
  259MPD2    C4 3976   0.307   1.962   0.040 -0.5741  0.6341  0.3037
  259MPD2    C5 3977   0.263   1.938   0.166 -0.2756 -0.6001 -0.2467
  259MPD2     H 3978   0.622   1.852   0.095 -0.4823  1.8706 -1.0074
  259MPD2    H1 3979   0.236   2.004  17.719  1.2715  0.0774 -1.8981
  259MPD2    H2 3980   0.300   1.881   0.371 -0.2833 -0.9752  0.2353
  259MPD2    H3 3981   0.162   1.968   0.188 -0.8649 -1.7249 -1.4039
  259MPD2     N 3982   0.503   1.918  17.635  0.7654  0.2579  0.0881
  259MPD2    H5 3983   0.599   1.885  17.627  0.6580 -0.3736  1.5171
  259MPD2    N1 3984   0.541   1.798   0.359  0.0274  0.1415 -0.0150
  259MPD2    H7 3985   0.486   1.772   0.441  0.7885  4.2086  1.7780
  260TMC3    C1 3986   0.519   1.943  17.397 -0.5929  0.1295  0.0731
  260TMC3    C2 3987   0.628   2.026  17.414 -0.5510  0.6336 -0.0447
  260TMC3    C3 3988   0.740   1.986  17.342 -0.1099 -0.0941 -0.1888
  260TMC3    C4 3989   0.528   1.821  17.334  0.3235 -0.0269  0.0577
  260TMC3    C5 3990   0.644   1.788  17.273  0.2065 -1.1757 -0.8212
  260TMC3    C6 3991   0.754   1.871  17.268 -0.2608 -0.4963  0.2858
  260TMC3     C 3992   0.435   1.949  17.518 -0.2768  1.1941  0.1889
  260TMC3     O 3993   0.314   1.947  17.495 -0.3126  0.1880  0.8964
  260TMC3     H 3994   0.630   2.123  17.462  1.0269  0.6330 -0.1325
  260TMC3    H1 3995   0.437   1.763  17.325 -1.3177  2.5892 -0.2416
  260TMC3    H2 3996   0.840   1.834  17.213  0.5279  0.9531  0.5447
  260TMC3    C7 3997   0.668   1.648  17.230 -0.2374 -0.4117 -0.4492
  260TMC3    C8 3998   0.862   2.047  17.382 -0.1627  0.0194  0.3558
  260TMC3    O1 3999   0.765   1.627  17.161  0.2692 -0.3832  0.4507
  260TMC3    O2 4000   0.856   2.165  17.420  0.1879  0.0010 -0.2232
  261MPD2     C 4001   2.616   4.210  12.431 -0.8294  0.0446  0.1827
  261MPD2    C1 4002   2.733   4.244  12.374 -0.0857  0.1541  0.0139
  261MPD2    C2 4003   2.749   4.370  12.323 -0.3580  0.2288 -0.4553
  261MPD2    C3 4004   2.647   4.463  12.326 -0.8365  0.8354  1.1571
  261MPD2    C4 4005   2.525   4.432  12.375 -0.1298  0.3495  1.0355
  261MPD2    C5 4006   2.516   4.306  12.427 -0.0665 -0.0645 -0.1152
  261MPD2     H 4007   2.843   4.414  12.292  0.0358  0.0740  0.5054
  261MPD2    H1 4008   2.436   4.493  12.381 -1.2534 -1.2578  0.6498
  261MPD2    H2 4009   2.605   4.115  12.484 -2.4972 -0.1470 -0.5339
  261MPD2    H3 4010   2.424   4.280  12.478 -0.5053 -0.0359 -0.8996
  261MPD2     N 4011   2.677   4.595  12.275  0.5500  0.2646 -0.3313
  261MPD2    H5 4012   2.760   4.605  12.218 -0.1434 -0.4287 -1.4918
  261MPD2    N1 4013   2.835   4.154  12.390 -0.4030 -0.4236 -0.2211
  261MPD2    H7 4014   2.929   4.190  12.379 -0.3762 -0.6988 -0.9179
  262TMC3    C1 4015   2.608   0.073  12.183  0.1174  0.6078  0.6691
  262TMC3    C2 4016   2.527   0.178  12.204  0.8198  0.1766  0.2001
  262TMC3    C3 4017   2.515   0.271  12.106  0.6307 -0.4879  0.3182
  262TMC3    C4 4018   2.680   0.064  12.069 -0.7020 -0.1028 -0.3672
  262TMC3    C5 4019   2.673   0.160  11.971 -0.1649 -0.2981 -0.3222
  262TMC3    C6 4020   2.596   0.274  11.999 -0.3210 -0.5249 -0.7781
  262TMC3     C 4021   2.583   4.700  12.268 -0.2088  0.2866  0.1443
  262TMC3     O 4022   2.478   4.713  12.331  1.0012  0.4057  0.2582
  262TMC3     H 4023   2.466   0.184  12.294  0.9018  0.2065  0.2532
  262TMC3    H1 4024   2.741   4.714  12.048 -1.3599 -0.8416  0.7732
  262TMC3    H2 4025   2.582   0.359  11.934  2.4839  0.7290  0.2542
  262TMC3    C7 4026   2.740   0.144  11.849 -0.5060  0.1349  0.8276
  262TMC3    C8 4027   2.427   0.390  12.115 -0.0463  0.1341 -0.6771
  262TMC3    O1 4028   2.799   0.042  11.820  0.1093  0.1135 -0.4024
  262TMC3    O2 4029   2.444   0.487  12.042  0.0650 -0.3614  0.1122
  263MPD2     C 4030   3.210   3.645  11.612  0.0324 -0.4185  0.1206
  263MPD2    C1 4031   3.318   3.711  11.554 -0.0669 -0.3713 -0.8153
  263MPD2    C2 4032   3.295   3.780  11.438 -0.3585  0.0347 -0.4874
  263MPD2    C3 4033   3.172   3.783  11.380 -0.2253 -0.0129 -0.1879
  263MPD2    C4 4034   3.069   3.710  11.433  0.8070  0.8958  0.6085
  263MPD2    C5 4035   3.085   3.641  11.550  0.1102  0.0208 -0.3085
  263MPD2     H 4036   3.375   3.831  11.386  0.8979 -1.1693  0.2497
  263MPD2    H1 4037   2.972   3.691  11.388  1.6904 -0.3889 -0.7750
  263MPD2    H2 4038   3.226   3.595  11.706  1.0103 -1.1060 -0.4085
  263MPD2    H3 4039   3.003   3.596  11.604 -1.6714  1.6029 -1.6798
  263MPD2     N 4040   3.149   3.861  11.259 -0.0937 -0.6700 -0.7300
  263MPD2    H5 4041   3.231   3.912  11.226 -0.4029 -0.7882 -1.6724
  263MPD2    N1 4042   3.446   3.683  11.605 -0.0101 -0.0511 -0.2094
  263MPD2    H7 4043   3.452   3.627  11.690  0.9349  1.1458  0.5158
  264TMC3    C1 4044   3.049   3.961  11.083 -0.3514 -0.1229 -0.0446
  264TMC3    C2 4045   3.086   4.083  11.127 -0.2342  0.2855 -0.1448
  264TMC3    C3 4046   3.146   4.173  11.047  0.1048  0.6755 -0.7452
  264TMC3    C4 4047   3.081   3.922  10.954 -0.2313 -0.7270  0.7041
  264TMC3    C5 4048   3.149   4.012  10.881 -0.3628 -0.0487  0.3641
  264TMC3    C6 4049   3.183   4.136  10.925  0.4805  0.6156  0.1896
  264TMC3     C 4050   3.042   3.853  11.181  0.3963 -0.4031  0.2354
  264TMC3     O 4051   2.952   3.773  11.179 -0.0002 -0.1309  0.5762
  264TMC3     H 4052   3.075   4.092  11.235 -2.0963 -1.9193 -0.1487
  264TMC3    H1 4053   3.066   3.820  10.920  0.5869 -0.2020 -1.2645
  264TMC3    H2 4054   3.226   4.205  10.853  1.8205 -0.4147 -0.0014
  264TMC3    C7 4055   3.198   3.987  10.747 -0.0275 -0.1678 -0.5076
  264TMC3    C8 4056   3.210   4.300  11.092 -0.3312 -0.4461  0.5162
  264TMC3    O1 4057   3.294   4.053  10.711  0.9539  0.5820 -0.0424
  264TMC3    O2 4058   3.317   4.332  11.044  0.1037 -0.0204  0.4981
  265MPD2     C 4059   0.927   4.346  15.587  0.1422  0.0473 -0.9432
  265MPD2    C1 4060   0.880   4.418  15.483 -0.6879  0.0574  0.1982
  265MPD2    C2 4061   0.884   4.367  15.354 -0.0697 -0.8432  0.2537
  265MPD2    C3 4062   0.935   4.242  15.334 -0.9477 -0.3480  0.3110
  265MPD2    C4 4063   0.981   4.162  15.435  0.2390 -0.2681  0.5599
  265MPD2    C5 4064   0.981   4.218  15.562 -0.4641  0.6856  0.6154
  265MPD2     H 4065   0.845   4.420  15.268 -0.2295 -1.6792 -0.1844
  265MPD2    H1 4066   1.017   4.060  15.434 -1.8318 -1.0209  3.6893
  265MPD2    H2 4067   0.914   4.389  15.686  0.7362 -0.4315 -0.6574
  265MPD2    H3 4068   1.023   4.160  15.643 -0.3596 -1.2979 -0.8427
  265MPD2     N 4069   0.942   4.182  15.206 -0.0255  0.2976 -0.5707
  265MPD2    H5 4070   0.971   4.086  15.188 -2.5675 -0.3346 -1.3557
  265MPD2    N1 4071   0.837   4.551  15.484  0.8473  0.3091 -0.4767
  265MPD2    H7 4072   0.781   4.577  15.404  0.2193  0.4292  0.0001
  266TMC3    C1 4073   0.782   0.025  15.571 -0.3581 -0.2511 -0.6825
  266TMC3    C2 4074   0.796   0.118  15.672  0.1831  0.1948 -0.1023
  266TMC3    C3 4075   0.747   0.241  15.653 -0.4058  0.1271  0.0209
  266TMC3    C4 4076   0.733   0.060  15.443 -0.1098 -0.8377  0.0334
  266TMC3    C5 4077   0.699   0.191  15.426 -0.1171 -0.8765  0.4800
  266TMC3    C6 4078   0.703   0.277  15.531 -0.0487 -0.2531  0.0346
  266TMC3     C 4079   0.835   4.632  15.592  0.4629 -0.4290 -0.4146
  266TMC3     O 4080   0.856   4.602  15.708 -0.7385  0.3399 -0.3433
  266TMC3     H 4081   0.847   0.091  15.764  3.3004  1.3959 -1.4728
  266TMC3    H1 4082   0.738   4.728  15.360 -1.0687  0.0469 -0.7711
  266TMC3    H2 4083   0.662   0.378  15.531  0.9459  0.1439 -0.2657
  266TMC3    C7 4084   0.645   0.228  15.292  0.1498  0.3843  0.4371
  266TMC3    C8 4085   0.822   0.340  15.731  0.1648  0.0552 -0.4510
  266TMC3    O1 4086   0.627   0.136  15.214 -0.1454  0.5626 -0.5807
  266TMC3    O2 4087   0.905   0.297  15.808  0.0437 -0.6246 -0.2556
  267MPD2     C 4088   3.131   2.036  17.620 -0.1675  0.2454 -0.4679
  267MPD2    C1 4089   3.159   1.967  17.500  0.0615 -0.2422  0.3318
  267MPD2    C2 4090   3.068   1.983  17.392 -0.3817  0.5953  0.2950
  267MPD2    C3 4091   2.963   2.069  17.401  0.2621 -0.0253  0.0830
  267MPD2    C4 4092   2.936   2.125  17.524 -0.0129  0.3558 -0.1104
  267MPD2    C5 4093   3.025   2.114  17.626  0.6610 -0.0070  0.6305
  267MPD2     H 4094   3.088   1.934  17.297  0.4325  0.1092  0.7127
  267MPD2    H1 4095   2.852   2.189  17.551 -0.1121  0.8867 -1.6606
  267MPD2    H2 4096   3.191   2.023  17.710 -1.4135 -1.5887  0.0886
  267MPD2    H3 4097   3.001   2.171  17.715  0.6637  1.9182 -0.6093
  267MPD2     N 4098   2.859   2.090  17.304 -0.5850  0.5810 -0.1735
  267MPD2    H5 4099   2.777   2.144  17.330 -3.1538 -2.8556 -1.0937
  267MPD2    N1 4100   3.283   1.891  17.490 -0.3415  0.0581 -0.0819
  267MPD2    H7 4101   3.333   1.873  17.576 -0.6371  0.2344  0.1261
  268TMC3    C1 4102   3.430   1.744  17.391 -0.0134  0.2093  0.3374
  268TMC3    C2 4103   3.530   1.756  17.300 -0.3990 -0.6010 -0.2587
  268TMC3    C3 4104   3.625   1.661  17.327  0.0641 -0.3009  0.0032
  268TMC3    C4 4105   3.417   1.653  17.497 -0.3889  0.3103 -0.0176
  268TMC3    C5 4106   3.519   1.560  17.508  0.1377  0.0645 -0.4178
  268TMC3    C6 4107   3.628   1.574  17.427  0.5917  0.3963  0.3781
  268TMC3     C 4108   3.324   1.832  17.373 -0.3277  0.1393  0.1875
  268TMC3     O 4109   3.297   1.854  17.254 -0.0505  0.0510  0.3465
  268TMC3     H 4110   3.530   1.832  17.223 -0.8944 -1.8102 -1.4632
  268TMC3    H1 4111   3.327   1.648  17.558  0.0512 -0.4974  0.5637
  268TMC3    H2 4112   3.718   1.514  17.438  1.3097  1.2512 -0.7454
  268TMC3    C7 4113   3.549   1.497  17.637  0.3072  0.1159  0.0161
  268TMC3    C8 4114   3.749   1.700  17.273  0.2007  0.6457  0.2096
  268TMC3    O1 4115   3.631   1.409  17.648 -0.0564 -0.6916 -0.0088
  268TMC3    O2 4116   3.848   1.706  17.342  0.1975  0.4224 -0.0629
  269MPD2     C 4117   3.127   0.291  15.229  0.0007  0.3045  0.0940
  269MPD2    C1 4118   3.057   0.328  15.343 -0.5448  0.5659  0.0915
  269MPD2    C2 4119   3.017   0.458  15.367  0.1784  0.8053 -0.3186
  269MPD2    C3 4120   3.075   0.559  15.290 -0.4380 -0.7200  0.2399
  269MPD2    C4 4121   3.127   0.520  15.170  0.0409 -0.6129 -0.3238
  269MPD2    C5 4122   3.159   0.391  15.144  0.3447 -0.6609 -0.3012
  269MPD2     H 4123   2.951   0.481  15.450 -0.1117 -0.1409 -0.2924
  269MPD2    H1 4124   3.153   0.581  15.085 -0.2518  0.3076  0.2459
  269MPD2    H2 4125   3.155   0.191  15.197 -0.2863  0.0720  0.5803
  269MPD2    H3 4126   3.202   0.366  15.048  1.7170  2.9247 -0.6188
  269MPD2     N 4127   3.039   0.692  15.320  0.3446 -0.5978  0.1942
  269MPD2    H5 4128   2.978   0.709  15.399  0.5138 -1.6025  0.5371
  269MPD2    N1 4129   3.017   0.219  15.426 -0.1684 -0.7078 -0.1640
  269MPD2    H7 4130   3.031   0.123  15.397  0.1451 -0.7118  0.0085
  270TMC3    C1 4131   2.916   0.089  15.587  0.8985 -0.2281  0.4582
  270TMC3    C2 4132   2.787   0.052  15.608  0.1128 -0.2410 -0.6373
  270TMC3    C3 4133   2.752   4.664  15.632  0.3460 -0.0533  0.3954
  270TMC3    C4 4134   3.018   4.733  15.584  0.4472  1.3888 -0.3241
  270TMC3    C5 4135   2.979   4.601  15.618  0.6333 -0.5565 -0.4262
  270TMC3    C6 4136   2.847   4.569  15.652 -0.2873  0.0128  0.3755
  270TMC3     C 4137   2.939   0.224  15.542 -0.1159  0.3019 -0.1776
  270TMC3     O 4138   2.886   0.322  15.602  0.3039 -0.2159 -0.2669
  270TMC3     H 4139   2.715   0.132  15.594  0.9582  0.2231 -2.4442
  270TMC3    H1 4140   3.123   0.021  15.569  0.5095  1.8779  1.0261
  270TMC3    H2 4141   2.830   4.466  15.681 -1.7798  0.1878  0.1117
  270TMC3    C7 4142   3.041   4.509  15.521 -0.3207  0.5259  0.9859
  270TMC3    C8 4143   2.656   4.609  15.535  0.0978  0.5151 -0.0098
  270TMC3    O1 4144   3.156   4.538  15.490  0.6398 -0.2874 -0.1298
  270TMC3    O2 4145   2.671   4.489  15.514  0.0129  0.6748 -0.2593
  271MPD2     C 4146   2.204   4.388  13.708  0.3291  0.0146 -0.1152
  271MPD2    C1 4147   2.157   4.473  13.804 -0.3315  0.1614  0.1211
  271MPD2    C2 4148   2.080   4.583  13.764  0.0244 -0.1546 -0.3297
  271MPD2    C3 4149   2.043   4.607  13.632 -0.1182  0.5706  0.0286
  271MPD2    C4 4150   2.102   4.527  13.539 -0.1011 -0.2053 -0.3384
  271MPD2    C5 4151   2.184   4.417  13.582 -0.0469 -0.3234 -0.1297
  271MPD2     H 4152   2.033   4.635  13.847 -1.0704 -0.3389 -0.8242
  271MPD2    H1 4153   2.081   4.542  13.434  0.5158 -1.4191 -0.6337
  271MPD2    H2 4154   2.263   4.299  13.727  1.3917  0.5642 -0.8386
  271MPD2    H3 4155   2.215   4.354  13.500  1.9713  1.2342 -0.5706
  271MPD2     N 4156   1.939   4.702  13.601 -0.2521 -0.6660  0.5528
  271MPD2    H5 4157   1.912   4.705  13.503 -0.8165 -0.2880  0.7164
  271MPD2    N1 4158   2.169   4.450  13.940  0.1618 -0.0004  0.5154
  271MPD2    H7 4159   2.138   4.527  13.998  0.2294  1.2579 -1.1184
  272TMC3    C1 4160   2.225   4.317  14.136  0.2309  0.5348  0.4724
  272TMC3    C2 4161   2.329   4.249  14.187  0.7179  0.2246  0.5821
  272TMC3    C3 4162   2.382   4.256  14.314  0.2812 -0.1502 -0.1991
  272TMC3    C4 4163   2.159   4.402  14.224  0.1139 -0.1120  0.4453
  272TMC3    C5 4164   2.216   4.420  14.346 -0.1235 -0.2130  0.2900
  272TMC3    C6 4165   2.331   4.356  14.395 -0.2186  0.2484 -0.1646
  272TMC3     C 4166   2.227   4.331  13.993 -0.0902  0.3356 -0.1741
  272TMC3     O 4167   2.282   4.236  13.942 -0.1116  0.4337  0.4118
  272TMC3     H 4168   2.391   4.185  14.125  0.8918  1.0487 -0.1022
  272TMC3    H1 4169   2.079   4.466  14.189  1.5625  1.2002 -0.5167
  272TMC3    H2 4170   2.374   4.374  14.493 -2.4107 -0.3430  0.9053
  272TMC3    C7 4171   2.152   4.522  14.427 -0.0800 -0.3514  0.2744
  272TMC3    C8 4172   2.528   4.252  14.301 -0.6214 -0.3892 -0.0248
  272TMC3    O1 4173   2.036   4.538  14.410  0.1486 -0.1612  0.0484
  272TMC3    O2 4174   2.571   4.300  14.193  0.5013 -0.0151 -0.2502
  273MPD2     C 4175   3.681   3.333  11.945 -0.7896  0.6951  0.3180
  273MPD2    C1 4176   3.817   3.339  11.912  0.9762 -0.5631 -0.3996
  273MPD2    C2 4177   3.860   3.296  11.787  0.5307  0.4990 -0.0789
  273MPD2    C3 4178   3.765   3.266  11.687 -0.3477  0.8219  0.0232
  273MPD2    C4 4179   3.630   3.279  11.719 -0.0739  0.7774  0.5792
  273MPD2    C5 4180   3.595   3.303  11.850 -0.4176  0.1175 -0.0689
  273MPD2     H 4181   3.966   3.283  11.768  0.1653  0.5096 -2.1033
  273MPD2    H1 4182   3.558   3.251  11.644  0.6313 -1.3885  0.7054
  273MPD2    H2 4183   3.654   3.352  12.048  0.6872 -1.5575  1.1246
  273MPD2    H3 4184   3.488   3.309  11.869 -0.4806 -2.5154  0.3978
  273MPD2     N 4185   3.800   3.219  11.561  0.3145  0.1143  0.0023
  273MPD2    H5 4186   3.738   3.239  11.484  0.9509  3.0340  0.2227
  273MPD2    N1 4187   3.913   3.374  12.018  0.2440  0.3888  0.8102
  273MPD2    H7 4188   3.881   3.400  12.111 -1.2494  1.7125 -0.0797
  274TMC3    C1 4189   3.936   3.151  11.385  0.3240  0.5518  0.9528
  274TMC3    C2 4190   3.847   3.191  11.290 -0.6885 -1.1764  0.1975
  274TMC3    C3 4191   3.890   3.207  11.160  0.2216  0.4686  0.6104
  274TMC3    C4 4192   4.066   3.124  11.349  0.1604  0.2843  0.3384
  274TMC3    C5 4193   4.103   3.159  11.220  0.3106  0.0805  0.2140
  274TMC3    C6 4194   4.019   3.191  11.116 -0.2326  0.0006 -0.5689
  274TMC3     C 4195   3.922   3.179  11.527 -0.1051 -0.4844 -0.4247
  274TMC3     O 4196   4.018   3.152  11.598  0.0012 -0.8037  0.3116
  274TMC3     H 4197   3.744   3.214  11.314 -0.1134  1.5504  0.0826
  274TMC3    H1 4198   4.135   3.080  11.419 -1.0774 -1.7645  0.2676
  274TMC3    H2 4199   4.064   3.240  11.030 -0.7059 -0.8114 -1.2790
  274TMC3    C7 4200   4.240   3.160  11.182 -0.1170 -0.4759  0.0963
  274TMC3    C8 4201   3.790   3.213  11.050 -0.0499 -0.2826 -0.9929
  274TMC3    O1 4202   4.268   3.119  11.075 -0.4121  0.1133 -0.0321
  274TMC3    O2 4203   3.676   3.233  11.084 -0.3243  0.3515 -0.0144
  275MPD2     C 4204   3.737   0.913  14.252  0.8796 -0.0733  0.9128
  275MPD2    C1 4205   3.753   0.783  14.283 -0.1262 -0.6293  0.2518
  275MPD2    C2 4206   3.641   0.706  14.298 -0.6037 -0.6111 -0.6233
  275MPD2    C3 4207   3.509   0.749  14.263 -0.4022 -0.8256 -0.1470
  275MPD2    C4 4208   3.506   0.876  14.210  0.0499 -0.3036  0.7107
  275MPD2    C5 4209   3.615   0.954  14.204  0.4311  0.9131 -0.2519
  275MPD2     H 4210   3.654   0.608  14.341 -1.6774 -1.1914 -1.6399
  275MPD2    H1 4211   3.408   0.918  14.189  0.3023  0.5782  1.3051
  275MPD2    H2 4212   3.815   0.987  14.239  0.9724 -0.4734 -0.7899
  275MPD2    H3 4213   3.625   1.051  14.156 -1.3432  1.7287  1.0445
  275MPD2     N 4214   3.385   0.678  14.271  0.3807 -0.5756 -0.6555
  275MPD2    H5 4215   3.306   0.720  14.222  0.6716 -0.7799 -1.2996
  275MPD2    N1 4216   3.878   0.724  14.310 -0.4362 -0.3580 -0.3119
  275MPD2    H7 4217   3.877   0.635  14.359 -0.3715  0.0132  0.3657
  276TMC3    C1 4218   4.108   0.726  14.362 -0.1064 -0.7948 -0.0777
  276TMC3    C2 4219   4.108   0.593  14.400 -0.0284 -0.1276 -0.2039
  276TMC3    C3 4220   4.223   0.541  14.451  0.0976 -0.0466 -1.0267
  276TMC3    C4 4221   4.221   0.805  14.381  0.3844 -0.8884  0.4128
  276TMC3    C5 4222   4.330   0.748  14.441 -0.2918  0.3059  0.5962
  276TMC3    C6 4223   4.330   0.616  14.485  0.2957 -0.4056  0.1674
  276TMC3     C 4224   3.999   0.788  14.289  0.3884 -0.0091 -0.4761
  276TMC3     O 4225   4.026   0.878  14.214 -0.5168 -0.9531 -0.1684
  276TMC3     H 4226   4.032   0.526  14.363 -0.2345  0.7188 -1.3061
  276TMC3    H1 4227   4.203   0.911  14.369 -0.7757 -1.2938 -1.3531
  276TMC3    H2 4228   4.412   0.563  14.531  1.3197  0.2418 -0.8944
  276TMC3    C7 4229   4.423   0.839  14.507 -0.4791  0.7418 -0.5316
  276TMC3    C8 4230   4.203   0.447  14.559  0.6289 -0.3755 -0.0762
  276TMC3    O1 4231   4.434   0.949  14.456  0.3044 -0.0268 -0.6748
  276TMC3    O2 4232   4.270   0.472  14.658  0.3158 -0.3669  0.2372
  277MPD2     C 4233   1.210   4.540  12.815  0.0733  0.1992 -0.2605
  277MPD2    C1 4234   1.075   4.564  12.798  0.4214 -0.7916  0.2831
  277MPD2    C2 4235   0.984   4.514  12.896 -0.4609 -0.1293  0.4785
  277MPD2    C3 4236   1.025   4.457  13.021  1.0219  0.0328  0.7477
  277MPD2    C4 4237   1.161   4.448  13.032 -0.0408 -0.2936 -0.0897
  277MPD2    C5 4238   1.247   4.479  12.934 -0.3733  0.1740  0.2514
  277MPD2     H 4239   0.876   4.521  12.885 -0.2594 -0.2124 -1.7312
  277MPD2    H1 4240   1.198   4.396  13.119 -0.6453 -0.8106 -0.1419
  277MPD2    H2 4241   1.282   4.576  12.742  0.7248 -0.5607  0.0054
  277MPD2    H3 4242   1.352   4.455  12.947 -0.6831 -0.9931  0.5993
  277MPD2     N 4243   0.932   4.436  13.124  0.5651  0.4907 -0.5406
  277MPD2    H5 4244   0.836   4.454  13.098 -0.1667 -3.5568 -0.5207
  277MPD2    N1 4245   1.025   4.637  12.686  0.3285 -0.2593  0.1005
  277MPD2    H7 4246   1.083   4.711  12.649 -1.2678  0.9555  0.0148
  278TMC3    C1 4247   0.843   4.383  13.340 -0.1322  0.3174 -0.2659
  278TMC3    C2 4248   0.875   4.376  13.471  0.0834  0.0343 -0.4492
  278TMC3    C3 4249   0.772   4.372  13.563 -0.1279 -0.2140  0.3440
  278TMC3    C4 4250   0.714   4.387  13.291 -0.5932  0.1468  0.2001
  278TMC3    C5 4251   0.615   4.367  13.384  0.6780  0.0392  0.6338
  278TMC3    C6 4252   0.643   4.356  13.517  0.1611 -0.0845 -0.3025
  278TMC3     C 4253   0.959   4.394  13.254 -0.1595  0.5584 -0.3112
  278TMC3     O 4254   1.066   4.360  13.296  0.1730 -0.5402  0.0578
  278TMC3     H 4255   0.979   4.398  13.490  0.0094 -0.8064  0.9563
  278TMC3    H1 4256   0.692   4.386  13.185  0.8978 -0.3595 -0.1103
  278TMC3    H2 4257   0.559   4.350  13.586  1.6502 -1.5154  1.3810
  278TMC3    C7 4258   0.479   4.377  13.340 -0.2188 -0.3338 -0.4307
  278TMC3    C8 4259   0.806   4.316  13.690  0.2370 -0.1025  0.5400
  278TMC3    O1 4260   0.467   4.433  13.233  0.0920  1.2288 -0.5113
  278TMC3    O2 4261   0.897   4.369  13.749  0.2175 -0.4913  0.5224
  279MPD2     C 4262   0.729   0.014  17.493  0.7284 -0.1270 -0.0894
  279MPD2    C1 4263   0.610   4.715  17.435 -0.1303  0.0759  1.4178
  279MPD2    C2 4264   0.603   4.726  17.298 -0.8584  0.2901 -0.5689
  279MPD2    C3 4265   0.708   0.028  17.221 -0.3759  0.0154  1.0280
  279MPD2    C4 4266   0.831   0.070  17.280  0.2506  0.2859  0.1765
  279MPD2    C5 4267   0.829   0.064  17.418  0.8348  0.3384 -0.1276
  279MPD2     H 4268   0.509   4.697  17.254 -0.9078  1.1405 -1.0174
  279MPD2    H1 4269   0.918   0.111  17.230 -0.6620  0.5700 -1.1676
  279MPD2    H2 4270   0.748   0.022  17.600  0.9723 -0.5334 -0.1005
  279MPD2    H3 4271   0.917   0.094  17.474  0.8210  1.4895 -0.7164
  279MPD2     N 4272   0.702   0.040  17.080  0.6048 -0.4664 -0.4365
  279MPD2    H5 4273   0.786   0.067  17.030  0.2762  3.6988  1.3221
  279MPD2    N1 4274   0.500   4.676  17.515 -0.1334 -0.2174  0.6788
  279MPD2    H7 4275   0.526   4.685  17.613  0.6684 -0.5918  0.5042
  280TMC3    C1 4276   0.277   4.599  17.568  0.0452 -0.1800 -0.2673
  280TMC3    C2 4277   0.188   4.501  17.530  0.5396 -0.2318 -0.5898
  280TMC3    C3 4278   0.056   4.505  17.579 -0.5726 -0.2060 -0.6361
  280TMC3    C4 4279   0.235   4.700  17.655  0.0381 -0.6228  0.4556
  280TMC3    C5 4280   0.098   4.716  17.670 -0.1137 -0.4949 -0.0906
  280TMC3    C6 4281   0.007   4.618  17.634  0.3027 -0.1382  0.3437
  280TMC3     C 4282   0.378   4.627  17.470 -0.3496 -0.1043 -0.0099
  280TMC3     O 4283   0.336   4.612  17.358  0.5121  0.2982  0.6703
  280TMC3     H 4284   0.226   4.417  17.474 -4.2087 -2.2176 -0.8461
  280TMC3    H1 4285   0.302   0.041  17.686 -0.1198  0.4305 -1.8865
  280TMC3    H2 4286   4.638   4.623  17.653  0.3867 -1.0359  1.0280
  280TMC3    C7 4287   0.042   0.103  17.715 -0.2926 -0.0584  0.0575
  280TMC3    C8 4288   4.698   4.394  17.557  0.2838 -0.3588  0.0670
  280TMC3    O1 4289   0.115   0.173   0.039  0.1448  0.0641  0.3915
  280TMC3    O2 4290   4.610   4.381  17.637 -0.4757 -0.0322 -0.2043
  281TMC3    C1 4291   3.975   4.602  13.567 -0.6427 -0.0011  0.8958
  281TMC3    C2 4292   4.072   4.635  13.475  0.2976 -0.2402  0.2633
  281TMC3    C3 4293   4.146   4.533  13.413  0.0966  0.4129  0.3928
  281TMC3    C4 4294   3.934   4.476  13.591  0.4903  0.2361  0.3087
  281TMC3    C5 4295   3.998   4.373  13.516 -0.0463  0.4569 -0.3499
  281TMC3    C6 4296   4.104   4.398  13.433 -0.1207  0.6669  0.4404
  281TMC3     C 4297   3.892   4.713  13.617 -0.2982  0.2943  0.4394
  281TMC3     O 4298   3.841   4.694  13.729  0.5724  0.1528  0.2559
  281TMC3     H 4299   4.092   0.003  13.469 -0.3536 -0.1976 -1.2348
  281TMC3    H1 4300   3.858   4.449  13.663  0.1328 -0.0039 -0.1610
  281TMC3    H2 4301   4.151   4.312  13.386 -2.4485 -0.1530 -0.3954
  281TMC3    C7 4302   3.917   4.254  13.481  0.6098  0.3121  0.5027
  281TMC3    C8 4303   4.228   4.562  13.299 -0.2088  0.3726 -0.2089
  281TMC3    O1 4304   3.959   4.170  13.399  0.2298  0.5059  0.6750
  281TMC3    O2 4305   4.316   4.480  13.276 -0.8772  0.2704 -0.2137
  282MPD2     C 4306   0.912   1.388  14.670 -0.4197 -0.3021 -0.3663
  282MPD2    C1 4307   0.794   1.459  14.670  0.1377 -0.5298 -0.5336
  282MPD2    C2 4308   0.742   1.501  14.549  0.4931  0.1274  0.0538
  282MPD2    C3 4309   0.805   1.479  14.424  0.1136 -0.0450  0.5704
  282MPD2    C4 4310   0.926   1.407  14.428 -0.5564  0.8565 -0.1188
  282MPD2    C5 4311   0.971   1.362  14.548 -0.0056  0.0097  0.2549
  282MPD2     H 4312   0.642   1.542  14.542 -0.3317 -1.7250  0.8191
  282MPD2    H1 4313   0.980   1.386  14.337  0.2518  1.1004  0.3087
  282MPD2    H2 4314   0.951   1.336  14.757 -0.5491 -0.8772 -0.6542
  282MPD2    H3 4315   1.053   1.291  14.552 -2.7713 -3.1081  1.2711
  282MPD2     N 4316   0.753   1.532  14.304  0.1803  0.6024 -0.4976
  282MPD2    H5 4317   0.682   1.605  14.304  1.1539  1.5501  1.0458
  282MPD2    N1 4318   0.720   1.484  14.788  0.3571  0.0109  0.6650
  282MPD2    H7 4319   0.637   1.540  14.770  0.8016 -0.3656 -2.5176
  283TMC3    C1 4320   0.678   1.534  15.019 -0.5923 -0.1089 -0.3340
  283TMC3    C2 4321   0.735   1.593  15.132  0.3583  0.2543 -0.0481
  283TMC3    C3 4322   0.667   1.596  15.246 -0.4931  0.1540 -0.2530
  283TMC3    C4 4323   0.552   1.478  15.029  0.3404  0.8169 -0.0568
  283TMC3    C5 4324   0.486   1.480  15.155  0.3022 -0.9241  0.7560
  283TMC3    C6 4325   0.541   1.547  15.260 -0.1029  0.8496  0.0456
  283TMC3     C 4326   0.770   1.479  14.919 -0.4185  0.1133  0.1730
  283TMC3     O 4327   0.878   1.435  14.955 -0.0103  0.6352 -0.2709
  283TMC3     H 4328   0.835   1.634  15.124 -0.4821  2.2253 -0.5338
  283TMC3    H1 4329   0.516   1.414  14.950  1.2848 -1.7188  1.5653
  283TMC3    H2 4330   0.488   1.567  15.352 -0.9422 -2.3013  0.2504
  283TMC3    C7 4331   0.387   1.383  15.194 -0.1587  0.0891  0.8609
  283TMC3    C8 4332   0.691   1.709  15.334  0.5200  0.4492  0.6967
  283TMC3    O1 4333   0.327   1.401  15.297 -0.2594 -0.2932  0.3149
  283TMC3    O2 4334   0.658   1.709  15.449 -0.4048 -0.1477 -0.1205
  284MPD2     C 4335   2.999   1.007  12.011 -0.2971  0.1961 -0.2046
  284MPD2    C1 4336   3.115   0.938  11.977  0.0418 -0.1693 -0.4459
  284MPD2    C2 4337   3.163   0.848  12.070 -0.1792 -0.0211  0.2027
  284MPD2    C3 4338   3.087   0.804  12.181 -0.3156  0.5187  0.4165
  284MPD2    C4 4339   2.978   0.881  12.211  0.0013  0.2797 -0.6494
  284MPD2    C5 4340   2.929   0.976  12.127 -0.6481  0.0111 -0.5914
  284MPD2     H 4341   3.258   0.801  12.048  0.0289  1.9520 -3.1514
  284MPD2    H1 4342   2.932   0.869  12.308  1.7737 -0.1340  0.1281
  284MPD2    H2 4343   2.949   1.078  11.946 -0.8325  1.8975  2.0648
  284MPD2    H3 4344   2.841   1.035  12.147 -1.7170 -1.4339 -1.0194
  284MPD2     N 4345   3.124   0.701  12.272 -0.2595 -0.1321  0.0396
  284MPD2    H5 4346   3.075   0.694  12.361 -0.6026  1.1452 -0.0425
  284MPD2    N1 4347   3.203   0.963  11.873  0.3145 -0.4733 -0.0182
  284MPD2    H7 4348   3.293   0.917  11.875  0.2896 -0.5532 -0.9837
  285TMC3    C1 4349   3.314   1.063  11.687 -0.2056 -0.9752 -0.0526
  285TMC3    C2 4350   3.384   0.947  11.672  0.1540 -0.3073  0.0568
  285TMC3    C3 4351   3.519   0.954  11.657  0.0703 -0.7244  0.0197
  285TMC3    C4 4352   3.366   1.184  11.652 -0.4644  0.3461 -0.3807
  285TMC3    C5 4353   3.502   1.185  11.648 -0.3443  0.3587  0.7361
  285TMC3    C6 4354   3.570   1.071  11.647  0.2244 -0.2535 -0.7618
  285TMC3     C 4355   3.205   1.070  11.787 -0.4510 -0.1827 -0.4859
  285TMC3     O 4356   3.131   1.164  11.782 -0.2090 -0.1540  0.2074
  285TMC3     H 4357   3.337   0.850  11.679 -0.1812 -0.2787 -1.7849
  285TMC3    H1 4358   3.299   1.269  11.652  0.5290  1.1121 -0.9085
  285TMC3    H2 4359   3.677   1.080  11.633  0.5608 -0.7141  1.5537
  285TMC3    C7 4360   3.556   1.310  11.676 -0.4968  0.1704  0.0747
  285TMC3    C8 4361   3.586   0.828  11.614  0.7787 -0.0314 -0.3129
  285TMC3    O1 4362   3.481   1.407  11.683  0.1524  0.2810  0.3132
  285TMC3    O2 4363   3.522   0.751  11.550 -0.4248 -0.6464 -0.2435
  286MPD2     C 4364   4.311   0.106   1.265  0.6844  0.0519 -0.5294
  286MPD2    C1 4365   4.298   0.082   1.131 -0.2403 -0.1022 -0.4800
  286MPD2    C2 4366   4.396   0.010   1.065 -0.7278  0.3137 -0.6245
  286MPD2    C3 4367   4.508   4.703   1.134  0.0477  0.2535  0.1810
  286MPD2    C4 4368   4.515   4.719   1.270  0.0595  0.3431 -0.2841
  286MPD2    C5 4369   4.416   0.060   1.333  0.5528 -0.5654  0.1912
  286MPD2     H 4370   4.399   0.005   0.957 -1.5105  1.5468 -0.6981
  286MPD2    H1 4371   4.603   4.681   1.321 -1.8912 -0.0955  2.7300
  286MPD2    H2 4372   4.250   0.178   1.318  2.2633  0.2342  1.0469
  286MPD2    H3 4373   4.435   0.089   1.436 -0.7637  1.0804 -0.0076
  286MPD2     N 4374   4.617   4.633   1.066  0.1122  0.8377  0.0344
  286MPD2    H5 4375   4.702   4.634   1.120  0.0441 -0.0744  0.1594
  286MPD2    N1 4376   4.198   0.140   1.051  0.2122  0.2313 -0.1415
  286MPD2    H7 4377   4.203   0.134   0.950 -0.5166  1.1274 -0.2362
  287TMC3    C1 4378   4.732   4.517   0.885 -0.6620  0.3149 -0.5130
  287TMC3    C2 4379   4.722   4.474   0.761  1.1893  0.0754 -0.5104
  287TMC3    C3 4380   0.071   4.388   0.712 -0.2687 -0.5738  0.5198
  287TMC3    C4 4381   0.088   4.463   0.967  0.2517 -0.4370 -0.2303
  287TMC3    C5 4382   0.172   4.368   0.928 -0.5655 -0.1848  0.0440
  287TMC3    C6 4383   0.167   4.329   0.793 -0.3245  0.4626 -0.0090
  287TMC3     C 4384   4.608   4.578   0.937  0.3064  0.2594 -0.0357
  287TMC3     O 4385   4.506   4.548   0.872  0.2280 -0.4908  0.5995
  287TMC3     H 4386   4.656   4.534   0.699  0.2267  0.9876  1.3812
  287TMC3    H1 4387   0.095   4.496   1.069 -0.1420  1.3997 -0.7993
  287TMC3    H2 4388   0.227   4.247   0.755 -1.4228 -0.2884 -0.1249
  287TMC3    C7 4389   0.299   4.354   0.987  0.1344  0.6076  0.1616
  287TMC3    C8 4390   0.032   4.324   0.588  0.1685 -0.2302 -0.2555
  287TMC3    O1 4391   0.338   4.443   1.063 -0.2697  0.0817 -0.1853
  287TMC3    O2 4392   4.653   4.332   0.548 -0.4372 -0.0240  0.0528
  288TMC3    C1 4393   1.318   4.286  14.048 -0.3958  0.6111 -0.8645
  288TMC3    C2 4394   1.195   4.288  14.115  0.3882  0.0088 -0.8345
  288TMC3    C3 4395   1.090   4.359  14.060  0.2904  0.3137  0.4818
  288TMC3    C4 4396   1.341   4.366  13.938 -0.3905  0.2392 -0.8513
  288TMC3    C5 4397   1.234   4.431  13.892  0.1826 -0.4812  0.7094
  288TMC3    C6 4398   1.108   4.433  13.950  0.4634 -0.2405 -0.6591
  288TMC3     C 4399   1.417   4.190  14.097 -0.0324  0.4450  0.4364
  288TMC3     O 4400   1.390   4.140  14.209 -0.4114  0.1425  0.5302
  288TMC3     H 4401   1.190   4.241  14.213  0.3730 -1.0089 -1.3293
  288TMC3    H1 4402   1.439   4.398  13.904  0.1179  0.6740  1.0620
  288TMC3    H2 4403   1.028   4.504  13.931  0.9101 -0.0550 -1.8712
  288TMC3    C7 4404   1.247   4.511  13.774 -0.5648  0.7440 -0.1794
  288TMC3    C8 4405   0.993   4.420  14.158 -0.1354 -0.0324  1.0957
  288TMC3    O1 4406   1.353   4.564  13.748  0.2037  0.5505  0.4883
  288TMC3    O2 4407   0.957   4.531  14.139  0.1135  0.0407  0.0144
  289MPD2     C 4408   0.828   3.188  14.605  0.8771 -0.2602  0.0174
  289MPD2    C1 4409   0.827   3.251  14.486 -0.4187  0.7802 -0.0736
  289MPD2    C2 4410   0.709   3.236  14.410 -0.4122  0.1183 -0.2002
  289MPD2    C3 4411   0.609   3.145  14.434  0.1505 -0.5457 -0.2125
  289MPD2    C4 4412   0.623   3.075  14.551  0.6584  0.0822  0.1065
  289MPD2    C5 4413   0.729   3.092  14.635  0.1844 -1.0156  0.2082
  289MPD2     H 4414   0.688   3.288  14.317  0.7694  0.5882 -0.2073
  289MPD2    H1 4415   0.546   3.006  14.584  1.0873 -0.5707 -0.2717
  289MPD2    H2 4416   0.907   3.208  14.677 -1.2587  0.2585  2.1968
  289MPD2    H3 4417   0.747   3.038  14.727  0.6606  0.6308  1.0841
  289MPD2     N 4418   0.480   3.157  14.377 -0.3003  0.0909 -0.9140
  289MPD2    H5 4419   0.419   3.077  14.387 -1.1732  1.1565  2.1774
  289MPD2    N1 4420   0.926   3.353  14.459 -0.8166 -0.0825  1.0204
  289MPD2    H7 4421   0.999   3.363  14.528 -0.7393 -2.4210  1.2655
  290TMC3    C1 4422   0.300   3.266  14.258  0.0465 -0.1195  0.6842
  290TMC3    C2 4423   0.243   3.393  14.241  0.7431 -0.0462 -0.2749
  290TMC3    C3 4424   0.131   3.401  14.163  0.0501 -0.4281 -0.0673
  290TMC3    C4 4425   0.260   3.151  14.192 -0.0847  0.1663  0.4749
  290TMC3    C5 4426   0.145   3.168  14.116  0.0179  0.3403  0.5611
  290TMC3    C6 4427   0.095   3.291  14.092 -1.2783 -0.4483 -0.1408
  290TMC3     C 4428   0.431   3.270  14.315 -0.0243 -0.9915  0.4740
  290TMC3     O 4429   0.486   3.373  14.298  0.1401  0.1963 -0.4975
  290TMC3     H 4430   0.273   3.476  14.304  1.5738 -0.4535 -0.1414
  290TMC3    H1 4431   0.311   3.057  14.205 -0.0193  0.3525  1.5175
  290TMC3    H2 4432   0.001   3.298  14.038  0.4367 -0.5452 -3.1206
  290TMC3    C7 4433   0.114   3.070  14.016  0.0459 -0.3985 -0.2656
  290TMC3    C8 4434   0.076   3.537  14.133 -0.4104  0.0170 -0.0180
  290TMC3    O1 4435   0.053   3.109  13.917  0.3625  0.0940 -0.0813
  290TMC3    O2 4436   4.714   3.534  14.063  0.2565 -0.2598 -0.0418
  291MPD2     C 4437   0.159   3.748  17.699 -0.1794  0.2231 -0.0394
  291MPD2    C1 4438   0.235   3.634  17.712  0.1990  0.2734 -0.0647
  291MPD2    C2 4439   0.376   3.640  17.698 -0.0900  0.5448 -0.3572
  291MPD2    C3 4440   0.434   3.767  17.696 -0.7001  0.0838 -0.1998
  291MPD2    C4 4441   0.355   3.880  17.694  0.1427  0.0509 -0.3529
  291MPD2    C5 4442   0.218   3.873  17.691 -0.5199 -0.4308  0.6079
  291MPD2     H 4443   0.427   3.545  17.706 -0.1459  0.7497  2.2081
  291MPD2    H1 4444   0.393   3.981  17.680  1.1405 -0.0782  1.4542
  291MPD2    H2 4445   0.052   3.736  17.698 -0.4913  3.0420 -0.8017
  291MPD2    H3 4446   0.170   3.968  17.669  0.3243 -0.2914 -0.6784
  291MPD2     N 4447   0.574   3.783  17.703 -0.0368 -0.3400  0.0914
  291MPD2    H5 4448   0.615   3.875  17.688  2.7094 -1.5683  0.1057
  291MPD2    N1 4449   0.164   3.506  17.710  0.1060  0.3563 -0.2619
  291MPD2    H7 4450   0.063   3.506  17.721  0.0503  1.5254 -0.7323
  292TMC3    C1 4451   0.144   3.277  17.726 -0.1843  0.2081  0.1300
  292TMC3    C2 4452   0.063   3.286   0.085  0.3199  0.3067 -0.2950
  292TMC3    C3 4453   4.728   3.170   0.122 -0.2325 -0.5206  0.6326
  292TMC3    C4 4454   0.162   3.163  17.653  0.5800 -0.0713  0.2996
  292TMC3    C5 4455   0.086   3.060  17.689  0.2584  0.0602  0.2781
  292TMC3    C6 4456   0.005   3.056   0.052 -0.3650  0.7684  0.1144
  292TMC3     C 4457   0.228   3.385  17.692  0.6536 -0.0132  0.6662
  292TMC3     O 4458   0.332   3.355  17.633 -0.1749 -0.3475  0.3556
  292TMC3     H 4459   0.060   3.375   0.146 -1.7978  1.3881 -1.9782
  292TMC3    H1 4460   0.208   3.164  17.555 -1.7970  0.8737 -0.8260
  292TMC3    H2 4461   4.696   2.962   0.080 -1.6734  1.4661  0.2620
  292TMC3    C7 4462   0.061   2.961  17.586 -0.4566 -0.0939  0.2492
  292TMC3    C8 4463   4.717   3.158   0.268  0.5741 -0.3235  0.4961
  292TMC3    O1 4464   0.150   2.905  17.525 -0.0992  0.4475 -0.4163
  292TMC3    O2 4465   0.071   3.210   0.329  0.3860 -0.0865 -0.6709
  293MPD2     C 4466   1.779   4.216  12.367 -0.6869 -0.8005 -0.1545
  293MPD2    C1 4467   1.696   4.251  12.472  0.4671  0.2304  0.3825
  293MPD2    C2 4468   1.746   4.271  12.598  0.5865 -0.1671 -0.9363
  293MPD2    C3 4469   1.886   4.263  12.619  0.2891 -0.3199 -0.2785
  293MPD2    C4 4470   1.967   4.245  12.511 -0.1748 -0.4009  0.4033
  293MPD2    C5 4471   1.915   4.210  12.392 -0.2632 -0.3721 -0.3759
  293MPD2     H 4472   1.686   4.293  12.685 -0.8733 -1.0562 -1.7121
  293MPD2    H1 4473   2.075   4.238  12.522 -0.1388  0.5418  0.6598
  293MPD2    H2 4474   1.742   4.195  12.267 -1.3971 -2.4720  0.4665
  293MPD2    H3 4475   1.981   4.197  12.308  0.5272 -1.3511  0.3956
  293MPD2     N 4476   1.929   4.296  12.750  0.3320 -0.0671  0.5840
  293MPD2    H5 4477   1.856   4.294  12.820  0.5361 -0.3302  0.7886
  293MPD2    N1 4478   1.554   4.253  12.446 -0.3840  0.5880  0.3320
  293MPD2    H7 4479   1.524   4.231  12.351 -1.9166  2.0638  0.4756
  294TMC3    C1 4480   1.329   4.288  12.471  0.0024 -0.4288  1.0022
  294TMC3    C2 4481   1.210   4.274  12.538 -0.1889  0.5096 -0.0961
  294TMC3    C3 4482   1.100   4.256  12.459 -0.6949  0.4441 -0.2611
  294TMC3    C4 4483   1.330   4.331  12.343 -0.7233  0.3725 -0.2332
  294TMC3    C5 4484   1.214   4.332  12.271 -0.1639  0.3144  0.0061
  294TMC3    C6 4485   1.097   4.291  12.320 -0.0488  0.2273  0.2054
  294TMC3     C 4486   1.458   4.289  12.537  0.6682  0.1396  0.5266
  294TMC3     O 4487   1.453   4.302  12.659  0.1792 -0.1307 -0.0420
  294TMC3     H 4488   1.210   4.246  12.643  0.6492 -3.4711 -1.1706
  294TMC3    H1 4489   1.421   4.382  12.311 -0.5210  0.2852  0.2002
  294TMC3    H2 4490   1.003   4.280  12.268  1.5000 -1.0241 -2.3176
  294TMC3    C7 4491   1.219   4.391  12.140  0.4188  0.5302 -0.2590
  294TMC3    C8 4492   0.975   4.206  12.514  0.2984  0.2048 -0.2652
  294TMC3    O1 4493   1.127   4.453  12.096  0.4708 -0.0732 -0.0270
  294TMC3    O2 4494   0.945   4.255  12.625 -0.4022 -0.2786  0.8085
  295MPD2     C 4495   2.884   3.744   1.141 -0.1638 -0.5287 -0.5675
  295MPD2    C1 4496   2.769   3.715   1.077 -0.3941  0.1973  0.4250
  295MPD2    C2 4497   2.649   3.727   1.155  0.5641  0.6496  0.0306
  295MPD2    C3 4498   2.654   3.772   1.290  0.6921  0.0241 -0.2272
  295MPD2    C4 4499   2.770   3.813   1.337  0.0670  0.2030 -0.5279
  295MPD2    C5 4500   2.890   3.796   1.266 -0.3067  0.4969  0.1276
  295MPD2     H 4501   2.552   3.714   1.110 -0.9070  2.3433  2.6889
  295MPD2    H1 4502   2.776   3.849   1.439 -0.3898  0.6599 -0.6682
  295MPD2    H2 4503   2.979   3.723   1.092  0.4263 -1.2668  0.8821
  295MPD2    H3 4504   2.988   3.814   1.309 -0.0208 -1.0842  0.1231
  295MPD2     N 4505   2.546   3.779   1.379  0.1541 -0.3794 -0.0045
  295MPD2    H5 4506   2.569   3.810   1.472 -0.9796  2.0832 -0.5439
  295MPD2    N1 4507   2.769   3.667   0.943  0.2873  0.3516  0.1710
  295MPD2    H7 4508   2.677   3.648   0.905  1.1857  1.1571 -2.4211
  296TMC3    C1 4509   2.326   3.780   1.455 -0.5912 -0.2624 -0.1821
  296TMC3    C2 4510   2.351   3.857   1.566 -0.2001  0.4363  0.0538
  296TMC3    C3 4511   2.259   3.851   1.670 -0.1153  0.0142 -0.2663
  296TMC3    C4 4512   2.214   3.699   1.449  0.3265 -0.1795  0.0491
  296TMC3    C5 4513   2.121   3.708   1.549 -0.1066  0.2779  0.9591
  296TMC3    C6 4514   2.142   3.782   1.660 -0.4800 -0.1025  0.3564
  296TMC3     C 4515   2.417   3.766   1.345 -0.0151 -0.4303 -0.6520
  296TMC3     O 4516   2.365   3.743   1.237 -0.1872 -0.0464 -0.3400
  296TMC3     H 4517   2.440   3.919   1.557  0.4139 -0.5666 -0.7304
  296TMC3    H1 4518   2.202   3.636   1.361  2.3849 -1.2436  0.5224
  296TMC3    H2 4519   2.075   3.763   1.744  0.5852  1.5193  1.5795
  296TMC3    C7 4520   2.014   3.613   1.550 -0.1975  0.6096 -0.3514
  296TMC3    C8 4521   2.282   3.934   1.785  0.0869 -0.6739  0.4022
  296TMC3    O1 4522   1.907   3.636   1.601  0.2381  0.5337  0.9429
  296TMC3    O2 4523   2.185   3.959   1.853  0.0865  0.2484 -0.3642
  297MPD2     C 4524   4.527   0.449  16.126  0.4324 -0.6004  0.2724
  297MPD2    C1 4525   4.476   0.485  16.003 -0.3587  0.5472  0.1550
  297MPD2    C2 4526   4.548   0.577  15.922 -0.0177  0.3709  0.7939
  297MPD2    C3 4527   4.660   0.639  15.967 -0.1453  0.0020 -0.8722
  297MPD2    C4 4528   4.703   0.619  16.097  0.2881 -0.2329  0.3128
  297MPD2    C5 4529   4.638   0.520  16.178 -0.0411  0.5854 -0.0474
  297MPD2     H 4530   4.505   0.604  15.827  1.8824 -0.1191 -0.2154
  297MPD2    H1 4531   0.049   0.674  16.138 -0.6692  0.1135  1.8192
  297MPD2    H2 4532   4.487   0.367  16.185  1.8160 -0.9733  0.6862
  297MPD2    H3 4533   4.684   0.487  16.271 -0.0776 -1.6286 -0.8004
  297MPD2     N 4534   4.726   0.738  15.891 -0.4640  0.8571  0.3036
  297MPD2    H5 4535   0.054   0.795  15.943 -0.8468  0.6964  0.9601
  297MPD2    N1 4536   4.361   0.423  15.957 -0.0544  0.1785  0.0912
  297MPD2    H7 4537   4.324   0.449  15.866  2.0107 -1.0988 -1.1255
  298TMC3    C1 4538   4.147   0.327  15.963  0.5024  0.0078 -0.0545
  298TMC3    C2 4539   4.160   0.318  15.827  0.5647  0.1833  0.3485
  298TMC3    C3 4540   4.035   0.323  15.763 -0.6002 -0.3214  0.7730
  298TMC3    C4 4541   4.032   0.343  16.035  0.0128  0.2766 -0.2194
  298TMC3    C5 4542   3.913   0.358  15.968  0.0274  0.1628 -0.0641
  298TMC3    C6 4543   3.912   0.341  15.831 -0.3016  0.3295 -0.2349
  298TMC3     C 4544   4.274   0.356  16.038  0.6889  0.2722  0.1534
  298TMC3     O 4545   4.268   0.342  16.161 -0.3125  0.0496  0.9239
  298TMC3     H 4546   4.256   0.285  15.790 -0.3311  0.3182 -2.0679
  298TMC3    H1 4547   4.044   0.362  16.141  2.0150  0.4281 -0.4757
  298TMC3    H2 4548   3.825   0.354  15.768 -0.3753  1.1622  0.0388
  298TMC3    C7 4549   3.805   0.433  16.037  0.6961  0.0721  0.1798
  298TMC3    C8 4550   4.028   0.281  15.624  0.2411 -0.1748  0.5954
  298TMC3    O1 4551   3.833   0.463  16.153  0.0383  0.1424 -0.1789
  298TMC3    O2 4552   3.928   0.224  15.591  0.8785  0.0544 -0.0918
  299MPD2     C 4553   4.728   4.560  10.595 -0.2576 -0.5857 -0.5057
  299MPD2    C1 4554   4.728   4.690  10.556  0.5477  0.1251 -0.5126
  299MPD2    C2 4555   4.636   4.731  10.458  0.1211  0.1102 -0.3913
  299MPD2    C3 4556   4.552   4.632  10.399  0.2212 -0.2888  0.7234
  299MPD2    C4 4557   4.554   4.504  10.440  0.3725 -0.5885  0.1291
  299MPD2    C5 4558   4.638   4.472  10.543 -0.0439 -0.0732 -0.9462
  299MPD2     H 4559   4.643   0.095  10.422 -0.8304 -0.0121 -0.9144
  299MPD2    H1 4560   4.482   4.428  10.412 -2.6075  2.0978  0.5369
  299MPD2    H2 4561   0.060   4.522  10.669 -0.5435 -0.0065  0.0629
  299MPD2    H3 4562   4.637   4.368  10.572 -0.4742 -0.0680 -0.9406
  299MPD2     N 4563   4.449   4.661  10.305  0.5568  0.1703 -0.6392
  299MPD2    H5 4564   4.391   4.586  10.268  0.7451  0.1058 -0.8036
  299MPD2    N1 4565   0.071   0.037  10.627  0.0621 -0.2967 -0.4846
  299MPD2    H7 4566   0.120   4.730  10.704 -0.1500 -1.2234 -0.8867
  300TMC3    C1 4567   4.312   0.046  10.163  0.8991 -0.2480 -0.2320
  300TMC3    C2 4568   4.287   0.173  10.112 -0.2442 -0.9938 -0.2492
  300TMC3    C3 4569   4.161   0.225  10.125 -0.7105  0.2523  0.0929
  300TMC3    C4 4570   4.211   4.696  10.198  0.0650 -0.3384 -0.2224
  300TMC3    C5 4571   4.081   0.011  10.207  0.1280 -0.2318 -0.3519
  300TMC3    C6 4572   4.061   0.145  10.178 -0.6041 -0.0281 -0.5947
  300TMC3     C 4573   4.438   0.046  10.240  0.1471 -0.4589  0.6621
  300TMC3     O 4574   4.518   0.139  10.232  0.3639 -0.5412 -0.0484
  300TMC3     H 4575   4.367   0.246  10.105 -1.3761  0.2203 -0.5550
  300TMC3    H1 4576   4.223   4.599  10.246  0.3629 -0.6738 -0.9699
  300TMC3    H2 4577   3.959   0.181  10.193 -0.3758 -0.9064  3.1954
  300TMC3    C7 4578   3.994   4.675  10.293  0.0706  0.1821  0.4174
  300TMC3    C8 4579   4.152   0.367  10.118  0.0507  0.0555  0.1757
  300TMC3    O1 4580   3.975   4.556  10.264  0.2051 -0.2132 -0.4149
  300TMC3    O2 4581   4.251   0.428  10.084 -0.1501  0.1477 -1.0846
  301MPD2     C 4582   2.660   1.691   1.226  0.0621 -0.6147  0.7034
  301MPD2    C1 4583   2.600   1.713   1.108  0.3254 -0.8368  0.1021
  301MPD2    C2 4584   2.613   1.612   1.012 -0.2036  0.3708  0.1742
  301MPD2    C3 4585   2.670   1.492   1.032  0.5309 -0.1177 -0.7313
  301MPD2    C4 4586   2.737   1.476   1.154  0.0313  0.4930  0.2652
  301MPD2    C5 4587   2.729   1.575   1.250 -0.5891 -0.4210  0.1390
  301MPD2     H 4588   2.570   1.629   0.915  0.8771  1.9010 -0.0346
  301MPD2    H1 4589   2.796   1.387   1.171  0.1354  0.5218  0.0514
  301MPD2    H2 4590   2.634   1.755   1.311 -1.3267 -0.8559  0.4720
  301MPD2    H3 4591   2.790   1.561   1.338  1.4430 -0.4350 -1.2763
  301MPD2     N 4592   2.684   1.386   0.936  0.2136  0.1492  0.1749
  301MPD2    H5 4593   2.710   1.301   0.985 -0.5454 -0.0173  0.2864
  301MPD2    N1 4594   2.522   1.829   1.074 -0.6560  0.8027  0.0706
  301MPD2    H7 4595   2.483   1.820   0.981 -0.0043 -2.3890  0.1221
  302TMC3    C1 4596   2.659   1.251   0.751 -0.7172  0.8404 -0.5911
  302TMC3    C2 4597   2.752   1.159   0.791 -0.1687 -0.8399 -1.0608
  302TMC3    C3 4598   2.767   1.042   0.731  0.0196  0.5402  0.3750
  302TMC3    C4 4599   2.580   1.221   0.644  0.0420  0.3792  0.0580
  302TMC3    C5 4600   2.590   1.094   0.593  0.1499 -0.3970 -0.1620
  302TMC3    C6 4601   2.687   1.003   0.636  0.2264  0.2011 -0.0167
  302TMC3     C 4602   2.641   1.382   0.812  0.5388 -0.1708  0.0240
  302TMC3     O 4603   2.564   1.457   0.755 -0.5620  0.5570  0.2409
  302TMC3     H 4604   2.828   1.194   0.860 -1.4179 -0.4832  0.1314
  302TMC3    H1 4605   2.513   1.297   0.606 -0.3501 -1.1890 -2.3241
  302TMC3    H2 4606   2.694   0.907   0.585  1.1677 -1.0492  2.4998
  302TMC3    C7 4607   2.508   1.056   0.482 -0.0638  0.7423 -0.5822
  302TMC3    C8 4608   2.855   0.945   0.800 -0.1185 -0.7920  0.1572
  302TMC3    O1 4609   2.539   0.965   0.410 -0.3986 -0.0240  0.0827
  302TMC3    O2 4610   2.878   0.841   0.738  0.2553  0.3117 -0.4549
  303MPD2     C 4611   2.422   0.154  10.925 -0.2111 -0.3473  0.2232
  303MPD2    C1 4612   2.395   0.021  10.955  0.5830 -0.9152 -0.0576
  303MPD2    C2 4613   2.383   4.664  10.849 -0.1419 -0.2064 -0.7703
  303MPD2    C3 4614   2.381   4.712  10.722  0.1855 -0.0119  0.7116
  303MPD2    C4 4615   2.408   0.107  10.700 -1.2126 -0.6180  0.0061
  303MPD2    C5 4616   2.438   0.194  10.795  0.8432 -0.0928 -0.2223
  303MPD2     H 4617   2.367   4.558  10.865  0.2705 -0.2911 -0.9208
  303MPD2    H1 4618   2.434   0.139  10.600  0.4757 -2.1269 -0.0523
  303MPD2    H2 4619   2.438   0.227  11.004 -2.4468  2.3332 -1.8089
  303MPD2    H3 4620   2.482   0.291  10.772 -2.2298  1.4558  0.4211
  303MPD2     N 4621   2.350   4.639  10.606  0.1725 -0.1410 -0.2725
  303MPD2    H5 4622   2.343   4.693  10.520 -0.1991  2.7621  1.5557
  303MPD2    N1 4623   2.385   4.726  11.091 -0.3404 -0.3498  0.2341
  303MPD2    H7 4624   2.383   0.069  11.152 -2.3498  0.5795 -1.0931
  304TMC3    C1 4625   2.301   4.606  11.275 -0.5524  0.4019 -0.1223
  304TMC3    C2 4626   2.221   4.715  11.316 -0.3302  0.1715 -0.2617
  304TMC3    C3 4627   2.125   4.696  11.411  0.1172  0.4376 -0.4185
  304TMC3    C4 4628   2.279   4.486  11.335  0.6815  0.7068  0.1315
  304TMC3    C5 4629   2.184   4.477  11.436  0.3671 -0.5470 -0.3620
  304TMC3    C6 4630   2.111   4.583  11.480  0.5607 -0.1787 -0.0677
  304TMC3     C 4631   2.366   4.603  11.148  0.3787 -0.1149  0.0252
  304TMC3     O 4632   2.380   4.494  11.094 -0.7420 -0.2278 -0.4684
  304TMC3     H 4633   2.225   0.067  11.255  0.8588  1.6945  2.0572
  304TMC3    H1 4634   2.325   4.399  11.289 -1.9142  1.1891 -3.3579
  304TMC3    H2 4635   2.042   4.570  11.562 -0.4493  1.6818 -0.6140
  304TMC3    C7 4636   2.104   4.352  11.439  0.0426 -0.4860  0.1945
  304TMC3    C8 4637   1.997   0.012  11.379  0.3330  0.8081 -0.0104
  304TMC3    O1 4638   1.986   4.369  11.462 -0.5587  0.0875  0.0175
  304TMC3    O2 4639   1.999   0.127  11.334 -0.3710  0.2310  0.1102
  305MPD2     C 4640   0.600   2.153  13.762  0.4626  0.1342  0.4641
  305MPD2    C1 4641   0.680   2.042  13.775  0.0030  0.6944 -0.9511
  305MPD2    C2 4642   0.669   1.946  13.672  0.5647 -0.6829 -0.9270
  305MPD2    C3 4643   0.584   1.965  13.561 -0.2957 -0.2757  0.8694
  305MPD2    C4 4644   0.515   2.082  13.556 -0.4000 -0.1492  0.0661
  305MPD2    C5 4645   0.527   2.179  13.654  0.2864  0.2440 -0.9203
  305MPD2     H 4646   0.732   1.858  13.667  0.1799 -0.9596 -0.8452
  305MPD2    H1 4647   0.452   2.111  13.473 -1.5481 -1.6702  0.4121
  305MPD2    H2 4648   0.607   2.234  13.835 -0.2176  2.1077 -1.6450
  305MPD2    H3 4649   0.478   2.275  13.656 -0.2301 -0.0660  1.6443
  305MPD2     N 4650   0.587   1.884  13.452  1.2532  0.7430  0.1929
  305MPD2    H5 4651   0.520   1.914  13.383  0.6809 -1.7943 -0.3296
  305MPD2    N1 4652   0.762   2.028  13.890 -0.2354  0.8457 -0.0289
  305MPD2    H7 4653   0.756   2.104  13.957  2.9360  0.3704  0.8168
  306TMC3    C1 4654   0.927   1.938  14.045  0.3015 -0.1968 -0.4716
  306TMC3    C2 4655   0.991   1.827  14.098 -0.8773  0.1604 -0.6215
  306TMC3    C3 4656   1.052   1.841  14.221  0.2956  0.1636 -0.8341
  306TMC3    C4 4657   0.948   2.065  14.096 -0.6806 -0.0402  0.2322
  306TMC3    C5 4658   1.005   2.081  14.224  0.5154 -0.2529 -1.2589
  306TMC3    C6 4659   1.065   1.965  14.276  0.5478  0.2361  0.1720
  306TMC3     C 4660   0.849   1.920  13.916 -0.3999  0.0232  0.2095
  306TMC3     O 4661   0.862   1.811  13.859 -0.6251 -0.1259 -0.3199
  306TMC3     H 4662   0.956   1.733  14.058 -0.4363 -0.0249 -0.5756
  306TMC3    H1 4663   0.905   2.150  14.043 -0.2236 -0.5383 -0.9315
  306TMC3    H2 4664   1.126   1.979  14.365  1.7143  0.8817 -0.7349
  306TMC3    C7 4665   1.061   2.210  14.269  0.1230  0.5496  0.2057
  306TMC3    C8 4666   1.118   1.717  14.285 -0.4458 -0.0863 -0.5484
  306TMC3    O1 4667   1.120   2.286  14.185  0.2733 -0.1153 -0.0720
  306TMC3    O2 4668   1.119   1.616  14.219  0.3694  0.1665 -0.1993
  307MPD2     C 4669   3.488   4.699   0.096 -0.3983 -0.8426 -0.9244
  307MPD2    C1 4670   3.459   0.094   0.066  0.2696 -0.0214  0.0761
  307MPD2    C2 4671   3.383   0.163   0.155  0.2096 -0.3427 -0.2309
  307MPD2    C3 4672   3.325   0.102   0.267 -0.4612 -0.6528  0.3108
  307MPD2    C4 4673   3.368   4.714   0.297 -0.0493 -0.3149  0.7535
  307MPD2    C5 4674   3.445   4.645   0.214 -0.2457  0.2008  0.5244
  307MPD2     H 4675   3.360   0.266   0.129 -2.3872 -0.4828  1.5070
  307MPD2    H1 4676   3.330   4.656   0.380  2.5726 -2.5303  0.4317
  307MPD2    H2 4677   3.546   4.640   0.026  0.2117 -0.1990 -0.9615
  307MPD2    H3 4678   3.475   4.544   0.238  2.5471  1.5765  2.7609
  307MPD2     N 4679   3.257   0.184   0.366  0.0683 -0.1626 -0.4401
  307MPD2    H5 4680   3.224   0.279   0.350  1.8139  0.6225  0.6877
  307MPD2    N1 4681   3.490   0.158  17.697 -0.6692 -0.4380  0.4534
  307MPD2    H7 4682   3.469   0.256  17.684 -2.2177 -1.1409 -2.5875
  308TMC3    C1 4683   2.989   0.241   0.743  0.3342 -0.3770 -0.3063
  308TMC3    C2 4684   3.009   0.380   0.745 -0.1820  0.3709 -0.0957
  308TMC3    C3 4685   3.104   0.431   0.658  0.3251 -0.1761  0.0145
  308TMC3    C4 4686   3.058   0.168   0.656 -0.9266 -0.0379 -0.1229
  308TMC3    C5 4687   3.136   0.222   0.562  0.0038 -0.1266 -0.5610
  308TMC3    C6 4688   3.166   0.361   0.562  0.0029  0.5826 -0.0248
  308TMC3     C 4689   2.854   0.199   0.742  0.2305 -0.0131 -0.1262
  308TMC3     O 4690   2.833   0.079   0.758  0.3031  0.3863  0.9056
  308TMC3     H 4691   2.955   0.445   0.812  1.8873  0.9627  0.9799
  308TMC3    H1 4692   3.033   0.063   0.643  1.4881 -0.4209 -1.7075
  308TMC3    H2 4693   3.249   0.398   0.503 -0.6891 -0.2726 -1.5278
  308TMC3    C7 4694   3.219   0.130   0.487  0.2555  0.3203 -0.1362
  308TMC3    C8 4695   3.155   0.565   0.684 -0.3815  1.0559 -0.0982
  308TMC3    O1 4696   3.232   0.018   0.544  0.1769 -0.0279 -0.2540
  308TMC3    O2 4697   3.205   0.583   0.793 -0.7681 -0.1775 -0.4410
  309MPD2     C 4698   2.429   0.655  17.026 -0.4756 -0.2552 -0.4752
  309MPD2    C1 4699   2.346   0.606  16.926 -0.0379  0.0682 -0.3176
  309MPD2    C2 4700   2.212   0.593  16.946  0.8362 -0.9462  0.3019
  309MPD2    C3 4701   2.152   0.642  17.061 -0.2786 -0.1731  0.1043
  309MPD2    C4 4702   2.233   0.711  17.151  0.4721 -0.5664  0.1874
  309MPD2    C5 4703   2.369   0.706  17.139  0.3274  0.8706 -0.4704
  309MPD2     H 4704   2.159   0.532  16.873 -1.0001  1.3351 -0.2963
  309MPD2    H1 4705   2.183   0.755  17.236  0.2225 -0.0418 -0.2274
  309MPD2    H2 4706   2.533   0.679  17.007 -0.1684 -0.8480  0.4870
  309MPD2    H3 4707   2.432   0.763  17.207  0.0884  1.3535 -0.6507
  309MPD2     N 4708   2.013   0.650  17.081 -0.0164 -0.1675  0.6113
  309MPD2    H5 4709   1.984   0.707  17.160  1.8366 -0.0809  1.2214
  309MPD2    N1 4710   2.396   0.545  16.807 -0.1601  0.9142  1.1659
  309MPD2    H7 4711   2.331   0.515  16.735 -1.1824  1.5559  1.8190
  310TMC3    C1 4712   2.552   0.457  16.654  0.7912 -0.2994 -0.2902
  310TMC3    C2 4713   2.475   0.485  16.545  0.2912  0.5892  0.5407
  310TMC3    C3 4714   2.526   0.444  16.426 -0.2103 -0.4612  0.3560
  310TMC3    C4 4715   2.675   0.393  16.648 -0.1039 -0.2833  0.5709
  310TMC3    C5 4716   2.720   0.355  16.524  0.0438  0.4453 -0.0849
  310TMC3    C6 4717   2.644   0.373  16.413 -0.2203 -0.2606 -0.6595
  310TMC3     C 4718   2.525   0.521  16.779 -0.1900  0.2166 -0.1577
  310TMC3     O 4719   2.620   0.528  16.860  0.0123  0.2419 -0.2709
  310TMC3     H 4720   2.382   0.541  16.553 -1.5021 -2.7017  2.8165
  310TMC3    H1 4721   2.720   0.365  16.742 -1.7826  1.3644  1.8663
  310TMC3    H2 4722   2.664   0.318  16.321  1.6886  0.1365 -0.4903
  310TMC3    C7 4723   2.820   0.252  16.521 -0.1298 -0.2551 -0.7805
  310TMC3    C8 4724   2.477   0.502  16.304  0.1172 -0.1568 -0.5543
  310TMC3    O1 4725   2.811   0.176  16.425  0.6417  0.3003 -0.2776
  310TMC3    O2 4726   2.362   0.540  16.304 -0.1154 -0.0917 -0.5224
  311MPD2     C 4727   4.314   1.324  12.770  0.4940 -0.2882  0.3905
  311MPD2    C1 4728   4.310   1.438  12.853 -0.5825  0.1479  0.0734
  311MPD2    C2 4729   4.206   1.445  12.942  0.0957 -0.0394 -0.4442
  311MPD2    C3 4730   4.119   1.338  12.966  0.0603 -0.3969  0.4485
  311MPD2    C4 4731   4.143   1.220  12.900 -0.4465 -0.7537 -0.3614
  311MPD2    C5 4732   4.236   1.213  12.802  0.1544  0.7009  0.1767
  311MPD2     H 4733   4.183   1.536  12.996 -1.5933 -0.3094 -0.7082
  311MPD2    H1 4734   4.088   1.129  12.922 -0.7651 -0.4185  0.2008
  311MPD2    H2 4735   4.403   1.316  12.708 -0.5271 -1.2855 -0.9361
  311MPD2    H3 4736   4.266   1.115  12.766 -0.3692  0.8747 -0.7241
  311MPD2     N 4737   4.010   1.355  13.053 -0.5924 -0.7060 -0.4772
  311MPD2    H5 4738   3.982   1.450  13.079  0.5942 -0.5703  0.3075
  311MPD2    N1 4739   4.403   1.549  12.848  0.7799  0.3115 -0.2446
  311MPD2    H7 4740   4.395   1.621  12.920 -0.6652  0.1907 -0.2857
  312TMC3    C1 4741   3.844   1.301  13.195 -0.2226  0.2882 -0.2426
  312TMC3    C2 4742   3.760   1.388  13.142  0.1115  0.0203 -0.1029
  312TMC3    C3 4743   3.652   1.428  13.215 -0.1691 -0.2353 -0.1427
  312TMC3    C4 4744   3.822   1.232  13.311  0.1885  0.2226 -0.9964
  312TMC3    C5 4745   3.721   1.280  13.391  0.7628 -0.3450  0.4391
  312TMC3    C6 4746   3.633   1.371  13.339  0.5071  0.1467 -0.0673
  312TMC3     C 4747   3.953   1.256  13.121 -0.0058  0.0087 -0.0348
  312TMC3     O 4748   3.986   1.140  13.130  0.3514 -0.0263 -0.3361
  312TMC3     H 4749   3.769   1.418  13.038  0.6866 -0.6611 -0.2426
  312TMC3    H1 4750   3.893   1.162  13.353  2.0808  1.0593 -2.7822
  312TMC3    H2 4751   3.540   1.390  13.391  0.1247 -0.8037 -0.4086
  312TMC3    C7 4752   3.690   1.228  13.523  0.5825 -0.2360  0.3475
  312TMC3    C8 4753   3.534   1.432  13.133 -0.2154  0.2646  0.7343
  312TMC3    O1 4754   3.576   1.238  13.567 -0.0410 -0.2386 -0.3632
  312TMC3    O2 4755   3.488   1.331  13.090 -0.2017 -0.3525  0.0858
  313MPD2     C 4756   3.994   0.547  10.808  0.2552 -0.1311  0.5537
  313MPD2    C1 4757   3.863   0.525  10.848 -0.3345  0.2384 -0.0448
  313MPD2    C2 4758   3.774   0.444  10.774 -0.2368  0.0765 -0.2193
  313MPD2    C3 4759   3.814   0.397  10.649 -0.6086  0.3141 -0.1052
  313MPD2    C4 4760   3.939   0.413  10.609  0.6843  0.8259  0.4047
  313MPD2    C5 4761   4.024   0.488  10.686  0.5559 -0.2609  0.2171
  313MPD2     H 4762   3.672   0.420  10.800 -0.1545 -0.4073 -0.3350
  313MPD2    H1 4763   3.975   0.367  10.518  0.6032  0.7667  0.4029
  313MPD2    H2 4764   4.068   0.613  10.852 -0.0400  0.3045  0.3961
  313MPD2    H3 4765   4.127   0.490  10.654  0.2420 -0.3668 -0.7878
  313MPD2     N 4766   3.708   0.345  10.571 -0.6560 -0.3718 -0.3985
  313MPD2    H5 4767   3.616   0.338  10.613 -0.3003  1.5169  0.7111
  313MPD2    N1 4768   3.803   0.591  10.957  0.5405 -0.0170  0.1446
  313MPD2    H7 4769   3.701   0.593  10.949  0.5674 -0.5659 -0.3905
  314TMC3    C1 4770   3.776   0.745  11.133 -0.0750  0.0868 -0.6368
  314TMC3    C2 4771   3.822   0.855  11.201 -0.6031  0.7543  0.0400
  314TMC3    C3 4772   3.736   0.955  11.237  0.2806  0.1228  0.5517
  314TMC3    C4 4773   3.636   0.730  11.105 -0.1450  0.2869  0.9392
  314TMC3    C5 4774   3.550   0.825  11.154  0.1694 -0.1165  0.3024
  314TMC3    C6 4775   3.601   0.945  11.204 -0.5432 -0.4655 -0.1395
  314TMC3     C 4776   3.867   0.666  11.049 -0.2633  0.4707  0.1143
  314TMC3     O 4777   3.987   0.687  11.060 -0.2427 -0.2306 -0.2866
  314TMC3     H 4778   3.928   0.854  11.225 -1.1557  0.6469  2.4800
  314TMC3    H1 4779   3.582   0.643  11.068  0.3284  0.9068 -1.1699
  314TMC3    H2 4780   3.539   1.027  11.241  0.0312  0.4751 -1.2558
  314TMC3    C7 4781   3.416   0.837  11.094 -0.1521  0.7494  0.0968
  314TMC3    C8 4782   3.779   1.071  11.317  0.7566  0.6672  0.3692
  314TMC3    O1 4783   3.351   0.737  11.065 -0.1609 -0.1597  0.0657
  314TMC3    O2 4784   3.697   1.162  11.338  0.0035  0.4476 -0.4114
  315MPD2     C 4785   3.828   4.484  17.210  0.9633  0.8276  0.4040
  315MPD2    C1 4786   3.862   4.510  17.341  0.5222  0.5581  0.0109
  315MPD2    C2 4787   3.859   4.642  17.385  0.5843 -0.3924  0.6322
  315MPD2    C3 4788   3.857   0.010  17.296  0.0765 -0.1021 -0.3586
  315MPD2    C4 4789   3.830   4.718  17.166  0.9051  0.3980 -0.0515
  315MPD2    C5 4790   3.822   4.589  17.125 -0.1358 -0.4630 -0.2997
  315MPD2     H 4791   3.891   4.662  17.487  1.9196 -3.5607  0.8259
  315MPD2    H1 4792   3.830   0.056  17.088  0.2609  0.4207 -0.0307
  315MPD2    H2 4793   3.830   4.383  17.171  0.8742  1.1708 -0.4992
  315MPD2    H3 4794   3.807   4.560  17.022 -0.2099  1.5833 -0.8626
  315MPD2     N 4795   3.879   0.139  17.339 -1.0919 -0.2358 -0.9157
  315MPD2    H5 4796   3.885   0.154  17.439  1.7501  0.8201 -1.2464
  315MPD2    N1 4797   3.888   4.398  17.426 -0.0850  0.0286  0.1698
  315MPD2    H7 4798   3.925   4.318  17.376  0.0680  1.3144 -1.7877
  316TMC3    C1 4799   3.937   0.369  17.333 -0.1840  0.9218  0.2236
  316TMC3    C2 4800   4.029   0.356  17.439  0.0824 -0.4275  0.1621
  316TMC3    C3 4801   4.080   0.471  17.494 -0.2329 -0.1760 -0.0475
  316TMC3    C4 4802   3.894   0.493  17.287  0.7455 -0.0306  0.2017
  316TMC3    C5 4803   3.941   0.604  17.349 -0.4590  0.0088  0.0757
  316TMC3    C6 4804   4.029   0.591  17.449  0.0713 -0.3691  0.4342
  316TMC3     C 4805   3.888   0.258  17.264  0.2153  0.1132  0.0036
  316TMC3     O 4806   3.856   0.266  17.148  0.3060  0.4135  0.0305
  316TMC3     H 4807   4.064   0.258  17.467 -2.7655 -1.6627 -0.5547
  316TMC3    H1 4808   3.826   0.490  17.202  0.9898  0.1383  0.0034
  316TMC3    H2 4809   4.080   0.681  17.482 -0.9596 -0.8495  3.3140
  316TMC3    C7 4810   3.926   0.743  17.291  0.0722  0.5442 -0.1128
  316TMC3    C8 4811   4.179   0.473  17.598  0.3030 -0.2989  0.1392
  316TMC3    O1 4812   3.980   0.835  17.349  0.2004 -0.7116 -0.0994
  316TMC3    O2 4813   4.213   0.578  17.651  0.5720  0.3572 -0.3266
  317MPD2     C 4814   0.503   3.630  12.991 -0.4090  0.2983 -0.1340
  317MPD2    C1 4815   0.522   3.503  12.932  1.2220  0.3437 -0.0064
  317MPD2    C2 4816   0.590   3.407  12.999  0.1211  0.4063  0.4729
  317MPD2    C3 4817   0.653   3.426  13.122 -0.3593 -0.3766 -0.0678
  317MPD2    C4 4818   0.642   3.554  13.174 -0.3149 -0.2738 -0.0013
  317MPD2    C5 4819   0.571   3.649  13.105 -0.4701  0.4614 -0.3188
  317MPD2     H 4820   0.576   3.302  12.976  1.7830  0.6788 -1.7539
  317MPD2    H1 4821   0.693   3.594  13.261 -1.7648 -0.7555  1.0646
  317MPD2    H2 4822   0.457   3.713  12.939  0.9007  1.0818 -0.0342
  317MPD2    H3 4823   0.576   3.747  13.151  0.8651  0.3269 -0.1899
  317MPD2     N 4824   0.733   3.321  13.178  0.1523  0.1263  0.4229
  317MPD2    H5 4825   0.746   3.235  13.126  0.5480 -0.1021  0.9016
  317MPD2    N1 4826   0.468   3.462  12.816 -0.0313  0.3376  0.0419
  317MPD2    H7 4827   0.491   3.366  12.789  1.6092  0.6080  0.4588
  318TMC3    C1 4828   0.866   3.207  13.327 -0.2491  0.2330 -0.5681
  318TMC3    C2 4829   0.842   3.095  13.249 -0.0031  0.1660 -0.3293
  318TMC3    C3 4830   0.926   2.988  13.270 -0.4384  0.2539  0.3659
  318TMC3    C4 4831   0.980   3.211  13.411 -0.0346 -0.1662  0.5773
  318TMC3    C5 4832   1.054   3.099  13.431 -0.4907  0.6059 -0.3941
  318TMC3    C6 4833   1.028   2.984  13.356  0.0803  0.5140  0.4267
  318TMC3     C 4834   0.788   3.326  13.299  0.4129 -0.4015 -0.5736
  318TMC3     O 4835   0.796   3.416  13.388 -0.3337  0.0137 -0.1422
  318TMC3     H 4836   0.749   3.082  13.195 -0.2941 -1.1389  0.4951
  318TMC3    H1 4837   0.991   3.303  13.468  0.6252 -0.6098  1.1613
  318TMC3    H2 4838   1.080   2.889  13.357 -0.2529  0.2972 -2.7521
  318TMC3    C7 4839   1.148   3.102  13.541  0.0685  0.6231  0.1526
  318TMC3    C8 4840   0.869   2.856  13.224  0.2930  0.1933  0.1277
  318TMC3    O1 4841   1.153   3.207  13.603  0.0070 -0.1558 -0.1376
  318TMC3    O2 4842   0.898   2.755  13.289  0.2619  0.3513 -0.6594
  319MPD2     C 4843   2.151   0.287  16.395  0.8083 -0.8339  0.2383
  319MPD2    C1 4844   2.095   0.176  16.449 -0.3579  0.4290  0.2175
  319MPD2    C2 4845   2.047   0.079  16.368  0.1391  0.6343 -0.3384
  319MPD2    C3 4846   2.032   0.095  16.229  0.2227  0.2310  0.6836
  319MPD2    C4 4847   2.089   0.204  16.172  0.4445  0.1692 -0.4244
  319MPD2    C5 4848   2.150   0.292  16.253  0.5624 -0.3383  0.2831
  319MPD2     H 4849   2.002   4.735  16.424  0.2957  1.1048  0.4862
  319MPD2    H1 4850   2.079   0.213  16.064 -3.2460  0.3547 -0.0621
  319MPD2    H2 4851   2.202   0.368  16.447  0.4806  0.6006 -1.6535
  319MPD2    H3 4852   2.190   0.385  16.216  1.9296 -1.7849 -1.8914
  319MPD2     N 4853   1.946   0.010  16.156  0.1562 -0.5175 -0.0676
  319MPD2    H5 4854   1.934   0.030  16.057  1.5912 -2.6568 -0.6689
  319MPD2    N1 4855   2.079   0.155  16.584 -0.3544  0.2957 -0.7084
  319MPD2    H7 4856   2.040   0.067  16.615  1.8811 -0.7521 -0.8894
  320TMC3    C1 4857   1.800   4.574  16.099  0.4176 -0.6146 -0.8749
  320TMC3    C2 4858   1.742   4.649  16.000  0.4383 -0.4796  0.4299
  320TMC3    C3 4859   1.652   4.594  15.910 -0.5990  0.0886 -0.8334
  320TMC3    C4 4860   1.746   4.457  16.131 -0.8277  0.1171  0.5000
  320TMC3    C5 4861   1.645   4.409  16.050 -0.2548 -0.6013 -0.6413
  320TMC3    C6 4862   1.602   4.465  15.926  0.6735 -0.1737  0.7737
  320TMC3     C 4863   1.878   4.636  16.205 -0.7258  0.9254 -0.4260
  320TMC3     O 4864   1.869   4.579  16.313 -0.2149  0.3479  0.5565
  320TMC3     H 4865   1.767   0.015  15.986 -2.8395  0.2349 -0.2061
  320TMC3    H1 4866   1.788   4.392  16.207  0.3382  0.0280 -0.2210
  320TMC3    H2 4867   1.519   4.418  15.874  3.3321 -1.0271 -2.6958
  320TMC3    C7 4868   1.572   4.290  16.100  0.3464  0.1693 -0.4150
  320TMC3    C8 4869   1.563   4.680  15.829  0.1433  0.1021 -0.2890
  320TMC3    O1 4870   1.495   4.237  16.017 -0.2205 -0.3208 -0.1062
  320TMC3    O2 4871   1.554   0.063  15.849  0.2964  0.4916  0.0540
  321TMC3    C1 4872   2.095   0.188  16.819  0.7426  0.3165  0.3142
  321TMC3    C2 4873   2.019   0.075  16.837  0.1258 -0.2247  0.5248
  321TMC3    C3 4874   2.001   0.037  16.969  0.4359  0.1239 -0.4900
  321TMC3    C4 4875   2.145   0.264  16.927 -0.5119  0.0832  0.4366
  321TMC3    C5 4876   2.113   0.228  17.054 -0.2997 -0.2011 -0.2635
  321TMC3    C6 4877   2.026   0.117  17.077  0.1077  0.1330  0.2054
  321TMC3     C 4878   2.121   0.240  16.682  0.5709  0.1595  0.1165
  321TMC3     O 4879   2.195   0.340  16.685 -0.4429 -0.2892 -0.0239
  321TMC3     H 4880   2.000   0.003  16.759 -0.1428  1.2373 -0.7484
  321TMC3    H1 4881   2.219   0.340  16.905  1.3418 -1.4817  1.2859
  321TMC3    H2 4882   1.992   0.094  17.177  1.5196  1.9577  1.1161
  321TMC3    C7 4883   2.221   0.221  17.153  0.3006  0.2092 -0.0026
  321TMC3    C8 4884   2.048   4.639  16.998 -0.0221  0.2579  0.2051
  321TMC3    O1 4885   2.201   0.133  17.241  0.5671 -0.4846 -0.2098
  321TMC3    O2 4886   2.030   4.556  16.910 -0.1196 -0.3203 -0.3547
  322MPD2     C 4887   0.834   1.283  13.110 -0.5676 -0.7161 -0.2739
  322MPD2    C1 4888   0.817   1.216  13.231  0.6385 -0.7950  0.2164
  322MPD2    C2 4889   0.786   1.079  13.225 -0.1766  0.4413 -0.1024
  322MPD2    C3 4890   0.761   1.012  13.108  0.4961 -0.3953 -0.0207
  322MPD2    C4 4891   0.765   1.086  12.990  0.1523  0.5885 -0.5054
  322MPD2    C5 4892   0.811   1.212  12.986  0.1923 -0.3993 -0.3725
  322MPD2     H 4893   0.772   1.031  13.321 -0.1465 -0.8210 -0.7272
  322MPD2    H1 4894   0.761   1.039  12.892 -3.7397  1.2913 -0.6849
  322MPD2    H2 4895   0.859   1.389  13.111  3.8632 -1.7333 -2.3798
  322MPD2    H3 4896   0.834   1.249  12.887 -0.5580  1.0451 -0.0077
  322MPD2     N 4897   0.743   0.873  13.120 -0.3553  0.8602  0.1732
  322MPD2    H5 4898   0.750   0.838  13.215 -0.5900  1.0937  0.2752
  322MPD2    N1 4899   0.828   1.271  13.359 -0.7242 -0.2161  0.0667
  322MPD2    H7 4900   0.826   1.210  13.440  0.4403 -0.5331 -0.1397
  323TMC3    C1 4901   0.946   1.412  13.509 -0.9608 -0.6308 -0.5506
  323TMC3    C2 4902   1.034   1.518  13.525  0.4381  0.6450  0.4661
  323TMC3    C3 4903   1.142   1.491  13.599 -0.6261 -0.2568  0.6286
  323TMC3    C4 4904   0.941   1.306  13.597 -0.2843  0.6211 -0.3253
  323TMC3    C5 4905   1.042   1.297  13.692 -0.0001  0.5629  0.7275
  323TMC3    C6 4906   1.138   1.397  13.702  0.3796 -0.3097 -0.1815
  323TMC3     C 4907   0.895   1.392  13.372 -0.1898 -0.6666 -0.6730
  323TMC3     O 4908   0.938   1.469  13.289 -0.2512 -0.3032 -0.2137
  323TMC3     H 4909   1.036   1.602  13.456  0.4302  0.1643 -0.1092
  323TMC3    H1 4910   0.876   1.222  13.580 -2.1223  1.7506  1.1925
  323TMC3    H2 4911   1.230   1.365  13.750  0.9542 -0.3304 -1.2819
  323TMC3    C7 4912   1.048   1.188  13.786 -0.7481 -0.3822 -0.6739
  323TMC3    C8 4913   1.263   1.470  13.524  0.1118  0.8633  0.2971
  323TMC3    O1 4914   1.014   1.075  13.747 -0.7376  0.1761  0.1750
  323TMC3    O2 4915   1.365   1.445  13.588  0.3254  0.8194 -0.4019
  324MPD2     C 4916   2.327   1.968  14.293 -0.7207  0.0476 -0.2709
  324MPD2    C1 4917   2.303   2.103  14.311 -0.3502 -0.1570  0.3693
  324MPD2    C2 4918   2.194   2.173  14.258 -0.4515  0.0461  0.0429
  324MPD2    C3 4919   2.091   2.098  14.211  0.1727  0.0840 -0.6129
  324MPD2    C4 4920   2.105   1.960  14.206 -0.0357  0.1614 -0.9595
  324MPD2    C5 4921   2.216   1.901  14.246 -0.0782 -0.2538  0.4081
  324MPD2     H 4922   2.192   2.281  14.265  1.6489 -0.0798  2.6429
  324MPD2    H1 4923   2.024   1.894  14.176  1.4219 -0.9076 -2.5069
  324MPD2    H2 4924   2.415   1.909  14.314  0.5731  1.3256 -2.0812
  324MPD2    H3 4925   2.222   1.794  14.256  0.9414 -0.3126 -0.6992
  324MPD2     N 4926   1.958   2.148  14.170 -0.3371  0.3943 -0.3339
  324MPD2    H5 4927   1.881   2.083  14.156 -1.1389  0.5406  3.3205
  324MPD2    N1 4928   2.399   2.186  14.368 -0.1559 -0.4742  0.0202
  324MPD2    H7 4929   2.370   2.284  14.367 -0.2413 -0.5083 -0.8408
  325TMC3    C1 4930   1.788   2.304  14.122 -1.3702 -0.0792  0.3728
  325TMC3    C2 4931   1.710   2.234  14.034  0.2765  0.2549  0.0557
  325TMC3    C3 4932   1.595   2.279  13.980  0.7026 -0.1302 -0.0844
  325TMC3    C4 4933   1.750   2.438  14.140 -0.5756 -0.1220  0.1371
  325TMC3    C5 4934   1.629   2.477  14.089  0.2687  0.4287  0.4897
  325TMC3    C6 4935   1.551   2.403  14.008 -0.2065 -0.0944  0.0188
  325TMC3     C 4936   1.930   2.275  14.149  0.3459  0.5066 -0.5736
  325TMC3     O 4937   1.997   2.377  14.167  0.2874  0.3564 -0.5726
  325TMC3     H 4938   1.735   2.133  14.002  1.3610  0.7107 -0.5364
  325TMC3    H1 4939   1.810   2.510  14.195  0.2036 -1.3432  0.8880
  325TMC3    H2 4940   1.452   2.437  13.981  0.1960  1.2080  0.1797
  325TMC3    C7 4941   1.572   2.604  14.122 -0.3133 -0.9847 -0.0198
  325TMC3    C8 4942   1.520   2.181  13.898  0.2323 -0.6376  0.0475
  325TMC3    O1 4943   1.450   2.618  14.118 -0.5375  0.1474  0.2162
  325TMC3    O2 4944   1.575   2.081  13.858 -0.3226  0.3124 -0.2375
  326MPD2     C 4945   3.242   3.558  11.127 -0.5815  0.1013  0.7540
  326MPD2    C1 4946   3.293   3.549  10.998  0.2258  0.4546 -0.5523
  326MPD2    C2 4947   3.427   3.543  10.974  0.6319  0.2348  0.0401
  326MPD2    C3 4948   3.517   3.536  11.078 -0.1052 -0.1087 -0.5768
  326MPD2    C4 4949   3.477   3.553  11.206 -0.2585 -0.3957  0.2552
  326MPD2    C5 4950   3.341   3.556  11.227 -0.4668 -0.1538  0.0131
  326MPD2     H 4951   3.457   3.542  10.870  3.0733 -0.0392  0.7362
  326MPD2    H1 4952   3.531   3.528  11.297 -1.0975  0.6518  1.0475
  326MPD2    H2 4953   3.136   3.546  11.147 -0.2781  0.2062  2.4948
  326MPD2    H3 4954   3.300   3.530  11.324 -1.5604 -0.6799 -0.5891
  326MPD2     N 4955   3.663   3.535  11.060  0.0522  0.6407 -0.5658
  326MPD2    H5 4956   3.710   3.524  11.150 -0.1933  0.0395 -0.5146
  326MPD2    N1 4957   3.211   3.532  10.884 -0.0194 -0.8538  0.0430
  326MPD2    H7 4958   3.259   3.527  10.795  1.2334  1.7637  0.5776
  327TMC3    C1 4959   3.081   3.397  10.766  0.1198 -0.2992 -0.5863
  327TMC3    C2 4960   2.983   3.418  10.672  0.6219 -0.2226  0.2368
  327TMC3    C3 4961   2.997   3.375  10.543  0.1638  0.0567 -0.4822
  327TMC3    C4 4962   3.199   3.337  10.726 -0.1623  0.2480 -0.0137
  327TMC3    C5 4963   3.219   3.297  10.601 -0.9383  0.4598  0.0014
  327TMC3    C6 4964   3.121   3.319  10.506  0.3887  0.0239  0.0388
  327TMC3     C 4965   3.082   3.479  10.884  0.1432 -0.0082 -0.5791
  327TMC3     O 4966   2.989   3.478  10.966 -0.1358 -0.4405  0.0075
  327TMC3     H 4967   2.895   3.469  10.710  0.2085 -0.1314 -0.8395
  327TMC3    H1 4968   3.273   3.310  10.801 -0.1230 -2.8836 -1.1818
  327TMC3    H2 4969   3.135   3.288  10.404 -0.7971 -1.8437  0.4290
  327TMC3    C7 4970   3.350   3.247  10.556  0.0969 -0.5942 -0.0350
  327TMC3    C8 4971   2.918   3.439  10.440 -0.0832  0.7193  0.3177
  327TMC3    O1 4972   3.372   3.266  10.437 -0.5631  0.3091 -0.1903
  327TMC3    O2 4973   2.960   3.439  10.324 -0.0634 -0.2245 -0.0902
  328MPD2     C 4974   1.479   3.637  16.943  0.0347 -0.2341 -0.1320
  328MPD2    C1 4975   1.445   3.506  16.924 -0.1104  0.5290  0.3868
  328MPD2    C2 4976   1.328   3.481  16.860  1.1079  0.3284 -0.4271
  328MPD2    C3 4977   1.248   3.580  16.804  0.1066  1.0258  0.3826
  328MPD2    C4 4978   1.280   3.712  16.832 -0.2510 -0.7406  0.1033
  328MPD2    C5 4979   1.398   3.737  16.891  0.3851 -0.0207 -0.3127
  328MPD2     H 4980   1.304   3.378  16.834 -1.2491  1.0331 -1.0692
  328MPD2    H1 4981   1.215   3.792  16.798  1.0077  0.9126  1.5601
  328MPD2    H2 4982   1.569   3.668  16.994  0.2872 -0.8619 -0.1992
  328MPD2    H3 4983   1.422   3.840  16.913 -0.0833  0.2639 -1.0997
  328MPD2     N 4984   1.139   3.551  16.716  0.1218  0.4694  0.0404
  328MPD2    H5 4985   1.088   3.627  16.672  0.6729  2.1291  2.2992
  328MPD2    N1 4986   1.534   3.408  16.978  0.1508 -0.4708  0.5026
  328MPD2    H7 4987   1.613   3.441  17.033  0.1886  0.4570 -0.1123
  329TMC3    C1 4988   1.617   3.192  17.041 -0.3349 -0.4197  0.3598
  329TMC3    C2 4989   1.636   3.225  17.168 -0.7217 -0.6921  0.1945
  329TMC3    C3 4990   1.662   3.126  17.256 -0.2063  0.4981  0.0818
  329TMC3    C4 4991   1.622   3.058  17.002 -0.2033 -0.1385  0.4298
  329TMC3    C5 4992   1.655   2.959  17.099  0.5181 -0.5271  0.9400
  329TMC3    C6 4993   1.668   2.994  17.222  0.0091  0.0574  0.4610
  329TMC3     C 4994   1.532   3.273  16.954 -0.0168 -0.4016 -0.1789
  329TMC3     O 4995   1.470   3.211  16.869  0.5156 -0.0308  0.6626
  329TMC3     H 4996   1.619   3.328  17.199 -0.7376 -0.5996 -0.1254
  329TMC3    H1 4997   1.598   3.036  16.899 -1.4489  2.0603  0.2440
  329TMC3    H2 4998   1.679   2.922  17.302  0.6848  0.7972  1.0243
  329TMC3    C7 4999   1.589   2.828  17.081  0.2171  0.0006  0.1993
  329TMC3    C8 5000   1.641   3.154  17.404 -0.5043  0.0772 -0.1457
  329TMC3    O1 5001   1.560   2.768  17.185  0.2304 -0.0301  0.1883
  329TMC3    O2 5002   1.693   3.076  17.482  0.5543  0.6540 -0.6970
  330TMC3    C1 5003   3.294   2.491   9.548 -0.6032  0.4312  0.7013
  330TMC3    C2 5004   3.176   2.455   9.601  0.0659  0.3801 -0.2423
  330TMC3    C3 5005   3.165   2.416   9.727 -0.3727  0.1220 -0.5631
  330TMC3    C4 5006   3.401   2.485   9.633 -0.2561  0.3268 -0.4794
  330TMC3    C5 5007   3.393   2.441   9.763 -0.2925  0.7421 -0.3889
  330TMC3    C6 5008   3.270   2.410   9.819 -0.4883 -0.2428 -0.7722
  330TMC3     C 5009   3.317   2.530   9.404 -0.1399  0.1262 -0.7533
  330TMC3     O 5010   3.429   2.503   9.362 -0.2277 -0.6044  0.1790
  330TMC3     H 5011   3.094   2.443   9.531  1.1644 -1.7104 -1.1602
  330TMC3    H1 5012   3.498   2.517   9.598  0.0615 -0.1953 -0.0746
  330TMC3    H2 5013   3.257   2.404   9.926  0.4671 -0.9847 -0.6898
  330TMC3    C7 5014   3.514   2.425   9.833  0.4433  0.5331 -0.0007
  330TMC3    C8 5015   3.035   2.401   9.780 -0.3193  0.6801 -0.4552
  330TMC3    O1 5016   3.616   2.470   9.783  0.0010  0.0778 -0.2263
  330TMC3    O2 5017   2.942   2.456   9.716 -0.2083 -0.1400 -0.6045
  331MPD2     C 5018   2.815   1.701  12.081  0.5837  0.6330  0.1682
  331MPD2    C1 5019   2.729   1.763  12.001 -0.3900 -0.7505  1.0665
  331MPD2    C2 5020   2.592   1.754  12.031  0.0859  0.1888 -0.4138
  331MPD2    C3 5021   2.555   1.698  12.151  0.2369  0.2161  0.4869
  331MPD2    C4 5022   2.651   1.642  12.241  0.4136 -0.6098 -0.2443
  331MPD2    C5 5023   2.774   1.630  12.192  0.0120 -0.2773  0.0312
  331MPD2     H 5024   2.518   1.794  11.963 -0.4426  0.0264  0.0749
  331MPD2    H1 5025   2.614   1.595  12.331  0.1939 -1.7529 -0.9228
  331MPD2    H2 5026   2.924   1.700  12.075  0.4994 -5.0342  0.2076
  331MPD2    H3 5027   2.846   1.566  12.242  2.3469  2.1102 -0.2593
  331MPD2     N 5028   2.422   1.710  12.198  0.4921 -0.2564 -0.5337
  331MPD2    H5 5029   2.416   1.681  12.296 -1.4661  0.2278 -0.5112
  331MPD2    N1 5030   2.785   1.817  11.879 -0.3267 -0.0813 -0.5818
  331MPD2    H7 5031   2.877   1.780  11.856 -0.4137 -0.6746  0.0103
  332TMC3    C1 5032   2.196   1.782  12.218 -0.0143  0.8573  0.4228
  332TMC3    C2 5033   2.107   1.886  12.192  0.0007  0.2942  0.2697
  332TMC3    C3 5034   1.987   1.879  12.249  0.8427  0.0619 -0.2106
  332TMC3    C4 5035   2.163   1.667  12.286 -0.7044  0.1393  0.1097
  332TMC3    C5 5036   2.033   1.661  12.332 -0.6692 -0.2916 -0.7448
  332TMC3    C6 5037   1.944   1.768  12.317  0.4358 -0.3063  0.2060
  332TMC3     C 5038   2.321   1.782  12.142 -0.5509  0.0256 -0.5634
  332TMC3     O 5039   2.309   1.838  12.033 -0.7898  0.1376  0.0315
  332TMC3     H 5040   2.142   1.974  12.138  0.2950 -0.2234 -0.3742
  332TMC3    H1 5041   2.230   1.582  12.280  0.4140  1.2103 -2.5551
  332TMC3    H2 5042   1.838   1.754  12.338  0.4858 -0.8875  0.0716
  332TMC3    C7 5043   1.998   1.537  12.408  0.1185  0.1385 -0.1573
  332TMC3    C8 5044   1.897   1.947  12.158  0.2045  0.0646 -0.5571
  332TMC3    O1 5045   1.893   1.476  12.382 -0.0861 -0.6798  0.2147
  332TMC3    O2 5046   1.928   1.977  12.043  0.2633 -0.2868 -0.3788
  333MPD2     C 5047   1.496   1.793  11.291 -0.0264  0.0134 -0.1450
  333MPD2    C1 5048   1.584   1.692  11.266 -0.1790  0.5036  0.1242
  333MPD2    C2 5049   1.606   1.601  11.368 -0.0984 -0.3429 -0.7648
  333MPD2    C3 5050   1.545   1.613  11.493 -0.1653  0.8448 -0.4174
  333MPD2    C4 5051   1.463   1.723  11.521 -0.4164  1.0189 -0.0524
  333MPD2    C5 5052   1.443   1.807  11.415  0.0982 -0.3377 -0.6410
  333MPD2     H 5053   1.688   1.529  11.364  0.0375 -0.2899  1.1583
  333MPD2    H1 5054   1.432   1.752  11.621  0.4044 -0.7458  0.7217
  333MPD2    H2 5055   1.479   1.870  11.217 -0.5705 -0.5678 -0.6197
  333MPD2    H3 5056   1.389   1.900  11.429 -0.7649 -1.3823  2.9191
  333MPD2     N 5057   1.580   1.526  11.596  0.1312  0.1083 -0.0982
  333MPD2    H5 5058   1.646   1.453  11.575 -0.9614 -1.4830  1.9719
  333MPD2    N1 5059   1.645   1.680  11.137  0.1385 -0.0593 -0.0665
  333MPD2    H7 5060   1.636   1.761  11.077  1.7614  0.0971 -0.1062
  334TMC3    C1 5061   1.781   1.591  10.959 -0.3526  0.1423 -0.2133
  334TMC3    C2 5062   1.876   1.494  10.931  0.9934 -0.1261 -0.5606
  334TMC3    C3 5063   1.987   1.536  10.856  0.2307 -0.6442  0.4932
  334TMC3    C4 5064   1.782   1.718  10.902 -0.4386  0.2937 -0.0866
  334TMC3    C5 5065   1.891   1.750  10.830  0.0926 -0.7560 -0.4704
  334TMC3    C6 5066   1.989   1.659  10.794  0.1366  0.1640  0.1698
  334TMC3     C 5067   1.709   1.570  11.086 -0.7578  0.1825 -0.1388
  334TMC3     O 5068   1.739   1.472  11.149 -0.8085  0.2767 -0.0415
  334TMC3     H 5069   1.874   1.393  10.970  0.1211 -0.1054 -0.5537
  334TMC3    H1 5070   1.722   1.803  10.934 -1.1897 -0.4981  0.5867
  334TMC3    H2 5071   2.067   1.686  10.724 -0.4203  3.2012  0.7150
  334TMC3    C7 5072   1.946   1.879  10.830 -0.5044  0.3067  0.0859
  334TMC3    C8 5073   2.108   1.461  10.872  0.5075 -0.1646 -0.1071
  334TMC3    O1 5074   2.066   1.896  10.831  0.5596 -0.1243  0.2136
  334TMC3    O2 5075   2.107   1.349  10.902 -0.3514 -0.6189  0.1264
  335TMC3    C1 5076   2.225   3.267   0.091  0.1311  0.7319 -0.3138
  335TMC3    C2 5077   2.173   3.233  17.719  0.1668 -0.6058 -0.0894
  335TMC3    C3 5078   2.238   3.285  17.613  0.3279  0.5226 -0.3907
  335TMC3    C4 5079   2.345   3.327   0.115 -0.1748  0.0787  0.6999
  335TMC3    C5 5080   2.408   3.375   0.004  0.4584 -0.0063  0.6820
  335TMC3    C6 5081   2.361   3.348  17.627 -0.1928 -0.3721 -0.7266
  335TMC3     C 5082   2.145   3.226   0.205 -0.0412  0.8828  0.5363
  335TMC3     O 5083   2.071   3.126   0.191  0.7024 -0.5571 -0.0421
  335TMC3     H 5084   2.083   3.173  17.712  0.0685 -0.4382 -0.2490
  335TMC3    H1 5085   2.377   3.337   0.218 -1.7123  2.2910  0.9826
  335TMC3    H2 5086   2.408   3.398  17.543  1.0009 -1.4837 -0.7265
  335TMC3    C7 5087   2.538   3.426   0.011 -0.3504 -0.3730 -0.1015
  335TMC3    C8 5088   2.174   3.294  17.484 -0.8880 -0.2953  0.6183
  335TMC3    O1 5089   2.576   3.486  17.659  0.0095  0.2830  0.0223
  335TMC3    O2 5090   2.213   3.380  17.404 -0.7203 -0.3631 -0.5897
  336MPD2     C 5091   1.751   1.090  15.590 -0.5389 -0.2376 -0.1262
  336MPD2    C1 5092   1.675   0.995  15.530  0.6246 -0.0338  0.3955
  336MPD2    C2 5093   1.674   0.867  15.574 -0.5932  0.4699 -0.3279
  336MPD2    C3 5094   1.745   0.836  15.683  0.3503  0.7153 -0.5365
  336MPD2    C4 5095   1.817   0.932  15.748  0.5424  0.2140 -0.2090
  336MPD2    C5 5096   1.822   1.061  15.698  0.0970  0.4850  0.5834
  336MPD2     H 5097   1.611   0.787  15.534  1.5950 -1.2756 -0.2751
  336MPD2    H1 5098   1.874   0.919  15.839 -0.4653  0.5425  0.4712
  336MPD2    H2 5099   1.755   1.195  15.563  1.7795 -0.9335 -2.4184
  336MPD2    H3 5100   1.878   1.143  15.742 -0.2779  1.2292 -0.3238
  336MPD2     N 5101   1.727   0.710  15.749  0.8215  0.5275 -0.3212
  336MPD2    H5 5102   1.758   0.694  15.845 -2.3127  1.3302  0.8138
  336MPD2    N1 5103   1.584   1.030  15.424 -0.5579  0.0536  0.0535
  336MPD2    H7 5104   1.505   0.974  15.397 -0.3611  0.1125 -0.6531
  337TMC3    C1 5105   1.493   1.174  15.265  0.5937  0.1910  0.3514
  337TMC3    C2 5106   1.385   1.085  15.262  0.7606  0.1702  0.5473
  337TMC3    C3 5107   1.270   1.131  15.202 -0.5907 -0.1636  0.5060
  337TMC3    C4 5108   1.485   1.303  15.221 -0.5417  0.2780 -1.0296
  337TMC3    C5 5109   1.366   1.335  15.171 -0.3262  0.3005 -0.1470
  337TMC3    C6 5110   1.258   1.257  15.163  0.0249 -0.4816 -0.6613
  337TMC3     C 5111   1.603   1.142  15.350 -0.2309  0.3805  1.0462
  337TMC3     O 5112   1.699   1.215  15.346  0.4809  0.0099 -0.5976
  337TMC3     H 5113   1.387   0.981  15.291 -2.1597 -0.3837 -1.2395
  337TMC3    H1 5114   1.574   1.365  15.224 -0.6088  0.2338  2.3316
  337TMC3    H2 5115   1.173   1.298  15.110 -0.1979  1.2451  1.0341
  337TMC3    C7 5116   1.350   1.476  15.150  0.1684  0.3224  0.0386
  337TMC3    C8 5117   1.167   1.027  15.172 -0.0060 -0.4261 -0.6033
  337TMC3    O1 5118   1.287   1.520  15.052  0.3140  0.0377  0.0478
  337TMC3    O2 5119   1.138   0.947  15.260  0.9110 -0.6160  0.0823
  338MPD2     C 5120   1.879   0.965   0.827 -0.0434  0.5566 -0.7528
  338MPD2    C1 5121   1.816   0.882   0.744 -0.5468  0.2423 -0.8336
  338MPD2    C2 5122   1.685   0.863   0.765  0.5736  0.5484 -0.8805
  338MPD2    C3 5123   1.619   0.914   0.871  0.0629 -0.5596 -0.7477
  338MPD2    C4 5124   1.684   0.980   0.969 -0.0495 -0.3101  0.0412
  338MPD2    C5 5125   1.815   1.008   0.945  0.5111 -0.7453  0.1407
  338MPD2     H 5126   1.634   0.812   0.684 -1.2824 -1.7587  1.7658
  338MPD2    H1 5127   1.631   1.023   1.054 -1.3165 -2.0329  0.1131
  338MPD2    H2 5128   1.985   0.984   0.817 -0.1116  1.1297 -0.3825
  338MPD2    H3 5129   1.873   1.069   1.013  0.3836  2.1286 -2.3185
  338MPD2     N 5130   1.487   0.881   0.873  0.2149 -0.0675 -0.0432
  338MPD2    H5 5131   1.457   0.847   0.782 -1.8278  1.6998 -0.0262
  338MPD2    N1 5132   1.878   0.815   0.635  0.3676  0.2773 -0.3461
  338MPD2    H7 5133   1.820   0.775   0.562  2.1756  1.6682 -2.5453
  339TMC3    C1 5134   1.254   0.905   0.924 -0.8092  0.4599 -0.2695
  339TMC3    C2 5135   1.150   0.862   1.006  0.5597  0.4491 -0.0310
  339TMC3    C3 5136   1.033   0.834   0.941 -0.7195  0.0447 -0.4104
  339TMC3    C4 5137   1.237   0.925   0.792  0.0575  1.0197  0.3267
  339TMC3    C5 5138   1.121   0.874   0.735 -0.5261  0.1743  0.5180
  339TMC3    C6 5139   1.017   0.828   0.803 -0.3586 -0.6458 -0.2070
  339TMC3     C 5140   1.391   0.907   0.974 -0.4295  0.3232  0.4085
  339TMC3     O 5141   1.397   0.919   1.092  0.2872 -0.4321 -0.1502
  339TMC3     H 5142   1.158   0.866   1.114  6.4966  3.0861 -0.5669
  339TMC3    H1 5143   1.307   0.969   0.721  1.6397  0.5570  1.5977
  339TMC3    H2 5144   0.920   0.813   0.756 -1.9537  4.3905  1.4798
  339TMC3    C7 5145   1.081   0.944   0.616  0.4425  0.1978  0.3817
  339TMC3    C8 5146   0.917   0.781   1.013 -0.5272  0.3577  0.6422
  339TMC3    O1 5147   1.127   1.060   0.599 -0.0662 -0.3160 -0.3715
  339TMC3    O2 5148   0.811   0.782   0.949 -0.2366 -0.4211 -0.7653
  340MPD2     C 5149   1.519   2.652  10.277  0.3451  0.4637  0.1448
  340MPD2    C1 5150   1.428   2.731  10.206  0.5772 -0.4242  0.2364
  340MPD2    C2 5151   1.451   2.866  10.190  0.2193 -0.2691  0.2566
  340MPD2    C3 5152   1.573   2.917  10.227  0.5214  0.6280 -0.0351
  340MPD2    C4 5153   1.662   2.840  10.297 -0.2940  0.0415  0.8499
  340MPD2    C5 5154   1.636   2.708  10.324 -0.5448 -0.9095 -0.1656
  340MPD2     H 5155   1.379   2.933  10.145 -0.7285 -0.5196  1.3971
  340MPD2    H1 5156   1.759   2.880  10.325  0.2859 -1.6529  1.2597
  340MPD2    H2 5157   1.500   2.547  10.300  2.2507  0.1690  0.4430
  340MPD2    H3 5158   1.700   2.644  10.385 -0.2480  1.5400  2.0840
  340MPD2     N 5159   1.598   3.057  10.204 -0.8521  0.2039  0.2135
  340MPD2    H5 5160   1.688   3.093  10.234 -0.1218 -1.3581 -0.1147
  340MPD2    N1 5161   1.316   2.662  10.156  0.4196  0.3292 -0.2438
  340MPD2    H7 5162   1.311   2.565  10.185 -0.8653  0.2148 -0.8139
  341TMC3    C1 5163   1.151   2.609   9.993 -0.0124 -0.2225 -0.2702
  341TMC3    C2 5164   1.173   2.477  10.010 -0.3380 -0.8599 -0.0796
  341TMC3    C3 5165   1.151   2.391   9.899  0.4823  0.4533 -0.1211
  341TMC3    C4 5166   1.091   2.649   9.881  0.3282 -0.1536  0.3001
  341TMC3    C5 5167   1.067   2.559   9.785  0.2570  0.5133 -0.6154
  341TMC3    C6 5168   1.082   2.428   9.785  0.1638  0.8411 -0.1416
  341TMC3     C 5169   1.220   2.719  10.070  0.6785  0.1729 -0.6496
  341TMC3     O 5170   1.217   2.827  10.019  0.4905  0.1529  0.0284
  341TMC3     H 5171   1.226   2.435  10.095 -0.0039  2.1792  1.2221
  341TMC3    H1 5172   1.078   2.756   9.877 -1.5777 -0.3981  0.1548
  341TMC3    H2 5173   1.084   2.371   9.693  2.6234  1.0260 -0.2025
  341TMC3    C7 5174   1.033   2.621   9.659  0.0209 -0.1400  0.1696
  341TMC3    C8 5175   1.184   2.247   9.894 -0.1843 -0.1453 -0.2922
  341TMC3    O1 5176   0.956   2.565   9.587 -0.0558 -0.1585 -0.4423
  341TMC3    O2 5177   1.131   2.183   9.804  0.4864 -0.3797  0.4737
  342MPD2     C 5178   4.377   1.561  17.034  0.0400 -0.0690  0.3644
  342MPD2    C1 5179   4.505   1.568  16.995 -0.1682 -0.1498 -0.9126
  342MPD2    C2 5180   4.573   1.681  17.035 -0.2507 -0.2822  0.0005
  342MPD2    C3 5181   4.516   1.776  17.116  0.0669  0.4063 -0.4600
  342MPD2    C4 5182   4.390   1.759  17.168 -0.4291 -0.2448  0.3150
  342MPD2    C5 5183   4.321   1.650  17.124 -0.2092  0.4936  0.2863
  342MPD2     H 5184   4.673   1.693  16.997 -0.3243  1.1631  0.2408
  342MPD2    H1 5185   4.340   1.828  17.235  0.6399 -1.2450  2.1360
  342MPD2    H2 5186   4.309   1.481  17.005 -0.4422  0.8417 -1.0552
  342MPD2    H3 5187   4.221   1.629  17.160  0.4224 -0.7576  1.3017
  342MPD2     N 5188   4.576   1.899  17.165  0.0721 -0.6976  0.5329
  342MPD2    H5 5189   4.524   1.954  17.233  0.7795 -0.9153  1.2392
  342MPD2    N1 5190   4.569   1.470  16.923 -0.8217  0.5120 -0.5121
  342MPD2    H7 5191   4.658   1.496  16.881 -0.4026 -0.2802 -0.1184
  343TMC3    C1 5192   4.600   1.262  16.815  0.1753  0.4566 -0.0010
  343TMC3    C2 5193   4.698   1.313  16.727 -0.5997 -0.5761 -0.0653
  343TMC3    C3 5194   0.027   1.216  16.650 -0.8689  0.8818  0.7569
  343TMC3    C4 5195   4.574   1.122  16.825  0.7710 -0.6650  0.4111
  343TMC3    C5 5196   4.632   1.044  16.726 -0.0603  0.0332 -0.0457
  343TMC3    C6 5197   4.735   1.083  16.644 -0.8147  0.4200 -0.5099
  343TMC3     C 5198   4.523   1.341  16.903 -1.0392  0.2715  0.6140
  343TMC3     O 5199   4.424   1.291  16.957 -0.3185 -0.9502  0.3275
  343TMC3     H 5200   4.715   1.418  16.706  0.3266 -0.6889  0.1181
  343TMC3    H1 5201   4.497   1.079  16.888 -0.6177  0.3021 -0.6339
  343TMC3    H2 5202   0.035   1.020  16.565  0.1907  1.2699 -0.7115
  343TMC3    C7 5203   4.568   0.922  16.703  0.3484 -0.1348 -0.1679
  343TMC3    C8 5204   0.147   1.256  16.576  1.0890  1.0930  0.8068
  343TMC3    O1 5205   4.560   0.843  16.792 -0.2157  0.2889 -0.2814
  343TMC3    O2 5206   0.173   1.374  16.586 -0.3988  0.0139  0.1122
  344MPD2     C 5207   0.860   0.312  10.743  0.3621 -0.5551 -0.2958
  344MPD2    C1 5208   0.761   0.385  10.686 -0.2928  0.1491  0.2098
  344MPD2    C2 5209   0.802   0.481  10.596 -0.4667  0.1446 -0.2659
  344MPD2    C3 5210   0.928   0.497  10.544  0.4153  0.6002 -0.1207
  344MPD2    C4 5211   1.019   0.416  10.593 -0.0238  0.2105  0.3450
  344MPD2    C5 5212   0.988   0.326  10.693 -0.2888 -0.2562  0.5177
  344MPD2     H 5213   0.730   0.544  10.546  1.2284  0.3618 -2.4407
  344MPD2    H1 5214   1.125   0.423  10.570 -0.5988  1.5139 -1.8384
  344MPD2    H2 5215   0.842   0.232  10.815  1.0466 -1.3666 -1.0360
  344MPD2    H3 5216   1.072   0.262  10.715 -0.1199  0.1197  0.9444
  344MPD2     N 5217   0.965   0.578  10.439  0.2525  0.4937  0.2156
  344MPD2    H5 5218   1.066   0.576  10.425  0.1077 -2.2843 -0.5179
  344MPD2    N1 5219   0.631   0.366  10.724 -0.2646 -0.4373 -0.7354
  344MPD2    H7 5220   0.618   0.305  10.804 -2.7719  1.0671  0.0014
  345TMC3    C1 5221   0.967   0.758  10.288  0.6087 -0.5765 -0.2413
  345TMC3    C2 5222   1.091   0.784  10.323  0.6756  0.1199 -0.1615
  345TMC3    C3 5223   1.154   0.892  10.260  0.1081  0.0272  0.0210
  345TMC3    C4 5224   0.915   0.808  10.174 -0.0875  1.0230  0.5156
  345TMC3    C5 5225   0.975   0.913  10.108  0.0221 -1.5138  0.1481
  345TMC3    C6 5226   1.098   0.960  10.159 -0.0581  1.0971  0.0411
  345TMC3     C 5227   0.887   0.658  10.359 -0.0362 -0.1987  0.0249
  345TMC3     O 5228   0.768   0.662  10.343 -0.4639  0.1174  0.2187
  345TMC3     H 5229   1.152   0.732  10.396  0.9900  1.4598  0.5310
  345TMC3    H1 5230   0.814   0.780  10.144 -0.8060  1.7323  2.3131
  345TMC3    H2 5231   1.147   1.036  10.099 -0.4254  2.7317  1.8521
  345TMC3    C7 5232   0.901   1.009  10.035 -0.2708  0.5286 -0.4816
  345TMC3    C8 5233   1.262   0.958  10.324 -0.8766  0.1978  0.1654
  345TMC3    O1 5234   0.942   1.126  10.032  0.6698  0.2025 -0.7678
  345TMC3    O2 5235   1.302   0.912  10.433 -0.2128  0.0229 -0.1142
  346MPD2     C 5236   0.780   2.461  14.244  0.0898  0.0396 -0.3863
  346MPD2    C1 5237   0.836   2.553  14.162  0.3508  0.8299 -0.4001
  346MPD2    C2 5238   0.883   2.669  14.219  0.8374  0.1808 -0.5262
  346MPD2    C3 5239   0.868   2.703  14.350  0.4546  0.9796  0.2480
  346MPD2    C4 5240   0.806   2.615  14.428 -0.4810 -0.3763 -0.3448
  346MPD2    C5 5241   0.764   2.494  14.374 -0.7857 -0.4463 -0.0352
  346MPD2     H 5242   0.941   2.742  14.163  2.4158 -0.6170  0.0452
  346MPD2    H1 5243   0.790   2.628  14.535  1.1224  2.5426 -0.4683
  346MPD2    H2 5244   0.735   2.366  14.221 -1.3530 -0.0699  2.8404
  346MPD2    H3 5245   0.717   2.425  14.443 -0.7873  1.0624  1.4809
  346MPD2     N 5246   0.937   2.822  14.402  0.2734  1.3380  0.5016
  346MPD2    H5 5247   0.996   2.875  14.339  2.1753 -0.6752  0.5814
  346MPD2    N1 5248   0.860   2.537  14.023  0.3139  0.3390 -0.4717
  346MPD2    H7 5249   0.902   2.609  13.965  0.6570  0.4329 -0.1031
  347TMC3    C1 5250   1.037   2.962  14.547 -0.0493 -0.6880 -0.1176
  347TMC3    C2 5251   1.083   3.032  14.434 -0.6243  0.2381 -0.7984
  347TMC3    C3 5252   1.209   3.073  14.427  0.1437 -0.5584 -0.2290
  347TMC3    C4 5253   1.106   2.952  14.664  0.0066  0.5772  0.3865
  347TMC3    C5 5254   1.235   2.998  14.653 -0.0174 -0.8047  0.2462
  347TMC3    C6 5255   1.289   3.051  14.538  0.0213  0.2078 -0.2068
  347TMC3     C 5256   0.944   2.859  14.532 -0.1234  0.1331 -0.3837
  347TMC3     O 5257   0.901   2.807  14.630 -0.1857 -0.4583  0.4504
  347TMC3     H 5258   1.024   3.036  14.343  0.9474 -1.0515 -1.8792
  347TMC3    H1 5259   1.059   2.910  14.752 -1.8867  0.9571 -0.4391
  347TMC3    H2 5260   1.384   3.103  14.539  1.3446 -2.1467 -2.0356
  347TMC3    C7 5261   1.331   2.915  14.719 -0.1223  0.5165  0.0843
  347TMC3    C8 5262   1.277   3.007  14.312 -0.0418 -0.1599 -0.0044
  347TMC3    O1 5263   1.300   2.867  14.825  0.2507 -0.2008 -0.4630
  347TMC3    O2 5264   1.233   2.899  14.271 -0.3054  0.2251 -0.2167
  348MPD2     C 5265   3.809   2.169  12.248  0.3614  0.3208  0.1961
  348MPD2    C1 5266   3.913   2.251  12.228  0.7311 -0.0495  0.0048
  348MPD2    C2 5267   3.902   2.350  12.133 -0.8856  0.5486 -0.3791
  348MPD2    C3 5268   3.786   2.377  12.057 -0.6849 -0.1405  0.3451
  348MPD2    C4 5269   3.680   2.295  12.081  0.2361 -0.1859 -0.2163
  348MPD2    C5 5270   3.697   2.190  12.171 -0.5568 -0.0109  0.2540
  348MPD2     H 5271   3.989   2.407  12.106  0.5361 -1.8554 -0.9065
  348MPD2    H1 5272   3.589   2.313  12.024  0.9683  1.7432 -0.7569
  348MPD2    H2 5273   3.802   2.088  12.319 -0.3784  0.5039  0.3407
  348MPD2    H3 5274   3.612   2.125  12.185  0.1917 -1.0626 -0.1078
  348MPD2     N 5275   3.786   2.482  11.957 -0.2404  0.8419  0.0234
  348MPD2    H5 5276   3.870   2.538  11.957 -0.1371  0.6918  0.7320
  348MPD2    N1 5277   4.037   2.249  12.295  0.4141 -0.1320 -0.1398
  348MPD2    H7 5278   4.105   2.318  12.263 -0.1424 -0.1078 -1.2431
  349TMC3    C1 5279   4.222   2.147  12.400  0.3940  0.3156 -0.1829
  349TMC3    C2 5280   4.256   2.015  12.402 -0.4580  0.1153  0.3135
  349TMC3    C3 5281   4.374   1.980  12.336  0.6262 -0.1599  0.4498
  349TMC3    C4 5282   4.300   2.241  12.334  0.1133 -0.6692 -0.0114
  349TMC3    C5 5283   4.411   2.202  12.257  0.6138 -0.2349  0.1887
  349TMC3    C6 5284   4.441   2.067  12.253 -0.1623  0.4089  0.2625
  349TMC3     C 5285   4.079   2.149  12.385  0.0900  0.4529 -0.1380
  349TMC3     O 5286   4.021   2.052  12.426 -0.7262  0.2083  0.1843
  349TMC3     H 5287   4.207   1.930  12.449 -0.1842 -0.3620 -0.2692
  349TMC3    H1 5288   4.267   2.344  12.335 -2.5260 -1.5117 -0.4753
  349TMC3    H2 5289   4.530   2.035  12.199 -0.5206 -0.3954  0.1453
  349TMC3    C7 5290   4.399   2.277  12.134  0.2437  0.0082  0.5269
  349TMC3    C8 5291   4.431   1.847  12.349  0.2010 -0.2983 -0.0126
  349TMC3    O1 5292   4.425   2.398  12.131 -0.2599  0.6574 -0.1840
  349TMC3    O2 5293   4.403   1.796  12.453  0.7674 -0.1771 -0.1714
  350MPD2     C 5294   3.206   4.467   9.827 -0.1556 -0.4357 -0.5770
  350MPD2    C1 5295   3.123   4.554   9.901  0.0430 -0.1994  0.1628
  350MPD2    C2 5296   3.178   4.644   9.989 -0.4220 -0.0306  0.4385
  350MPD2    C3 5297   3.316   4.642  10.000  0.3227  0.1872 -0.5365
  350MPD2    C4 5298   3.398   4.565   9.918 -0.1817 -0.1123 -0.3564
  350MPD2    C5 5299   3.339   4.470   9.836 -0.9909 -0.5829 -0.4707
  350MPD2     H 5300   3.121   4.709  10.055 -1.6537  0.8621 -1.5308
  350MPD2    H1 5301   3.501   4.595   9.904 -0.5003  0.1715 -2.1251
  350MPD2    H2 5302   3.161   4.410   9.747 -1.3776  0.6409 -0.6515
  350MPD2    H3 5303   3.398   4.417   9.762 -0.3057  0.2568 -0.5288
  350MPD2     N 5304   3.368   4.737  10.096  0.3227  0.1142  0.1366
  350MPD2    H5 5305   3.299   0.042  10.157  0.7050 -0.8365  1.2612
  350MPD2    N1 5306   2.984   4.531   9.875  0.3388 -0.1540  0.2761
  350MPD2    H7 5307   2.962   4.466   9.801 -0.0537  0.0676  0.1985
  351TMC3    C1 5308   2.746   4.546   9.904  0.1186 -0.6100 -0.7089
  351TMC3    C2 5309   2.729   4.514   9.771 -0.3626  0.0243 -0.1034
  351TMC3    C3 5310   2.613   4.448   9.746 -0.7897 -0.3249 -0.3207
  351TMC3    C4 5311   2.653   4.510   9.994  0.3852  0.1932 -0.0658
  351TMC3    C5 5312   2.544   4.433   9.961  0.1729  1.0213 -0.7260
  351TMC3    C6 5313   2.518   4.413   9.835  0.2852  0.2253 -0.2892
  351TMC3     C 5314   2.880   4.590   9.946 -0.0130 -0.2472 -0.2042
  351TMC3     O 5315   2.884   4.661  10.046  0.3380 -0.4135 -0.0225
  351TMC3     H 5316   2.804   4.539   9.697 -0.3032 -0.0034 -0.0535
  351TMC3    H1 5317   2.666   4.528  10.100 -0.2463  0.2437  0.0027
  351TMC3    H2 5318   2.428   4.363   9.802 -0.5250 -0.1137  2.4333
  351TMC3    C7 5319   2.489   4.346  10.057 -0.2014 -0.6664  0.4403
  351TMC3    C8 5320   2.599   4.423   9.599  0.2067 -0.0153  0.4133
  351TMC3    O1 5321   2.490   4.388  10.174 -0.6506 -0.6197  0.3295
  351TMC3    O2 5322   2.698   4.399   9.537  0.0773  0.6255 -0.5113
  352MPD2     C 5323   2.313   2.834   1.184  0.3532  0.3001  0.4310
  352MPD2    C1 5324   2.237   2.779   1.087 -0.1800 -0.6609 -0.0707
  352MPD2    C2 5325   2.260   2.649   1.059 -0.3105  0.0801  0.3714
  352MPD2    C3 5326   2.361   2.571   1.124 -0.0636 -1.1835 -0.7041
  352MPD2    C4 5327   2.450   2.632   1.202 -0.7045  0.3103  0.4454
  352MPD2    C5 5328   2.415   2.762   1.237 -0.4627  0.7367 -0.2982
  352MPD2     H 5329   2.206   2.598   0.980  0.4196  0.7749 -0.5721
  352MPD2    H1 5330   2.525   2.582   1.262 -0.0380  1.3519  0.4844
  352MPD2    H2 5331   2.295   2.934   1.223 -0.7676 -0.6182  2.2702
  352MPD2    H3 5332   2.484   2.802   1.311 -4.4993  2.8469  2.2992
  352MPD2     N 5333   2.376   2.432   1.096  0.5250  0.2652 -0.2945
  352MPD2    H5 5334   2.456   2.388   1.142 -0.6589  1.4250  2.8490
  352MPD2    N1 5335   2.131   2.850   1.042 -0.2520 -0.4090  0.7617
  352MPD2    H7 5336   2.119   2.945   1.077  1.8008 -0.1427  0.7666
  353TMC3    C1 5337   2.326   2.216   1.005 -0.1381  0.0963 -0.2077
  353TMC3    C2 5338   2.422   2.151   1.080 -0.0999  0.4376 -0.2739
  353TMC3    C3 5339   2.403   2.019   1.090 -0.5401  1.0317  0.0723
  353TMC3    C4 5340   2.234   2.135   0.929 -0.0357  0.4440  0.8774
  353TMC3    C5 5341   2.216   2.005   0.963 -0.1538 -0.5361 -0.2983
  353TMC3    C6 5342   2.302   1.946   1.042 -0.3696  0.6645  0.2161
  353TMC3     C 5343   2.285   2.355   1.031 -0.4628 -0.0894  0.2870
  353TMC3     O 5344   2.176   2.380   0.984  0.3885 -0.2648 -0.0011
  353TMC3     H 5345   2.501   2.197   1.138 -0.4704  3.8781 -2.4845
  353TMC3    H1 5346   2.160   2.189   0.870 -1.2756 -0.8651  1.2324
  353TMC3    H2 5347   2.295   1.841   1.066 -0.9526  0.7234  0.2892
  353TMC3    C7 5348   2.126   1.911   0.895 -0.4540 -0.3456 -0.4472
  353TMC3    C8 5349   2.509   1.940   1.151  0.1144  0.1555 -0.3308
  353TMC3    O1 5350   2.132   1.787   0.911 -0.1317 -0.5818 -0.2579
  353TMC3    O2 5351   2.591   1.979   1.232 -0.3661  0.5134 -0.3800
  354TMC3    C1 5352   3.377   3.206  13.495  0.2441 -0.0630 -0.5489
  354TMC3    C2 5353   3.447   3.328  13.507  0.0045 -0.2592  0.2324
  354TMC3    C3 5354   3.417   3.423  13.417 -0.8469  0.6245 -0.2071
  354TMC3    C4 5355   3.282   3.185  13.393  0.2286  0.2645  0.6783
  354TMC3    C5 5356   3.245   3.288  13.313 -0.1786  0.0635  0.0421
  354TMC3    C6 5357   3.311   3.410  13.329  0.1399  0.4213  0.1076
  354TMC3     C 5358   3.377   3.107  13.602 -0.7717  0.8713 -0.9468
  354TMC3     O 5359   3.289   3.025  13.603  0.1302 -0.8303  0.1760
  354TMC3     H 5360   3.543   3.336  13.557 -1.1061 -0.0755  2.3525
  354TMC3    H1 5361   3.219   3.098  13.376  0.9780 -0.1418 -0.0193
  354TMC3    H2 5362   3.291   3.496  13.267 -1.7133 -1.3847 -1.8223
  354TMC3    C7 5363   3.237   3.254  13.176  0.4677  0.0505 -0.3499
  354TMC3    C8 5364   3.534   3.465  13.332 -0.2245 -0.4108  0.1618
  354TMC3    O1 5365   3.153   3.171  13.143  0.0161 -0.4100  0.3941
  354TMC3    O2 5366   3.515   3.475  13.212 -0.1082 -0.0589 -0.0031
  355MPD2     C 5367   3.390   3.997  11.772  0.2917 -0.2669 -0.1136
  355MPD2    C1 5368   3.440   4.068  11.666 -0.4897 -0.1648 -0.4984
  355MPD2    C2 5369   3.569   4.124  11.680 -0.2629 -0.6713  0.2125
  355MPD2    C3 5370   3.616   4.152  11.810  0.7747  0.4011 -0.3838
  355MPD2    C4 5371   3.544   4.101  11.917  0.5642 -0.4672 -0.9330
  355MPD2    C5 5372   3.448   4.008  11.894 -0.0272  0.1709  0.2567
  355MPD2     H 5373   3.614   4.179  11.598 -0.2277 -1.0016  0.0128
  355MPD2    H1 5374   3.585   4.114  12.016  0.1249  0.8545 -0.9203
  355MPD2    H2 5375   3.301   3.937  11.762 -2.6255  3.6960  2.2403
  355MPD2    H3 5376   3.403   3.958  11.979  1.4533  0.6323  1.3152
  355MPD2     N 5377   3.724   4.236  11.824  0.8448 -0.0860 -0.1494
  355MPD2    H5 5378   3.768   4.252  11.734  1.4091  1.7613  0.4587
  355MPD2    N1 5379   3.368   4.071  11.543  0.2319  0.1124  0.2136
  355MPD2    H7 5380   3.286   4.012  11.546 -0.3634  0.9206 -0.1884
  356TMC3    C1 5381   3.870   4.410  11.910  0.4957  0.6547 -0.4698
  356TMC3    C2 5382   3.904   4.446  11.786  0.0334 -0.2069 -0.1243
  356TMC3    C3 5383   4.007   4.540  11.771 -0.6300 -0.2174 -0.5623
  356TMC3    C4 5384   3.912   4.473  12.019 -0.9601  0.1236 -0.2356
  356TMC3    C5 5385   4.014   4.569  12.004  0.2665  0.1085  0.1600
  356TMC3    C6 5386   4.069   4.604  11.880 -0.2498  0.1681 -0.4813
  356TMC3     C 5387   3.761   4.312  11.933  0.5677  0.5898  0.3675
  356TMC3     O 5388   3.710   4.304  12.042 -0.3570 -0.1173 -0.2636
  356TMC3     H 5389   3.856   4.403  11.699 -0.5704 -1.3973  0.8098
  356TMC3    H1 5390   3.861   4.455  12.113 -2.0959  2.4138 -0.4211
  356TMC3    H2 5391   4.162   4.655  11.861 -0.7158  0.7109 -1.2695
  356TMC3    C7 5392   4.069   4.627  12.126 -0.1707 -0.2817  0.2472
  356TMC3    C8 5393   4.076   4.517  11.650 -0.0205 -0.0920 -0.3329
  356TMC3    O1 5394   4.019   4.577  12.223 -0.5537 -0.0849  0.3769
  356TMC3    O2 5395   4.064   4.409  11.593 -0.0728 -0.1569 -0.3239
  357MPD2     C 5396   3.810   4.665   0.944 -0.3663 -0.2607 -0.8161
  357MPD2    C1 5397   3.895   4.577   1.018 -0.4185 -0.4257  0.1374
  357MPD2    C2 5398   3.850   4.555   1.147  0.8553 -0.1714  0.1223
  357MPD2    C3 5399   3.735   4.614   1.199 -0.2834  0.6520  0.5433
  357MPD2    C4 5400   3.655   4.689   1.121  0.2798  0.0551  0.5619
  357MPD2    C5 5401   3.693   4.709   0.993  0.6037  0.0689  0.6819
  357MPD2     H 5402   3.905   4.483   1.206 -0.4990 -0.9858  0.3950
  357MPD2    H1 5403   3.561   4.733   1.152 -0.1894 -0.1373 -0.5610
  357MPD2    H2 5404   3.833   4.693   0.841 -1.7749  1.0602 -0.7657
  357MPD2    H3 5405   3.634   0.038   0.931  2.5238 -0.0393 -1.2573
  357MPD2     N 5406   3.683   4.582   1.331  0.6201  0.3032  0.4633
  357MPD2    H5 5407   3.594   4.625   1.354 -0.6313 -1.6861 -0.6971
  357MPD2    N1 5408   4.011   4.526   0.952  0.8828  0.0345  0.6039
  357MPD2    H7 5409   4.031   4.546   0.854  1.9035 -1.5641  0.4827
  358TMC3    C1 5410   4.197   4.385   0.930  0.1168 -0.5224 -0.5068
  358TMC3    C2 5411   4.180   4.377   0.798  0.5038  0.1452  0.1159
  358TMC3    C3 5412   4.269   4.309   0.726 -0.6853 -1.0813 -0.4426
  358TMC3    C4 5413   4.305   4.330   0.995 -0.0869  0.1161 -0.4375
  358TMC3    C5 5414   4.409   4.276   0.919 -0.1998 -0.1547  0.0446
  358TMC3    C6 5415   4.383   4.251   0.786  0.2023  0.5217 -0.0399
  358TMC3     C 5416   4.098   4.440   1.017  0.4030 -0.7901  0.2424
  358TMC3     O 5417   4.097   4.397   1.130 -0.2128 -0.2230  0.0970
  358TMC3     H 5418   4.093   4.418   0.749  0.5888 -0.2228 -0.3430
  358TMC3    H1 5419   4.323   4.356   1.100  0.2386  2.0459 -0.9558
  358TMC3    H2 5420   4.469   4.227   0.724  0.8232  1.4180  0.4729
  358TMC3    C7 5421   4.534   4.227   0.979  1.0939  0.4057 -0.2472
  358TMC3    C8 5422   4.235   4.279   0.587  0.3217 -0.3395  0.5048
  358TMC3    O1 5423   4.588   4.143   0.911  0.3182  0.2203  0.6384
  358TMC3    O2 5424   4.126   4.298   0.542 -0.3337 -0.3113 -0.5637
  359MPD2     C 5425   4.271   2.907  12.440  0.0200  0.3658 -0.6727
  359MPD2    C1 5426   4.166   2.960  12.366  0.5732  0.4484  0.4489
  359MPD2    C2 5427   4.057   2.877  12.354 -0.2525  0.0761 -0.3501
  359MPD2    C3 5428   4.040   2.770  12.444  0.1513 -0.7618 -0.6049
  359MPD2    C4 5429   4.134   2.739  12.544 -0.2261 -0.4346  0.5798
  359MPD2    C5 5430   4.256   2.800  12.528 -0.0991 -0.4691 -0.0299
  359MPD2     H 5431   3.992   2.894  12.268  0.7822  1.0770 -0.9464
  359MPD2    H1 5432   4.115   2.656  12.611 -1.2218 -1.7714 -1.3984
  359MPD2    H2 5433   4.374   2.935  12.422 -0.1042  1.1126 -0.2107
  359MPD2    H3 5434   4.335   2.760  12.590  0.0232 -0.6911 -0.3306
  359MPD2     N 5435   3.923   2.689  12.440  0.0812 -0.0748 -0.3755
  359MPD2    H5 5436   3.912   2.619  12.512  0.6301  0.5889  0.3465
  359MPD2    N1 5437   4.171   3.070  12.273 -0.2903 -0.1344 -0.0749
  359MPD2    H7 5438   4.082   3.086  12.227 -0.4525  2.1583  1.0706
  360TMC3    C1 5439   4.263   3.277  12.207  0.3804 -0.4909 -0.2272
  360TMC3    C2 5440   4.378   3.342  12.174 -0.2820  0.5558  0.1764
  360TMC3    C3 5441   4.369   3.447  12.088 -0.0170 -0.2576  0.4790
  360TMC3    C4 5442   4.138   3.318  12.171 -0.7412  0.3426  0.7033
  360TMC3    C5 5443   4.135   3.432  12.090 -0.6977  0.6326 -0.4982
  360TMC3    C6 5444   4.252   3.493  12.047 -0.1896  0.6044  0.4952
  360TMC3     C 5445   4.277   3.156  12.282  0.0238 -0.0919 -0.1641
  360TMC3     O 5446   4.362   3.169  12.369  0.5911  0.9043  0.2440
  360TMC3     H 5447   4.474   3.297  12.199  0.1096  0.3970 -1.6241
  360TMC3    H1 5448   4.043   3.271  12.191  0.9331 -2.8629  1.1867
  360TMC3    H2 5449   4.249   3.572  11.973 -1.1232 -0.1713 -0.2847
  360TMC3    C7 5450   4.045   3.412  11.979 -1.1256 -0.0777 -0.5755
  360TMC3    C8 5451   4.487   3.472  12.008  0.2848 -0.3249  0.5813
  360TMC3    O1 5452   4.101   3.427  11.872  0.6534  0.1632  0.3358
  360TMC3    O2 5453   4.485   3.582  11.946  0.6924 -0.3404  0.3354
  361MPD2     C 5454   0.984   2.463  17.092 -0.1397 -0.2890 -0.2640
  361MPD2    C1 5455   0.984   2.378  16.981 -0.7690  0.4675  0.7453
  361MPD2    C2 5456   1.072   2.276  16.991 -0.2808  1.1735  0.1081
  361MPD2    C3 5457   1.157   2.246  17.088  0.0689 -0.0461  0.2804
  361MPD2    C4 5458   1.141   2.316  17.206 -0.2324  0.0053  0.1715
  361MPD2    C5 5459   1.060   2.428  17.202 -0.0922  0.1734  0.2416
  361MPD2     H 5460   1.086   2.215  16.903 -1.6328 -0.2759  0.8985
  361MPD2    H1 5461   1.192   2.300  17.300  1.5522 -0.2452 -0.8470
  361MPD2    H2 5462   0.922   2.550  17.106  1.4675  0.8308 -0.1307
  361MPD2    H3 5463   1.068   2.495  17.286  0.3429 -0.0065  0.3414
  361MPD2     N 5464   1.239   2.125  17.095  0.3222 -0.1480 -0.1818
  361MPD2    H5 5465   1.306   2.125  17.171  0.2586  2.6699 -0.1494
  361MPD2    N1 5466   0.887   2.401  16.877 -0.9152  0.6305  0.7399
  361MPD2    H7 5467   0.804   2.456  16.900 -0.3220  1.4879  0.8334
  362TMC3    C1 5468   0.758   2.370  16.678  0.1359 -0.7013  0.1445
  362TMC3    C2 5469   0.639   2.345  16.732 -0.1495  0.2279 -1.0886
  362TMC3    C3 5470   0.550   2.273  16.662 -0.0058 -0.9909  0.5317
  362TMC3    C4 5471   0.784   2.332  16.548  0.1628 -0.1605  0.4766
  362TMC3    C5 5472   0.685   2.259  16.485 -0.5007  0.2924  0.6248
  362TMC3    C6 5473   0.563   2.222  16.539 -0.1858 -0.6207  0.0811
  362TMC3     C 5474   0.867   2.326  16.763 -0.3057  0.3290 -0.6383
  362TMC3     O 5475   0.943   2.250  16.710  0.2988  0.1366  0.6787
  362TMC3     H 5476   0.621   2.359  16.838 -1.0390 -1.1406 -1.0461
  362TMC3    H1 5477   0.881   2.352  16.504 -0.9929  2.3608 -0.9596
  362TMC3    H2 5478   0.486   2.164  16.491 -0.0498  0.8377 -1.8745
  362TMC3    C7 5479   0.705   2.233  16.343  0.5092  0.2329 -0.5224
  362TMC3    C8 5480   0.430   2.223  16.735 -0.1501  0.1965 -0.3681
  362TMC3    O1 5481   0.756   2.324  16.271 -0.4120  0.3182  0.3110
  362TMC3    O2 5482   0.397   2.104  16.724 -0.2218 -0.0200 -0.3030
  363TMC3    C1 5483   3.473   3.772   9.152 -0.1895 -0.7417 -0.1579
  363TMC3    C2 5484   3.537   3.771   9.276 -0.3257 -0.6285  0.2709
  363TMC3    C3 5485   3.502   3.856   9.376 -0.5563  0.4020  0.1991
  363TMC3    C4 5486   3.375   3.865   9.136 -0.3592 -0.3653 -0.0182
  363TMC3    C5 5487   3.343   3.960   9.230  0.1382  0.8886  0.7906
  363TMC3    C6 5488   3.402   3.953   9.359  0.1399  0.3457 -0.0958
  363TMC3     C 5489   3.487   3.664   9.061 -0.3752 -0.2613 -0.4017
  363TMC3     O 5490   3.406   3.656   8.967 -0.2942  0.3243  0.1348
  363TMC3     H 5491   3.626   3.711   9.293  0.5911  0.5413 -0.3626
  363TMC3    H1 5492   3.322   3.854   9.042  0.5793  1.7461 -0.7984
  363TMC3    H2 5493   3.378   4.027   9.434  0.8820  0.9553 -0.4572
  363TMC3    C7 5494   3.240   4.062   9.200 -1.2528  0.0207  1.1097
  363TMC3    C8 5495   3.589   3.873   9.492  0.3962  0.6925 -0.5246
  363TMC3    O1 5496   3.183   4.107   9.299 -0.3099 -0.1502  0.7593
  363TMC3    O2 5497   3.607   3.986   9.536  0.0558 -0.4830  0.4852
  364MPD2     C 5498   2.548   3.789  10.376 -0.9222 -0.3052 -0.0296
  364MPD2    C1 5499   2.663   3.773  10.310 -0.1048 -0.2825  0.1907
  364MPD2    C2 5500   2.745   3.664  10.330 -0.0690  0.2826  0.0223
  364MPD2    C3 5501   2.708   3.579  10.436  0.5550  0.9031  0.5897
  364MPD2    C4 5502   2.590   3.596  10.504  0.4314  0.0110  0.2348
  364MPD2    C5 5503   2.505   3.698  10.468  0.1176  0.6990 -0.7028
  364MPD2     H 5504   2.842   3.648  10.285 -0.6519 -1.4231 -0.6437
  364MPD2    H1 5505   2.559   3.529  10.584 -0.1440 -2.3982 -2.0277
  364MPD2    H2 5506   2.474   3.867  10.365  0.4710  1.3559  2.6163
  364MPD2    H3 5507   2.406   3.699  10.512 -0.0537  0.3748 -1.0848
  364MPD2     N 5508   2.796   3.486  10.497  0.3255 -0.2358  0.6541
  364MPD2    H5 5509   2.761   3.450  10.586  2.6791 -1.0816  1.2330
  364MPD2    N1 5510   2.694   3.881  10.220  0.0238  0.4218  1.1406
  364MPD2    H7 5511   2.628   3.957  10.205 -0.1548 -0.0271 -0.2928
  365TMC3    C1 5512   2.834   4.034  10.123  0.2272  0.0080  0.4655
  365TMC3    C2 5513   2.952   4.054  10.059 -0.0498 -0.1032 -0.3704
  365TMC3    C3 5514   3.015   4.177  10.077 -0.6441  0.1259  0.5109
  365TMC3    C4 5515   2.775   4.131  10.202 -0.1500  0.3272 -0.1032
  365TMC3    C5 5516   2.828   4.258  10.193 -0.7009  0.0513  0.1503
  365TMC3    C6 5517   2.947   4.285  10.125  0.1663  0.0302 -0.2744
  365TMC3     C 5518   2.818   3.898  10.170  0.0124 -0.2914 -0.6964
  365TMC3     O 5519   2.926   3.842  10.182  0.1956 -0.4855 -0.2406
  365TMC3     H 5520   2.985   3.977   9.990 -2.1568 -1.4720  0.1535
  365TMC3    H1 5521   2.691   4.120  10.270 -0.9877  0.9601 -1.0353
  365TMC3    H2 5522   2.990   4.383  10.137  1.6418 -0.2249 -3.5031
  365TMC3    C7 5523   2.802   4.355  10.293 -0.0201  0.4527  0.0533
  365TMC3    C8 5524   3.162   4.185  10.077  0.6273  0.2620  0.3591
  365TMC3    O1 5525   2.825   4.472  10.275 -0.0965 -0.0547  0.5293
  365TMC3    O2 5526   3.216   4.279  10.136  0.3522  0.0455  0.6484
  366MPD2     C 5527   1.020   0.111  15.142 -0.4060  1.2048  0.2485
  366MPD2    C1 5528   1.144   0.169  15.110  0.7594 -0.8283  0.1315
  366MPD2    C2 5529   1.257   0.092  15.114 -0.0947 -0.2229 -0.2528
  366MPD2    C3 5530   1.246   4.692  15.135  0.0336 -0.6494 -0.7773
  366MPD2    C4 5531   1.123   4.640  15.167 -0.3042  0.3558 -0.0784
  366MPD2    C5 5532   1.010   4.717  15.165  0.4113  0.4373 -0.3569
  366MPD2     H 5533   1.352   0.139  15.092 -0.5771  0.3861 -1.0176
  366MPD2    H1 5534   1.114   4.535  15.189 -2.2615 -0.2009 -3.5611
  366MPD2    H2 5535   0.926   0.163  15.129 -1.3186 -1.0351 -1.8837
  366MPD2    H3 5536   0.912   4.673  15.179  1.5143 -2.2187 -0.8403
  366MPD2     N 5537   1.365   4.620  15.118  0.0949  0.9108  0.1349
  366MPD2    H5 5538   1.445   4.682  15.108  1.4802 -0.7394  1.1903
  366MPD2    N1 5539   1.158   0.308  15.102  0.4526 -0.1365  0.0782
  366MPD2    H7 5540   1.254   0.333  15.081 -0.0969  0.2511 -2.0195
  367TMC3    C1 5541   1.107   0.533  15.065  0.1171 -0.7290 -0.2223
  367TMC3    C2 5542   1.230   0.569  15.110  0.4835 -0.0693 -0.5973
  367TMC3    C3 5543   1.307   0.658  15.048  0.6343 -0.4350 -0.1687
  367TMC3    C4 5544   1.070   0.566  14.944 -0.1403 -0.6193  0.1371
  367TMC3    C5 5545   1.143   0.659  14.874  0.6455 -0.3155 -0.1519
  367TMC3    C6 5546   1.256   0.720  14.933 -0.7801 -0.3687  0.7453
  367TMC3     C 5547   1.055   0.401  15.101 -0.5810  0.9419  0.0976
  367TMC3     O 5548   0.934   0.386  15.101 -0.1787  0.1211  0.1626
  367TMC3     H 5549   1.268   0.525  15.201  1.1106  1.5314 -0.0843
  367TMC3    H1 5550   0.978   0.523  14.905 -2.1864  2.7151  1.3192
  367TMC3    H2 5551   1.319   0.785  14.874 -0.4258  0.2301  1.7725
  367TMC3    C7 5552   1.104   0.696  14.741  0.0719  0.5222 -1.0803
  367TMC3    C8 5553   1.435   0.689  15.106  0.3892  0.2367  0.4619
  367TMC3    O1 5554   1.154   0.800  14.701 -0.0138  0.3460 -0.0789
  367TMC3    O2 5555   1.441   0.663  15.227  0.1452  0.2921  0.1888
  368MPD2     C 5556   2.483   1.938  12.958  0.4357 -0.1547  0.1404
  368MPD2    C1 5557   2.463   2.076  12.963  0.2375 -0.3908  0.3872
  368MPD2    C2 5558   2.555   2.151  13.029 -0.3694  0.4788  0.3359
  368MPD2    C3 5559   2.683   2.092  13.054 -0.3925  0.0902  0.0147
  368MPD2    C4 5560   2.705   1.957  13.041  0.1088 -0.0177 -0.6699
  368MPD2    C5 5561   2.604   1.879  12.993  1.0616  0.2809 -0.8050
  368MPD2     H 5562   2.529   2.253  13.056 -0.6535  0.6011 -0.3987
  368MPD2    H1 5563   2.799   1.905  13.054  0.7683  1.7938  1.5858
  368MPD2    H2 5564   2.410   1.874  12.911  1.3575  0.0038 -1.4968
  368MPD2    H3 5565   2.622   1.776  12.962  0.4513  0.0488 -0.3849
  368MPD2     N 5566   2.797   2.168  13.084  0.0248  0.9248  0.3672
  368MPD2    H5 5567   2.882   2.114  13.098 -0.5935 -0.2331 -0.4409
  368MPD2    N1 5568   2.341   2.127  12.910  0.1665 -0.4603  0.0506
  368MPD2    H7 5569   2.280   2.059  12.866 -0.4646 -0.3790  0.7994
  369TMC3    C1 5570   2.200   2.294  12.824 -0.0104  0.2063  0.2827
  369TMC3    C2 5571   2.208   2.406  12.746  0.7528  0.3272 -0.1638
  369TMC3    C3 5572   2.088   2.439  12.686  0.0892 -0.1116  0.3158
  369TMC3    C4 5573   2.083   2.216  12.830  0.2937 -0.2337  0.1194
  369TMC3    C5 5574   1.975   2.256  12.761 -0.1925 -0.4754  0.2253
  369TMC3    C6 5575   1.977   2.362  12.681  0.7816  0.5932  0.0490
  369TMC3     C 5576   2.315   2.261  12.900  0.4720 -0.1676 -0.2561
  369TMC3     O 5577   2.393   2.351  12.929  0.1442  0.0777 -0.3602
  369TMC3     H 5578   2.302   2.460  12.745  1.9077 -1.7913 -4.0967
  369TMC3    H1 5579   2.071   2.129  12.894 -0.7215 -0.2903 -0.1475
  369TMC3    H2 5580   1.888   2.399  12.631  0.4050  0.5795  0.7101
  369TMC3    C7 5581   1.843   2.210  12.804  1.1243  0.0244 -0.3849
  369TMC3    C8 5582   2.080   2.563  12.614  0.0791 -0.4331  0.0045
  369TMC3    O1 5583   1.841   2.181  12.926  0.0173  0.4594  0.0202
  369TMC3    O2 5584   2.006   2.578  12.518  0.1526 -0.7099 -0.0286
  370TMC3    C1 5585   2.474   2.827  16.246 -0.8304 -0.0228 -0.5393
  370TMC3    C2 5586   2.408   2.741  16.329 -0.0496  0.7864  0.0167
  370TMC3    C3 5587   2.310   2.673  16.280  0.1768 -0.0040  1.2386
  370TMC3    C4 5588   2.448   2.841  16.116  0.3510 -0.3039  0.0768
  370TMC3    C5 5589   2.349   2.755  16.062 -0.5394 -0.1630 -0.0228
  370TMC3    C6 5590   2.276   2.673  16.145  0.3142  0.0333  0.2010
  370TMC3     C 5591   2.569   2.911  16.311 -0.1148  0.2443  0.1687
  370TMC3     O 5592   2.588   2.896  16.431 -0.1624  0.0401  0.1496
  370TMC3     H 5593   2.450   2.723  16.427 -1.3205 -0.5106  0.3344
  370TMC3    H1 5594   2.526   2.877  16.051  0.7840  0.1203  0.8338
  370TMC3    H2 5595   2.183   2.631  16.109  0.6984  0.9151 -1.8725
  370TMC3    C7 5596   2.391   2.704  15.929  0.2009  0.0894  0.4198
  370TMC3    C8 5597   2.228   2.589  16.369  0.1175  0.1207 -0.5387
  370TMC3    O1 5598   2.454   2.772  15.849  0.2566 -0.4390 -0.6697
  370TMC3    O2 5599   2.148   2.508  16.319 -0.4834  0.4213 -0.0562
  371TMC3    C1 5600   3.019   0.925  15.281  0.8979 -0.1440 -0.3732
  371TMC3    C2 5601   2.896   0.914  15.342 -0.5725  0.1643 -0.1212
  371TMC3    C3 5602   2.846   1.023  15.414 -0.7259  0.1798 -0.5235
  371TMC3    C4 5603   3.095   1.038  15.275 -0.2758  0.3005  0.6522
  371TMC3    C5 5604   3.036   1.146  15.345  0.2818  0.4140  0.4256
  371TMC3    C6 5605   2.921   1.141  15.411  0.1217 -0.4279  0.0972
  371TMC3     C 5606   3.088   0.802  15.248  0.2871  0.0045  0.4163
  371TMC3     O 5607   3.177   0.810  15.167 -0.4492  0.4987 -0.1681
  371TMC3     H 5608   2.840   0.821  15.334  0.5160 -0.3640 -1.6659
  371TMC3    H1 5609   3.192   1.033  15.226 -0.5121 -2.9334  0.5390
  371TMC3    H2 5610   2.880   1.236  15.443 -0.2005 -0.6744  0.4082
  371TMC3    C7 5611   3.092   1.275  15.324 -0.2047 -0.6801  0.3032
  371TMC3    C8 5612   2.702   1.031  15.444 -0.2888  0.1977 -0.1008
  371TMC3    O1 5613   3.085   1.354  15.419  0.6812  0.3521  0.2277
  371TMC3    O2 5614   2.633   0.930  15.421  0.5200 -0.5220  0.6390
  372MPD2     C 5615   2.150   1.689  13.036  0.2571  0.3288 -0.0535
  372MPD2    C1 5616   2.229   1.759  13.131  0.5070 -0.5816 -0.5718
  372MPD2    C2 5617   2.337   1.685  13.185  0.0915  0.4661 -0.2150
  372MPD2    C3 5618   2.362   1.550  13.156 -0.0191  0.5995  0.2627
  372MPD2    C4 5619   2.286   1.486  13.065  0.3901 -0.2608 -0.6889
  372MPD2    C5 5620   2.189   1.559  13.003 -0.6068  0.0826  0.0543
  372MPD2     H 5621   2.393   1.747  13.254 -1.1631 -0.5030  1.6616
  372MPD2    H1 5622   2.301   1.384  13.029  0.5639  0.0346 -1.4658
  372MPD2    H2 5623   2.059   1.725  12.989  0.6033  2.8382  1.2430
  372MPD2    H3 5624   2.134   1.517  12.920 -1.2761 -1.2811  1.1908
  372MPD2     N 5625   2.473   1.495  13.223  0.1513 -0.2703  0.2369
  372MPD2    H5 5626   2.525   1.555  13.287  0.2123 -1.5489  1.3962
  372MPD2    N1 5627   2.212   1.894  13.166  0.2191 -0.3154 -0.7747
  372MPD2    H7 5628   2.273   1.928  13.239  1.1305  0.2237 -1.7918
  373TMC3    C1 5629   2.620   1.319  13.302  0.4349 -0.4760 -0.7063
  373TMC3    C2 5630   2.668   1.404  13.401 -0.1371 -0.0794 -0.0349
  373TMC3    C3 5631   2.783   1.373  13.467  0.1611 -0.0078  0.3431
  373TMC3    C4 5632   2.698   1.209  13.263 -0.1630 -0.2847  0.3081
  373TMC3    C5 5633   2.817   1.194  13.325  0.2945  0.1822 -0.4575
  373TMC3    C6 5634   2.861   1.269  13.432  0.2838  0.4592  1.0277
  373TMC3     C 5635   2.514   1.362  13.208 -0.2751  0.2292  0.7691
  373TMC3     O 5636   2.466   1.268  13.147  0.1643 -0.0252 -0.6316
  373TMC3     H 5637   2.617   1.497  13.426  0.8178 -0.0787  1.9003
  373TMC3    H1 5638   2.666   1.150  13.177  0.5930 -0.6283  0.2511
  373TMC3    H2 5639   2.959   1.261  13.479  1.6933 -0.1800 -2.0286
  373TMC3    C7 5640   2.912   1.096  13.275  0.1656 -0.6866 -0.6921
  373TMC3    C8 5641   2.834   1.470  13.564  0.0794  0.3101 -0.0231
  373TMC3    O1 5642   2.876   1.008  13.202 -0.4094  0.0158  0.1614
  373TMC3    O2 5643   2.817   1.588  13.534 -0.2572  0.5448 -0.3255
  374TMC3    C1 5644   2.808   2.762   9.853 -0.1592  0.6523 -0.3904
  374TMC3    C2 5645   2.938   2.811   9.886  0.4779 -0.4703 -0.3500
  374TMC3    C3 5646   3.028   2.831   9.783  0.1237 -0.2588 -0.4430
  374TMC3    C4 5647   2.773   2.752   9.718 -0.3005  0.1941 -0.5803
  374TMC3    C5 5648   2.865   2.765   9.621 -0.6473  0.1898  0.0512
  374TMC3    C6 5649   2.994   2.798   9.659 -0.4496  0.5561  0.2070
  374TMC3     C 5650   2.718   2.723   9.960  0.0739 -0.1115 -0.3258
  374TMC3     O 5651   2.767   2.737  10.072  0.4464  0.1691  1.0833
  374TMC3     H 5652   2.952   2.824   9.993  0.9036  0.2129 -0.4928
  374TMC3    H1 5653   2.679   2.706   9.691 -0.9476  0.8192  0.6111
  374TMC3    H2 5654   3.066   2.810   9.580  0.0978  2.5462  1.0155
  374TMC3    C7 5655   2.853   2.693   9.490 -0.0688  0.3934 -0.3506
  374TMC3    C8 5656   3.168   2.829   9.817  0.6190 -0.1274  0.1512
  374TMC3    O1 5657   2.950   2.642   9.437  0.0017  0.2799 -0.1677
  374TMC3    O2 5658   3.245   2.873   9.733 -0.3617 -0.8592 -0.3784
  375MPD2     C 5659   3.703   3.183  17.513  0.3869  0.3344  0.0953
  375MPD2    C1 5660   3.641   3.217  17.392 -0.6353 -0.5966 -0.5888
  375MPD2    C2 5661   3.681   3.147  17.280  0.9991 -1.0254 -0.8860
  375MPD2    C3 5662   3.775   3.048  17.285  0.1472 -0.4347 -0.3076
  375MPD2    C4 5663   3.823   3.012  17.412  0.9799  0.8344  0.2450
  375MPD2    C5 5664   3.791   3.080  17.525  0.2912  0.5155 -0.2578
  375MPD2     H 5665   3.644   3.193  17.188  0.0818 -1.4814 -0.7437
  375MPD2    H1 5666   3.901   2.939  17.423  0.9012  0.1964 -3.4107
  375MPD2    H2 5667   3.676   3.222  17.611  1.0443 -0.8533  0.7537
  375MPD2    H3 5668   3.828   3.044  17.620 -0.2262  1.5232  0.3285
  375MPD2     N 5669   3.832   2.992  17.166 -0.2365 -0.1055  0.0355
  375MPD2    H5 5670   3.899   2.915  17.165 -0.7665 -0.5519 -0.6688
  375MPD2    N1 5671   3.530   3.304  17.386 -0.0994 -0.6141  0.0918
  375MPD2    H7 5672   3.488   3.317  17.294 -1.4822 -0.0180  0.8048
  376TMC3    C1 5673   3.864   2.976  16.928  0.3282  0.1486  0.0013
  376TMC3    C2 5674   3.936   2.862  16.941  0.4320  0.3504  0.0877
  376TMC3    C3 5675   3.962   2.787  16.826  0.8539  0.1405 -0.4624
  376TMC3    C4 5676   3.808   3.007  16.805  0.2425  0.4981 -0.3469
  376TMC3    C5 5677   3.829   2.923  16.698  0.4233  0.3394  0.3011
  376TMC3    C6 5678   3.911   2.822  16.706  0.1156  0.4977  0.3890
  376TMC3     C 5679   3.818   3.050  17.045  0.2628  0.2866 -0.2110
  376TMC3     O 5680   3.779   3.164  17.019  0.4178 -0.3462 -0.3226
  376TMC3     H 5681   3.991   2.847  17.033  0.8799  0.0767 -0.2276
  376TMC3    H1 5682   3.732   3.082  16.788 -0.2151  0.3817  1.2276
  376TMC3    H2 5683   3.937   2.762  16.620  0.0497 -0.6027  1.1428
  376TMC3    C7 5684   3.752   2.943  16.577 -0.7921  0.1019 -0.6743
  376TMC3    C8 5685   4.093   2.724  16.828  0.1321 -0.5727 -0.5868
  376TMC3    O1 5686   3.710   3.055  16.547 -0.2084  0.1315 -0.1403
  376TMC3    O2 5687   4.129   2.678  16.935 -0.1304  0.7688 -0.3699
  377MPD2     C 5688   1.831   2.769  12.759 -0.0665 -0.0833  0.5971
  377MPD2    C1 5689   1.735   2.719  12.671  0.3724  0.4191 -0.3696
  377MPD2    C2 5690   1.652   2.623  12.723  0.4579 -0.7231 -0.0072
  377MPD2    C3 5691   1.669   2.573  12.851  0.1319 -0.0424 -0.1861
  377MPD2    C4 5692   1.773   2.620  12.932  0.4678  0.6455 -0.2089
  377MPD2    C5 5693   1.857   2.710  12.877 -0.4810 -0.1790 -0.3452
  377MPD2     H 5694   1.567   2.587  12.665  1.1697 -2.9116  0.3113
  377MPD2    H1 5695   1.783   2.592  13.036  0.1489 -0.1254 -0.3886
  377MPD2    H2 5696   1.909   2.832  12.718  0.7002 -0.7175  1.0792
  377MPD2    H3 5697   1.947   2.743  12.928  0.7686 -0.6661 -2.2489
  377MPD2     N 5698   1.598   2.468  12.912 -0.1976 -0.4079 -0.3784
  377MPD2    H5 5699   1.645   2.431  12.994  0.0030  1.2202  0.2469
  377MPD2    N1 5700   1.733   2.762  12.538  0.0576  0.0138  0.4898
  377MPD2    H7 5701   1.802   2.831  12.511 -0.9173  1.1158  0.8210
  378TMC3    C1 5702   1.635   2.817  12.099  0.5455 -0.2361 -0.1042
  378TMC3    C2 5703   1.597   2.798  12.224 -0.8486  0.1822  0.3422
  378TMC3    C3 5704   1.691   2.769  12.313  0.3727 -0.0746 -0.1316
  378TMC3    C4 5705   1.762   2.779  12.055  0.4751 -0.0540 -0.1538
  378TMC3    C5 5706   1.851   2.721  12.150  0.4249  0.0812 -0.3219
  378TMC3    C6 5707   1.820   2.725  12.281  0.4071 -0.1230  0.3046
  378TMC3     C 5708   1.527   2.830  12.003  0.3984  0.0583 -0.3067
  378TMC3     O 5709   1.416   2.809  12.047  0.3892  0.1203 -0.1244
  378TMC3     H 5710   1.502   2.829  12.265 -1.1072  0.2416 -0.2952
  378TMC3    H1 5711   1.802   2.795  11.955 -2.1702  0.3329 -1.1549
  378TMC3    H2 5712   1.883   2.673  12.352  1.1741 -1.2530 -1.1895
  378TMC3    C7 5713   1.986   2.689  12.119  0.4540 -0.1020  0.5783
  378TMC3    C8 5714   1.639   2.729  12.443 -0.5136 -0.3521 -0.5079
  378TMC3    O1 5715   2.080   2.710  12.196  0.6363 -0.5750  0.2483
  378TMC3    O2 5716   1.531   2.669  12.449  0.1660  0.3014 -0.2340
  379MPD2     C 5717   2.530   0.697  15.841  0.8378 -0.4728 -0.1453
  379MPD2    C1 5718   2.419   0.644  15.892 -0.3562 -0.0585 -0.3580
  379MPD2    C2 5719   2.423   0.588  16.022  0.6412  0.2240  0.5315
  379MPD2    C3 5720   2.545   0.590  16.085 -0.9764 -0.2545  0.2379
  379MPD2    C4 5721   2.654   0.648  16.025 -0.6908  0.3392  0.1667
  379MPD2    C5 5722   2.642   0.706  15.907 -0.0060 -0.1512 -0.0754
  379MPD2     H 5723   2.336   0.545  16.072 -0.3933  0.6953 -0.8499
  379MPD2    H1 5724   2.751   0.645  16.074 -0.5076 -0.3882 -0.2464
  379MPD2    H2 5725   2.526   0.733  15.739 -2.0227  1.8529  0.7850
  379MPD2    H3 5726   2.722   0.770  15.870 -2.1483  2.0650 -0.9329
  379MPD2     N 5727   2.574   0.529  16.208 -0.0001  0.2584  0.2841
  379MPD2    H5 5728   2.671   0.515  16.234  0.3944  0.9626 -0.8057
  379MPD2    N1 5729   2.305   0.650  15.809  0.6361 -0.0767  0.2975
  379MPD2    H7 5730   2.314   0.674  15.711  3.2419 -0.0335  0.5713
  380TMC3    C1 5731   2.100   0.579  15.726 -0.0741 -0.6102 -0.4109
  380TMC3    C2 5732   2.069   0.448  15.705  0.5040 -0.5681 -0.3785
  380TMC3    C3 5733   2.030   0.409  15.580 -0.5194 -0.6813  0.5734
  380TMC3    C4 5734   2.086   0.676  15.631  0.0863 -0.1550  0.4273
  380TMC3    C5 5735   2.030   0.632  15.519  0.0633 -0.7435 -0.7394
  380TMC3    C6 5736   1.992   0.499  15.490  0.1529  0.4779  0.1623
  380TMC3     C 5737   2.183   0.601  15.843 -0.1062  0.3983 -0.0383
  380TMC3     O 5738   2.137   0.592  15.956  0.1214  0.1226  0.1115
  380TMC3     H 5739   2.073   0.376  15.786  0.1001 -1.9381 -1.5794
  380TMC3    H1 5740   2.123   0.778  15.634  0.3843 -0.2673  0.4717
  380TMC3    H2 5741   1.942   0.482  15.395 -0.9400 -0.0049  0.8223
  380TMC3    C7 5742   2.011   0.722  15.405 -0.0703 -0.5436 -0.0625
  380TMC3    C8 5743   2.114   0.317  15.525  0.0973 -0.6127  0.8353
  380TMC3    O1 5744   2.102   0.797  15.373  0.4201  0.5929 -0.0164
  380TMC3    O2 5745   2.101   0.302  15.404 -0.2377  0.0305  0.6093
  381TMC3    C1 5746   1.886   1.955  15.972  0.5327  0.2228  0.0314
  381TMC3    C2 5747   2.018   1.970  16.010  0.1194 -1.0172  0.6463
  381TMC3    C3 5748   2.048   2.062  16.107  0.7190  0.3420 -0.6252
  381TMC3    C4 5749   1.781   2.014  16.031 -0.0502  0.5239  0.1304
  381TMC3    C5 5750   1.817   2.106  16.127 -0.3591  0.5850 -0.3131
  381TMC3    C6 5751   1.948   2.138  16.161  0.4373 -0.2415  0.0974
  381TMC3     C 5752   1.873   1.827  15.912 -0.0676 -0.0238 -0.1620
  381TMC3     O 5753   1.954   1.809  15.824 -0.8239  0.3068  0.0114
  381TMC3     H 5754   2.095   1.904  15.971 -0.4409 -1.9547  1.1136
  381TMC3    H1 5755   1.679   1.985  16.011 -0.4664  1.9774  0.1322
  381TMC3    H2 5756   1.956   2.212  16.240  0.1928  0.6725 -0.7288
  381TMC3    C7 5757   1.709   2.131  16.231  1.1154  0.6612  0.1839
  381TMC3    C8 5758   2.181   2.114  16.096 -0.3071  0.1980 -0.3931
  381TMC3    O1 5759   1.610   2.069  16.200 -0.4674 -0.0811  0.2255
  381TMC3    O2 5760   2.226   2.099  15.983  0.0591  0.1005  0.0431
  382MPD2     C 5761   1.654   4.444  16.849  0.6282 -0.3314  0.1016
  382MPD2    C1 5762   1.522   4.466  16.849 -0.0047  0.4505 -0.3807
  382MPD2    C2 5763   1.435   4.363  16.886 -0.1027  0.0415 -0.6203
  382MPD2    C3 5764   1.478   4.239  16.917  0.1793  0.6758 -0.3660
  382MPD2    C4 5765   1.619   4.215  16.915  0.3773 -0.7040 -0.4590
  382MPD2    C5 5766   1.702   4.323  16.878 -0.2020 -0.3487  0.5622
  382MPD2     H 5767   1.330   4.387  16.901 -0.2516 -0.3018 -1.0960
  382MPD2    H1 5768   1.666   4.133  16.967  0.4258 -1.2973 -1.4342
  382MPD2    H2 5769   1.728   4.517  16.821  0.7157 -0.8022 -0.9330
  382MPD2    H3 5770   1.809   4.307  16.881  0.0295  0.9113 -1.0436
  382MPD2     N 5771   1.402   4.135  16.978  0.3848  0.1068  0.2710
  382MPD2    H5 5772   1.451   4.050  17.002  2.3161  0.9437 -0.7433
  382MPD2    N1 5773   1.471   4.596  16.817 -0.4224 -0.0555  0.4257
  382MPD2    H7 5774   1.371   4.611  16.824 -0.1998  1.2940  0.7007
  383TMC3    C1 5775   1.226   4.021  17.078 -0.8361  0.1873 -0.4280
  383TMC3    C2 5776   1.104   3.962  17.047  0.2865 -1.4549  0.1976
  383TMC3    C3 5777   1.077   3.846  17.106  0.2828 -0.1345 -0.4800
  383TMC3    C4 5778   1.310   3.966  17.169  0.2028 -0.0225  1.0585
  383TMC3    C5 5779   1.277   3.838  17.217  0.1586 -0.1875  0.3163
  383TMC3    C6 5780   1.163   3.780  17.192  0.1464 -0.6062 -0.3173
  383TMC3     C 5781   1.267   4.137  17.003  0.6763 -0.0500 -1.3888
  383TMC3     O 5782   1.179   4.210  16.963 -0.5754 -0.2699 -0.4442
  383TMC3     H 5783   1.040   4.005  16.972  1.7429  1.4423  0.5936
  383TMC3    H1 5784   1.394   4.025  17.204  0.0036  1.5795 -1.1227
  383TMC3    H2 5785   1.135   3.689  17.244  1.5590 -0.0435  1.4179
  383TMC3    C7 5786   1.347   3.783  17.335  0.7954  0.0376 -0.0658
  383TMC3    C8 5787   0.974   3.772  17.038  0.0248  0.0488 -0.7029
  383TMC3    O1 5788   1.290   3.710  17.411  0.0242 -0.0054 -0.1332
  383TMC3    O2 5789   0.877   3.829  16.990  0.2716 -0.1952 -0.1211
  384MPD2     C 5790   2.869   0.453  12.159  0.4650 -0.2482  0.4232
  384MPD2    C1 5791   2.920   0.351  12.230  0.5271  0.5609  0.3686
  384MPD2    C2 5792   3.009   0.266  12.165  0.1680 -0.5177 -0.2476
  384MPD2    C3 5793   3.038   0.275  12.031 -0.5303 -0.5260  0.1227
  384MPD2    C4 5794   2.992   0.391  11.961 -0.1377  0.4679  0.3195
  384MPD2    C5 5795   2.907   0.480  12.026 -0.0211  0.5344  0.1734
  384MPD2     H 5796   3.057   0.186  12.221  0.6420 -0.9423 -1.2654
  384MPD2    H1 5797   3.022   0.411  11.859 -0.4759  2.0170  0.5300
  384MPD2    H2 5798   2.801   0.527  12.200 -0.1761  0.4741 -1.9570
  384MPD2    H3 5799   2.863   0.561  11.970 -1.5207  0.1575  0.8160
  384MPD2     N 5800   3.114   0.179  11.964 -0.5779 -0.7849 -0.3462
  384MPD2    H5 5801   3.130   0.095  12.019  1.7306 -0.5808 -0.6977
  384MPD2    N1 5802   2.871   0.327  12.358 -0.7694  0.1264 -0.4328
  384MPD2    H7 5803   2.817   0.399  12.405 -1.8573 -1.0347  0.0995
  385TMC3    C1 5804   3.227   0.051  11.815  0.5973  0.0527  0.8418
  385TMC3    C2 5805   3.164   4.691  11.741 -0.7166  0.2535  0.6931
  385TMC3    C3 5806   3.185   4.556  11.772  0.0295 -0.3878  0.3443
  385TMC3    C4 5807   3.290   0.013  11.928 -0.1400 -0.1388  0.0540
  385TMC3    C5 5808   3.293   4.619  11.970  0.1030 -0.7788 -0.3715
  385TMC3    C6 5809   3.253   4.517  11.886 -0.0593  0.1575 -0.0464
  385TMC3     C 5810   3.151   0.166  11.834 -0.4261 -0.1698 -0.6058
  385TMC3     O 5811   3.139   0.244  11.743  0.2831  0.2224 -0.5622
  385TMC3     H 5812   3.104   4.719  11.655  0.0536  2.1083  0.7676
  385TMC3    H1 5813   3.344   0.088  11.985 -2.3426  3.0153 -2.0686
  385TMC3    H2 5814   3.269   4.414  11.917  0.4345  0.2387 -0.0422
  385TMC3    C7 5815   3.246   4.613  12.104 -0.4787  0.1444  0.1326
  385TMC3    C8 5816   3.092   4.463  11.708 -0.2796 -0.5426 -1.0663
  385TMC3    O1 5817   3.201   4.724  12.138 -0.3321 -0.2268 -0.2803
  385TMC3    O2 5818   3.011   4.517  11.632  0.2541 -0.0496  0.0696
  386TMC3    C1 5819   3.051   2.452  11.932  0.0401 -0.3096  0.3493
  386TMC3    C2 5820   3.088   2.411  11.804 -0.6918  0.3924  0.5836
  386TMC3    C3 5821   3.085   2.496  11.699  0.2813  0.2279  0.0715
  386TMC3    C4 5822   2.989   2.573  11.948  0.2068  0.7404 -0.1506
  386TMC3    C5 5823   2.978   2.649  11.835  0.4792  0.8112 -0.0103
  386TMC3    C6 5824   3.038   2.622  11.716  0.0694  0.0810 -0.0750
  386TMC3     C 5825   3.081   2.388  12.055  0.0825  0.0704 -0.4889
  386TMC3     O 5826   3.027   2.428  12.156 -0.2697 -0.6861 -0.3522
  386TMC3     H 5827   3.095   2.304  11.788 -1.4843  0.2378  1.2525
  386TMC3    H1 5828   2.937   2.604  12.038  0.3415 -0.6866  0.4300
  386TMC3    H2 5829   3.038   2.697  11.639  1.4304 -2.1508 -2.2641
  386TMC3    C7 5830   2.847   2.703  11.821 -0.1184 -0.0504 -0.0866
  386TMC3    C8 5831   3.024   2.453  11.572 -0.6062  0.0641  0.0550
  386TMC3    O1 5832   2.789   2.741  11.924  0.1912 -0.0596 -0.6815
  386TMC3    O2 5833   2.968   2.539  11.504  0.0024 -0.1162 -0.2453
  387MPD2     C 5834   0.343   2.429   9.745  0.0483 -0.9359 -0.2767
  387MPD2    C1 5835   0.345   2.408   9.881  0.6897  0.1659 -0.5051
  387MPD2    C2 5836   0.326   2.275   9.928  0.4004  0.0363 -0.3328
  387MPD2    C3 5837   0.320   2.167   9.843  0.3427 -0.3122  0.4188
  387MPD2    C4 5838   0.322   2.197   9.704  0.7613 -0.0781 -0.1573
  387MPD2    C5 5839   0.335   2.323   9.653  0.0078  0.9044 -0.3751
  387MPD2     H 5840   0.358   2.262  10.031 -0.0841 -1.4332 -0.3707
  387MPD2    H1 5841   0.314   2.113   9.636 -1.0196 -0.8741  1.0177
  387MPD2    H2 5842   0.344   2.527   9.699  1.2730 -1.4038 -1.2543
  387MPD2    H3 5843   0.352   2.348   9.549 -0.8509  0.3744 -0.6440
  387MPD2     N 5844   0.341   2.037   9.899  0.6427 -0.2281  0.3653
  387MPD2    H5 5845   0.351   2.033  10.000  0.3973 -1.4895  0.3324
  387MPD2    N1 5846   0.387   2.497   9.985 -0.1217  0.1494 -0.2075
  387MPD2    H7 5847   0.406   2.463  10.079  2.5323  0.1454 -0.7477
  388TMC3    C1 5848   0.506   2.661  10.084  0.2542  0.2812 -0.4582
  388TMC3    C2 5849   0.521   2.791  10.111 -0.0553 -0.4996 -0.0884
  388TMC3    C3 5850   0.614   2.823  10.202  0.2134  0.7367  0.1104
  388TMC3    C4 5851   0.579   2.562  10.143 -0.4631 -0.2089 -0.7378
  388TMC3    C5 5852   0.677   2.599  10.234  0.2607  0.6136 -0.5987
  388TMC3    C6 5853   0.688   2.730  10.272  0.1964 -0.8869  0.4582
  388TMC3     C 5854   0.427   2.627   9.969  0.9591 -0.3180  0.2206
  388TMC3     O 5855   0.406   2.711   9.879 -0.1179  0.8264 -0.4869
  388TMC3     H 5856   0.475   2.870  10.051 -0.8841 -0.8037  0.1500
  388TMC3    H1 5857   0.585   2.464  10.097 -1.1399 -0.5133 -0.1750
  388TMC3    H2 5858   0.769   2.763  10.337  0.1746  1.4464 -0.7117
  388TMC3    C7 5859   0.769   2.497  10.274  0.2568 -0.1358  0.8300
  388TMC3    C8 5860   0.653   2.959  10.239 -0.1158  0.3323 -0.3045
  388TMC3    O1 5861   0.879   2.534  10.317 -0.3285 -0.3203 -0.0604
  388TMC3    O2 5862   0.674   2.975  10.359 -0.5278  0.6170 -0.4704
  389MPD2     C 5863   4.706   0.832  11.274 -0.1690  0.1690 -0.7771
  389MPD2    C1 5864   4.594   0.770  11.228 -0.8117 -1.4233  0.0854
  389MPD2    C2 5865   4.506   0.705  11.311 -0.4938  0.0968  0.4397
  389MPD2    C3 5866   4.519   0.728  11.449 -0.3553 -0.2416 -0.3875
  389MPD2    C4 5867   4.626   0.809  11.496  0.2512  0.7722  0.4428
  389MPD2    C5 5868   4.715   0.854  11.403 -0.2754 -0.2030  0.1383
  389MPD2     H 5869   4.419   0.649  11.276 -0.7049  0.4690  0.3636
  389MPD2    H1 5870   4.646   0.829  11.601  1.7090  0.3314  0.2378
  389MPD2    H2 5871   0.044   0.878  11.211 -0.6022  1.9214  0.0074
  389MPD2    H3 5872   0.058   0.918  11.436  0.5200 -1.5852  0.8598
  389MPD2     N 5873   4.434   0.676  11.550  0.2458 -0.0254 -0.1848
  389MPD2    H5 5874   4.452   0.705  11.646 -0.6964  1.7219 -0.5416
  389MPD2    N1 5875   4.582   0.766  11.086  0.2303 -0.1967 -0.8319
  389MPD2    H7 5876   4.649   0.812  11.026  0.4244 -1.0757 -1.2952
  390TMC3    C1 5877   4.274   0.528  11.643  0.4134 -0.2789  0.2956
  390TMC3    C2 5878   4.199   0.415  11.623  0.4804 -0.0194  0.2514
  390TMC3    C3 5879   4.092   0.399  11.708  0.1822 -0.7675 -0.1159
  390TMC3    C4 5880   4.251   0.618  11.745 -0.2384  0.2172  0.0363
  390TMC3    C5 5881   4.126   0.601  11.814  0.3072  0.2706 -0.2123
  390TMC3    C6 5882   4.050   0.488  11.797 -0.1234 -0.2477 -0.4848
  390TMC3     C 5883   4.346   0.575  11.530 -0.2470 -0.1958  0.1539
  390TMC3     O 5884   4.316   0.520  11.426 -0.4609  0.8326  0.2852
  390TMC3     H 5885   4.227   0.338  11.552 -2.0193 -0.3137 -0.4203
  390TMC3    H1 5886   4.292   0.718  11.748 -1.9283  0.8325  2.7115
  390TMC3    H2 5887   3.951   0.493  11.842  0.9520 -3.3848  2.2646
  390TMC3    C7 5888   4.090   0.699  11.916  1.3432 -0.5522 -0.2627
  390TMC3    C8 5889   4.023   0.273  11.701  0.1367 -0.0539 -0.2513
  390TMC3    O1 5890   4.145   0.809  11.906 -0.2183 -0.4649 -0.0328
  390TMC3    O2 5891   4.050   0.205  11.606 -0.3373 -0.0760 -0.6658
  391MPD2     C 5892   3.298   2.505  11.333  0.3609 -0.0660 -0.3523
  391MPD2    C1 5893   3.428   2.542  11.307 -0.3718  0.0506  0.8496
  391MPD2    C2 5894   3.482   2.534  11.177 -0.7610  1.0715 -0.2012
  391MPD2    C3 5895   3.400   2.489  11.073  0.1923 -0.6010 -0.6888
  391MPD2    C4 5896   3.273   2.446  11.106 -0.0318  0.2265 -0.8629
  391MPD2    C5 5897   3.223   2.459  11.228  0.3074  0.1059  1.0790
  391MPD2     H 5898   3.583   2.562  11.148 -0.2873 -2.9021 -2.3152
  391MPD2    H1 5899   3.199   2.418  11.032 -1.0369 -1.0609  0.6391
  391MPD2    H2 5900   3.249   2.496  11.429 -3.4421  0.7581 -2.2371
  391MPD2    H3 5901   3.125   2.421  11.252  0.2185 -1.3532 -1.6316
  391MPD2     N 5902   3.456   2.490  10.942  0.0367  0.4628 -0.1838
  391MPD2    H5 5903   3.553   2.518  10.940 -0.1404  1.1224  0.1877
  391MPD2    N1 5904   3.498   2.583  11.428 -0.0751  0.6744  0.4583
  391MPD2    H7 5905   3.439   2.612  11.505  0.7517  1.1810  0.9122
  392TMC3    C1 5906   3.492   2.450  10.721  0.2311 -0.1921 -0.1312
  392TMC3    C2 5907   3.438   2.464  10.594 -0.0958  0.3794 -0.0760
  392TMC3    C3 5908   3.511   2.540  10.506  0.1773  0.6944 -0.2736
  392TMC3    C4 5909   3.618   2.498  10.751  0.2337  0.6978  0.7949
  392TMC3    C5 5910   3.694   2.557  10.655 -0.2032  0.6813  0.3857
  392TMC3    C6 5911   3.641   2.579  10.529 -0.2050  0.3828 -0.2360
  392TMC3     C 5912   3.396   2.440  10.826 -0.2464  0.2538  1.1220
  392TMC3     O 5913   3.291   2.373  10.812 -0.3083 -0.7436 -0.5468
  392TMC3     H 5914   3.339   2.423  10.573 -0.5753  0.7858  1.4378
  392TMC3    H1 5915   3.670   2.482  10.845  0.4442 -3.6289 -0.0410
  392TMC3    H2 5916   3.696   2.640  10.459  0.0111  1.6468  1.0483
  392TMC3    C7 5917   3.837   2.588  10.684 -0.2281 -0.5329 -0.1282
  392TMC3    C8 5918   3.441   2.590  10.387  0.8122  0.2689 -0.4180
  392TMC3    O1 5919   3.869   2.598  10.800  0.2707  0.1331  0.8006
  392TMC3    O2 5920   3.323   2.592  10.384  0.6945  0.8222 -0.3725
  393TMC3    C1 5921   2.783   0.146  11.112  0.5337 -0.6083 -0.6950
  393TMC3    C2 5922   2.693   0.114  11.213 -0.0473 -0.0577  1.1239
  393TMC3    C3 5923   2.690   4.718  11.248 -0.3308 -0.1000 -0.2299
  393TMC3    C4 5924   2.860   0.057  11.049  0.2830  0.1962 -0.0672
  393TMC3    C5 5925   2.852   4.667  11.093 -0.3286  0.4955 -0.0566
  393TMC3    C6 5926   2.771   4.620  11.190  0.2099 -0.1418 -0.8260
  393TMC3     C 5927   2.780   0.280  11.054  0.4630 -0.6020 -0.7391
  393TMC3     O 5928   2.671   0.343  11.047  0.2994  0.6306  0.1429
  393TMC3     H 5929   2.646   0.189  11.276 -1.2572  0.9266 -0.9719
  393TMC3    H1 5930   2.907   0.075  10.952  0.0671 -0.2806 -0.2609
  393TMC3    H2 5931   2.770   4.516  11.218  0.9066 -0.2391 -1.1682
  393TMC3    C7 5932   2.921   4.560  11.022  0.0344  0.0213  0.5195
  393TMC3    C8 5933   2.647   4.686  11.378  0.2064  0.0862 -0.9763
  393TMC3    O1 5934   2.875   4.450  11.040 -0.4837 -0.8238 -0.9024
  393TMC3    O2 5935   2.666   4.573  11.416 -0.4063 -0.1779  0.2950
  394TMC3    C1 5936   4.464   0.774  10.878  0.3773  0.6854 -0.1429
  394TMC3    C2 5937   4.340   0.759  10.812  0.5507  0.3855  0.4410
  394TMC3    C3 5938   4.338   0.767  10.680 -0.2487  0.6113  0.6373
  394TMC3    C4 5939   4.585   0.785  10.815  0.5046 -0.0042 -0.1403
  394TMC3    C5 5940   4.579   0.781  10.678  0.3296  0.3748 -0.4041
  394TMC3    C6 5941   4.457   0.796  10.611  0.5782  0.2959  0.0875
  394TMC3     C 5942   4.468   0.733  11.023 -0.3267 -0.2114 -0.3881
  394TMC3     O 5943   4.354   0.707  11.072  0.0902 -0.1533  0.7023
  394TMC3     H 5944   4.241   0.756  10.855  0.3803 -1.7296 -0.1054
  394TMC3    H1 5945   4.684   0.777  10.859  0.1632 -3.6155 -0.0690
  394TMC3    H2 5946   4.444   0.839  10.512 -1.2047  0.1292  0.2519
  394TMC3    C7 5947   4.701   0.797  10.599  0.6072  0.0110  0.4280
  394TMC3    C8 5948   4.207   0.777  10.607  0.0561  0.8980 -0.0220
  394TMC3    O1 5949   0.054   0.862  10.652  0.3087  0.7872 -0.4387
  394TMC3    O2 5950   4.115   0.831  10.671 -0.4799  0.3076 -0.5094
  395TMC3    C1 5951   4.601   3.148  15.282 -0.9253  0.3439  0.0444
  395TMC3    C2 5952   4.496   3.126  15.202  0.0559 -0.2505  0.2153
  395TMC3    C3 5953   4.486   3.207  15.093 -0.0646  0.3471  0.0924
  395TMC3    C4 5954   4.698   3.245  15.255 -0.1112 -0.0433  1.1874
  395TMC3    C5 5955   4.685   3.318  15.141 -0.5424  0.2988 -0.5414
  395TMC3    C6 5956   4.573   3.307  15.066  0.5294 -0.9635  0.1284
  395TMC3     C 5957   4.611   3.073  15.407 -0.6857  0.5117  0.6339
  395TMC3     O 5958   4.721   3.080  15.460  0.1993 -0.2143  0.3990
  395TMC3     H 5959   4.417   3.058  15.232 -0.5609 -0.1785 -1.2512
  395TMC3    H1 5960   0.053   3.256  15.309  0.6745  0.3457 -0.2495
  395TMC3    H2 5961   4.573   3.360  14.971 -2.0086 -0.0763  0.6098
  395TMC3    C7 5962   0.053   3.396  15.092 -0.2157  0.2526 -0.3612
  395TMC3    C8 5963   4.358   3.232  15.027 -0.2632 -0.1976 -0.1355
  395TMC3    O1 5964   0.110   3.469  15.170  0.4386 -0.8360 -0.4391
  395TMC3    O2 5965   4.333   3.343  14.991  0.0654  0.3289  0.3603
  396MPD2     C 5966   4.100   3.836  16.692 -0.4245  0.1691 -0.6456
  396MPD2    C1 5967   4.217   3.882  16.740  0.1011  0.2220  0.0801
  396MPD2    C2 5968   4.268   4.006  16.688  0.4087 -0.4199  0.9695
  396MPD2    C3 5969   4.199   4.076  16.593  0.2974 -0.2388 -0.4257
  396MPD2    C4 5970   4.087   4.016  16.540 -1.1005 -0.0257 -0.2377
  396MPD2    C5 5971   4.035   3.901  16.593  0.2318  0.1330 -0.0917
  396MPD2     H 5972   4.356   4.054  16.730  0.4084 -1.8946  2.6746
  396MPD2    H1 5973   4.030   4.054  16.456 -0.5318 -1.7296 -1.3801
  396MPD2    H2 5974   4.063   3.738  16.722  0.3221  0.2701  0.6046
  396MPD2    H3 5975   3.940   3.860  16.561  0.5040  0.5621 -1.4399
  396MPD2     N 5976   4.256   4.195  16.540  0.0540  0.5409 -0.0920
  396MPD2    H5 5977   4.339   4.229  16.588  0.0788 -2.0454  1.7367
  396MPD2    N1 5978   4.283   3.810  16.847  0.5810 -0.1663 -0.0829
  396MPD2    H7 5979   4.227   3.732  16.879  0.3745 -0.5821 -1.4906
  397TMC3    C1 5980   4.450   3.747  16.998  0.5549 -0.7740  0.3894
  397TMC3    C2 5981   4.575   3.690  16.979  0.7027 -0.1764  0.6686
  397TMC3    C3 5982   4.595   3.555  17.001 -1.2265  0.1473 -0.5243
  397TMC3    C4 5983   4.352   3.672  17.059  0.0326  0.2226 -0.1357
  397TMC3    C5 5984   4.385   3.542  17.089 -0.1586 -0.0462  0.0342
  397TMC3    C6 5985   4.502   3.485  17.062  0.5161  0.5335  0.5961
  397TMC3     C 5986   4.417   3.827  16.887 -0.3624  0.5159  0.2243
  397TMC3     O 5987   4.503   3.901  16.846  0.0084 -0.5396  0.6587
  397TMC3     H 5988   4.638   3.749  16.913 -3.1333  1.1321 -1.7942
  397TMC3    H1 5989   4.254   3.713  17.081 -0.3989 -0.3247 -1.0655
  397TMC3    H2 5990   4.522   3.381  17.086 -1.0089  0.5132  1.8186
  397TMC3    C7 5991   4.304   3.463  17.173 -0.7242  0.8150  0.2453
  397TMC3    C8 5992   4.659   3.486  16.889  0.1552 -0.1383  0.0605
  397TMC3    O1 5993   4.301   3.340  17.157 -0.4360 -0.0199  0.2110
  397TMC3    O2 5994   4.578   3.416  16.823  0.5911  0.4203  0.3067
  398MPD2     C 5995   2.473   1.062  17.719 -0.1807  1.1882 -0.6401
  398MPD2    C1 5996   2.547   0.955   0.008  0.3489 -1.2151 -0.5179
  398MPD2    C2 5997   2.675   0.980   0.029  0.3343  0.3736  0.3771
  398MPD2    C3 5998   2.736   1.102  17.747 -0.3527 -0.2126  0.6715
  398MPD2    C4 5999   2.662   1.202  17.687  0.1868 -0.0777  0.5075
  398MPD2    C5 6000   2.527   1.181  17.682 -0.8172  0.0844  0.1877
  398MPD2     H 6001   2.739   0.901   0.067  0.6387  0.3274 -0.2320
  398MPD2    H1 6002   2.705   1.292  17.643  1.1019  0.1348  1.8323
  398MPD2    H2 6003   2.366   1.055  17.705 -0.0293 -1.9979 -0.1628
  398MPD2    H3 6004   2.459   1.258  17.649 -0.5233 -0.0467 -0.7247
  398MPD2     N 6005   2.873   1.116   0.009  0.4738  0.6178 -0.1147
  398MPD2    H5 6006   2.932   1.043   0.047 -1.2391  0.6803  2.6170
  398MPD2    N1 6007   2.496   0.824   0.041 -0.1491  0.1714  1.2061
  398MPD2    H7 6008   2.564   0.764   0.087  1.3111  1.2950  0.5334
  399TMC3    C1 6009   2.355   0.644   0.072 -0.3775 -0.7656 -0.0005
  399TMC3    C2 6010   2.452   0.589   0.145  0.0562 -0.0832 -0.3526
  399TMC3    C3 6011   2.458   0.454   0.159  0.1420 -0.7098  0.1808
  399TMC3    C4 6012   2.263   0.567   0.008  0.0723  0.0647 -0.1744
  399TMC3    C5 6013   2.281   0.432   0.004  0.2152 -0.3946 -0.1617
  399TMC3    C6 6014   2.377   0.376   0.084 -0.6545  0.1490  0.3486
  399TMC3     C 6015   2.374   0.778   0.021  0.0021  0.0038  0.3285
  399TMC3     O 6016   2.280   0.840  17.726  0.2396 -0.2214 -0.2646
  399TMC3     H 6017   2.522   0.637   0.213  1.3285  0.4850 -2.0599
  399TMC3    H1 6018   2.195   0.610  17.685 -0.6887 -0.4362  0.2433
  399TMC3    H2 6019   2.394   0.269   0.080  0.6489  0.3841 -0.5436
  399TMC3    C7 6020   2.206   0.343  17.672 -1.1809 -0.1704 -0.2464
  399TMC3    C8 6021   2.591   0.401   0.198 -1.0787  0.0252 -0.3421
  399TMC3    O1 6022   2.245   0.228  17.657  0.0219  0.0423  0.2436
  399TMC3    O2 6023   2.687   0.478   0.190  0.3169 -0.4374 -0.2739
  400TMC3    C1 6024   0.988   3.429  16.575 -0.6297  0.5751 -0.9990
  400TMC3    C2 6025   0.906   3.322  16.564  0.0260  0.2067 -0.1450
  400TMC3    C3 6026   0.809   3.325  16.462 -0.6432  0.0857 -0.0372
  400TMC3    C4 6027   0.999   3.528  16.477  0.6829 -0.1604  0.1739
  400TMC3    C5 6028   0.897   3.523  16.381  0.1507 -0.4991 -0.9140
  400TMC3    C6 6029   0.800   3.424  16.371  0.0908  0.1328  0.6152
  400TMC3     C 6030   1.092   3.420  16.682 -0.3522 -0.5140  0.2498
  400TMC3     O 6031   1.120   3.310  16.727 -0.1402  0.2443 -0.1900
  400TMC3     H 6032   0.904   3.239  16.634  3.5108 -0.7213 -1.1498
  400TMC3    H1 6033   1.085   3.593  16.471  0.5929  0.1583  2.2209
  400TMC3    H2 6034   0.721   3.420  16.297  0.8128 -1.2885 -0.0799
  400TMC3    C7 6035   0.867   3.632  16.299 -0.5551 -0.2117 -0.0998
  400TMC3    C8 6036   0.698   3.231  16.467 -0.2942 -0.1794  0.8277
  400TMC3    O1 6037   0.778   3.627  16.211 -0.6473  0.2171  0.5385
  400TMC3    O2 6038   0.677   3.178  16.573 -0.3411 -0.1987 -0.2116
  401MPD2     C 6039   3.760   2.346   0.130  0.5815  0.1243  0.3022
  401MPD2    C1 6040   3.818   2.289   0.245  0.3211 -0.3509 -0.5176
  401MPD2    C2 6041   3.833   2.152   0.248  0.9713 -0.1843  0.0085
  401MPD2    C3 6042   3.796   2.069   0.143  0.0859  0.2153  0.4983
  401MPD2    C4 6043   3.750   2.132   0.030  0.1627 -0.5770 -0.5220
  401MPD2    C5 6044   3.728   2.264   0.028  0.3093  0.7103  0.1655
  401MPD2     H 6045   3.870   2.119   0.344 -0.5421 -4.0513 -0.7526
  401MPD2    H1 6046   3.723   2.081  17.688 -1.5082 -1.4300  0.4312
  401MPD2    H2 6047   3.732   2.449   0.116 -2.2367 -0.7437 -0.4122
  401MPD2    H3 6048   3.680   2.298  17.687 -1.0751 -1.4674  0.0722
  401MPD2     N 6049   3.822   1.929   0.154  0.0164  0.4935 -0.3984
  401MPD2    H5 6050   3.886   1.900   0.227  0.1011 -0.7791 -0.9682
  401MPD2    N1 6051   3.872   2.361   0.358 -0.4813  0.8515 -0.3597
  401MPD2    H7 6052   3.923   2.309   0.428 -0.7149 -0.5780 -1.2634
  402TMC3    C1 6053   3.841   1.694   0.105 -0.1147  0.7013 -0.0650
  402TMC3    C2 6054   3.870   1.675   0.245  0.6007  0.6303 -0.0384
  402TMC3    C3 6055   3.898   1.545   0.285  0.0068 -1.0688 -0.0216
  402TMC3    C4 6056   3.867   1.598   0.008 -0.2678 -0.7319  0.0247
  402TMC3    C5 6057   3.911   1.483   0.050 -0.4049 -0.1969 -0.3318
  402TMC3    C6 6058   3.921   1.451   0.185  0.3829  0.0597  1.1194
  402TMC3     C 6059   3.803   1.829   0.057  0.2763  0.0556 -0.3907
  402TMC3     O 6060   3.740   1.841  17.700  0.2869 -0.0560  0.1201
  402TMC3     H 6061   3.848   1.753   0.316 -1.8251 -0.4380  0.3902
  402TMC3    H1 6062   3.862   1.618  17.651  2.0191 -1.0673 -0.1339
  402TMC3    H2 6063   3.951   1.350   0.208  1.9626  0.6552  1.6755
  402TMC3    C7 6064   4.010   1.425  17.715  0.3876 -0.3357  0.9831
  402TMC3    C8 6065   3.963   1.512   0.407  0.0200 -0.3610  0.2502
  402TMC3    O1 6066   3.983   1.419  17.597  0.2629  0.0211 -0.3628
  402TMC3    O2 6067   4.018   1.402   0.410 -0.0220  0.0918  0.2167
  403MPD2     C 6068   2.667   4.485  13.011  0.6091  0.0769 -0.7111
  403MPD2    C1 6069   2.573   4.473  13.113 -0.2986  0.0725  0.1577
  403MPD2    C2 6070   2.623   4.488  13.246  0.0795  0.0133  0.3673
  403MPD2    C3 6071   2.748   4.542  13.261  0.7532 -0.3711  0.1877
  403MPD2    C4 6072   2.833   4.562  13.153  1.1433 -0.3455 -0.4552
  403MPD2    C5 6073   2.794   4.522  13.034 -0.5378  0.4207  0.6159
  403MPD2     H 6074   2.558   4.469  13.331 -2.1804 -1.7399 -1.7079
  403MPD2    H1 6075   2.936   4.589  13.172  0.9394  1.4918 -2.0858
  403MPD2    H2 6076   2.636   4.458  12.910 -0.1132  2.2099 -1.0720
  403MPD2    H3 6077   2.864   4.520  12.951 -1.7916  1.1110 -0.4607
  403MPD2     N 6078   2.781   4.582  13.390  0.0239 -0.8482 -0.7261
  403MPD2    H5 6079   2.704   4.602  13.454 -0.0668  0.2910 -1.1888
  403MPD2    N1 6080   2.435   4.444  13.078  0.2735  0.4318  0.1489
  403MPD2    H7 6081   2.409   4.411  12.986  0.8267  1.2365 -0.2922
  404TMC3    C1 6082   2.208   4.397  13.107 -0.1545  0.3105  0.8335
  404TMC3    C2 6083   2.107   4.371  13.195 -0.2297  0.0090  0.3674
  404TMC3    C3 6084   1.994   4.319  13.150 -0.5527 -0.0314  0.1263
  404TMC3    C4 6085   2.195   4.377  12.979  0.1128 -0.1708 -0.3814
  404TMC3    C5 6086   2.076   4.323  12.936 -0.5309 -0.0650  0.3887
  404TMC3    C6 6087   1.975   4.293  13.016 -0.6033  0.1560 -0.7155
  404TMC3     C 6088   2.332   4.448  13.166  0.0792 -0.0637  0.1042
  404TMC3     O 6089   2.333   4.491  13.283  0.1564  0.5766  0.1165
  404TMC3     H 6090   2.125   4.392  13.299 -0.0973 -1.4401  0.6366
  404TMC3    H1 6091   2.265   4.412  12.904 -1.0533  1.6398 -0.6128
  404TMC3    H2 6092   1.899   4.222  12.985  0.6919 -0.4381 -2.5526
  404TMC3    C7 6093   2.057   4.320  12.789 -0.1045  0.1980 -0.3239
  404TMC3    C8 6094   1.934   4.225  13.238 -0.4181  0.3575 -0.0852
  404TMC3    O1 6095   2.155   4.331  12.714  0.0107 -0.1669  0.2317
  404TMC3    O2 6096   1.895   4.120  13.190  0.4679  0.8729  0.1347
  405MPD2     C 6097   2.536   1.003  14.351 -0.1774  0.3418 -0.7715
  405MPD2    C1 6098   2.523   0.880  14.286  0.0065 -0.8375  1.1111
  405MPD2    C2 6099   2.451   0.883  14.168 -0.2608 -0.5551  0.1370
  405MPD2    C3 6100   2.398   1.002  14.119 -0.9582  0.2019 -0.0436
  405MPD2    C4 6101   2.418   1.121  14.186 -0.6625  0.0740 -0.1641
  405MPD2    C5 6102   2.483   1.120  14.306 -0.7441  0.6248  0.5842
  405MPD2     H 6103   2.436   0.792  14.111  0.4466  0.2538 -1.3307
  405MPD2    H1 6104   2.392   1.219  14.147 -0.4653  0.8396  1.6120
  405MPD2    H2 6105   2.591   1.008  14.444  1.1660 -1.2537 -1.4864
  405MPD2    H3 6106   2.507   1.209  14.363 -1.2375  0.3533  1.2159
  405MPD2     N 6107   2.321   0.996  13.997  0.0998 -0.2837 -0.2961
  405MPD2    H5 6108   2.300   0.901  13.967 -1.2839  0.0402 -0.3219
  405MPD2    N1 6109   2.574   0.761  14.343 -0.1695  0.2025 -0.2115
  405MPD2    H7 6110   2.609   0.758  14.438 -0.0513 -0.9150 -0.2909
  406TMC3    C1 6111   2.042   1.028  13.634  0.1222 -0.0772 -0.0999
  406TMC3    C2 6112   2.075   0.905  13.599  0.6594 -0.3904 -0.1611
  406TMC3    C3 6113   2.186   0.848  13.653  0.2924 -0.3136 -0.6257
  406TMC3    C4 6114   2.108   1.094  13.737 -0.0866 -0.6177  0.3891
  406TMC3    C5 6115   2.221   1.035  13.791 -0.0779  0.0658 -0.3456
  406TMC3    C6 6116   2.258   0.906  13.758 -0.1926 -0.3952  0.2694
  406TMC3     C 6117   1.899   1.040  13.635  0.1260 -0.1365 -0.2791
  406TMC3     O 6118   1.839   1.026  13.534  0.2872  0.0379 -0.7489
  406TMC3     H 6119   2.014   0.844  13.534  1.9064  0.8594 -2.4700
  406TMC3    H1 6120   2.092   1.196  13.769  0.2618 -0.3038 -0.4438
  406TMC3    H2 6121   2.356   0.867  13.782  0.2008 -1.0455 -2.4674
  406TMC3    C7 6122   2.269   1.097  13.922 -0.2168 -0.3685 -0.1713
  406TMC3    C8 6123   2.179   0.704  13.660 -0.4895  0.0980  0.6182
  406TMC3    O1 6124   2.251   1.216  13.954  0.6347 -0.2802  0.0446
  406TMC3    O2 6125   2.090   0.647  13.600 -0.0842 -0.2729 -1.0448
  407MPD2     C 6126   4.699   1.870   9.414 -0.0539  0.2313  0.3070
  407MPD2    C1 6127   0.058   1.889   9.510  0.5286  0.1986 -0.2309
  407MPD2    C2 6128   0.026   1.992   9.602  0.1153  0.3136 -0.2293
  407MPD2    C3 6129   4.645   2.065   9.600 -0.1298 -0.5265 -0.1998
  407MPD2    C4 6130   4.555   2.038   9.494 -0.6064 -0.6271 -0.1333
  407MPD2    C5 6131   4.586   1.943   9.404 -0.6085 -0.3669  0.0217
  407MPD2     H 6132   0.093   2.019   9.683  0.7999 -0.9091 -0.3950
  407MPD2    H1 6133   4.454   2.077   9.489 -0.3649 -0.3273 -2.6219
  407MPD2    H2 6134   4.702   1.792   9.339  0.9315  1.6654 -1.1518
  407MPD2    H3 6135   4.513   1.915   9.329  0.9330 -2.9588 -0.4764
  407MPD2     N 6136   4.625   2.159   9.702 -0.5018  0.2108  0.6311
  407MPD2    H5 6137   4.692   2.152   9.778  1.1665  1.0901 -0.7647
  407MPD2    N1 6138   0.176   1.807   9.518  0.4276 -0.3956 -0.1351
  407MPD2    H7 6139   0.239   1.833   9.594 -0.6336  0.8467  0.3066
  408TMC3    C1 6140   0.356   1.643   9.455  0.6718 -0.5589 -0.7735
  408TMC3    C2 6141   0.450   1.724   9.485 -0.5063  0.3213 -0.5045
  408TMC3    C3 6142   0.574   1.670   9.518  0.0939 -0.5982  0.6602
  408TMC3    C4 6143   0.372   1.507   9.440  0.1302 -0.2837 -0.0539
  408TMC3    C5 6144   0.498   1.459   9.463 -0.6783 -0.0684  0.5892
  408TMC3    C6 6145   0.597   1.533   9.512  0.3164  0.3376 -0.2738
  408TMC3     C 6146   0.217   1.700   9.437 -0.1014  0.2965 -0.6208
  408TMC3     O 6147   0.149   1.649   9.352 -0.1597 -0.6589  0.2975
  408TMC3     H 6148   0.430   1.831   9.485  3.3019  1.0379  0.5328
  408TMC3    H1 6149   0.284   1.450   9.414  1.4575 -2.0954 -0.5429
  408TMC3    H2 6150   0.691   1.493   9.549 -0.4911 -0.4880  0.8819
  408TMC3    C7 6151   0.523   1.312   9.458 -0.6267 -0.6188  0.1564
  408TMC3    C8 6152   0.661   1.744   9.611 -0.7266 -0.3792 -0.4200
  408TMC3    O1 6153   0.645   1.288   9.465 -0.5500 -0.0202 -0.0319
  408TMC3    O2 6154   0.743   1.674   9.675  0.3443  0.5800  0.4075
  409MPD2     C 6155   4.506   3.118  16.599 -0.2780 -0.0613  0.1491
  409MPD2    C1 6156   4.613   3.098  16.681 -0.3114  0.0784 -0.3826
  409MPD2    C2 6157   0.001   3.156  16.648  0.2710 -0.0730  0.2015
  409MPD2    C3 6158   0.020   3.228  16.539  0.1050 -0.8964  0.2893
  409MPD2    C4 6159   4.647   3.249  16.467 -0.2001  0.0540 -0.3307
  409MPD2    C5 6160   4.524   3.204  16.496  0.1254 -0.7656 -0.3020
  409MPD2     H 6161   0.083   3.146  16.717 -2.5649 -1.1649  3.4310
  409MPD2    H1 6162   4.658   3.313  16.380  1.3613  1.7076  1.1086
  409MPD2    H2 6163   4.409   3.073  16.618 -0.1859  0.0479  0.8939
  409MPD2    H3 6164   4.440   3.231  16.433 -0.2836 -1.4746 -0.0563
  409MPD2     N 6165   0.138   3.304  16.504 -0.0774 -0.0234  0.2772
  409MPD2    H5 6166   0.133   3.367  16.424  1.3756 -2.3585 -1.6463
  409MPD2    N1 6167   4.616   3.023  16.806 -0.4106  0.0039 -0.1712
  409MPD2    H7 6168   4.705   3.021  16.853  0.3265  3.2305 -1.4163
  410TMC3    C1 6169   0.349   3.406  16.521  0.4455 -0.3490 -0.2721
  410TMC3    C2 6170   0.426   3.456  16.622 -0.5366  0.0309  0.1676
  410TMC3    C3 6171   0.507   3.561  16.586 -0.2352 -0.4566 -0.1782
  410TMC3    C4 6172   0.348   3.446  16.389  1.1775  0.2055  0.0997
  410TMC3    C5 6173   0.435   3.547  16.360  0.6744  0.9764  0.5557
  410TMC3    C6 6174   0.504   3.610  16.461  0.1975 -0.2512 -0.5719
  410TMC3     C 6175   0.255   3.302  16.571  0.2075 -1.0602 -0.9195
  410TMC3     O 6176   0.285   3.236  16.670 -0.4910 -0.2527  0.1482
  410TMC3     H 6177   0.405   3.431  16.725  0.5648 -0.3914  0.2914
  410TMC3    H1 6178   0.303   3.382  16.314  0.0631  1.2240 -0.0996
  410TMC3    H2 6179   0.579   3.684  16.437  0.9155 -0.1226  2.0756
  410TMC3    C7 6180   0.417   3.607  16.227 -0.1484  0.1238 -0.2971
  410TMC3    C8 6181   0.629   3.578  16.661 -0.1558  0.3372 -0.2159
  410TMC3    O1 6182   0.348   3.543  16.149 -0.1964 -0.0977 -0.6751
  410TMC3    O2 6183   0.710   3.664  16.635  0.5220 -0.3067 -0.0942
  411MPD2     C 6184   0.151   3.875  14.624  0.1356 -0.2461  0.4611
  411MPD2    C1 6185   0.032   3.903  14.691  0.6260  0.1747 -0.9978
  411MPD2    C2 6186   4.682   3.801  14.726  0.3118 -0.7035  0.4132
  411MPD2    C3 6187   4.699   3.676  14.672  0.3328 -0.3753  0.1083
  411MPD2    C4 6188   0.084   3.648  14.609  0.1851  0.9621 -0.7503
  411MPD2    C5 6189   0.178   3.750  14.587 -0.0694 -0.1437  1.0997
  411MPD2     H 6190   4.589   3.830  14.775  2.1803  0.9801  2.9279
  411MPD2    H1 6191   0.094   3.554  14.556 -0.5428  2.8141 -4.1740
  411MPD2    H2 6192   0.216   3.957  14.595  0.3507  0.2049  2.1902
  411MPD2    H3 6193   0.272   3.735  14.534 -0.5768 -1.7566  0.6774
  411MPD2     N 6194   4.600   3.578  14.674  0.1634  0.1405  0.0156
  411MPD2    H5 6195   4.626   3.495  14.621 -0.5477  0.5602 -0.9898
  411MPD2    N1 6196   4.731   4.034  14.716 -0.4334  0.2848  0.8774
  411MPD2    H7 6197   4.641   4.041  14.761 -0.3245  2.4488  0.7455
  412TMC3    C1 6198   4.381   3.477  14.703  0.0094  0.1218 -1.0966
  412TMC3    C2 6199   4.255   3.514  14.669  0.0140  0.3760  0.2998
  412TMC3    C3 6200   4.183   3.409  14.617  0.1519 -0.6680 -0.2183
  412TMC3    C4 6201   4.436   3.361  14.669 -0.5585 -0.1476  0.3142
  412TMC3    C5 6202   4.365   3.260  14.608 -0.1094 -0.1980 -0.2359
  412TMC3    C6 6203   4.230   3.279  14.596 -0.6438  0.0320  0.9560
  412TMC3     C 6204   4.474   3.586  14.731 -0.3459  0.0015  0.3919
  412TMC3     O 6205   4.414   3.674  14.792 -0.0809  0.3933 -0.4430
  412TMC3     H 6206   4.210   3.611  14.686  1.5509  0.9451  1.1688
  412TMC3    H1 6207   4.539   3.331  14.686 -0.4740  0.5359  1.0088
  412TMC3    H2 6208   4.169   3.202  14.551 -1.7537  0.5700  1.5353
  412TMC3    C7 6209   4.418   3.208  14.489  0.1581  0.3062  0.0522
  412TMC3    C8 6210   4.061   3.448  14.544 -0.7347  1.0432  0.0118
  412TMC3    O1 6211   4.533   3.168  14.504 -0.6568 -0.2933  0.3117
  412TMC3    O2 6212   4.072   3.553  14.486  0.4671  0.3533 -0.2384
  413MPD2     C 6213   1.773   2.246  15.404  0.0904  0.1149  0.0187
  413MPD2    C1 6214   1.711   2.241  15.283 -0.1957 -0.9087  0.0260
  413MPD2    C2 6215   1.757   2.156  15.181  0.2982 -0.4392 -0.4794
  413MPD2    C3 6216   1.879   2.092  15.203 -0.1509 -0.2816 -0.4697
  413MPD2    C4 6217   1.942   2.103  15.328 -0.6133 -0.3670  0.0504
  413MPD2    C5 6218   1.884   2.171  15.429 -0.4910 -0.0925 -0.2150
  413MPD2     H 6219   1.712   2.143  15.084  1.0702  5.1072 -1.5625
  413MPD2    H1 6220   2.033   2.055  15.360 -0.2667  1.3212  1.5726
  413MPD2    H2 6221   1.736   2.307  15.486  1.4075 -0.7793  1.2908
  413MPD2    H3 6222   1.937   2.176  15.524  0.4284 -1.2675 -0.6644
  413MPD2     N 6223   1.939   2.015  15.095  0.6037 -0.4722 -0.3571
  413MPD2    H5 6224   1.880   1.986  15.017  3.3105 -1.3443 -2.0910
  413MPD2    N1 6225   1.594   2.314  15.266  0.8244  0.4306 -0.2315
  413MPD2    H7 6226   1.566   2.372  15.344 -0.9923 -1.3187  0.3925
  414TMC3    C1 6227   2.080   1.845  14.999  0.3426 -0.2470  0.0785
  414TMC3    C2 6228   2.164   1.743  15.029  0.4687  0.2201  0.4593
  414TMC3    C3 6229   2.170   1.641  14.936  0.2816 -0.4673 -0.5435
  414TMC3    C4 6230   2.020   1.861  14.872  0.0178 -0.6581  0.1000
  414TMC3    C5 6231   2.044   1.763  14.780 -0.7252 -0.3193  0.4996
  414TMC3    C6 6232   2.098   1.644  14.818  0.1355 -0.7115 -0.3316
  414TMC3     C 6233   2.060   1.945  15.107  0.6631 -0.3374 -0.6731
  414TMC3     O 6234   2.132   1.926  15.200 -0.2490 -0.2865 -0.1611
  414TMC3     H 6235   2.217   1.746  15.123  0.6033  0.8569  0.3594
  414TMC3    H1 6236   1.955   1.943  14.844  1.0394  0.3028  0.4945
  414TMC3    H2 6237   2.102   1.557  14.754 -2.3373 -0.3058 -1.0522
  414TMC3    C7 6238   1.969   1.776  14.657  0.1294 -0.4313  0.6919
  414TMC3    C8 6239   2.236   1.517  14.971 -0.6146 -0.3442 -0.4950
  414TMC3    O1 6240   1.877   1.857  14.657 -0.2413 -0.2081 -0.0060
  414TMC3    O2 6241   2.221   1.418  14.899 -0.1485  0.3136  0.2214
  415TMC3    C1 6242   2.271   4.480  10.464 -0.9476  0.4625 -0.1628
  415TMC3    C2 6243   2.328   4.543  10.354 -0.6547 -0.3421  0.3005
  415TMC3    C3 6244   2.249   4.542  10.240  0.8899 -0.1872  0.1162
  415TMC3    C4 6245   2.138   4.441  10.461 -0.4054 -0.9970  0.0198
  415TMC3    C5 6246   2.064   4.439  10.345 -0.0171  0.2392 -0.3419
  415TMC3    C6 6247   2.121   4.494  10.231 -0.2423 -0.0327 -0.6352
  415TMC3     C 6248   2.325   4.505  10.595 -0.2309  0.3714  0.4284
  415TMC3     O 6249   2.309   4.426  10.685 -0.1319 -0.0298 -0.0152
  415TMC3     H 6250   2.428   4.584  10.351 -0.3237 -1.3227 -1.6276
  415TMC3    H1 6251   2.096   4.398  10.551 -0.9281  0.2571  0.3712
  415TMC3    H2 6252   2.062   4.499  10.140 -1.3768 -0.3679  0.0862
  415TMC3    C7 6253   1.919   4.438  10.354 -0.1190  0.1438 -0.0850
  415TMC3    C8 6254   2.298   4.613  10.118  0.4437  0.1738 -0.4116
  415TMC3    O1 6255   1.860   4.486  10.259 -0.0388  0.8910 -0.0562
  415TMC3    O2 6256   2.240   4.581  10.016 -0.0490  0.4514  0.4003
  416MPD2     C 6257   4.323   3.438  11.615  1.3158  0.3237  0.1162
  416MPD2    C1 6258   4.220   3.450  11.530  0.0961  0.1431  0.1022
  416MPD2    C2 6259   4.211   3.375  11.416 -0.0352 -0.7109  0.3238
  416MPD2    C3 6260   4.318   3.287  11.392 -0.3398 -0.0075 -0.2360
  416MPD2    C4 6261   4.432   3.286  11.470  0.5253 -0.6131 -0.2861
  416MPD2    C5 6262   4.428   3.361  11.590  0.1135  0.2887 -0.6022
  416MPD2     H 6263   4.132   3.394  11.344 -1.4226 -3.0400  1.2319
  416MPD2    H1 6264   4.508   3.210  11.458  1.0904 -0.3593  1.6423
  416MPD2    H2 6265   4.330   3.484  11.713  0.1121 -1.2196  0.9070
  416MPD2    H3 6266   4.505   3.361  11.666  1.0407 -0.0597 -1.5284
  416MPD2     N 6267   4.330   3.199  11.276 -0.4516  0.2408  0.0330
  416MPD2    H5 6268   4.418   3.150  11.261 -2.1351 -1.6755 -3.5134
  416MPD2    N1 6269   4.111   3.534  11.569  0.2414  0.2240 -0.9180
  416MPD2    H7 6270   4.116   3.590  11.653 -2.0114 -1.5775  0.4376
  417TMC3    C1 6271   3.900   3.621  11.578  0.4827 -0.1676  0.2797
  417TMC3    C2 6272   3.928   3.650  11.709  0.4744  0.2965 -0.2569
  417TMC3    C3 6273   3.828   3.677  11.793  0.6144  0.7558 -0.3591
  417TMC3    C4 6274   3.773   3.633  11.528 -0.0034  0.3253 -0.2661
  417TMC3    C5 6275   3.678   3.666  11.615 -0.4298 -0.1559  0.0366
  417TMC3    C6 6276   3.701   3.693  11.744 -0.3331  1.1498 -0.1273
  417TMC3     C 6277   3.990   3.538  11.503  0.1719 -0.3990 -0.1154
  417TMC3     O 6278   3.937   3.473  11.416 -0.3482  0.0441  0.2423
  417TMC3     H 6279   4.021   3.628  11.761  0.1955 -1.7806 -0.6518
  417TMC3    H1 6280   3.745   3.611  11.426  1.6146 -1.6141 -0.2809
  417TMC3    H2 6281   3.628   3.749  11.800 -2.1292 -1.7587  0.4363
  417TMC3    C7 6282   3.568   3.718  11.547 -0.1728  0.0568 -0.5013
  417TMC3    C8 6283   3.877   3.782  11.877 -0.0694  0.1389 -0.3741
  417TMC3    O1 6284   3.578   3.774  11.438  0.3016  0.6448  0.5834
  417TMC3    O2 6285   3.951   3.862  11.828  0.1913  0.0114  0.4022
  418TMC3    C1 6286   3.303   1.204  17.605  0.1632 -0.5038  1.0116
  418TMC3    C2 6287   3.174   1.226  17.599  0.2262 -0.0020 -0.1975
  418TMC3    C3 6288   3.096   1.198  17.708 -1.0788  0.2712  0.2748
  418TMC3    C4 6289   3.359   1.143  17.710  0.2257  0.3307  0.2431
  418TMC3    C5 6290   3.287   1.124   0.076  0.0533 -0.1308 -0.1832
  418TMC3    C6 6291   3.150   1.155   0.076 -0.8654  0.0020 -0.6531
  418TMC3     C 6292   3.368   1.176  17.483  0.4052 -0.6426 -0.5802
  418TMC3     O 6293   3.363   1.263  17.401  0.6412 -0.1134 -0.3200
  418TMC3     H 6294   3.125   1.252  17.507  1.1607  0.3552 -0.5886
  418TMC3    H1 6295   3.467   1.128  17.716 -0.0620 -0.1230  4.3764
  418TMC3    H2 6296   3.095   1.136   0.168 -0.3271  0.5509 -0.2156
  418TMC3    C7 6297   3.351   1.075   0.198  0.2208  0.2217 -0.2380
  418TMC3    C8 6298   2.954   1.223  17.695  0.2229 -0.3630  0.0543
  418TMC3    O1 6299   3.468   1.089   0.221 -0.4851  0.4522 -0.0091
  418TMC3    O2 6300   2.924   1.321  17.628 -0.1550 -0.1997  0.6371
  419MPD2     C 6301   1.337   3.466  12.568 -0.5963 -0.1104 -0.3293
  419MPD2    C1 6302   1.208   3.513  12.571  0.0658 -0.0527 -0.4625
  419MPD2    C2 6303   1.180   3.618  12.652 -0.1007  0.0862  0.1328
  419MPD2    C3 6304   1.273   3.685  12.723  0.5673  0.3928 -0.4029
  419MPD2    C4 6305   1.401   3.634  12.714  0.0095  0.6818 -1.0461
  419MPD2    C5 6306   1.434   3.519  12.643 -0.0998 -0.1320 -0.4476
  419MPD2     H 6307   1.078   3.652  12.662 -0.3602 -1.1028  1.5549
  419MPD2    H1 6308   1.480   3.682  12.769 -0.0070  0.4684 -0.8348
  419MPD2    H2 6309   1.359   3.371  12.520 -2.1610 -0.0725 -1.1140
  419MPD2    H3 6310   1.535   3.480  12.637 -0.1856 -0.2301 -1.3543
  419MPD2     N 6311   1.261   3.799  12.798 -1.0345 -0.4184 -0.5320
  419MPD2    H5 6312   1.346   3.842  12.832 -1.0606  0.1965 -1.2589
  419MPD2    N1 6313   1.102   3.446  12.513  0.2240  0.1788 -0.0371
  419MPD2    H7 6314   1.007   3.480  12.526  0.5178  1.2404 -0.7271
  420TMC3    C1 6315   1.143   3.980  12.895 -0.6755  0.1657 -0.2307
  420TMC3    C2 6316   1.034   4.056  12.880  0.5744  0.0197  0.2430
  420TMC3    C3 6317   0.973   4.109  12.993 -0.2275 -0.5690 -0.4591
  420TMC3    C4 6318   1.193   3.952  13.020 -0.2051 -1.1624 -0.1189
  420TMC3    C5 6319   1.136   4.004  13.129  0.6265  0.4617 -0.6886
  420TMC3    C6 6320   1.018   4.066  13.119 -0.5704  0.0911  0.2114
  420TMC3     C 6321   1.142   3.859  12.812  0.1577  0.4945 -0.0922
  420TMC3     O 6322   1.032   3.845  12.762  0.0517 -0.0589 -0.0897
  420TMC3     H 6323   1.011   4.102  12.785  1.2812 -0.7187 -0.2845
  420TMC3    H1 6324   1.287   3.899  13.032  0.4902  0.5056  1.7662
  420TMC3    H2 6325   0.971   4.102  13.210  1.7839  0.6998  1.1847
  420TMC3    C7 6326   1.169   3.952  13.255 -0.1364 -0.4123 -0.2937
  420TMC3    C8 6327   0.843   4.165  12.990  0.2997  0.3773 -0.2305
  420TMC3    O1 6328   1.205   3.834  13.264  0.3196  0.6079  0.1090
  420TMC3    O2 6329   0.821   4.244  12.896  0.6223  0.7353 -0.0199
  421TMC3    C1 6330   2.910   4.671  13.558  0.4042  0.4923 -0.3189
  421TMC3    C2 6331   2.805   0.008  13.592  0.2703 -0.1359 -0.1432
  421TMC3    C3 6332   2.783   0.040  13.724  1.0858  0.3414 -0.2548
  421TMC3    C4 6333   3.000   4.628  13.648  0.0974 -0.0082  0.0071
  421TMC3    C5 6334   2.965   4.649  13.778  0.4525 -0.0539  0.2874
  421TMC3    C6 6335   2.853   4.713  13.825  0.3478  0.4638  0.0392
  421TMC3     C 6336   2.910   4.615  13.428 -0.1528  0.3776  0.6342
  421TMC3     O 6337   3.012   4.559  13.390  0.4773 -0.5659  0.8576
  421TMC3     H 6338   2.751   0.055  13.510 -0.2195  0.2047  0.3731
  421TMC3    H1 6339   3.091   4.583  13.609  0.8043  1.4388 -0.0029
  421TMC3    H2 6340   2.833   0.007  13.927 -1.3002  1.2822 -0.5366
  421TMC3    C7 6341   3.077   4.617  13.862  0.4639 -1.1412  0.4493
  421TMC3    C8 6342   2.749   0.181  13.759  0.5878 -0.5267 -0.5036
  421TMC3    O1 6343   3.185   4.631  13.805  0.7785 -0.4206 -0.1660
  421TMC3    O2 6344   2.795   0.227  13.862  0.0972 -0.3031 -0.2036
  422TMC3    C1 6345   0.016   1.814  12.668 -0.9718  0.1219 -0.3246
  422TMC3    C2 6346   0.020   1.890  12.782  0.1901  1.2358  0.4490
  422TMC3    C3 6347   4.673   1.852  12.888 -0.3763 -0.3298 -0.0179
  422TMC3    C4 6348   4.668   1.706  12.652 -0.0228 -0.1804 -0.0537
  422TMC3    C5 6349   4.578   1.686  12.759 -0.0917 -0.3728 -0.1752
  422TMC3    C6 6350   4.585   1.754  12.877  0.2780 -0.0636  1.1322
  422TMC3     C 6351   0.080   1.874  12.553  0.1629  0.1477 -0.1878
  422TMC3     O 6352   0.100   1.996  12.561 -0.7315 -0.1996 -0.0416
  422TMC3     H 6353   0.086   1.976  12.780  3.0443 -0.9389  0.2549
  422TMC3    H1 6354   4.664   1.646  12.562 -0.8446  0.5625 -0.5062
  422TMC3    H2 6355   4.541   1.711  12.966  2.1054 -2.2028  1.0007
  422TMC3    C7 6356   4.500   1.564  12.750 -0.5325  0.5729  0.0256
  422TMC3    C8 6357   4.699   1.909  13.019  0.3757  0.5799  0.9602
  422TMC3    O1 6358   4.530   1.488  12.657 -0.6712  0.3427 -0.1454
  422TMC3    O2 6359   0.056   1.984  13.029 -0.1364  0.4926  0.0621
  423MPD2     C 6360   1.449   2.724   0.593  0.3315 -0.1687 -0.3212
  423MPD2    C1 6361   1.579   2.772   0.562  0.0302 -0.3309 -0.2969
  423MPD2    C2 6362   1.644   2.733   0.444 -0.2787 -0.1733 -0.5362
  423MPD2    C3 6363   1.584   2.639   0.361 -0.0338 -0.0605  0.4933
  423MPD2    C4 6364   1.461   2.590   0.395  0.2261  0.6647 -0.6283
  423MPD2    C5 6365   1.394   2.635   0.504  0.4998 -0.0059 -0.2656
  423MPD2     H 6366   1.740   2.775   0.416  0.3213 -0.5734  0.8925
  423MPD2    H1 6367   1.419   2.511   0.334  0.9670  1.7037 -2.4756
  423MPD2    H2 6368   1.394   2.749   0.684 -1.9882 -0.7481 -1.5627
  423MPD2    H3 6369   1.300   2.586   0.527  0.8087  0.0256  1.0642
  423MPD2     N 6370   1.642   2.591   0.237 -0.4986 -0.5887  0.0662
  423MPD2    H5 6371   1.601   2.506   0.199  1.8730 -1.5005 -0.4462
  423MPD2    N1 6372   1.654   2.851   0.652 -0.2496  0.1168  0.4957
  423MPD2    H7 6373   1.752   2.864   0.628  0.0539 -0.4183  1.4382
  424TMC3    C1 6374   1.700   2.936   0.861 -0.5084  0.2038 -0.4276
  424TMC3    C2 6375   1.819   2.861   0.861  0.0739  0.0168  1.0553
  424TMC3    C3 6376   1.930   2.907   0.931  0.1237 -0.2038 -0.5578
  424TMC3    C4 6377   1.684   3.029   0.951 -0.0610 -0.2670  0.0286
  424TMC3    C5 6378   1.796   3.072   1.026  0.6049 -0.3187  0.1712
  424TMC3    C6 6379   1.915   3.008   1.015  0.5888  0.2304  0.1769
  424TMC3     C 6380   1.597   2.903   0.764 -0.2841  0.0402  0.3102
  424TMC3     O 6381   1.489   2.952   0.772  0.3070 -0.1933 -0.1223
  424TMC3     H 6382   1.833   2.769   0.805  0.4618  1.6906 -1.5852
  424TMC3    H1 6383   1.586   3.076   0.959  1.0571  1.9987  0.4459
  424TMC3    H2 6384   1.984   3.018   1.098 -0.7849 -1.3831  1.5022
  424TMC3    C7 6385   1.791   3.203   1.091 -0.5988 -0.3323  0.4402
  424TMC3    C8 6386   2.040   2.814   0.947 -0.8834 -0.4359 -0.3043
  424TMC3    O1 6387   1.903   3.257   1.091 -0.0938  0.2514  0.1211
  424TMC3    O2 6388   2.047   2.713   0.882 -0.0239 -0.1979 -0.2358
  425MPD2     C 6389   0.745   2.065  16.991  0.2456  1.1318 -0.5812
  425MPD2    C1 6390   0.639   1.982  16.967  0.3938 -0.0636  0.2863
  425MPD2    C2 6391   0.516   2.020  17.019  0.1051 -0.7991 -0.4301
  425MPD2    C3 6392   0.495   2.128  17.101  0.0002  0.3767 -0.5993
  425MPD2    C4 6393   0.605   2.193  17.143  0.3566  0.1698  0.0058
  425MPD2    C5 6394   0.725   2.161  17.084  0.4016  0.6495  0.2772
  425MPD2     H 6395   0.427   1.972  16.979 -1.1509 -1.3509  3.0751
  425MPD2    H1 6396   0.611   2.268  17.220 -0.2825  0.0629  0.1572
  425MPD2    H2 6397   0.845   2.039  16.958  0.3556 -0.0879  0.7058
  425MPD2    H3 6398   0.807   2.222  17.121 -0.2002  0.7177  1.4738
  425MPD2     N 6399   0.366   2.134  17.152 -0.2032  0.4556 -0.2528
  425MPD2    H5 6400   0.300   2.059  17.134 -1.0547  0.8499  1.1909
  425MPD2    N1 6401   0.657   1.864  16.888  0.1175 -0.3841  0.5716
  425MPD2    H7 6402   0.748   1.848  16.846 -0.8020 -2.4123 -0.6788
  426TMC3    C1 6403   0.622   1.639  16.836 -0.1793  0.4994 -0.3146
  426TMC3    C2 6404   0.687   1.647  16.721 -0.7150 -0.0411 -0.0843
  426TMC3    C3 6405   0.710   1.529  16.656  0.0345  0.3755 -0.1011
  426TMC3    C4 6406   0.568   1.521  16.877  0.1695 -0.4607  0.3154
  426TMC3    C5 6407   0.585   1.408  16.798 -1.0640 -0.5385 -0.2399
  426TMC3    C6 6408   0.659   1.412  16.686  0.0820  0.1671  0.1648
  426TMC3     C 6409   0.568   1.761  16.897  0.2030  0.8933 -0.4746
  426TMC3     O 6410   0.468   1.748  16.961  0.0742 -0.9388  0.3164
  426TMC3     H 6411   0.708   1.747  16.684  3.5046 -0.9954 -0.3216
  426TMC3    H1 6412   0.525   1.521  16.976  1.2352 -0.9442  0.7728
  426TMC3    H2 6413   0.682   1.317  16.640 -1.8863 -1.4993  2.6460
  426TMC3    C7 6414   0.490   1.303  16.809  0.0225 -0.9825 -0.3051
  426TMC3    C8 6415   0.777   1.528  16.528  0.2872 -0.2922 -0.0429
  426TMC3    O1 6416   0.513   1.193  16.764  0.3423  0.0050 -0.0006
  426TMC3    O2 6417   0.818   1.421  16.486  0.4430 -0.4402  0.5376
  427MPD2     C 6418   3.785   3.710  14.667  0.1023 -0.4660 -0.1475
  427MPD2    C1 6419   3.742   3.679  14.795 -0.2243  0.1328 -0.1291
  427MPD2    C2 6420   3.609   3.706  14.829 -0.1260 -0.6506  0.2318
  427MPD2    C3 6421   3.510   3.752  14.742 -0.2429  0.4429 -0.2438
  427MPD2    C4 6422   3.566   3.783  14.618  0.2307  0.8866  0.0193
  427MPD2    C5 6423   3.699   3.766  14.577 -0.3163 -0.3460 -0.2404
  427MPD2     H 6424   3.576   3.679  14.929  2.5139 -0.1717  1.2203
  427MPD2    H1 6425   3.499   3.815  14.539 -2.0245 -0.2045  1.5130
  427MPD2    H2 6426   3.883   3.686  14.627  0.2178  3.2508 -2.1868
  427MPD2    H3 6427   3.725   3.799  14.478  0.2279  0.3565  0.1417
  427MPD2     N 6428   3.373   3.771  14.772  0.2512 -0.0194  0.7663
  427MPD2    H5 6429   3.316   3.816  14.700  1.9583  0.8843 -0.0173
  427MPD2    N1 6430   3.827   3.629  14.890 -0.5523 -0.3749  0.2325
  427MPD2    H7 6431   3.797   3.598  14.982  1.3203 -0.6735  0.7477
  428TMC3    C1 6432   4.023   3.549  15.002  0.1241  0.2533 -0.0930
  428TMC3    C2 6433   3.941   3.476  15.086 -0.0923  0.5784  0.4486
  428TMC3    C3 6434   3.988   3.451  15.217 -0.0699  0.2738  0.1445
  428TMC3    C4 6435   4.145   3.593  15.048 -0.0657  0.2200  0.1629
  428TMC3    C5 6436   4.191   3.565  15.175  0.2533 -0.0273 -0.0289
  428TMC3    C6 6437   4.117   3.479  15.250 -0.4339 -0.0968 -0.6435
  428TMC3     C 6438   3.968   3.632  14.889  1.0315 -0.3208 -0.0403
  428TMC3     O 6439   4.041   3.691  14.810  0.0844 -0.2915 -0.0439
  428TMC3     H 6440   3.841   3.448  15.055  0.3224 -0.5857  0.1753
  428TMC3    H1 6441   4.199   3.665  14.987  0.2034 -0.4342 -0.3735
  428TMC3    H2 6442   4.163   3.456  15.345 -2.1764  1.0646  0.4820
  428TMC3    C7 6443   4.302   3.635  15.234  1.1389  0.0940  0.4938
  428TMC3    C8 6444   3.922   3.353  15.298 -0.8938  0.2142 -0.3034
  428TMC3    O1 6445   4.323   3.623  15.355 -0.1422  0.5023  0.7914
  428TMC3    O2 6446   4.005   3.298  15.369 -0.2760  0.1747  0.1482
  429MPD2     C 6447   0.661   4.252  17.296  0.5662  0.5278  0.5460
  429MPD2    C1 6448   0.699   4.156  17.207 -0.0041 -0.8108 -0.1016
  429MPD2    C2 6449   0.771   4.200  17.091  0.0146  0.3941 -0.0806
  429MPD2    C3 6450   0.807   4.329  17.068  0.1621 -0.7229 -0.3435
  429MPD2    C4 6451   0.776   4.423  17.166 -0.4984 -0.1784 -0.4449
  429MPD2    C5 6452   0.705   4.381  17.278 -0.4201 -0.3304 -0.3357
  429MPD2     H 6453   0.802   4.124  17.020  1.7319  2.4960 -1.5769
  429MPD2    H1 6454   0.800   4.527  17.146  0.0709 -0.4804 -1.3624
  429MPD2    H2 6455   0.590   4.235  17.377  0.5055  0.5788  0.5039
  429MPD2    H3 6456   0.665   4.457  17.343 -1.0964  0.6721 -1.9309
  429MPD2     N 6457   0.870   4.354  16.945  0.0625 -0.1635 -0.6264
  429MPD2    H5 6458   0.864   4.284  16.871  0.3655 -1.1624  0.2844
  429MPD2    N1 6459   0.678   4.019  17.216 -0.1683 -0.1871  0.3877
  429MPD2    H7 6460   0.705   3.963  17.136  2.9081  3.3385 -1.0703
  430TMC3    C1 6461   0.993   4.469  16.777 -0.1201 -0.0746  0.2225
  430TMC3    C2 6462   1.000   4.586  16.703 -0.1869  0.2989 -0.2534
  430TMC3    C3 6463   1.046   4.570  16.573 -0.7978  0.4810  0.4266
  430TMC3    C4 6464   1.030   4.350  16.736 -0.3508  0.2064 -0.3343
  430TMC3    C5 6465   1.071   4.345  16.607 -0.7709  0.0336  0.1093
  430TMC3    C6 6466   1.096   4.450  16.530 -0.1732 -0.3513 -0.9111
  430TMC3     C 6467   0.930   4.477  16.906  0.4267  0.4803 -1.0305
  430TMC3     O 6468   0.925   4.588  16.961  0.7683 -0.7518 -0.2121
  430TMC3     H 6469   0.943   4.671  16.736  0.4464  0.6616 -0.1069
  430TMC3    H1 6470   1.028   4.260  16.796  1.2600  0.9252  0.8068
  430TMC3    H2 6471   1.136   4.435  16.431 -0.8351  0.2236 -1.2627
  430TMC3    C7 6472   1.060   4.215  16.546  0.4168 -0.3331 -0.2129
  430TMC3    C8 6473   0.966   4.633  16.469 -0.2616 -0.5720  0.0711
  430TMC3    O1 6474   1.048   4.120  16.619  0.4647  0.1247  0.3742
  430TMC3    O2 6475   0.975   4.585  16.356  0.0651 -0.6559 -0.3754
  431MPD2     C 6476   0.800   4.010  12.632 -0.1716 -0.5313 -0.0467
  431MPD2    C1 6477   0.851   4.001  12.500  0.3648  0.6452  1.0571
  431MPD2    C2 6478   0.817   3.885  12.425 -0.1036  0.0321 -0.2057
  431MPD2    C3 6479   0.765   3.770  12.490 -0.2681 -0.1078 -0.6737
  431MPD2    C4 6480   0.716   3.783  12.621 -0.5506 -0.6507  0.6989
  431MPD2    C5 6481   0.739   3.899  12.686 -0.4227  0.3661  0.1105
  431MPD2     H 6482   0.848   3.887  12.321 -0.3249 -1.2722 -0.2882
  431MPD2    H1 6483   0.663   3.699  12.664  0.4687 -0.9444  1.3804
  431MPD2    H2 6484   0.820   4.094  12.698  2.0060 -0.5245 -0.6972
  431MPD2    H3 6485   0.720   3.901  12.793 -0.3821  0.9319  0.1117
  431MPD2     N 6486   0.750   3.639  12.440  0.0134 -0.5597 -0.1985
  431MPD2    H5 6487   0.699   3.571  12.496 -2.2429  1.9106  0.7096
  431MPD2    N1 6488   0.920   4.107  12.443 -0.4645  0.4789 -0.0453
  431MPD2    H7 6489   0.949   4.092  12.347 -1.3045  3.4408 -0.7572
  432TMC3    C1 6490   0.809   3.458  12.306 -0.0042 -0.7921  0.3583
  432TMC3    C2 6491   0.818   3.408  12.181  0.5191  0.2126 -0.0303
  432TMC3    C3 6492   0.898   3.296  12.155 -0.3035 -0.0992 -0.1320
  432TMC3    C4 6493   0.875   3.402  12.409  0.2744  0.2188 -0.5282
  432TMC3    C5 6494   0.965   3.302  12.387  0.2033  0.9871 -0.5948
  432TMC3    C6 6495   0.963   3.233  12.265  0.3665 -0.0585 -0.6069
  432TMC3     C 6496   0.788   3.602  12.313 -0.1899 -0.2111 -0.9728
  432TMC3     O 6497   0.849   3.668  12.226  0.2314 -0.2901 -0.9074
  432TMC3     H 6498   0.778   3.464  12.097  1.6046 -1.5180 -1.7066
  432TMC3    H1 6499   0.857   3.443  12.508 -0.4463 -0.4579 -0.3873
  432TMC3    H2 6500   1.031   3.152  12.243 -0.3748 -0.1682 -2.5374
  432TMC3    C7 6501   1.099   3.328  12.444 -0.8235  0.8225  0.2367
  432TMC3    C8 6502   0.986   3.312  12.043  0.4491 -0.3681 -0.1252
  432TMC3    O1 6503   1.194   3.269  12.393 -0.4012  0.0104  0.3426
  432TMC3    O2 6504   1.103   3.288  12.060  0.5498 -0.0001  0.1477
  433MPD2     C 6505   0.099   2.579  10.904  0.0739 -0.5801  0.8628
  433MPD2    C1 6506   0.005   2.547  10.995 -0.4431  0.5662 -0.1345
  433MPD2    C2 6507   0.041   2.572  11.130  0.3099 -1.2306 -0.3913
  433MPD2    C3 6508   0.157   2.640  11.166  0.2295  1.1677  0.2411
  433MPD2    C4 6509   0.247   2.673  11.064  0.2203  0.3537  0.0089
  433MPD2    C5 6510   0.223   2.630  10.941 -0.4956  0.0953  0.4013
  433MPD2     H 6511   4.704   2.558  11.207  1.1210 -1.7703  0.3117
  433MPD2    H1 6512   0.341   2.726  11.083  0.3889 -0.6935  2.0999
  433MPD2    H2 6513   0.081   2.569  10.797  0.1087  0.3751  0.7706
  433MPD2    H3 6514   0.297   2.653  10.865 -0.3272  1.1548  0.8849
  433MPD2     N 6515   0.170   2.674  11.304  0.3079 -0.6024 -0.3820
  433MPD2    H5 6516   0.105   2.622  11.362  1.6284 -0.2480  1.4048
  433MPD2    N1 6517   4.623   2.498  10.941  0.1104  0.1443 -0.3623
  433MPD2    H7 6518   4.631   2.473  10.843  1.2823  0.4272 -0.3356
  434TMC3    C1 6519   4.413   2.391  10.948 -0.3719 -0.9979  0.1372
  434TMC3    C2 6520   4.371   2.285  11.026  0.5383  0.4538 -0.3450
  434TMC3    C3 6521   4.308   2.182  10.971 -0.4770 -0.1153  0.8738
  434TMC3    C4 6522   4.399   2.391  10.808 -0.2215 -0.0244 -0.5738
  434TMC3    C5 6523   4.336   2.279  10.755 -0.5788 -0.2448  0.2903
  434TMC3    C6 6524   4.284   2.179  10.832  0.3261  0.2296 -0.9037
  434TMC3     C 6525   4.512   2.468  11.024 -0.0437 -0.1979  0.2166
  434TMC3     O 6526   4.495   2.486  11.146 -0.3061  0.6123 -0.3219
  434TMC3     H 6527   4.385   2.293  11.133 -3.5042 -0.5484  0.2337
  434TMC3    H1 6528   4.438   2.472  10.748  0.4353  0.2235  0.1812
  434TMC3    H2 6529   4.228   2.090  10.807  0.1632 -0.3999  1.6223
  434TMC3    C7 6530   4.351   2.264  10.607  0.1001  0.0523  0.4417
  434TMC3    C8 6531   4.352   2.064  11.035  0.0246 -0.4664 -0.6483
  434TMC3    O1 6532   4.378   2.354  10.530 -0.1756  0.3642 -0.1549
  434TMC3    O2 6533   4.454   2.078  11.100  0.6644  0.1603  0.0569
  435MPD2     C 6534   2.692   2.914  15.438  0.0894  0.5309 -0.3321
  435MPD2    C1 6535   2.633   2.863  15.550  0.1655 -0.4899 -0.0301
  435MPD2    C2 6536   2.691   2.757  15.617 -0.4224 -0.7281  0.3152
  435MPD2    C3 6537   2.781   2.681  15.554  0.3515 -1.0291  0.0252
  435MPD2    C4 6538   2.830   2.715  15.430  0.2032 -0.4967  0.3673
  435MPD2    C5 6539   2.794   2.837  15.377 -0.2271  0.5543 -0.3181
  435MPD2     H 6540   2.661   2.735  15.719  1.7293 -0.9735  0.8994
  435MPD2    H1 6541   2.898   2.646  15.383 -0.4190 -0.9575  0.1470
  435MPD2    H2 6542   2.662   3.006  15.388 -0.7869 -0.5060 -1.6895
  435MPD2    H3 6543   2.831   2.876  15.283 -1.2117 -0.7190 -1.2412
  435MPD2     N 6544   2.829   2.564  15.614  0.2793 -0.0038 -1.3007
  435MPD2    H5 6545   2.788   2.547  15.706  1.7788 -0.1276 -0.6554
  435MPD2    N1 6546   2.513   2.924  15.607  0.0991  0.0749 -0.3130
  435MPD2    H7 6547   2.482   2.884  15.695  2.7436 -1.1195  0.0801
  436TMC3    C1 6548   2.273   3.135  15.862 -0.1049  0.3905  0.6564
  436TMC3    C2 6549   2.352   3.065  15.777 -0.0557 -0.0768 -0.3894
  436TMC3    C3 6550   2.326   3.074  15.640 -0.5385  0.5161  0.1694
  436TMC3    C4 6551   2.175   3.218  15.811 -0.0187  0.3769  0.1269
  436TMC3    C5 6552   2.170   3.240  15.675 -0.2604 -0.2930  0.6199
  436TMC3    C6 6553   2.248   3.175  15.588  0.0095 -0.0676 -0.2281
  436TMC3     C 6554   2.304   3.135  16.008 -0.1910  1.1488  0.1513
  436TMC3     O 6555   2.423   3.135  16.037 -0.2114  0.1276 -0.3185
  436TMC3     H 6556   2.439   3.015  15.818  0.6491  0.0946 -1.6816
  436TMC3    H1 6557   2.112   3.279  15.875 -1.1020  0.7897 -1.3467
  436TMC3    H2 6558   2.251   3.199  15.482  1.8756  0.5800 -0.0257
  436TMC3    C7 6559   2.080   3.349  15.628 -0.9559  0.5823 -0.0960
  436TMC3    C8 6560   2.444   3.031  15.558  0.7116 -0.6082  0.3683
  436TMC3    O1 6561   2.046   3.435  15.707  0.2165  0.2487  0.0113
  436TMC3    O2 6562   2.448   3.086  15.448  0.6191 -0.0118  0.1187
  437TMC3    C1 6563   1.071   0.183  11.951 -0.4185  0.1516 -0.4582
  437TMC3    C2 6564   1.063   0.253  11.838 -0.4250  0.9196  0.6654
  437TMC3    C3 6565   1.166   0.240  11.752  0.1876  0.4168 -0.0217
  437TMC3    C4 6566   1.169   0.088  11.973  0.0300 -0.5354 -0.1902
  437TMC3    C5 6567   1.268   0.078  11.880 -0.6137  0.6101 -0.7381
  437TMC3    C6 6568   1.276   0.164  11.772 -0.2348  0.0888  0.8241
  437TMC3     C 6569   0.953   0.172  12.034 -0.0747  0.7941  0.1897
  437TMC3     O 6570   0.973   0.108  12.136  0.2587 -0.7254  0.4174
  437TMC3     H 6571   0.996   0.338  11.832  0.9981  1.7796 -2.9287
  437TMC3    H1 6572   1.149   0.012  12.048  0.9709 -1.2161 -0.6173
  437TMC3    H2 6573   1.366   0.179  11.714 -0.1783  1.0560  1.1650
  437TMC3    C7 6574   1.389   0.005  11.912  0.3376  0.3381  0.0215
  437TMC3    C8 6575   1.147   0.313  11.629  0.0787  1.1146 -0.2659
  437TMC3    O1 6576   1.479   0.017  11.831  0.4610 -0.3903  0.0697
  437TMC3    O2 6577   1.043   0.375  11.610  0.2912  0.0739 -0.3270
  438MPD2     C 6578   2.858   0.699  16.389 -0.0396 -0.4068 -0.3126
  438MPD2    C1 6579   2.970   0.639  16.444 -0.4668  0.0800  0.0503
  438MPD2    C2 6580   3.023   0.681  16.563 -0.0887 -0.7667 -0.3302
  438MPD2    C3 6581   2.953   0.775  16.641  0.7391  0.5099  0.3814
  438MPD2    C4 6582   2.834   0.829  16.592  0.3596 -0.3738 -0.2438
  438MPD2    C5 6583   2.795   0.799  16.465 -0.2868 -0.3106  0.1667
  438MPD2     H 6584   3.112   0.629  16.597  0.4905  0.6217  0.3018
  438MPD2    H1 6585   2.775   0.905  16.643 -1.6798 -1.4337 -1.0582
  438MPD2    H2 6586   2.809   0.676  16.295  0.3867  0.3359 -0.7184
  438MPD2    H3 6587   2.711   0.855  16.425  0.7095  0.6808 -0.5272
  438MPD2     N 6588   2.986   0.808  16.776 -0.9167 -0.5471 -0.0985
  438MPD2    H5 6589   2.926   0.872  16.827 -2.1391  0.4154 -2.7736
  438MPD2    N1 6590   3.047   0.532  16.374  0.5309  1.2433  0.1856
  438MPD2    H7 6591   3.134   0.501  16.415 -0.6522  1.4702  2.8754
  439TMC3    C1 6592   3.123   0.378  16.209  0.2013 -0.3164  0.0355
  439TMC3    C2 6593   3.085   0.299  16.102 -0.3360 -0.1110  0.3274
  439TMC3    C3 6594   3.155   0.190  16.066  0.4254 -0.2086 -0.0841
  439TMC3    C4 6595   3.222   0.331  16.290 -0.5849  0.1653  0.2886
  439TMC3    C5 6596   3.295   0.217  16.253 -0.3612  0.1722 -0.1518
  439TMC3    C6 6597   3.264   0.147  16.143 -0.4305  0.2566 -0.4063
  439TMC3     C 6598   3.013   0.470  16.254 -0.0862  0.0078  0.0783
  439TMC3     O 6599   2.906   0.480  16.193  0.1169  0.2988  0.4085
  439TMC3     H 6600   3.008   0.335  16.035 -1.3956  0.2885  1.7625
  439TMC3    H1 6601   3.251   0.383  16.381  3.2992 -0.5266 -0.5327
  439TMC3    H2 6602   3.316   0.054  16.121  0.0560  0.4706 -0.1435
  439TMC3    C7 6603   3.432   0.207  16.306 -0.3024 -0.4605 -0.7359
  439TMC3    C8 6604   3.155   0.146  15.929  0.1898  0.9939  0.1085
  439TMC3    O1 6605   3.463   0.277  16.402  0.1372 -0.0550 -0.4597
  439TMC3    O2 6606   3.196   0.033  15.905  0.0750 -0.6558 -0.2988
  440MPD2     C 6607   1.876   0.931  14.539  0.6090 -0.2438  0.1158
  440MPD2    C1 6608   1.926   1.025  14.623 -0.0181 -0.2030 -0.1570
  440MPD2    C2 6609   2.044   0.992  14.693  0.5504 -0.1860 -0.1715
  440MPD2    C3 6610   2.095   0.863  14.690 -0.2407 -0.0174  0.2075
  440MPD2    C4 6611   2.041   0.769  14.603  0.3545 -0.1012  0.9026
  440MPD2    C5 6612   1.936   0.809  14.519 -0.5853 -0.2727  0.0682
  440MPD2     H 6613   2.096   1.065  14.755  1.3482 -1.8112  1.0831
  440MPD2    H1 6614   2.084   0.670  14.597  0.3977  0.1593 -2.9056
  440MPD2    H2 6615   1.776   0.939  14.497  0.3177 -1.2053  0.6101
  440MPD2    H3 6616   1.893   0.742  14.445 -0.8193  1.3307 -1.2519
  440MPD2     N 6617   2.199   0.822  14.767 -0.1663  0.1654 -0.0306
  440MPD2    H5 6618   2.236   0.727  14.760 -2.2921 -0.6670  0.1828
  440MPD2    N1 6619   1.871   1.154  14.643  0.6369  0.2020  0.0984
  440MPD2    H7 6620   1.913   1.207  14.718  0.2477  1.8783 -0.8479
  441TMC3    C1 6621   2.393   0.819  14.892 -0.1158 -0.2490 -0.2625
  441TMC3    C2 6622   2.509   0.895  14.906  0.0187 -0.1107  0.0190
  441TMC3    C3 6623   2.579   0.870  15.017 -0.6402 -0.1152 -1.2199
  441TMC3    C4 6624   2.354   0.727  14.977 -1.0795 -0.5467  0.8398
  441TMC3    C5 6625   2.429   0.700  15.088  0.2351 -0.2049 -0.2686
  441TMC3    C6 6626   2.547   0.773  15.109 -0.5792  0.1825 -0.2456
  441TMC3     C 6627   2.280   0.898  14.850 -0.4010 -0.4002  0.2728
  441TMC3     O 6628   2.278   1.013  14.880  0.1846 -0.2801 -0.2205
  441TMC3     H 6629   2.530   0.974  14.835 -3.0053  1.3822  0.7821
  441TMC3    H1 6630   2.253   0.689  14.968 -1.4903  0.2596  2.0519
  441TMC3    H2 6631   2.603   0.764  15.202 -0.8617 -2.8243 -0.3480
  441TMC3    C7 6632   2.378   0.611  15.190 -0.4791 -0.1049 -0.8591
  441TMC3    C8 6633   2.621   0.994  15.078 -0.1912  0.0832  0.7785
  441TMC3    O1 6634   2.265   0.564  15.172  0.0400  0.2174  0.4021
  441TMC3    O2 6635   2.737   0.992  15.111  0.3585 -0.2233  0.4316
  442MPD2     C 6636   0.405   1.560  16.080  0.6286  0.1719  0.1294
  442MPD2    C1 6637   0.279   1.543  16.031  0.0969  0.4790  0.2397
  442MPD2    C2 6638   0.239   1.420  15.981 -0.8053 -0.0392  0.2957
  442MPD2    C3 6639   0.327   1.312  15.984 -0.2571 -0.5337 -0.9899
  442MPD2    C4 6640   0.456   1.329  16.032 -0.5658 -1.1466  0.0431
  442MPD2    C5 6641   0.487   1.453  16.091  0.4991  0.2025  0.0179
  442MPD2     H 6642   0.144   1.416  15.928  0.0423  0.7615 -1.2728
  442MPD2    H1 6643   0.532   1.254  16.044 -2.0365 -2.5603  0.4937
  442MPD2    H2 6644   0.428   1.657  16.123 -1.7375  1.1368 -0.7545
  442MPD2    H3 6645   0.574   1.474  16.152  1.0262 -1.6225 -0.0984
  442MPD2     N 6646   0.289   1.187  15.932  0.1888 -0.8218 -0.0483
  442MPD2    H5 6647   0.365   1.124  15.907 -0.3885 -1.5458  0.0328
  442MPD2    N1 6648   0.176   1.644  16.041 -0.4384  0.1712 -0.2166
  442MPD2    H7 6649   0.092   1.630  15.986  0.0369  1.3593 -1.2272
  443TMC3    C1 6650   0.058   1.834  16.099  0.1053 -0.0343 -1.0734
  443TMC3    C2 6651   0.022   1.842  15.968 -0.9318  1.1623  0.4329
  443TMC3    C3 6652   4.625   1.847  15.935  0.0610  0.1998  0.4332
  443TMC3    C4 6653   4.705   1.831  16.202 -0.6177 -0.4674 -0.4634
  443TMC3    C5 6654   4.569   1.820  16.170  0.7892  0.3465  0.5121
  443TMC3    C6 6655   4.526   1.833  16.036 -0.0635  0.6887  0.2855
  443TMC3     C 6656   0.176   1.754  16.125 -0.2293 -0.1227  0.2318
  443TMC3     O 6657   0.258   1.783  16.206  0.4152 -0.0456  0.5032
  443TMC3     H 6658   0.092   1.847  15.885 -2.2688 -0.8717 -0.7953
  443TMC3    H1 6659   4.735   1.799  16.301  1.0548  0.0909 -0.7936
  443TMC3    H2 6660   4.421   1.827  16.011 -0.1168 -1.5120  0.9956
  443TMC3    C7 6661   4.482   1.742  16.246  0.2802  0.7628 -0.5633
  443TMC3    C8 6662   4.614   1.765  15.821  0.3075 -0.7916 -0.9731
  443TMC3    O1 6663   4.429   1.654  16.184 -0.4989  0.3300 -0.0126
  443TMC3    O2 6664   4.678   1.661  15.840 -0.5955  0.3774  0.3956
  444MPD2     C 6665   0.394   1.297  16.424 -0.1714 -0.2985 -0.7763
  444MPD2    C1 6666   0.333   1.175  16.437  0.4714  0.2053 -0.1630
  444MPD2    C2 6667   0.394   1.062  16.390  0.3995  1.0685  0.0664
  444MPD2    C3 6668   0.527   1.065  16.340 -0.0908 -0.5539  0.2243
  444MPD2    C4 6669   0.589   1.185  16.326  0.1356 -0.2498 -0.4680
  444MPD2    C5 6670   0.523   1.299  16.366 -0.2667  0.0635  0.6311
  444MPD2     H 6671   0.340   0.968  16.394  2.9793 -0.3545  1.5813
  444MPD2    H1 6672   0.689   1.198  16.284  0.3291 -1.8478 -0.4865
  444MPD2    H2 6673   0.345   1.390  16.447  0.1896  0.2246 -2.1469
  444MPD2    H3 6674   0.581   1.391  16.362 -0.0871  0.0644  3.2448
  444MPD2     N 6675   0.592   0.937  16.311 -0.1300 -0.0390 -0.7697
  444MPD2    H5 6676   0.533   0.856  16.326  0.9529 -0.5584  0.6676
  444MPD2    N1 6677   0.213   1.159  16.508 -0.4805  0.6001  0.0190
  444MPD2    H7 6678   0.170   1.067  16.506  2.1379 -0.6666  1.5914
  445TMC3    C1 6679   0.749   0.782  16.225 -0.0651  0.4500  0.1509
  445TMC3    C2 6680   0.660   0.694  16.175  0.3340 -0.9054  0.1144
  445TMC3    C3 6681   0.698   0.558  16.150  0.7528 -0.6637 -1.1791
  445TMC3    C4 6682   0.881   0.749  16.226  0.0303  0.3560 -0.5277
  445TMC3    C5 6683   0.915   0.620  16.208 -0.8228  0.1143  0.3884
  445TMC3    C6 6684   0.829   0.522  16.171 -0.0884  0.3050 -0.8594
  445TMC3     C 6685   0.719   0.916  16.262  0.3953 -1.2376  0.7039
  445TMC3     O 6686   0.803   1.008  16.238 -0.4443 -0.4263  0.0638
  445TMC3     H 6687   0.556   0.726  16.173  0.1874 -1.3325  0.9983
  445TMC3    H1 6688   0.960   0.822  16.238 -0.5253  0.6210  1.4632
  445TMC3    H2 6689   0.862   0.420  16.154 -2.9509 -0.7650 -0.0097
  445TMC3    C7 6690   1.051   0.589  16.198 -0.4184  0.4429 -0.1912
  445TMC3    C8 6691   0.598   0.464  16.089  0.5061 -0.2216 -0.3879
  445TMC3    O1 6692   1.125   0.677  16.165 -0.4411  0.4462 -0.1588
  445TMC3    O2 6693   0.486   0.513  16.080 -0.3902  0.6150  0.1380
  446MPD2     C 6694   4.380   2.140  11.651  0.3208 -0.3898 -0.3188
  446MPD2    C1 6695   4.331   2.113  11.529 -0.0741  0.7711 -0.3905
  446MPD2    C2 6696   4.401   2.150  11.413 -0.0305 -0.3470  0.2239
  446MPD2    C3 6697   4.536   2.191  11.420  0.7622 -0.1770  0.2338
  446MPD2    C4 6698   4.569   2.236  11.548 -0.0838 -0.2931 -0.3086
  446MPD2    C5 6699   4.488   2.221  11.661 -0.2873  0.0641 -0.4239
  446MPD2     H 6700   4.361   2.109  11.320 -0.6123  2.1368 -0.6038
  446MPD2    H1 6701   4.660   2.292  11.565 -0.1079  0.0661 -1.3491
  446MPD2    H2 6702   4.333   2.112  11.744  2.9739  1.6167  1.6275
  446MPD2    H3 6703   4.521   2.263  11.756  0.1499  0.2490 -0.6573
  446MPD2     N 6704   4.609   2.203  11.299 -0.5518 -0.1165  0.7482
  446MPD2    H5 6705   4.566   2.162  11.216 -1.4334 -0.0677  1.1811
  446MPD2    N1 6706   4.225   2.027  11.501 -0.0255 -0.1272  0.1616
  446MPD2    H7 6707   4.217   2.005  11.402  1.1942 -2.1079  0.4931
  447TMC3    C1 6708   0.076   2.222  11.177  0.2125  0.1247  0.2425
  447TMC3    C2 6709   0.006   2.206  11.063  0.3991 -0.2256  0.1761
  447TMC3    C3 6710   0.085   2.160  10.955  0.2014  0.3699  0.5575
  447TMC3    C4 6711   0.209   2.186  11.198 -0.1112  0.2657 -0.6550
  447TMC3    C5 6712   0.271   2.145  11.090  0.1756  0.1039 -0.5538
  447TMC3    C6 6713   0.214   2.123  10.971 -0.4445 -0.3167  0.4639
  447TMC3     C 6714   4.736   2.253  11.294  0.8257 -0.2166 -0.3627
  447TMC3     O 6715   0.065   2.296  11.387  0.1902  0.1459 -0.6777
  447TMC3     H 6716   4.639   2.229  11.048  0.2575 -1.8060 -1.3780
  447TMC3    H1 6717   0.255   2.201  11.295  0.5172  2.0649 -1.2345
  447TMC3    H2 6718   0.275   2.093  10.886 -1.4662 -2.4995  0.5143
  447TMC3    C7 6719   0.398   2.078  11.118  0.2097  0.5608 -0.1267
  447TMC3    C8 6720   0.023   2.157  10.827  0.4590 -0.4140 -0.1576
  447TMC3    O1 6721   0.408   2.034  11.231  0.0469  0.1485 -0.5548
  447TMC3    O2 6722   4.698   2.253  10.788  0.3163 -0.3677  0.6273
  448TMC3    C1 6723   3.591   2.023  16.334  0.2553 -0.0193 -0.2432
  448TMC3    C2 6724   3.518   1.901  16.342 -0.8124  0.8420 -0.0523
  448TMC3    C3 6725   3.567   1.813  16.433  0.2600  0.6020  0.5951
  448TMC3    C4 6726   3.699   2.051  16.417 -0.0070  0.1319  0.2141
  448TMC3    C5 6727   3.747   1.946  16.496 -0.1829  0.5121 -0.8347
  448TMC3    C6 6728   3.683   1.827  16.503  0.4723 -0.4350 -0.1484
  448TMC3     C 6729   3.539   2.126  16.253 -0.1530 -0.0214 -0.2787
  448TMC3     O 6730   3.622   2.209  16.225  0.1065 -0.2799 -0.7102
  448TMC3     H 6731   3.451   1.866  16.264 -0.3678  1.2129 -0.6066
  448TMC3    H1 6732   3.753   2.145  16.423 -3.0178  1.9974 -1.7260
  448TMC3    H2 6733   3.711   1.748  16.572 -1.4272  0.5042  1.6856
  448TMC3    C7 6734   3.834   1.984  16.607  0.0473 -0.0116 -0.1259
  448TMC3    C8 6735   3.490   1.690  16.455  0.3591  0.1895 -0.7133
  448TMC3    O1 6736   3.897   2.085  16.598  0.2006  0.4100 -0.1566
  448TMC3    O2 6737   3.539   1.593  16.518 -0.0546  0.3792  0.0849
  449MPD2     C 6738   0.127   4.624  13.785 -0.3638  0.5123 -0.0128
  449MPD2    C1 6739   0.008   4.656  13.712 -0.3874  0.3388  0.4745
  449MPD2    C2 6740   4.619   4.645  13.767  0.7495  0.4442  0.4023
  449MPD2    C3 6741   4.615   4.622  13.904  0.9377  0.1015 -0.0667
  449MPD2    C4 6742   4.735   4.586  13.974 -0.0831  0.2176  0.3156
  449MPD2    C5 6743   0.122   4.587  13.915  0.1046 -0.1560  0.0228
  449MPD2     H 6744   4.532   4.685  13.716  0.5988 -2.1062 -1.3356
  449MPD2    H1 6745   4.735   4.556  14.078 -1.2809 -0.6719  0.0618
  449MPD2    H2 6746   0.227   4.627  13.741 -0.2874 -0.6600  0.0890
  449MPD2    H3 6747   0.215   4.566  13.968  0.5380 -1.8101 -1.4008
  449MPD2     N 6748   4.487   4.640  13.967 -0.8844 -0.0325 -0.0962
  449MPD2    H5 6749   4.408   4.652  13.905  0.8552 -0.1172 -2.2952
  449MPD2    N1 6750   0.013   4.687  13.574 -0.5663 -0.0161 -0.7680
  449MPD2    H7 6751   4.664   4.714  13.529 -0.7637  1.0712  0.2790
  450TMC3    C1 6752   0.075   4.711  13.362 -0.5239  0.6139  0.5822
  450TMC3    C2 6753   0.140   0.080  13.311  0.4914  0.5128  0.4674
  450TMC3    C3 6754   0.059   0.174  13.244  0.1797  0.6051  0.2546
  450TMC3    C4 6755   4.677   4.691  13.338 -0.1280  0.2583  0.3606
  450TMC3    C5 6756   4.594   0.062  13.300  0.1945  0.1736  0.8228
  450TMC3    C6 6757   4.654   0.170  13.247 -0.8306  0.4146 -0.3405
  450TMC3     C 6758   0.124   4.680  13.497  0.1749 -0.5514  0.5261
  450TMC3     O 6759   0.239   4.655  13.526 -0.4583  0.1804 -0.2374
  450TMC3     H 6760   0.247   0.090  13.322  0.6161 -1.3684  1.0866
  450TMC3    H1 6761   4.627   4.609  13.388 -0.5012  0.2470 -0.0395
  450TMC3    H2 6762   4.605   0.261  13.214 -0.6785 -0.0566 -1.8175
  450TMC3    C7 6763   4.500   0.097  13.404 -0.0939  0.3590  0.0949
  450TMC3    C8 6764   0.131   0.293  13.191  0.2602 -0.7404  0.7399
  450TMC3    O1 6765   4.497   0.023  13.500 -0.4528  0.3764 -0.0473
  450TMC3    O2 6766   0.080   0.406  13.198 -0.0926 -0.3388  0.5390
  451MPD2     C 6767   1.440   4.092   0.954  0.2099 -0.4445 -0.1595
  451MPD2    C1 6768   1.539   4.152   0.883  1.0355 -0.1476 -0.3148
  451MPD2    C2 6769   1.626   4.069   0.816  0.2458  0.2214  0.0235
  451MPD2    C3 6770   1.622   3.929   0.830 -0.2952 -0.3531  0.1859
  451MPD2    C4 6771   1.521   3.875   0.902  0.9120 -0.0871  0.1047
  451MPD2    C5 6772   1.427   3.957   0.957  0.2836  0.1480  0.2667
  451MPD2     H 6773   1.699   4.124   0.758  1.0267 -1.1662 -0.3051
  451MPD2    H1 6774   1.492   3.771   0.892 -0.5048  0.3316 -0.0984
  451MPD2    H2 6775   1.365   4.147   1.010 -1.2731 -1.0850 -1.5186
  451MPD2    H3 6776   1.330   3.911   0.977  0.1027 -1.0666 -3.4546
  451MPD2     N 6777   1.707   3.833   0.769  0.7988  0.3131 -0.6687
  451MPD2    H5 6778   1.687   3.737   0.793  3.2170  0.1711  0.8165
  451MPD2    N1 6779   1.530   4.291   0.874 -0.8956 -0.3115  0.0046
  451MPD2    H7 6780   1.463   4.344   0.929 -0.7596 -3.3706  3.1142
  452TMC3    C1 6781   1.867   3.759   0.600  0.0285 -0.6618 -0.0657
  452TMC3    C2 6782   1.780   3.655   0.573  0.0170 -0.2924  0.2716
  452TMC3    C3 6783   1.781   3.596   0.445 -0.1865  0.1169  0.1679
  452TMC3    C4 6784   1.978   3.782   0.520 -0.3333 -0.1894 -0.8541
  452TMC3    C5 6785   1.979   3.725   0.392 -0.4315  0.8781 -0.7199
  452TMC3    C6 6786   1.878   3.635   0.356 -0.6271  0.4199 -0.4437
  452TMC3     C 6787   1.810   3.871   0.674 -0.0721  0.6761 -0.5711
  452TMC3     O 6788   1.862   3.983   0.659  0.5260 -0.0917  0.1972
  452TMC3     H 6789   1.690   3.631   0.628 -1.3105  0.7582 -1.4428
  452TMC3    H1 6790   2.033   3.873   0.540 -0.8119 -0.5027  1.8538
  452TMC3    H2 6791   1.870   3.626   0.249 -2.1064  0.4605 -0.3251
  452TMC3    C7 6792   2.026   3.813   0.284 -0.3016 -0.6097  0.0452
  452TMC3    C8 6793   1.699   3.471   0.433 -0.4718  0.2487  0.0686
  452TMC3    O1 6794   1.965   3.824   0.178  0.0803 -0.0938 -0.1985
  452TMC3    O2 6795   1.602   3.457   0.506 -0.3617 -0.7223  0.2357
  453TMC3    C1 6796   2.313   1.189  12.293 -0.3247 -0.4684  0.8390
  453TMC3    C2 6797   2.263   1.065  12.309 -0.0728  0.2024  0.1290
  453TMC3    C3 6798   2.135   1.040  12.266 -0.1516  0.9424  0.1350
  453TMC3    C4 6799   2.244   1.286  12.227 -0.3266 -0.4060  0.0986
  453TMC3    C5 6800   2.114   1.269  12.184  0.2370  0.2014  0.7863
  453TMC3    C6 6801   2.059   1.142  12.207  0.3697 -0.5824  0.2716
  453TMC3     C 6802   2.442   1.233  12.348 -0.5889  0.9112 -0.0033
  453TMC3     O 6803   2.476   1.348  12.313 -0.1666 -0.2071 -0.5120
  453TMC3     H 6804   2.318   0.992  12.367 -1.3990 -0.4373  0.5850
  453TMC3    H1 6805   2.289   1.380  12.198  1.2630 -0.6278  1.8535
  453TMC3    H2 6806   1.961   1.125  12.163  0.3679  1.7265 -0.6250
  453TMC3    C7 6807   2.062   1.369  12.084 -0.6051 -0.6076  0.2063
  453TMC3    C8 6808   2.062   0.913  12.282 -0.6767 -0.0676 -0.1277
  453TMC3    O1 6809   2.151   1.422  12.016 -0.4260  0.1294 -0.0149
  453TMC3    O2 6810   1.941   0.914  12.263 -0.2945  0.3033  0.4040
  454MPD2     C 6811   1.386   0.937  15.717 -0.0061 -0.1910 -0.5543
  454MPD2    C1 6812   1.296   0.950  15.608  0.1685  0.0490 -0.1128
  454MPD2    C2 6813   1.223   1.061  15.593  0.1166 -0.4007 -0.2298
  454MPD2    C3 6814   1.240   1.172  15.670 -0.7443 -0.0463  0.0600
  454MPD2    C4 6815   1.337   1.171  15.771 -0.0050  0.4469  0.4326
  454MPD2    C5 6816   1.400   1.053  15.793 -1.0650 -0.1287 -0.2709
  454MPD2     H 6817   1.153   1.066  15.510  0.7979  2.7424 -0.5971
  454MPD2    H1 6818   1.348   1.253  15.842  0.0953  0.0242  0.9056
  454MPD2    H2 6819   1.443   0.848  15.736 -1.4659 -1.0867 -0.3734
  454MPD2    H3 6820   1.458   1.062  15.884 -1.4460  0.1355 -0.0570
  454MPD2     N 6821   1.141   1.280  15.669  0.3480  0.0747 -0.4818
  454MPD2    H5 6822   1.130   1.341  15.749  1.7262  0.7021 -0.7743
  454MPD2    N1 6823   1.258   0.835  15.531  0.1187 -0.7324  0.2291
  454MPD2    H7 6824   1.182   0.850  15.466 -2.6251 -1.3823  3.2608
  455TMC3    C1 6825   0.919   1.305  15.649 -0.6335  0.0786 -0.3384
  455TMC3    C2 6826   0.923   1.389  15.760  0.5681  0.0225 -0.7796
  455TMC3    C3 6827   0.827   1.352  15.852  0.7522  0.3666 -0.3309
  455TMC3    C4 6828   0.854   1.185  15.640  0.6207  0.2076  0.7090
  455TMC3    C5 6829   0.765   1.155  15.737 -0.3510  0.6919 -0.2461
  455TMC3    C6 6830   0.753   1.237  15.851  0.0659 -0.2459 -0.2254
  455TMC3     C 6831   1.044   1.300  15.574  0.4412 -0.7077 -0.4149
  455TMC3     O 6832   1.034   1.263  15.458 -0.4259  0.4777  0.1240
  455TMC3     H 6833   0.986   1.477  15.769  2.5886 -1.6588  1.4832
  455TMC3    H1 6834   0.867   1.122  15.553 -1.3286  2.4366 -1.1807
  455TMC3    H2 6835   0.682   1.222  15.931  2.9945  0.5885  2.5251
  455TMC3    C7 6836   0.749   1.011  15.763  0.0097 -0.2137 -0.6610
  455TMC3    C8 6837   0.833   1.408  15.987 -0.5983 -0.0747  0.8357
  455TMC3    O1 6838   0.638   0.959  15.775  0.3567  0.1230 -0.4977
  455TMC3    O2 6839   0.807   1.329  16.075  0.5001 -0.0880 -0.5566
  456MPD2     C 6840   3.476   0.521  15.907 -0.7083 -0.8054  0.0707
  456MPD2    C1 6841   3.574   0.525  16.003  0.3695 -0.3632 -0.2191
  456MPD2    C2 6842   3.550   0.574  16.132 -0.2126 -0.6709 -0.3604
  456MPD2    C3 6843   3.429   0.638  16.166 -0.2469 -0.4104  0.0607
  456MPD2    C4 6844   3.332   0.623  16.075 -0.2801 -0.1015  0.4656
  456MPD2    C5 6845   3.356   0.576  15.950  0.0587  0.4697 -0.0464
  456MPD2     H 6846   3.624   0.580  16.210 -0.7131  1.0144 -0.0335
  456MPD2    H1 6847   3.232   0.661  16.094  0.3637  0.9383  1.7928
  456MPD2    H2 6848   3.494   0.470  15.813  0.2912  0.8008 -0.6085
  456MPD2    H3 6849   3.278   0.567  15.875  0.9762  2.1272 -1.1927
  456MPD2     N 6850   3.415   0.704  16.293 -0.1242 -0.5297  0.2522
  456MPD2    H5 6851   3.495   0.699  16.356  0.1294  2.1508  0.1435
  456MPD2    N1 6852   3.698   0.464  15.961 -0.1882 -0.0110  0.2494
  456MPD2    H7 6853   3.705   0.443  15.862  0.2594 -0.5082  0.3867
  457TMC3    C1 6854   3.337   0.856  16.459 -0.3027  0.3579  0.0955
  457TMC3    C2 6855   3.296   0.982  16.467 -0.4182 -0.3826 -0.0583
  457TMC3    C3 6856   3.340   1.051  16.575  0.7018  0.1964 -0.3768
  457TMC3    C4 6857   3.431   0.800  16.547 -0.5373 -0.4656  0.3165
  457TMC3    C5 6858   3.482   0.882  16.646  0.1255  0.1189 -0.4179
  457TMC3    C6 6859   3.436   1.011  16.658  0.2125 -0.1222  0.1962
  457TMC3     C 6860   3.309   0.781  16.334 -0.3036  0.2935 -0.3135
  457TMC3     O 6861   3.219   0.824  16.265 -0.0898  0.4178  0.1762
  457TMC3     H 6862   3.223   1.021  16.396 -0.9973  0.8539  1.2260
  457TMC3    H1 6863   3.463   0.698  16.533  1.6733  0.0538  1.6169
  457TMC3    H2 6864   3.475   1.075  16.736 -1.7510  0.2391  0.8927
  457TMC3    C7 6865   3.600   0.837  16.720  0.3055 -0.0092  0.6831
  457TMC3    C8 6866   3.330   1.201  16.564  0.6150 -0.4513 -0.7729
  457TMC3    O1 6867   3.617   0.718  16.750  0.2938  0.0886  0.6103
  457TMC3    O2 6868   3.414   1.268  16.618 -0.3128 -0.5793  0.8045
  458MPD2     C 6869   1.740   4.538  12.210  0.5353  0.2342 -0.0246
  458MPD2    C1 6870   1.639   4.579  12.292 -0.0542  0.0572 -0.5497
  458MPD2    C2 6871   1.526   4.639  12.230 -0.4245 -0.9845 -0.3416
  458MPD2    C3 6872   1.514   4.642  12.094 -0.2714  0.1468 -0.0416
  458MPD2    C4 6873   1.604   4.574  12.016  0.3294 -0.0969 -0.7585
  458MPD2    C5 6874   1.722   4.530  12.075 -0.6835 -0.3107 -0.3626
  458MPD2     H 6875   1.460   4.689  12.301 -0.6838  0.7668 -1.8210
  458MPD2    H1 6876   1.581   4.555  11.912  2.0576  1.6551 -1.4601
  458MPD2    H2 6877   1.813   4.474  12.257  1.8615 -0.0126 -2.4425
  458MPD2    H3 6878   1.793   4.489  12.005  0.6334  0.6731  0.3899
  458MPD2     N 6879   1.394   4.698  12.044  0.2573 -0.1381  0.3913
  458MPD2    H5 6880   1.325   0.001  12.106  2.1691  2.4532  0.8311
  458MPD2    N1 6881   1.659   4.574  12.430 -1.0028 -0.4503 -0.4046
  458MPD2    H7 6882   1.756   4.564  12.459 -0.5230  0.5813 -1.6498
  459TMC3    C1 6883   1.633   4.624  12.652  0.3098  0.6743 -0.0245
  459TMC3    C2 6884   1.753   4.696  12.639 -0.1952 -0.3913 -0.1685
  459TMC3    C3 6885   1.825   4.710  12.756  0.4133  0.1926 -0.2883
  459TMC3    C4 6886   1.593   4.571  12.772 -0.1674  0.1493 -0.2321
  459TMC3    C5 6887   1.675   4.586  12.885 -0.6760 -0.3117  0.1486
  459TMC3    C6 6888   1.790   4.653  12.878 -0.0172 -0.2308  0.2834
  459TMC3     C 6889   1.567   4.604  12.530  0.3613 -0.1826 -0.4809
  459TMC3     O 6890   1.444   4.625  12.534 -0.2892 -0.0173  0.6532
  459TMC3     H 6891   1.782   0.003  12.545 -0.3305 -0.4898 -0.2563
  459TMC3    H1 6892   1.498   4.521  12.781 -0.1740 -0.0647 -1.4848
  459TMC3    H2 6893   1.858   4.666  12.961  1.3710  0.8772 -1.0155
  459TMC3    C7 6894   1.657   4.478  12.975 -0.3886  0.1000 -0.1638
  459TMC3    C8 6895   1.955   0.037  12.747  0.0288 -0.1695 -1.3977
  459TMC3    O1 6896   1.692   4.369  12.935  0.3129 -0.1825  0.5261
  459TMC3    O2 6897   2.043   4.738  12.824  1.0403  0.3424  0.4096
  460MPD2     C 6898   0.049   1.883  10.602 -0.0257 -0.0835  0.7324
  460MPD2    C1 6899   0.016   2.008  10.638  0.2263  0.3024 -0.1212
  460MPD2    C2 6900   4.695   2.089  10.540 -0.6164  0.1210  0.4830
  460MPD2    C3 6901   4.669   2.051  10.410  0.8109  0.2286 -0.3008
  460MPD2    C4 6902   4.692   1.917  10.388  0.8126 -0.2617 -0.5742
  460MPD2    C5 6903   0.014   1.835  10.481 -0.1499 -0.1510 -0.4478
  460MPD2     H 6904   4.674   2.188  10.576  1.2386  1.6025 -2.4690
  460MPD2    H1 6905   4.669   1.873  10.292 -0.6121 -1.3594  0.2701
  460MPD2    H2 6906   0.089   1.806  10.667  3.1184  0.7809 -0.1743
  460MPD2    H3 6907   0.036   1.730  10.467  1.4287  0.3399 -1.6394
  460MPD2     N 6908   4.619   2.135  10.308  0.3099  0.4227 -0.5026
  460MPD2    H5 6909   4.613   2.232  10.337 -1.5532 -0.1305  1.0370
  460MPD2    N1 6910   0.062   2.042  10.765  0.0268  0.1874 -0.2114
  460MPD2    H7 6911   0.112   1.973  10.821 -0.6907 -0.1321  0.0287
  461TMC3    C1 6912   4.584   2.225  10.093  0.1197  0.2881 -0.2789
  461TMC3    C2 6913   4.595   2.207   9.953 -0.1183 -0.1132  0.3580
  461TMC3    C3 6914   4.497   2.253   9.869 -0.0453  0.2540 -0.4465
  461TMC3    C4 6915   4.488   2.312  10.130 -0.5029  0.6783  0.1403
  461TMC3    C5 6916   4.395   2.362  10.042  0.1627  0.5974 -0.1427
  461TMC3    C6 6917   4.393   2.326   9.913  0.9144 -0.2208  0.0365
  461TMC3     C 6918   4.606   2.107  10.177  0.5757 -0.2069 -0.1499
  461TMC3     O 6919   4.631   2.002  10.119  0.4145  0.3926 -0.2593
  461TMC3     H 6920   4.676   2.141   9.924 -0.7388 -0.3019 -0.9219
  461TMC3    H1 6921   4.451   2.315  10.232 -1.6973 -1.9220 -0.2241
  461TMC3    H2 6922   4.338   2.388   9.843 -0.2424 -0.2114  0.9377
  461TMC3    C7 6923   4.364   2.507  10.051  0.0793 -0.0173 -0.1833
  461TMC3    C8 6924   4.505   2.220   9.725  0.8007  0.0829  0.2706
  461TMC3    O1 6925   4.274   2.547   9.981 -0.3323  0.0426 -0.3157
  461TMC3    O2 6926   4.412   2.244   9.655 -0.0266  0.1476 -0.8736
  462TMC3    C1 6927   0.962   3.844  17.603  0.3004 -0.4948 -0.2738
  462TMC3    C2 6928   1.044   3.739  17.612 -0.4255 -0.7027  0.4743
  462TMC3    C3 6929   1.002   3.628  17.680 -0.1479  0.4250  0.6152
  462TMC3    C4 6930   0.840   3.842  17.664  0.1467 -0.0795  0.7363
  462TMC3    C5 6931   0.798   3.724  17.719  0.3881  0.5328 -0.3925
  462TMC3    C6 6932   0.882   3.618  17.736  0.2580  0.1893 -0.3545
  462TMC3     C 6933   0.994   3.953  17.517  0.2277 -0.0010  0.4151
  462TMC3     O 6934   0.897   4.010  17.473 -0.0130 -0.0399 -0.4290
  462TMC3     H 6935   1.146   3.743  17.576 -0.2827  3.4284  1.3478
  462TMC3    H1 6936   0.780   3.932  17.657 -1.0810 -1.1467 -2.3291
  462TMC3    H2 6937   0.851   3.515  17.749 -0.4029  0.5339  0.8274
  462TMC3    C7 6938   0.659   3.685  17.742  0.3931  0.9868  0.1760
  462TMC3    C8 6939   1.094   3.523  17.708 -0.1411 -0.0101 -0.1794
  462TMC3    O1 6940   0.641   3.563   0.023  0.3431  0.1382  0.0413
  462TMC3    O2 6941   1.062   3.457   0.057 -0.0714 -0.0413  0.3015
  463MPD2     C 6942   2.179   1.921   1.360 -0.5482 -0.9065 -0.6861
  463MPD2    C1 6943   2.097   2.017   1.297  0.3798 -0.0572 -0.3027
  463MPD2    C2 6944   2.123   2.147   1.320 -0.1742 -0.9195  0.1111
  463MPD2    C3 6945   2.235   2.187   1.393 -0.1615 -0.7271  0.3627
  463MPD2    C4 6946   2.318   2.089   1.452  0.1867 -0.4269 -0.3846
  463MPD2    C5 6947   2.280   1.955   1.435 -0.7779  0.1399 -0.1497
  463MPD2     H 6948   2.063   2.216   1.264  1.1438 -1.0093 -1.4098
  463MPD2    H1 6949   2.401   2.114   1.518 -2.2332  1.7895  1.8395
  463MPD2    H2 6950   2.163   1.816   1.338  0.0146 -1.0129 -0.5880
  463MPD2    H3 6951   2.343   1.879   1.480 -3.6441 -1.4221  1.2241
  463MPD2     N 6952   2.269   2.319   1.418  0.2940  0.4591  0.1378
  463MPD2    H5 6953   2.356   2.344   1.463 -0.1417 -0.0263  1.2306
  463MPD2    N1 6954   1.990   1.988   1.209  0.3988  0.4732  0.0584
  463MPD2    H7 6955   1.957   2.074   1.167  2.8996  3.0957  3.4881
  464TMC3    C1 6956   1.807   1.876   1.119  0.0039 -0.0464 -0.6300
  464TMC3    C2 6957   1.737   1.991   1.126  0.1240  0.0592 -0.4642
  464TMC3    C3 6958   1.600   1.982   1.082  0.2256  1.0136 -0.7450
  464TMC3    C4 6959   1.753   1.757   1.079 -0.0026  0.1881  0.0921
  464TMC3    C5 6960   1.627   1.762   1.023  1.0778  0.2130 -0.6911
  464TMC3    C6 6961   1.549   1.871   1.021  1.5254  0.2965  0.3918
  464TMC3     C 6962   1.940   1.863   1.184 -0.2372 -0.1714  0.0353
  464TMC3     O 6963   1.981   1.751   1.222 -0.0547  0.1049 -0.4300
  464TMC3     H 6964   1.781   2.083   1.162 -0.3297 -0.1159  0.5436
  464TMC3    H1 6965   1.817   1.670   1.067 -2.0471 -0.9988 -2.2601
  464TMC3    H2 6966   1.447   1.865   0.984  1.6678 -1.3780  0.2503
  464TMC3    C7 6967   1.580   1.633   0.975  0.0766  0.0457  0.4760
  464TMC3    C8 6968   1.506   2.093   1.101 -0.0381  0.3297 -0.7411
  464TMC3    O1 6969   1.639   1.535   1.008 -0.2978 -0.1951  0.3850
  464TMC3    O2 6970   1.412   2.087   1.028 -0.1752  0.3579 -0.6039
  465MPD2     C 6971   2.691   1.533  16.363  0.1041  0.4517  0.3538
  465MPD2    C1 6972   2.682   1.403  16.412  0.1755  0.4417 -0.0852
  465MPD2    C2 6973   2.602   1.318  16.341 -0.4497 -0.6587  0.3221
  465MPD2    C3 6974   2.543   1.355  16.226  0.0486  0.4225  0.0282
  465MPD2    C4 6975   2.566   1.481  16.172  0.3399  0.2504 -0.0409
  465MPD2    C5 6976   2.641   1.572  16.247  0.6324 -0.1989 -0.0785
  465MPD2     H 6977   2.595   1.215  16.373 -2.1538 -0.6768 -0.0857
  465MPD2    H1 6978   2.530   1.517  16.076  0.6183 -0.7893 -0.5330
  465MPD2    H2 6979   2.733   1.612  16.424 -2.0828 -0.3975  2.9472
  465MPD2    H3 6980   2.646   1.674  16.212 -0.2620 -0.5042 -1.1203
  465MPD2     N 6981   2.463   1.256  16.156 -0.3590  0.6677 -0.4761
  465MPD2    H5 6982   2.467   1.160  16.187 -0.6714  0.3713 -1.3475
  465MPD2    N1 6983   2.727   1.362  16.541  0.0236  0.3241  0.2561
  465MPD2    H7 6984   2.723   1.263  16.561 -0.3416  0.3648  0.3808
  466TMC3    C1 6985   2.213   0.945  16.052 -0.1050 -0.7315  0.5063
  466TMC3    C2 6986   2.083   0.984  16.024  0.2806 -0.0407  0.4090
  466TMC3    C3 6987   2.057   1.115  15.990 -0.6291 -0.1372  0.2274
  466TMC3    C4 6988   2.312   1.038  16.057 -0.3458  0.4780 -0.6921
  466TMC3    C5 6989   2.282   1.170  16.020 -0.1136 -0.5310 -0.2985
  466TMC3    C6 6990   2.157   1.212  15.991  0.2322  0.7238  0.4180
  466TMC3     C 6991   2.216   0.870  16.179  0.0664 -0.0279 -0.1207
  466TMC3     O 6992   2.280   0.918  16.273 -0.1567 -0.8064 -0.2157
  466TMC3     H 6993   2.003   0.912  16.022 -1.5480  1.9319  2.3308
  466TMC3    H1 6994   2.404   1.008  16.106 -1.0880 -1.4391 -0.4551
  466TMC3    H2 6995   2.137   1.318  15.991 -0.3024  0.6225 -1.8237
  466TMC3    C7 6996   2.372   1.275  16.057  0.5384  0.3295  0.2877
  466TMC3    C8 6997   1.924   1.163  16.030 -0.4720 -0.6741 -1.1923
  466TMC3    O1 6998   2.354   1.374  15.985 -0.0395  0.4580 -0.1572
  466TMC3    O2 6999   1.837   1.078  16.038  0.2795 -0.0820  0.1810
  467TMC3    C1 7000   3.461   4.293  13.920  0.8513  0.5806 -0.2127
  467TMC3    C2 7001   3.395   4.369  13.825 -0.7548 -0.3880  0.0504
  467TMC3    C3 7002   3.279   4.318  13.773  0.8332  0.5496 -0.0340
  467TMC3    C4 7003   3.399   4.194  13.982  0.1305  0.7882 -0.4077
  467TMC3    C5 7004   3.272   4.159  13.938 -0.4074 -0.4998  0.1911
  467TMC3    C6 7005   3.212   4.216  13.836  0.2165 -0.3696 -0.2935
  467TMC3     C 7006   3.590   4.261  13.879 -0.1149 -0.0288 -0.1129
  467TMC3     O 7007   3.666   4.342  13.828  0.0651 -0.3615  0.8537
  467TMC3     H 7008   3.444   4.448  13.769 -0.8436 -0.4254 -0.0780
  467TMC3    H1 7009   3.457   4.135  14.053 -0.7293 -0.1627 -0.4891
  467TMC3    H2 7010   3.129   4.164  13.789 -1.0982  1.0568  0.4317
  467TMC3    C7 7011   3.241   4.021  13.977 -0.5724  0.2623  0.0679
  467TMC3    C8 7012   3.286   4.317  13.630  0.8134  0.2366 -0.4428
  467TMC3    O1 7013   3.333   3.944  13.992  0.7919  0.0641 -0.2183
  467TMC3    O2 7014   3.334   4.413  13.572 -0.0906 -0.4583 -0.5647
  468MPD2     C 7015   1.921   2.390  10.842 -0.1588 -0.2258 -0.0897
  468MPD2    C1 7016   2.022   2.305  10.873 -0.0937  0.0723 -0.4166
  468MPD2    C2 7017   2.011   2.169  10.869 -0.0367  0.3799  0.0134
  468MPD2    C3 7018   1.888   2.115  10.843  0.1662 -0.5089 -0.6648
  468MPD2    C4 7019   1.779   2.198  10.825  0.3795  0.7728  0.6577
  468MPD2    C5 7020   1.798   2.333  10.825  0.4277 -0.3336  0.3499
  468MPD2     H 7021   2.098   2.106  10.885 -0.1999 -0.3885 -2.2065
  468MPD2    H1 7022   1.681   2.154  10.811  0.3648  1.2777 -0.7084
  468MPD2    H2 7023   1.935   2.497  10.844  0.3652 -0.3253  1.7243
  468MPD2    H3 7024   1.712   2.398  10.812 -0.0864 -1.0124  0.3183
  468MPD2     N 7025   1.857   1.981  10.836 -0.1312  0.5100 -0.3454
  468MPD2    H5 7026   1.758   1.959  10.835  0.0299 -0.2620  0.1780
  468MPD2    N1 7027   2.152   2.354  10.918 -0.5763 -0.3019 -0.0551
  468MPD2    H7 7028   2.221   2.283  10.939 -0.7900 -0.2653  0.7824
  469TMC3    C1 7029   2.336   2.479  10.942  0.5449  0.4308  0.7234
  469TMC3    C2 7030   2.401   2.366  11.001  0.6878 -0.5922 -0.4799
  469TMC3    C3 7031   2.537   2.382  11.015 -0.2847 -0.4329  0.6978
  469TMC3    C4 7032   2.405   2.593  10.913  0.0145 -0.2517  0.1150
  469TMC3    C5 7033   2.540   2.594  10.916 -0.2869  0.1702 -0.1005
  469TMC3    C6 7034   2.608   2.490  10.978  0.1162  0.0220  0.3053
  469TMC3     C 7035   2.195   2.480  10.907 -0.0924  0.1806  0.2479
  469TMC3     O 7036   2.141   2.585  10.880  0.9453 -0.5053 -0.3812
  469TMC3     H 7037   2.357   2.269  11.024  2.5955 -1.5732 -0.9869
  469TMC3    H1 7038   2.351   2.674  10.865  0.7078  0.0844 -0.1032
  469TMC3    H2 7039   2.716   2.493  10.985  0.2034  1.0578 -1.3305
  469TMC3    C7 7040   2.606   2.620  10.786 -0.2816  0.3629  0.3176
  469TMC3    C8 7041   2.608   2.279  11.087  0.0805 -0.5527  0.1584
  469TMC3    O1 7042   2.704   2.551  10.771  0.0705 -0.7676 -0.0438
  469TMC3    O2 7043   2.549   2.171  11.092  0.3032  0.8341  0.2152
  470TMC3    C1 7044   0.103   3.567   0.524 -0.2537  0.4086  0.3557
  470TMC3    C2 7045   0.184   3.674   0.528 -0.4097 -0.1355  0.7161
  470TMC3    C3 7046   0.302   3.662   0.611  0.2661  0.7939  0.0300
  470TMC3    C4 7047   0.117   3.464   0.612 -1.1718 -0.2274  0.3363
  470TMC3    C5 7048   0.223   3.466   0.696 -0.2859 -0.5664  0.3090
  470TMC3    C6 7049   0.316   3.567   0.701 -0.2715 -0.6526 -0.0340
  470TMC3     C 7050   0.019   3.538   0.408  0.1405 -0.3102  0.3225
  470TMC3     O 7051   0.046   3.592   0.304 -0.3017  0.0172  0.3982
  470TMC3     H 7052   0.176   3.752   0.454 -0.8626 -0.8635 -0.0039
  470TMC3    H1 7053   0.059   3.373   0.601 -3.1571  1.0237  0.5449
  470TMC3    H2 7054   0.406   3.566   0.762 -0.1571 -1.5213 -0.2237
  470TMC3    C7 7055   0.234   3.349   0.784 -0.1436  0.5375  0.6053
  470TMC3    C8 7056   0.360   3.788   0.622 -0.7496 -0.9702  0.6997
  470TMC3    O1 7057   0.193   3.239   0.752 -0.3042 -0.6744 -0.1742
  470TMC3    O2 7058   0.297   3.892   0.602 -0.0392  0.6495 -0.6134
  471MPD2     C 7059   0.594   0.184  16.315 -0.1675 -0.4310  0.5911
  471MPD2    C1 7060   0.622   0.051  16.296 -0.5591  0.3837 -0.1650
  471MPD2    C2 7061   0.727   4.730  16.368 -0.1191  0.4182  0.2184
  471MPD2    C3 7062   0.805   0.070  16.450  0.1071  0.0887  0.0615
  471MPD2    C4 7063   0.774   0.202  16.470 -0.3485 -0.8667  0.6256
  471MPD2    C5 7064   0.670   0.259  16.402 -0.0619  0.4952  0.1161
  471MPD2     H 7065   0.750   4.625  16.355 -1.9047 -0.1478  1.6571
  471MPD2    H1 7066   0.823   0.270  16.538 -1.6805  0.2450  0.4934
  471MPD2    H2 7067   0.505   0.229  16.272 -0.0595 -0.8227 -0.0446
  471MPD2    H3 7068   0.660   0.366  16.413 -4.1190  0.2333 -0.7548
  471MPD2     N 7069   0.919   0.016  16.511 -0.3384  0.0778  0.6868
  471MPD2    H5 7070   0.965   0.077  16.578  0.2982  0.1089  0.2200
  471MPD2    N1 7071   0.534   4.695  16.233 -0.4979  0.2590  0.0813
  471MPD2    H7 7072   0.578   4.604  16.226 -0.0657  0.3061  2.0955
  472TMC3    C1 7073   0.335   4.593  16.157  1.0694  0.2733  0.3170
  472TMC3    C2 7074   0.204   4.601  16.110  0.0656 -0.1878 -0.0492
  472TMC3    C3 7075   0.153   4.479  16.077  0.1365  0.0371  0.0504
  472TMC3    C4 7076   0.407   4.477  16.176  0.4395  0.0091 -0.5740
  472TMC3    C5 7077   0.344   4.363  16.132 -0.4034 -0.0521 -0.2958
  472TMC3    C6 7078   0.224   4.360  16.073 -0.4222 -0.3944  0.0344
  472TMC3     C 7079   0.404   4.720  16.193  0.3773 -0.4718 -0.5992
  472TMC3     O 7080   0.346   0.089  16.202  0.2015  0.0558  0.1894
  472TMC3     H 7081   0.156   4.696  16.092 -0.0591  0.2633  2.6136
  472TMC3    H1 7082   0.502   4.460  16.225 -0.3753 -1.2613  0.5761
  472TMC3    H2 7083   0.189   4.265  16.035  0.1404  0.0357 -1.5811
  472TMC3    C7 7084   0.425   4.245  16.136 -0.3134 -0.5488  0.0613
  472TMC3    C8 7085   0.019   4.476  16.020 -0.0287  0.5200 -0.2253
  472TMC3    O1 7086   0.489   4.221  16.238  0.1385  0.1815  0.6353
  472TMC3    O2 7087   4.711   4.568  15.958  0.3454 -0.2236  0.1850
  473MPD2     C 7088   4.452   1.529  13.941  0.5864 -0.8675  0.2394
  473MPD2    C1 7089   4.593   1.539  13.916  0.1297 -0.0374 -0.0159
  473MPD2    C2 7090   4.666   1.645  13.957  0.5925 -0.6708 -0.0744
  473MPD2    C3 7091   4.607   1.748  14.025  0.6086  0.0444  0.2363
  473MPD2    C4 7092   4.475   1.735  14.055  0.5348  0.1036 -0.4168
  473MPD2    C5 7093   4.399   1.635  14.006  0.5605 -0.1101  0.0907
  473MPD2     H 7094   0.033   1.652  13.928  0.9085  2.0324  1.6384
  473MPD2    H1 7095   4.434   1.822  14.107 -0.2252  0.6763 -1.9598
  473MPD2    H2 7096   4.392   1.444  13.911  1.7133 -1.6432  0.1879
  473MPD2    H3 7097   4.294   1.632  14.033  0.5574 -0.5173  0.0347
  473MPD2     N 7098   4.669   1.871  14.063 -0.3607 -0.5150 -0.2721
  473MPD2    H5 7099   4.611   1.953  14.080  1.2927 -0.0697  3.2589
  473MPD2    N1 7100   4.663   1.465  13.826  0.3704 -0.0363 -0.1828
  473MPD2    H7 7101   0.024   1.485  13.818  0.7060 -1.4276  0.4362
  474TMC3    C1 7102   0.111   2.015  14.073  0.1466 -0.0935 -0.7095
  474TMC3    C2 7103   0.035   2.124  14.098  0.1832 -0.8618 -0.9123
  474TMC3    C3 7104   0.096   2.244  14.124 -0.0192 -0.3050  1.1230
  474TMC3    C4 7105   0.244   2.027  14.076 -0.1937  0.6114 -1.1133
  474TMC3    C5 7106   0.306   2.145  14.116 -0.4134 -0.7971  0.0652
  474TMC3    C6 7107   0.230   2.257  14.140 -0.1107 -0.3518 -0.4309
  474TMC3     C 7108   0.069   1.883  14.064 -0.0981 -0.3905  1.3110
  474TMC3     O 7109   0.156   1.796  14.079 -0.3101 -0.7486 -0.7103
  474TMC3     H 7110   4.665   2.118  14.087 -0.2041 -0.5734  2.7930
  474TMC3    H1 7111   0.315   1.947  14.059 -2.0659 -1.3027  0.0892
  474TMC3    H2 7112   0.265   2.353  14.173  3.2719 -1.1044 -1.8543
  474TMC3    C7 7113   0.434   2.127  14.174 -0.3338  0.0549  0.1599
  474TMC3    C8 7114   0.037   2.352  14.057  0.4447 -0.6628 -0.4214
  474TMC3    O1 7115   0.505   2.041  14.131 -0.1236 -0.3393  0.1439
  474TMC3    O2 7116   4.700   2.316  13.967  0.2610  0.1465 -0.3160
  475MPD2     C 7117   3.185   4.402  10.600  0.7134  0.1877  1.0827
  475MPD2    C1 7118   3.233   4.531  10.640 -0.1601 -0.2890  0.0712
  475MPD2    C2 7119   3.177   4.586  10.755  0.1029  0.4137 -0.1965
  475MPD2    C3 7120   3.077   4.525  10.826  0.4803 -0.2241  0.5969
  475MPD2    C4 7121   3.036   4.404  10.784 -0.0147  0.3435  0.6615
  475MPD2    C5 7122   3.090   4.344  10.674 -0.1936  0.0618 -0.3460
  475MPD2     H 7123   3.207   4.683  10.792 -2.4731  0.0068  2.9307
  475MPD2    H1 7124   2.954   4.353  10.834  0.2849 -1.2154 -0.4345
  475MPD2    H2 7125   3.214   4.351  10.509 -0.8657  1.7032 -0.2843
  475MPD2    H3 7126   3.048   4.250  10.641 -1.3648  0.8509 -1.0641
  475MPD2     N 7127   3.021   4.598  10.934 -0.6150 -0.2318  0.2844
  475MPD2    H5 7128   3.069   4.685  10.956  0.0101 -0.3850 -0.4403
  475MPD2    N1 7129   3.330   4.593  10.557  0.4968 -0.2889  0.1136
  475MPD2    H7 7130   3.351   4.545  10.471 -0.8204 -0.7690  0.0624
  476TMC3    C1 7131   3.452   0.046  10.482  0.0654 -0.0882  0.5026
  476TMC3    C2 7132   3.424   0.016  10.351 -0.0645 -0.2285 -0.1579
  476TMC3    C3 7133   3.517   0.055  10.265 -0.3186 -0.7233  0.2534
  476TMC3    C4 7134   3.538   0.148  10.519 -0.0118 -0.1513  0.0663
  476TMC3    C5 7135   3.619   0.200  10.424  1.0774 -0.1367 -0.1124
  476TMC3    C6 7136   3.617   0.146  10.299 -0.2407  0.1240  0.4546
  476TMC3     C 7137   3.381   4.717  10.589  0.0126 -0.5032  0.5989
  476TMC3     O 7138   3.389   0.033  10.697 -0.7321 -0.2673  0.0863
  476TMC3     H 7139   3.340   4.690  10.326  1.2561 -2.1630  0.3018
  476TMC3    H1 7140   3.566   0.164  10.622 -1.6470  0.1277  0.4714
  476TMC3    H2 7141   3.673   0.186  10.215  1.8181 -1.3927  1.1079
  476TMC3    C7 7142   3.722   0.295  10.444  0.2656  0.1079  0.4301
  476TMC3    C8 7143   3.499   0.028  10.118 -0.1164  0.3122 -0.2298
  476TMC3    O1 7144   3.814   0.310  10.367 -0.7647 -0.0117  0.7879
  476TMC3    O2 7145   3.598   0.006  10.046 -0.0345  0.1061  0.0221
  477MPD2     C 7146   0.429   1.854  11.638 -0.1538 -1.2796 -0.0477
  477MPD2    C1 7147   0.358   1.748  11.680  0.1816 -0.0097 -0.1577
  477MPD2    C2 7148   0.399   1.680  11.798 -1.1489 -0.4013 -0.0703
  477MPD2    C3 7149   0.508   1.725  11.865 -0.5196 -0.0358  0.1692
  477MPD2    C4 7150   0.585   1.824  11.813  0.6564 -0.7332  1.3513
  477MPD2    C5 7151   0.536   1.897  11.704  0.1462 -0.3202  0.2409
  477MPD2     H 7152   0.337   1.596  11.829 -0.4153 -1.0226 -0.3141
  477MPD2    H1 7153   0.671   1.865  11.865  0.0993  0.8387  1.0342
  477MPD2    H2 7154   0.407   1.895  11.540 -0.9908 -2.0887 -0.1982
  477MPD2    H3 7155   0.592   1.978  11.658  0.3219  0.6073  2.1196
  477MPD2     N 7156   0.539   1.664  11.987 -0.7668 -0.2802  0.3021
  477MPD2    H5 7157   0.499   1.572  12.000 -0.1418 -0.5420  0.3529
  477MPD2    N1 7158   0.233   1.733  11.624 -0.6300  0.2824  0.1345
  477MPD2    H7 7159   0.200   1.798  11.553  0.9600  3.4764  2.3409
  478TMC3    C1 7160   0.006   1.704  11.654 -0.5097 -0.0558  0.4934
  478TMC3    C2 7161   4.737   1.813  11.735 -0.0228 -0.2903  0.5341
  478TMC3    C3 7162   4.616   1.846  11.783 -0.5569 -0.0424 -0.1809
  478TMC3    C4 7163   4.632   1.643  11.606 -0.2941  0.3719 -0.1059
  478TMC3    C5 7164   4.512   1.691  11.649 -0.8179 -0.3697  0.1372
  478TMC3    C6 7165   4.504   1.791  11.738 -0.1554  0.3592 -0.3749
  478TMC3     C 7166   0.134   1.641  11.659 -0.4947 -0.6149 -0.1643
  478TMC3     O 7167   0.137   1.532  11.715  0.3847 -0.6582  0.2072
  478TMC3     H 7168   0.088   1.860  11.775  2.0666 -3.0608 -0.8300
  478TMC3    H1 7169   4.649   1.561  11.537 -1.5480  0.7716 -0.9053
  478TMC3    H2 7170   4.408   1.836  11.759 -0.9486 -1.1633 -0.7323
  478TMC3    C7 7171   4.396   1.680  11.556 -0.6115  0.2686 -0.8830
  478TMC3    C8 7172   4.605   1.946  11.887 -0.5899 -0.4322 -0.1407
  478TMC3    O1 7173   4.296   1.640  11.611 -0.7254  0.7132  0.3937
  478TMC3    O2 7174   4.537   1.932  11.991 -0.2803  0.2399  0.2564
  479MPD2     C 7175   4.569   3.833  15.075  0.6808  0.8441 -0.4668
  479MPD2    C1 7176   4.508   3.765  15.176 -0.0145  0.0310  0.1596
  479MPD2    C2 7177   4.554   3.787  15.305  0.2613 -0.0919 -0.0939
  479MPD2    C3 7178   4.642   3.886  15.337  0.4285 -0.2816  0.7068
  479MPD2    C4 7179   4.699   3.964  15.235  0.3765 -0.0370  0.5692
  479MPD2    C5 7180   4.666   3.928  15.105  0.2841 -0.4496  0.2934
  479MPD2     H 7181   4.503   3.738  15.388  0.5103 -0.8187 -0.3714
  479MPD2    H1 7182   0.034   4.041  15.256 -0.2270  0.7849 -0.3718
  479MPD2    H2 7183   4.544   3.825  14.970  0.0530  0.9122 -0.3243
  479MPD2    H3 7184   4.706   3.991  15.026 -0.0780  0.6071  0.9453
  479MPD2     N 7185   4.640   3.932  15.475 -0.0587 -0.5358  0.3517
  479MPD2    H5 7186   4.586   3.876  15.540 -1.5385  0.8055  0.2736
  479MPD2    N1 7187   4.390   3.695  15.144  0.0842  0.1164 -0.6203
  479MPD2    H7 7188   4.365   3.688  15.046 -2.0814 -0.9111 -0.0050
  480TMC3    C1 7189   4.517   3.893  15.772  0.4855  0.1526 -0.2557
  480TMC3    C2 7190   4.391   3.943  15.742 -0.1405  0.4863 -0.3590
  480TMC3    C3 7191   4.378   4.052  15.659  0.5230 -0.6844 -0.9009
  480TMC3    C4 7192   4.636   3.948  15.727 -0.4580 -0.1869  1.0001
  480TMC3    C5 7193   4.614   4.067  15.653  0.8022 -0.3061 -0.1216
  480TMC3    C6 7194   4.488   4.130  15.634  0.2985  0.0623  0.0369
  480TMC3     C 7195   4.531   3.759  15.833  0.3963  0.5757 -0.1437
  480TMC3     O 7196   4.633   3.749  15.893  0.7360  0.2911 -0.2818
  480TMC3     H 7197   4.298   3.893  15.768  0.3749 -0.7483 -0.9200
  480TMC3    H1 7198   4.732   3.901  15.745  0.0185  0.3700 -0.0457
  480TMC3    H2 7199   4.488   4.214  15.565  2.1619  0.3116  0.3294
  480TMC3    C7 7200   4.686   4.055  15.527 -0.3688  0.3479 -0.3174
  480TMC3    C8 7201   4.288   4.021  15.545  0.2159 -0.0758  0.0122
  480TMC3    O1 7202   4.721   4.155  15.466 -0.5471  0.1339  0.3548
  480TMC3    O2 7203   4.194   3.949  15.573 -0.3316  0.0394  0.1812
  481MPD2     C 7204   1.717   3.492  14.263  0.1204  0.2268 -0.3503
  481MPD2    C1 7205   1.591   3.457  14.313 -0.1224 -1.5357  0.4710
  481MPD2    C2 7206   1.569   3.417  14.446  0.2301  0.4802 -0.4642
  481MPD2    C3 7207   1.678   3.407  14.531  1.0904 -0.3076  0.4549
  481MPD2    C4 7208   1.806   3.430  14.477 -0.0082 -0.2432 -0.2569
  481MPD2    C5 7209   1.823   3.479  14.351  0.3119 -0.9906 -0.9065
  481MPD2     H 7210   1.468   3.401  14.483 -0.5428 -0.5394 -3.0655
  481MPD2    H1 7211   1.901   3.406  14.524 -1.0674 -0.0230  1.9990
  481MPD2    H2 7212   1.722   3.509  14.157  1.6983  2.6353  0.1244
  481MPD2    H3 7213   1.925   3.492  14.320 -0.0407 -0.1282 -1.6963
  481MPD2     N 7214   1.675   3.363  14.671 -1.1490 -0.3276  0.6221
  481MPD2    H5 7215   1.768   3.352  14.711 -1.0872 -0.2569  0.4979
  481MPD2    N1 7216   1.495   3.470  14.207 -0.4635  0.1255 -0.2088
  481MPD2    H7 7217   1.525   3.491  14.112  1.4022 -0.1855  0.3076
  482TMC3    C1 7218   1.292   3.463  14.099 -0.0756 -0.0157  0.2312
  482TMC3    C2 7219   1.193   3.371  14.059  0.0116  1.0129  0.6349
  482TMC3    C3 7220   1.118   3.389  13.950 -0.3508 -0.6291 -0.1711
  482TMC3    C4 7221   1.309   3.577  14.032 -0.3788 -0.9449  0.2705
  482TMC3    C5 7222   1.243   3.594  13.913  0.4691  0.0644 -1.1182
  482TMC3    C6 7223   1.140   3.506  13.872  0.5005 -0.1423 -0.2664
  482TMC3     C 7224   1.370   3.422  14.216  0.0672  0.7327 -0.2682
  482TMC3     O 7225   1.338   3.335  14.298  0.1079  0.3446  0.2672
  482TMC3     H 7226   1.195   3.277  14.113 -1.6643  1.7258  1.9729
  482TMC3    H1 7227   1.386   3.650  14.054 -0.9479  0.0832 -1.1645
  482TMC3    H2 7228   1.095   3.524  13.776  2.1596  2.4487 -0.5678
  482TMC3    C7 7229   1.245   3.735  13.880 -0.1104 -0.2812  0.6892
  482TMC3    C8 7230   1.042   3.275  13.895  0.2653  0.4429 -0.2119
  482TMC3    O1 7231   1.254   3.813  13.976  0.3606 -0.3388  0.2196
  482TMC3    O2 7232   1.070   3.167  13.940  0.0146  0.4236  0.8289
  483TMC3    C1 7233   3.947   2.537   0.487  0.3845 -0.0869  0.3590
  483TMC3    C2 7234   4.010   2.656   0.485 -0.9155  0.8329 -0.3670
  483TMC3    C3 7235   4.120   2.684   0.568 -0.6504 -0.2472  0.0448
  483TMC3    C4 7236   3.987   2.442   0.583 -0.3955 -0.7323  0.2218
  483TMC3    C5 7237   4.094   2.479   0.661  0.1217  0.6458 -0.1715
  483TMC3    C6 7238   4.165   2.595   0.661 -0.3894  0.0561  0.2444
  483TMC3     C 7239   3.863   2.497   0.369  0.3158  0.4845 -0.1355
  483TMC3     O 7240   3.840   2.584   0.288  0.1549 -0.3096  0.1107
  483TMC3     H 7241   3.994   2.728   0.405 -0.7506  0.6361 -0.5775
  483TMC3    H1 7242   3.939   2.347   0.602  2.6990 -1.8167  2.5451
  483TMC3    H2 7243   4.257   2.611   0.716  0.9409  0.3799 -2.0742
  483TMC3    C7 7244   4.162   2.365   0.729  0.2219  0.8988  0.2842
  483TMC3    C8 7245   4.224   2.767   0.511 -0.3316  0.4775  0.4328
  483TMC3    O1 7246   4.165   2.263   0.660 -0.1519 -0.2602  0.0641
  483TMC3    O2 7247   4.233   2.765   0.389  0.1333 -0.1808 -0.0463
  484MPD2     C 7248   2.028   0.374  12.621  0.1099  0.2616  0.2795
  484MPD2    C1 7249   2.050   0.242  12.655 -0.1231 -0.5054 -0.0277
  484MPD2    C2 7250   2.177   0.193  12.640  0.8873 -0.0010 -0.4071
  484MPD2    C3 7251   2.281   0.280  12.620  0.9509  0.6732 -0.1143
  484MPD2    C4 7252   2.256   0.416  12.602 -0.5871 -0.5563 -0.1994
  484MPD2    C5 7253   2.127   0.462  12.599 -0.0817  0.8173 -0.0140
  484MPD2     H 7254   2.192   0.088  12.658  0.6243 -0.2141 -1.4136
  484MPD2    H1 7255   2.341   0.482  12.589 -1.8542  1.0846 -0.0525
  484MPD2    H2 7256   1.928   0.416  12.609 -0.7672 -1.4755  1.5667
  484MPD2    H3 7257   2.109   0.564  12.567  0.3020  0.9626  0.2276
  484MPD2     N 7258   2.422   0.240  12.610  0.2227 -0.5284 -0.0367
  484MPD2    H5 7259   2.488   0.313  12.635 -1.0249  0.3966  0.5229
  484MPD2    N1 7260   1.941   0.157  12.676 -0.2552  0.1660 -0.1666
  484MPD2    H7 7261   1.849   0.195  12.657 -1.0036 -2.0587 -1.0593
  485TMC3    C1 7262   2.618   0.109  12.598 -0.6331  0.3275  0.5718
  485TMC3    C2 7263   2.674   4.735  12.655 -0.8482  1.5888 -0.5996
  485TMC3    C3 7264   2.812   4.728  12.668  0.4215  0.0611 -0.1743
  485TMC3    C4 7265   2.687   0.211  12.546  0.1362  0.0272  1.1892
  485TMC3    C5 7266   2.830   0.204  12.562 -0.3793 -0.4678  0.0695
  485TMC3    C6 7267   2.889   0.094  12.624  0.5889 -0.3033  0.0576
  485TMC3     C 7268   2.474   0.112  12.601  0.1736 -0.0676  0.0969
  485TMC3     O 7269   2.421   0.010  12.642  0.6513  0.1408 -0.5697
  485TMC3     H 7270   2.611   4.650  12.677 -0.1219  1.3752  0.6706
  485TMC3    H1 7271   2.635   0.283  12.484  0.3357 -0.0140  0.9767
  485TMC3    H2 7272   2.996   0.090  12.643  0.4649  1.0779  1.0280
  485TMC3    C7 7273   2.919   0.239  12.446  0.5036 -0.3765  0.2329
  485TMC3    C8 7274   2.867   4.609  12.631  0.2589  0.2839 -0.2511
  485TMC3    O1 7275   3.029   0.185  12.449  0.6930 -0.9250  0.3253
  485TMC3    O2 7276   2.821   4.498  12.674 -0.0391 -0.5502  0.7059
  486MPD2     C 7277   4.183   3.875  13.013 -0.3827 -0.3485 -0.0503
  486MPD2    C1 7278   4.120   3.867  12.891 -0.3463  0.0713 -0.3948
  486MPD2    C2 7279   4.084   3.985  12.818 -0.4589 -0.0288 -0.1513
  486MPD2    C3 7280   4.122   4.108  12.880  0.2747  0.5410 -0.2743
  486MPD2    C4 7281   4.174   4.115  13.005 -1.0809 -0.6210 -0.3472
  486MPD2    C5 7282   4.208   3.994  13.067 -0.0335  0.9281  0.8512
  486MPD2     H 7283   4.037   3.974  12.722 -3.6961 -0.5148  1.4936
  486MPD2    H1 7284   4.193   4.210  13.054  1.0522 -1.6474  0.8494
  486MPD2    H2 7285   4.214   3.784  13.064 -0.4407 -0.1372  0.3623
  486MPD2    H3 7286   4.254   3.977  13.163  1.3220  0.7236  0.1582
  486MPD2     N 7287   4.083   4.224  12.806  0.0743  0.2103  0.3514
  486MPD2    H5 7288   4.044   4.200  12.716 -1.5011  2.1951  0.5251
  486MPD2    N1 7289   4.084   3.737  12.847 -0.3973  0.4437 -0.1000
  486MPD2    H7 7290   4.087   3.670  12.923 -0.7309  0.6614  0.1044
  487TMC3    C1 7291   4.007   3.564  12.712  0.4562 -0.1475 -0.3670
  487TMC3    C2 7292   3.907   3.539  12.625  0.4123  0.1975 -0.4486
  487TMC3    C3 7293   3.834   3.426  12.654 -0.5279  0.0914  0.7097
  487TMC3    C4 7294   4.042   3.488  12.817 -0.0831 -0.5880  0.0059
  487TMC3    C5 7295   3.966   3.376  12.839 -0.4033  0.4381 -0.6781
  487TMC3    C6 7296   3.854   3.350  12.770 -0.1795  0.0868  0.3940
  487TMC3     C 7297   4.036   3.705  12.719 -0.1407 -0.8195  0.7046
  487TMC3     O 7298   4.020   3.774  12.620 -0.1159 -0.1964 -0.0496
  487TMC3     H 7299   3.873   3.613  12.553 -0.5647  0.4241  0.2404
  487TMC3    H1 7300   4.132   3.504  12.875 -0.5130 -0.7686  0.7262
  487TMC3    H2 7301   3.815   3.248  12.767  0.1564 -0.0319  0.0571
  487TMC3    C7 7302   3.964   3.336  12.976 -0.0612 -0.0674  0.6379
  487TMC3    C8 7303   3.689   3.425  12.624 -0.5661 -0.0162  0.2998
  487TMC3    O1 7304   4.057   3.367  13.052  0.1497  0.2433 -0.0240
  487TMC3    O2 7305   3.651   3.410  12.510  0.4642  0.4082  0.8272
  488MPD2     C 7306   4.105   0.747  15.810 -0.0597  0.2768  0.1763
  488MPD2    C1 7307   4.200   0.837  15.851  0.2584  0.4035 -0.5691
  488MPD2    C2 7308   4.201   0.896  15.977 -0.0267  0.4968  0.0169
  488MPD2    C3 7309   4.111   0.843  16.067 -0.0631 -0.5365  0.5035
  488MPD2    C4 7310   4.031   0.734  16.035  0.0815  0.0148 -0.2128
  488MPD2    C5 7311   4.024   0.683  15.907  0.6706  0.2847  0.5987
  488MPD2     H 7312   4.277   0.970  16.001  0.3403 -0.5805  2.2512
  488MPD2    H1 7313   3.972   0.683  16.112  1.0194  1.6300  1.5712
  488MPD2    H2 7314   4.102   0.701  15.713 -0.5606  0.3114  0.1747
  488MPD2    H3 7315   3.971   0.592  15.882 -2.2109  2.4447 -1.1918
  488MPD2     N 7316   4.119   0.899  16.196 -0.0377 -0.1317 -0.5533
  488MPD2    H5 7317   4.186   0.975  16.197 -1.1887  0.8869 -0.7798
  488MPD2    N1 7318   4.293   0.892  15.764 -0.1117 -0.7752  0.8354
  488MPD2    H7 7319   4.364   0.958  15.793 -0.3477  1.0732 -2.7332
  489TMC3    C1 7320   4.113   0.941  16.423  1.2037  0.0181 -0.5285
  489TMC3    C2 7321   4.139   1.077  16.399 -0.7604  0.5552 -0.1709
  489TMC3    C3 7322   4.185   1.149  16.502  0.5619 -0.2706 -1.3026
  489TMC3    C4 7323   4.113   0.882  16.543  0.5002 -0.3417  0.0820
  489TMC3    C5 7324   4.166   0.962  16.644  0.5547  0.0577 -0.2600
  489TMC3    C6 7325   4.202   1.093  16.622  0.5143 -0.0077  0.3377
  489TMC3     C 7326   4.074   0.850  16.316 -0.5869  0.0722 -0.4163
  489TMC3     O 7327   3.999   0.754  16.337 -0.6047 -0.0859  0.4702
  489TMC3     H 7328   4.134   1.121  16.300  1.4830 -0.0101 -0.5227
  489TMC3    H1 7329   4.102   0.775  16.554 -1.0793  0.2631  4.3780
  489TMC3    H2 7330   4.255   1.155  16.694  2.1291  0.2957 -1.1075
  489TMC3    C7 7331   4.178   0.924  16.788 -0.0781 -0.3418 -0.7367
  489TMC3    C8 7332   4.256   1.273  16.470  0.2727 -0.4095  0.4070
  489TMC3    O1 7333   4.226   1.002  16.865 -0.4593 -0.3142 -0.0915
  489TMC3    O2 7334   4.316   1.285  16.362 -0.8732 -0.6223  0.1013
  490MPD2     C 7335   0.267   0.618  16.681 -0.3886 -0.1325  0.4519
  490MPD2    C1 7336   0.397   0.579  16.696  0.4388 -0.6111 -0.3268
  490MPD2    C2 7337   0.505   0.663  16.675  0.1262 -0.1485  0.7695
  490MPD2    C3 7338   0.478   0.799  16.667  0.2738 -0.2175  0.2314
  490MPD2    C4 7339   0.345   0.842  16.668 -0.7029 -0.2325 -0.4972
  490MPD2    C5 7340   0.237   0.752  16.660 -0.1277  0.7540 -0.5285
  490MPD2     H 7341   0.606   0.624  16.680  0.9375  1.8200 -0.0567
  490MPD2    H1 7342   0.327   0.949  16.667 -1.5337 -0.3829 -1.3157
  490MPD2    H2 7343   0.179   0.555  16.693  0.6424 -2.1818 -2.6647
  490MPD2    H3 7344   0.137   0.790  16.642 -0.7644  0.3383  2.2530
  490MPD2     N 7345   0.582   0.889  16.677  0.6059 -0.2081  0.8186
  490MPD2    H5 7346   0.558   0.988  16.683  0.0846 -0.3911  1.6195
  490MPD2    N1 7347   0.415   0.435  16.714  0.3835  0.1772 -0.2966
  490MPD2    H7 7348   0.323   0.393  16.719 -0.2456  1.2722 -2.6617
  491TMC3    C1 7349   0.520   0.228  16.748 -0.5071 -0.2268  0.3212
  491TMC3    C2 7350   0.603   0.169  16.846 -0.9889  0.3138 -0.3986
  491TMC3    C3 7351   0.606   0.029  16.857 -0.3898  0.3736 -0.0930
  491TMC3    C4 7352   0.443   0.158  16.666  0.1469 -0.7483 -0.3830
  491TMC3    C5 7353   0.443   0.025  16.680 -0.5450  0.0464 -0.1614
  491TMC3    C6 7354   0.518   4.696  16.776 -0.7706  0.6471  0.1127
  491TMC3     C 7355   0.530   0.371  16.742  0.2659  0.4415 -0.1589
  491TMC3     O 7356   0.631   0.424  16.789  0.2557  0.3133 -0.3758
  491TMC3     H 7357   0.656   0.234  16.915  0.1570  0.0764 -1.0570
  491TMC3    H1 7358   0.398   0.208  16.581 -1.4549  0.2820  1.0621
  491TMC3    H2 7359   0.525   4.588  16.784 -1.2998  0.5750 -0.4129
  491TMC3    C7 7360   0.360   4.684  16.587 -0.2472 -0.1824  0.1855
  491TMC3    C8 7361   0.604   4.723  16.995 -0.2273  0.1832 -0.4998
  491TMC3    O1 7362   0.266   0.005  16.536  0.1855  0.1848  0.2408
  491TMC3    O2 7363   0.505   4.656  17.019  0.1017  0.2713  0.8646
  492MPD2     C 7364   0.513   0.300  11.309 -0.8399  0.3480 -0.5500
  492MPD2    C1 7365   0.386   0.279  11.260  0.3345  0.3273  0.6903
  492MPD2    C2 7366   0.287   0.224  11.341  0.4287  0.4753 -0.0013
  492MPD2    C3 7367   0.320   0.187  11.468  0.0572 -0.6695 -0.0285
  492MPD2    C4 7368   0.444   0.216  11.519 -0.0459 -0.2617  0.3279
  492MPD2    C5 7369   0.541   0.277  11.440  0.3712 -0.3942  0.3245
  492MPD2     H 7370   0.185   0.207  11.311 -0.6143  1.8149  2.8010
  492MPD2    H1 7371   0.464   0.185  11.621  1.2845 -0.3201  0.0513
  492MPD2    H2 7372   0.599   0.325  11.248 -1.1659  0.5717 -0.9171
  492MPD2    H3 7373   0.641   0.299  11.473  1.5745 -0.6172 -3.2250
  492MPD2     N 7374   0.224   0.125  11.553 -0.3332  0.2413 -0.1692
  492MPD2    H5 7375   0.252   0.126  11.651 -1.5182 -0.2098  0.1692
  492MPD2    N1 7376   0.372   0.294  11.120 -0.1546  0.2394  0.3642
  492MPD2    H7 7377   0.451   0.338  11.074 -0.9293  0.4299 -0.7790
  493TMC3    C1 7378   0.282   0.256  10.900  0.8768 -0.2448 -0.2032
  493TMC3    C2 7379   0.387   0.335  10.853 -0.0219  0.3827 -0.0878
  493TMC3    C3 7380   0.396   0.354  10.719  0.2582 -0.3459  0.8813
  493TMC3    C4 7381   0.187   0.200  10.813 -0.2017  1.1781 -0.4374
  493TMC3    C5 7382   0.197   0.235  10.680 -0.5359  0.2188 -0.1344
  493TMC3    C6 7383   0.297   0.318  10.630  0.2191 -0.7139  0.4602
  493TMC3     C 7384   0.278   0.232  11.039  0.1400  0.6168  0.0386
  493TMC3     O 7385   0.178   0.168  11.077 -0.1231 -0.3753  0.2813
  493TMC3     H 7386   0.469   0.367  10.917 -1.2952  1.5868  0.9316
  493TMC3    H1 7387   0.099   0.157  10.858 -0.1481 -0.6383 -2.0839
  493TMC3    H2 7388   0.304   0.352  10.527  0.2205  0.8111  0.9592
  493TMC3    C7 7389   0.107   0.168  10.582 -1.0760 -0.2941 -0.2347
  493TMC3    C8 7390   0.517   0.420  10.667  0.8049  0.0862  0.0862
  493TMC3    O1 7391   0.120   0.197  10.468 -0.4975 -0.1466  0.0559
  493TMC3    O2 7392   0.510   0.479  10.560  0.5808 -0.3019 -0.9775
  494TMC3    C1 7393   1.053   2.239   0.247  0.5661  0.2410  0.1631
  494TMC3    C2 7394   1.067   2.103   0.257  0.1934 -0.5832 -0.8894
  494TMC3    C3 7395   1.185   2.044   0.211  0.5554  0.2095 -0.4687
  494TMC3    C4 7396   1.139   2.320   0.177 -0.2939 -0.4712 -0.2714
  494TMC3    C5 7397   1.259   2.262   0.147 -0.0312  0.8336  0.4827
  494TMC3    C6 7398   1.290   2.132   0.176 -0.1879 -0.3621 -0.4964
  494TMC3     C 7399   0.960   2.296   0.347  0.1738  0.0940  0.6087
  494TMC3     O 7400   0.930   2.231   0.447  0.2757  0.5692  0.0881
  494TMC3     H 7401   1.002   2.035   0.311  0.1267  0.1913  0.0172
  494TMC3    H1 7402   1.121   2.426   0.166 -0.4511 -0.3498  1.1592
  494TMC3    H2 7403   1.384   2.090   0.142  1.4031  3.6809 -1.1421
  494TMC3    C7 7404   1.363   2.329   0.065 -0.4587  0.2660  0.1842
  494TMC3    C8 7405   1.205   1.913   0.263  0.2771  0.8299 -0.3048
  494TMC3    O1 7406   1.454   2.262   0.014  0.3220  0.2095  0.7752
  494TMC3    O2 7407   1.311   1.899   0.326 -0.2455  0.6804 -0.2726
  495TMC3    C1 7408   4.666   4.244  14.643 -0.5081 -0.2229  0.3107
  495TMC3    C2 7409   4.572   4.203  14.550  0.4799 -0.3578 -0.3299
  495TMC3    C3 7410   4.438   4.201  14.586 -0.1907 -0.0485 -0.9113
  495TMC3    C4 7411   4.621   4.271  14.770 -0.1228  0.3228 -0.7284
  495TMC3    C5 7412   4.488   4.267  14.796 -0.1213  0.1845  0.2642
  495TMC3    C6 7413   4.393   4.229  14.704 -0.4086 -0.0778 -0.6255
  495TMC3     C 7414   0.042   4.152  14.653  0.2668 -0.3362  0.1117
  495TMC3     O 7415   0.136   4.171  14.577 -0.4530  0.4004 -0.5083
  495TMC3     H 7416   4.611   4.169  14.455  0.2349  2.3122 -1.4012
  495TMC3    H1 7417   4.693   4.287  14.850 -3.3624 -0.4291  2.3862
  495TMC3    H2 7418   4.292   4.201  14.732  0.5081 -1.1558  1.6074
  495TMC3    C7 7419   4.455   4.238  14.936  0.5957 -0.2721 -0.1363
  495TMC3    C8 7420   4.341   4.155  14.480  0.0979  0.4023  0.2763
  495TMC3    O1 7421   4.519   4.287  15.024  0.1357  0.2562  0.0290
  495TMC3    O2 7422   4.223   4.188  14.496 -0.4139 -0.0213 -0.1312
  496MPD2     C 7423   1.815   4.189  15.090  0.5596  0.0103 -0.2220
  496MPD2    C1 7424   1.877   4.190  15.217  0.0509  0.3176  0.0171
  496MPD2    C2 7425   1.824   4.114  15.321 -0.4034 -0.2272  0.3012
  496MPD2    C3 7426   1.709   4.041  15.299  0.4610 -0.0637 -0.0430
  496MPD2    C4 7427   1.636   4.058  15.176 -0.2292  0.0514  0.4125
  496MPD2    C5 7428   1.694   4.126  15.069 -0.5872  0.1516 -0.2703
  496MPD2     H 7429   1.867   4.115  15.421 -0.9932  2.8594  0.5486
  496MPD2    H1 7430   1.553   3.990  15.159 -0.5514  0.3003  1.0180
  496MPD2    H2 7431   1.866   4.231  15.005  0.5587 -2.3085 -1.3673
  496MPD2    H3 7432   1.630   4.139  14.982  0.4364  2.0663 -0.7227
  496MPD2     N 7433   1.668   3.955  15.410  0.6332 -0.0873  0.2420
  496MPD2    H5 7434   1.721   3.958  15.496  0.6811  1.7431  0.1422
  496MPD2    N1 7435   1.998   4.257  15.225 -0.2632 -0.1891 -0.0444
  496MPD2    H7 7436   2.031   4.295  15.136  1.3171 -2.6878 -0.5407
  497TMC3    C1 7437   1.584   3.756  15.496  1.1912  0.2940 -0.7765
  497TMC3    C2 7438   1.565   3.626  15.452 -0.1143 -0.5316  0.1716
  497TMC3    C3 7439   1.590   3.526  15.536  0.4087 -0.1186  0.1694
  497TMC3    C4 7440   1.627   3.791  15.625 -0.2594 -0.0853 -0.7449
  497TMC3    C5 7441   1.663   3.685  15.695 -0.4183 -0.1095 -0.3390
  497TMC3    C6 7442   1.645   3.558  15.656  0.1635 -0.5557 -0.2158
  497TMC3     C 7443   1.561   3.865  15.399 -0.2780 -0.0259 -0.3748
  497TMC3     O 7444   1.482   3.847  15.307  0.6515 -0.3191 -0.2627
  497TMC3     H 7445   1.527   3.617  15.351  1.4063  1.5552 -0.5860
  497TMC3    H1 7446   1.617   3.890  15.668 -1.3951 -0.0062 -1.1969
  497TMC3    H2 7447   1.682   3.483  15.726  0.6616 -0.1981 -0.0923
  497TMC3    C7 7448   1.714   3.713  15.829 -0.3027 -0.5370  0.0911
  497TMC3    C8 7449   1.578   3.385  15.490  0.5407 -0.3325  0.0602
  497TMC3    O1 7450   1.741   3.616  15.892  0.0570  0.2435 -0.1537
  497TMC3    O2 7451   1.570   3.371  15.368 -1.0069 -0.2788  0.0194
  498MPD2     C 7452   2.506   0.274   9.863 -0.2566 -0.1737  1.0289
  498MPD2    C1 7453   2.566   0.267   9.993  0.0201 -0.3345 -0.4512
  498MPD2    C2 7454   2.524   0.165  10.078  0.7707 -0.3453 -0.4942
  498MPD2    C3 7455   2.431   0.069  10.042  0.2634  0.2258 -0.3282
  498MPD2    C4 7456   2.384   0.062   9.909  0.2870 -0.6098  0.0776
  498MPD2    C5 7457   2.427   0.167   9.825 -0.2132 -0.0366  0.2988
  498MPD2     H 7458   2.566   0.169  10.178 -0.1504 -0.6406 -0.0949
  498MPD2    H1 7459   2.324   4.722   9.863 -0.8977 -0.0340  0.6405
  498MPD2    H2 7460   2.535   0.350   9.790  0.5567  0.6160  2.1610
  498MPD2    H3 7461   2.396   0.165   9.721  0.1577  0.3243  0.1793
  498MPD2     N 7462   2.386   4.713  10.138  0.1389 -0.6230 -0.4403
  498MPD2    H5 7463   2.406   0.004  10.233  0.4502 -1.0537 -0.3719
  498MPD2    N1 7464   2.654   0.364  10.048  0.0085  0.0261 -0.3054
  498MPD2    H7 7465   2.695   0.346  10.140  1.4842  0.4853 -0.8884
  499TMC3    C1 7466   2.733   0.581  10.087 -0.4472 -0.2691  0.0307
  499TMC3    C2 7467   2.811   0.541  10.190 -0.1325  0.4057 -0.8419
  499TMC3    C3 7468   2.851   0.623  10.283 -0.1807  0.2365  0.1000
  499TMC3    C4 7469   2.687   0.711  10.086  0.4396  0.2489 -0.0462
  499TMC3    C5 7470   2.730   0.796  10.192 -0.5569  0.0907  0.4452
  499TMC3    C6 7471   2.821   0.752  10.289  0.0862 -0.1441  0.2944
  499TMC3     C 7472   2.689   0.486   9.987 -0.2258 -0.0566 -0.4837
  499TMC3     O 7473   2.655   0.539   9.881 -0.1116 -0.0271  0.1533
  499TMC3     H 7474   2.873   0.455  10.170 -4.2919 -3.1908  1.7288
  499TMC3    H1 7475   2.620   0.748  10.009  0.4095 -0.4618 -0.3648
  499TMC3    H2 7476   2.844   0.810  10.378  3.0015  0.1893 -0.6709
  499TMC3    C7 7477   2.645   0.904  10.230  0.0216 -0.1309 -0.4771
  499TMC3    C8 7478   2.955   0.559  10.359  0.2723  1.0995 -0.1064
  499TMC3    O1 7479   2.697   1.001  10.278 -0.3294  0.1840  0.5702
  499TMC3    O2 7480   2.958   0.440  10.380 -0.1213 -0.5821 -0.0722
  500MPD2     C 7481   4.043   1.049  10.254 -0.4766 -0.1570  0.1247
  500MPD2    C1 7482   4.048   1.184  10.279 -0.0042  0.4652 -0.2839
  500MPD2    C2 7483   3.927   1.246  10.300  0.4187 -0.6096 -0.0862
  500MPD2    C3 7484   3.808   1.176  10.315 -0.3860 -0.2448 -0.3583
  500MPD2    C4 7485   3.808   1.040  10.299 -0.2405  0.0587 -0.9471
  500MPD2    C5 7486   3.922   0.987  10.252  0.7322 -0.4745 -0.6103
  500MPD2     H 7487   3.934   1.354  10.311  1.6075 -0.8376  1.3930
  500MPD2    H1 7488   3.716   0.985  10.288  0.8536 -2.1763  1.0386
  500MPD2    H2 7489   4.132   0.990  10.238 -2.5731 -2.5166 -2.7572
  500MPD2    H3 7490   3.923   0.886  10.212 -1.2055 -1.7318  2.5687
  500MPD2     N 7491   3.690   1.242  10.332  0.3777  0.3534  0.5446
  500MPD2    H5 7492   3.613   1.196  10.379  1.2135 -1.4104  0.1831
  500MPD2    N1 7493   4.160   1.263  10.261  0.4251  0.1931  0.0131
  500MPD2    H7 7494   4.154   1.361  10.285  0.4275  0.7751 -2.4066
  501TMC3    C1 7495   4.362   1.345  10.177 -0.0111  0.3259  0.1045
  501TMC3    C2 7496   4.319   1.473  10.195  0.0297  0.0466  1.0217
  501TMC3    C3 7497   4.416   1.569  10.220 -0.1821 -0.2273 -0.1129
  501TMC3    C4 7498   4.496   1.316  10.177 -0.2277  0.1380  1.2182
  501TMC3    C5 7499   4.583   1.416  10.220  0.0751  0.1340  0.2318
  501TMC3    C6 7500   4.542   1.538  10.239  0.1594 -0.4908 -0.9072
  501TMC3     C 7501   4.276   1.226  10.196 -0.1359 -0.5386  0.4285
  501TMC3     O 7502   4.313   1.112  10.165 -0.6513 -0.0006 -0.3671
  501TMC3     H 7503   4.216   1.507  10.188  0.7600  2.1822  0.6421
  501TMC3    H1 7504   4.531   1.214  10.189  1.8959  0.5210 -1.5495
  501TMC3    H2 7505   4.606   1.621  10.264  2.5519 -1.5977 -3.3048
  501TMC3    C7 7506   4.680   1.370  10.319  0.1426 -0.5830 -0.2305
  501TMC3    C8 7507   4.385   1.680  10.308 -0.8856 -0.0470 -0.0351
  501TMC3    O1 7508   0.018   1.283  10.284  0.2069  0.3680 -0.0933
  501TMC3    O2 7509   4.437   1.673  10.418 -0.9898  0.0450  0.8874
  502TMC3    C1 7510   3.644   4.462  14.546  0.0542  0.1257 -0.6857
  502TMC3    C2 7511   3.667   4.586  14.502 -0.7536 -0.5991 -0.0547
  502TMC3    C3 7512   3.598   4.688  14.558  0.0940  0.2300 -0.3513
  502TMC3    C4 7513   3.536   4.435  14.630 -0.0664  0.0066  0.4238
  502TMC3    C5 7514   3.460   4.538  14.679  0.2014 -0.2640  0.9940
  502TMC3    C6 7515   3.492   4.665  14.641 -0.6469  0.4251  0.3038
  502TMC3     C 7516   3.763   4.408  14.595  0.2755 -0.0810  0.6166
  502TMC3     O 7517   3.863   4.401  14.530 -0.2711 -0.2107 -0.0808
  502TMC3     H 7518   3.758   4.608  14.448 -1.9514 -0.1936 -1.9187
  502TMC3    H1 7519   3.511   4.334  14.660 -0.1948 -0.4201 -1.1091
  502TMC3    H2 7520   3.437   0.009  14.685  0.4211  0.9133  0.7275
  502TMC3    C7 7521   3.407   4.525  14.809  0.0273  0.0285 -0.2955
  502TMC3    C8 7522   3.672   0.074  14.563  0.1602  0.7005  0.1710
  502TMC3    O1 7523   3.461   4.434  14.876 -0.9063 -0.1086 -0.2674
  502TMC3    O2 7524   3.716   0.114  14.457  0.5991 -0.2633 -0.4859
  503MPD2     C 7525   1.508   1.372  16.642  0.5113  0.4143 -0.0086
  503MPD2    C1 7526   1.488   1.377  16.780 -0.6277 -0.7624 -0.7400
  503MPD2    C2 7527   1.479   1.260  16.853 -0.0039 -0.2886 -0.5141
  503MPD2    C3 7528   1.520   1.146  16.789 -0.4176 -0.0401  0.6137
  503MPD2    C4 7529   1.538   1.136  16.656  0.5458  0.2001  0.0748
  503MPD2    C5 7530   1.536   1.255  16.584  0.0756 -0.2956  0.7405
  503MPD2     H 7531   1.462   1.258  16.960 -0.1753 -0.6083 -0.5479
  503MPD2    H1 7532   1.543   1.042  16.601 -0.1306  0.3563 -0.2540
  503MPD2    H2 7533   1.516   1.463  16.583 -1.6217 -0.4878 -1.6436
  503MPD2    H3 7534   1.561   1.259  16.478 -2.0978  1.3556  0.3020
  503MPD2     N 7535   1.540   1.033  16.873 -0.0393  0.3793  0.0090
  503MPD2    H5 7536   1.488   1.039  16.960 -0.3257 -1.9374  0.0053
  503MPD2    N1 7537   1.454   1.490  16.866 -0.9739 -0.8927  0.0165
  503MPD2    H7 7538   1.439   1.463  16.963  1.1183 -0.2508  0.5166
  504TMC3    C1 7539   1.638   0.834  16.950 -0.2640  0.7898  0.3685
  504TMC3    C2 7540   1.612   0.875  17.078 -0.0902 -0.5057 -0.5815
  504TMC3    C3 7541   1.682   0.816  17.185  0.4861  0.3375  0.6679
  504TMC3    C4 7542   1.730   0.741  16.924  0.0062  0.0383  0.0068
  504TMC3    C5 7543   1.802   0.692  17.028  0.1639 -0.4179 -0.3699
  504TMC3    C6 7544   1.772   0.713  17.162  0.1558  0.3100  0.0292
  504TMC3     C 7545   1.615   0.923  16.838  0.0042  0.7585 -0.1450
  504TMC3     O 7546   1.686   0.904  16.746  0.1739  0.6183 -0.6196
  504TMC3     H 7547   1.539   0.952  17.097 -1.2141 -1.6260 -0.3171
  504TMC3    H1 7548   1.753   0.712  16.822  1.3416  0.8158  0.0960
  504TMC3    H2 7549   1.825   0.646  17.229 -1.1067  0.2808  0.9970
  504TMC3    C7 7550   1.916   0.617  16.991  0.9005  0.4505  0.2687
  504TMC3    C8 7551   1.649   0.870  17.319 -0.1338  0.6763  0.3143
  504TMC3    O1 7552   1.929   0.577  16.878  0.2175 -0.2009  0.0266
  504TMC3    O2 7553   1.583   0.972  17.304 -0.0840 -0.2542  0.6444
  505MPD2     C 7554   1.515   4.679  11.223 -0.3996 -0.0197  0.1906
  505MPD2    C1 7555   1.567   4.559  11.280  0.0337  0.0679  0.2812
  505MPD2    C2 7556   1.691   4.557  11.343  0.8224  0.0579 -0.3259
  505MPD2    C3 7557   1.767   4.670  11.334 -0.5739  1.0105  0.0699
  505MPD2    C4 7558   1.729   0.043  11.267 -0.3642 -0.6852 -0.4708
  505MPD2    C5 7559   1.602   0.046  11.218 -0.4642 -0.4888 -0.1534
  505MPD2     H 7560   1.728   4.467  11.390 -0.9211  0.8414  2.4960
  505MPD2    H1 7561   1.769   0.143  11.280  1.1503 -1.3973  0.3168
  505MPD2    H2 7562   1.424   4.682  11.164  0.6332 -0.3213 -1.4319
  505MPD2    H3 7563   1.567   0.130  11.160  0.0815  0.8053  1.3914
  505MPD2     N 7564   1.895   4.659  11.386  0.1447 -0.2784  0.0097
  505MPD2    H5 7565   1.922   4.568  11.422  1.7561  0.9015  1.7444
  505MPD2    N1 7566   1.494   4.441  11.250  0.2672  0.0607  0.4949
  505MPD2    H7 7567   1.403   4.458  11.207  1.8704  1.7543 -2.2199
  506TMC3    C1 7568   1.443   4.209  11.221  0.3844 -0.1238  0.5948
  506TMC3    C2 7569   1.407   4.244  11.097 -0.2256 -0.9320  0.0587
  506TMC3    C3 7570   1.443   4.165  10.989  0.0265 -0.0621 -0.3511
  506TMC3    C4 7571   1.513   4.090  11.241  0.3459  0.0422  0.0249
  506TMC3    C5 7572   1.562   4.020  11.129 -0.3419 -0.2657  0.3034
  506TMC3    C6 7573   1.519   4.054  11.003 -0.0306 -0.2530 -1.1039
  506TMC3     C 7574   1.516   4.312  11.292  0.2087 -0.1370 -0.3121
  506TMC3     O 7575   1.604   4.282  11.371  0.3633  0.1301 -0.1397
  506TMC3     H 7576   1.341   4.329  11.083 -0.3713 -1.0059  0.2804
  506TMC3    H1 7577   1.536   4.063  11.343  1.6023  0.0149 -0.2718
  506TMC3    H2 7578   1.553   3.992  10.921  3.1106 -2.6334  1.9625
  506TMC3    C7 7579   1.702   3.964  11.138 -0.2521 -0.8191  0.5210
  506TMC3    C8 7580   1.438   4.244  10.867  0.7868 -0.8745 -0.1114
  506TMC3    O1 7581   1.741   3.892  11.048  0.3184  0.0712 -0.3942
  506TMC3    O2 7582   1.347   4.323  10.859 -0.5352 -0.3130 -0.2583
  507TMC3    C1 7583   2.385   0.444  14.506 -0.2349  0.3775  0.5894
  507TMC3    C2 7584   2.380   0.331  14.430  0.3238 -0.2056 -0.5408
  507TMC3    C3 7585   2.469   0.317  14.327 -0.2615  0.0042 -0.0368
  507TMC3    C4 7586   2.470   0.551  14.477 -0.4284 -0.3654  0.1930
  507TMC3    C5 7587   2.556   0.532  14.371 -0.3091  0.1098 -0.0757
  507TMC3    C6 7588   2.559   0.412  14.301  0.4142 -1.0031  0.7114
  507TMC3     C 7589   2.281   0.466  14.605  0.7515 -0.4891  0.1953
  507TMC3     O 7590   2.303   0.549  14.692  0.1030  0.9595 -0.5557
  507TMC3     H 7591   2.304   0.255  14.445 -0.3648  0.0589 -2.7268
  507TMC3    H1 7592   2.439   0.652  14.501  1.2117  0.4212 -1.0494
  507TMC3    H2 7593   2.624   0.401  14.215  0.0363 -2.4660  0.6017
  507TMC3    C7 7594   2.566   0.644  14.278  0.0641  0.5660 -0.3854
  507TMC3    C8 7595   2.408   0.265  14.206 -0.3694 -0.5402  0.3117
  507TMC3    O1 7596   2.528   0.608  14.170  0.5022  0.3045 -0.1790
  507TMC3    O2 7597   2.333   0.174  14.211  0.4285  0.2894  0.2405
  508MPD2     C 7598   3.580   2.688  16.385 -0.5750  0.3645 -0.3786
  508MPD2    C1 7599   3.618   2.817  16.411 -0.2683  0.0833 -0.6336
  508MPD2    C2 7600   3.572   2.919  16.328  0.5647 -0.7611  0.4008
  508MPD2    C3 7601   3.478   2.895  16.228 -0.5979  0.5480  0.5763
  508MPD2    C4 7602   3.447   2.762  16.206 -0.1759 -0.3790  0.1864
  508MPD2    C5 7603   3.497   2.662  16.283  0.3821  0.2658 -0.8349
  508MPD2     H 7604   3.607   3.019  16.352 -1.4359  0.2504 -0.9680
  508MPD2    H1 7605   3.373   2.725  16.137 -0.4953 -2.3099  1.5540
  508MPD2    H2 7606   3.631   2.610  16.440 -1.8028 -1.0514 -1.2830
  508MPD2    H3 7607   3.478   2.559  16.252 -1.0563  0.4753 -0.6504
  508MPD2     N 7608   3.430   2.999  16.147 -0.3595 -0.0030  0.9089
  508MPD2    H5 7609   3.448   3.095  16.174 -0.6875 -0.4452  2.7258
  508MPD2    N1 7610   3.716   2.828  16.513 -0.0491  0.4419  0.1366
  508MPD2    H7 7611   3.753   2.741  16.548  1.5206  1.4151  0.9301
  509TMC3    C1 7612   3.261   3.160  15.756  0.3906  0.5020 -0.2488
  509TMC3    C2 7613   3.365   3.248  15.744  0.6668  0.2918 -0.1569
  509TMC3    C3 7614   3.448   3.273  15.852  0.5430  0.1430 -0.9811
  509TMC3    C4 7615   3.245   3.090  15.870 -0.6564 -0.3177  0.4653
  509TMC3    C5 7616   3.330   3.103  15.969 -1.2997 -0.1578  0.6029
  509TMC3    C6 7617   3.434   3.195  15.964 -0.2292  0.3018  0.6384
  509TMC3     C 7618   3.172   3.143  15.644  0.3045  0.3164  0.1033
  509TMC3     O 7619   3.077   3.065  15.647 -0.1882 -0.2897  0.5101
  509TMC3     H 7620   3.396   3.284  15.647 -1.8465  2.0741 -0.2818
  509TMC3    H1 7621   3.159   3.026  15.885  0.0597 -1.0987  1.2108
  509TMC3    H2 7622   3.511   3.207  16.039  1.0981 -1.6852 -0.4077
  509TMC3    C7 7623   3.346   2.977  16.037  0.3581  0.3978  0.6488
  509TMC3    C8 7624   3.579   3.335  15.820  0.0115 -0.4260 -0.2216
  509TMC3    O1 7625   3.274   2.881  16.010 -0.6410 -0.0641  0.9870
  509TMC3    O2 7626   3.672   3.299  15.892  0.4406 -0.3216  0.1169
  510MPD2     C 7627   1.176   4.539  14.509  0.3901 -0.1963 -0.8879
  510MPD2    C1 7628   1.230   4.420  14.555  0.7021 -0.4424 -0.5934
  510MPD2    C2 7629   1.344   4.375  14.498  0.0618 -0.2016 -0.1471
  510MPD2    C3 7630   1.404   4.444  14.392  0.3165  0.1930 -0.0926
  510MPD2    C4 7631   1.341   4.555  14.336  0.6829 -0.0353 -0.3016
  510MPD2    C5 7632   1.229   4.608  14.402 -0.1500  0.2467  0.3666
  510MPD2     H 7633   1.391   4.279  14.513 -0.7216 -0.5667 -0.0415
  510MPD2    H1 7634   1.379   4.606  14.249  0.0865 -1.2944 -1.2969
  510MPD2    H2 7635   1.080   4.573  14.545  0.5787 -1.7099  1.0047
  510MPD2    H3 7636   1.169   4.686  14.357  0.2599  0.2165 -0.2366
  510MPD2     N 7637   1.528   4.396  14.349  0.7427 -0.5202 -0.1812
  510MPD2    H5 7638   1.562   4.321  14.409 -1.6733 -0.5898  1.0964
  510MPD2    N1 7639   1.161   4.343  14.653 -0.4984 -0.0897  0.0948
  510MPD2    H7 7640   1.082   4.389  14.696 -0.2656 -0.5879  1.0359
  511TMC3    C1 7641   1.108   4.169  14.795  0.5669  0.0476  0.6608
  511TMC3    C2 7642   1.039   4.246  14.888 -0.5534 -0.7505 -0.8759
  511TMC3    C3 7643   0.964   4.173  14.977  0.3076  0.6398  0.0158
  511TMC3    C4 7644   1.101   4.038  14.794 -0.0088 -0.4716  0.6388
  511TMC3    C5 7645   1.023   3.970  14.883  0.3715 -0.5096 -0.7030
  511TMC3    C6 7646   0.961   4.037  14.983  0.5363 -0.7631  0.1889
  511TMC3     C 7647   1.195   4.221  14.697  0.6716  0.8237  0.3328
  511TMC3     O 7648   1.286   4.150  14.657 -0.0476  0.3967 -0.1952
  511TMC3     H 7649   1.032   4.353  14.875 -0.7991 -0.7094 -0.4215
  511TMC3    H1 7650   1.166   3.981  14.728 -0.3949 -1.3538  1.0241
  511TMC3    H2 7651   0.899   3.994  15.061  3.2285 -1.9883  1.6715
  511TMC3    C7 7652   0.986   3.835  14.852  0.1195  0.0892  0.2201
  511TMC3    C8 7653   0.925   4.254  15.091 -0.1701  0.1965 -0.4555
  511TMC3    O1 7654   1.037   3.806  14.742 -0.8665 -0.5651  0.0448
  511TMC3    O2 7655   0.923   4.372  15.067  0.9167 -0.0866 -0.2041
  512TMC3    C1 7656   0.416   3.455  13.836  0.5535  0.3485  0.2576
  512TMC3    C2 7657   0.513   3.552  13.845 -0.3162  0.2300  1.2132
  512TMC3    C3 7658   0.636   3.520  13.881 -0.6287 -0.1167 -0.4170
  512TMC3    C4 7659   0.434   3.329  13.896 -0.4085  0.0823 -0.6002
  512TMC3    C5 7660   0.562   3.300  13.946  0.0201 -0.1124 -0.1450
  512TMC3    C6 7661   0.656   3.397  13.943 -0.1811  0.4557 -0.2648
  512TMC3     C 7662   0.273   3.503  13.835  0.5704 -0.0541  0.0229
  512TMC3     O 7663   0.271   3.627  13.831  0.0242 -0.5374 -0.0613
  512TMC3     H 7664   0.495   3.656  13.821  1.3323 -0.3950 -2.7829
  512TMC3    H1 7665   0.356   3.256  13.915  0.8595 -2.1446 -3.9737
  512TMC3    H2 7666   0.752   3.374  13.986 -1.0426 -0.6718  1.0489
  512TMC3    C7 7667   0.590   3.170  14.000  0.3812  0.0684  0.0409
  512TMC3    C8 7668   0.747   3.619  13.896 -0.2390  1.3087  0.8288
  512TMC3    O1 7669   0.694   3.155  14.063 -0.3907 -0.1031  0.0673
  512TMC3    O2 7670   0.854   3.568  13.935  0.1052  0.2932  0.1278
  513MPD2     C 7671   2.238   4.013  13.021  0.5061 -0.3495  0.8762
  513MPD2    C1 7672   2.323   4.045  12.918  0.3970  0.0479 -0.6315
  513MPD2    C2 7673   2.457   4.081  12.939 -0.9632 -0.3091  0.0180
  513MPD2    C3 7674   2.506   4.098  13.067 -0.2631  0.2710  0.3829
  513MPD2    C4 7675   2.418   4.072  13.172  0.7410  0.5426  0.4233
  513MPD2    C5 7676   2.289   4.025  13.146  0.1064 -0.1109 -0.0224
  513MPD2     H 7677   2.519   4.106  12.853 -0.1869 -1.8657  0.1269
  513MPD2    H1 7678   2.441   4.099  13.274 -1.6006  0.0855  1.0588
  513MPD2    H2 7679   2.136   3.985  12.995  2.2826 -2.5429 -3.7113
  513MPD2    H3 7680   2.232   4.004  13.235  0.8247 -2.6244 -0.1725
  513MPD2     N 7681   2.640   4.137  13.077 -0.1935 -0.4683  0.1748
  513MPD2    H5 7682   2.684   4.159  12.988 -2.8052 -0.3173 -1.0861
  513MPD2    N1 7683   2.263   4.036  12.792 -0.9181 -0.0111  0.2491
  513MPD2    H7 7684   2.166   4.006  12.800 -0.4430 -0.5646  3.6450
  514TMC3    C1 7685   2.238   4.018  12.547 -0.3066 -0.7054 -0.7821
  514TMC3    C2 7686   2.118   3.951  12.557 -0.7014  0.3981 -0.8086
  514TMC3    C3 7687   2.099   3.836  12.488  0.3449 -0.4623 -0.3067
  514TMC3    C4 7688   2.332   3.977  12.457 -0.1996 -0.1864  0.2007
  514TMC3    C5 7689   2.317   3.853  12.407 -0.5714  0.5263  0.5289
  514TMC3    C6 7690   2.200   3.783  12.415  0.2803 -0.3152  0.0615
  514TMC3     C 7691   2.315   4.059  12.667  0.1104 -0.1670 -0.8957
  514TMC3     O 7692   2.434   4.073  12.648 -0.0615 -0.5503 -0.1456
  514TMC3     H 7693   2.035   3.990  12.615 -0.1024 -0.7706  0.8393
  514TMC3    H1 7694   2.417   4.036  12.427  0.0938 -0.3285  0.7630
  514TMC3    H2 7695   2.196   3.679  12.383  3.0915  0.1832 -1.9123
  514TMC3    C7 7696   2.433   3.764  12.436  0.0891  0.6583 -0.4075
  514TMC3    C8 7697   1.960   3.786  12.467  0.0315  0.8007  0.5579
  514TMC3    O1 7698   2.422   3.650  12.398 -0.1660  0.4876  1.2010
  514TMC3    O2 7699   1.882   3.801  12.560 -0.2596 -0.1851  0.2032
  515MPD2     C 7700   0.569   0.369  14.522  0.4462 -0.4243 -0.1124
  515MPD2    C1 7701   0.494   0.413  14.413  0.9887 -0.9986  0.2868
  515MPD2    C2 7702   0.481   0.548  14.383  0.3967  0.2974  0.7582
  515MPD2    C3 7703   0.529   0.643  14.472  0.2268  0.0371 -1.2535
  515MPD2    C4 7704   0.603   0.599  14.582 -0.1772  0.0099  0.4809
  515MPD2    C5 7705   0.617   0.471  14.610 -0.3304  0.0475  0.3245
  515MPD2     H 7706   0.411   0.576  14.305  0.2636  0.6937  1.0234
  515MPD2    H1 7707   0.635   0.666  14.662 -0.0785 -1.2480  1.4814
  515MPD2    H2 7708   0.572   0.268  14.561  1.0737 -1.0492 -1.8115
  515MPD2    H3 7709   0.649   0.445  14.710 -1.0882  0.3958  0.6541
  515MPD2     N 7710   0.517   0.782  14.462 -0.6796  0.2902  0.9289
  515MPD2    H5 7711   0.541   0.847  14.535  1.0540  0.8124 -0.0952
  515MPD2    N1 7712   0.421   0.317  14.332 -0.6171  0.7629  0.3837
  515MPD2    H7 7713   0.337   0.350  14.285  0.1154  1.9328 -0.1125
  516TMC3    C1 7714   0.329   0.112  14.260  0.2222 -0.0473  0.3149
  516TMC3    C2 7715   0.263   0.173  14.155  0.4648 -0.5478 -0.0159
  516TMC3    C3 7716   0.126   0.154  14.147 -0.3186 -0.1345 -0.0562
  516TMC3    C4 7717   0.261   0.033  14.351  0.0207  0.0536  0.5575
  516TMC3    C5 7718   0.121   0.028  14.344  0.0410 -0.5650 -0.0803
  516TMC3    C6 7719   0.053   0.083  14.238  0.0448 -0.9108  0.6393
  516TMC3     C 7720   0.437   0.181  14.322 -0.3773 -0.1836  0.2464
  516TMC3     O 7721   0.517   0.106  14.383  0.7223 -0.2443 -0.2562
  516TMC3     H 7722   0.311   0.241  14.085 -1.5521 -0.2689 -1.1369
  516TMC3    H1 7723   0.315   4.718  14.429  0.5270  0.1659  0.2819
  516TMC3    H2 7724   4.683   0.089  14.235  0.0616 -2.6630 -3.0063
  516TMC3    C7 7725   0.065   4.716  14.461 -0.3974 -0.1520 -0.4970
  516TMC3    C8 7726   0.030   0.231  14.056 -0.6316  1.1447 -0.3998
  516TMC3    O1 7727   0.125   4.726  14.565  0.1968 -0.2530  0.0786
  516TMC3    O2 7728   4.657   0.265  14.095 -0.7069  0.4592  0.0273
  517MPD2     C 7729   4.463   2.620  17.405  0.3703  0.2285 -0.1405
  517MPD2    C1 7730   4.597   2.607  17.436 -0.0245 -0.0444 -0.4551
  517MPD2    C2 7731   4.667   2.714  17.483  0.4882  0.2558  0.2713
  517MPD2    C3 7732   4.599   2.835  17.505  0.3391  0.4114 -0.4089
  517MPD2    C4 7733   4.465   2.844  17.475 -0.4111  0.6718  0.4302
  517MPD2    C5 7734   4.401   2.738  17.423  0.9448 -0.1521  0.6814
  517MPD2     H 7735   0.035   2.707  17.506  0.7355 -0.4323 -1.0659
  517MPD2    H1 7736   4.406   2.932  17.497 -2.4223 -0.3923 -0.7365
  517MPD2    H2 7737   4.407   2.541  17.357 -0.9784  0.8016  0.5060
  517MPD2    H3 7738   4.297   2.750  17.396  1.3105 -1.0533 -1.1030
  517MPD2     N 7739   4.664   2.942  17.574 -0.1781 -0.1426  0.4009
  517MPD2    H5 7740   4.606   3.011  17.620 -0.2098 -0.7945  1.3312
  517MPD2    N1 7741   4.659   2.480  17.424 -0.1994  0.1580  0.4966
  517MPD2    H7 7742   0.012   2.473  17.470  0.0355 -1.7993 -0.2789
  518TMC3    C1 7743   4.709   2.269  17.338  0.2563  0.4771  0.1262
  518TMC3    C2 7744   4.653   2.154  17.284  0.8389 -0.1331  0.3990
  518TMC3    C3 7745   0.008   2.055  17.243  0.8064  0.2196  0.5515
  518TMC3    C4 7746   0.107   2.296  17.341  0.1130  0.3855  0.7195
  518TMC3    C5 7747   0.185   2.197  17.289 -0.6225 -0.9046  0.1011
  518TMC3    C6 7748   0.142   2.068  17.257  0.1457 -0.3655 -0.4569
  518TMC3     C 7749   4.618   2.379  17.337 -0.7113  0.3951  0.6916
  518TMC3     O 7750   4.535   2.379  17.247 -0.1508 -0.7311  0.0392
  518TMC3     H 7751   4.546   2.142  17.277  0.8898  0.4495 -1.4991
  518TMC3    H1 7752   0.146   2.394  17.366 -2.2242  1.0991  1.5350
  518TMC3    H2 7753   0.206   1.984  17.235 -1.5492 -1.2919 -1.8606
  518TMC3    C7 7754   0.319   2.232  17.241 -0.3134  0.4034 -0.3921
  518TMC3    C8 7755   4.710   1.937  17.155  0.0801 -0.3642 -0.8099
  518TMC3    O1 7756   0.365   2.335  17.288 -0.5289  0.4311  0.2871
  518TMC3    O2 7757   0.059   1.883  17.088  0.4799 -0.2266  0.2435
  519MPD2     C 7758   1.447   0.813  13.848 -0.4176  0.5328  0.5944
  519MPD2    C1 7759   1.484   0.823  13.720  0.4574 -0.1985 -0.1874
  519MPD2    C2 7760   1.577   0.729  13.663 -0.6242 -0.7174 -0.4920
  519MPD2    C3 7761   1.618   0.620  13.744 -0.5382 -0.4511 -0.0497
  519MPD2    C4 7762   1.582   0.616  13.878 -0.1875  0.2412 -0.5496
  519MPD2    C5 7763   1.503   0.714  13.930 -0.6918 -0.5469  1.3830
  519MPD2     H 7764   1.627   0.742  13.568 -0.6344 -0.6870 -0.4932
  519MPD2    H1 7765   1.602   0.529  13.940 -0.2933  0.3973 -0.2971
  519MPD2    H2 7766   1.382   0.885  13.896 -2.4931 -1.1479  0.2969
  519MPD2    H3 7767   1.483   0.728  14.036 -0.7103  2.4688  0.9926
  519MPD2     N 7768   1.693   0.508  13.692  0.5315 -0.0063  0.1127
  519MPD2    H5 7769   1.700   0.423  13.747 -2.0168 -0.3878 -0.1461
  519MPD2    N1 7770   1.431   0.928  13.641  0.0035 -1.1028 -0.2793
  519MPD2    H7 7771   1.373   0.999  13.685 -0.1435 -1.7521  0.5785
  520TMC3    C1 7772   1.750   0.354  13.529  0.2102 -0.0165  0.1328
  520TMC3    C2 7773   1.678   0.302  13.424  0.3030  0.2570 -0.5086
  520TMC3    C3 7774   1.672   0.167  13.412 -0.1991  0.2793 -0.6224
  520TMC3    C4 7775   1.788   0.273  13.627 -0.1809 -0.0417  0.0206
  520TMC3    C5 7776   1.783   0.138  13.607 -0.6111  0.4567  0.0339
  520TMC3    C6 7777   1.717   0.080  13.502 -0.1254 -0.4610 -0.2528
  520TMC3     C 7778   1.727   0.492  13.564 -0.6061 -0.2817 -0.0422
  520TMC3     O 7779   1.703   0.553  13.461  0.0619 -0.2598  0.0505
  520TMC3     H 7780   1.638   0.371  13.351 -0.4871 -0.5766 -0.8523
  520TMC3    H1 7781   1.849   0.317  13.705 -0.3597  1.4515 -0.6799
  520TMC3    H2 7782   1.702   4.711  13.492 -0.3574 -0.2447 -2.2580
  520TMC3    C7 7783   1.878   0.055  13.680  0.4411 -0.5478  0.7238
  520TMC3    C8 7784   1.588   0.123  13.301  0.2836  0.0916 -0.4646
  520TMC3    O1 7785   1.904   0.099  13.791  0.1429  0.0026  0.0334
  520TMC3    O2 7786   1.612   0.014  13.259  0.0899  0.1607  0.4547
  521MPD2     C 7787   2.773   3.417   0.276  0.7808 -0.0370 -0.5185
  521MPD2    C1 7788   2.734   3.413   0.151 -0.0676  0.0804  0.1767
  521MPD2    C2 7789   2.831   3.430   0.047 -0.8436  0.3901  0.1929
  521MPD2    C3 7790   2.968   3.455   0.072  0.3212 -0.3662 -0.4035
  521MPD2    C4 7791   3.005   3.454   0.203 -0.0290  0.4622 -0.1123
  521MPD2    C5 7792   2.911   3.443   0.301 -0.4159 -0.1733  0.4732
  521MPD2     H 7793   2.798   3.425  17.693 -0.4525  1.6573  0.0073
  521MPD2    H1 7794   3.109   3.477   0.226  0.7525 -3.5192  0.3100
  521MPD2    H2 7795   2.712   3.403   0.364  1.2215  1.5293  0.0543
  521MPD2    H3 7796   2.943   3.454   0.404  0.2030 -0.2625  0.2873
  521MPD2     N 7797   3.062   3.486  17.719 -0.5325 -0.2446  0.1626
  521MPD2    H5 7798   3.153   3.504   0.012  0.4711 -0.1370 -2.0428
  521MPD2    N1 7799   2.597   3.388   0.130 -0.3611 -0.0583  0.0894
  521MPD2    H7 7800   2.538   3.360   0.207  0.5827 -2.0203  0.0831
  522TMC3    C1 7801   3.147   3.505  17.507 -0.1450 -0.0395 -0.0831
  522TMC3    C2 7802   3.269   3.454  17.548  0.2610  0.1299  0.4012
  522TMC3    C3 7803   3.365   3.449  17.457  0.3959  0.2853  0.1804
  522TMC3    C4 7804   3.119   3.550  17.383 -0.0461  0.5926 -0.0605
  522TMC3    C5 7805   3.226   3.561  17.298  0.7995  0.3334 -0.1596
  522TMC3    C6 7806   3.350   3.508  17.334  0.4473 -0.5121 -0.3552
  522TMC3     C 7807   3.034   3.487  17.585  0.0124 -0.1060  0.0546
  522TMC3     O 7808   2.927   3.479  17.524  0.4323  0.0651  0.6769
  522TMC3     H 7809   3.279   3.402  17.643  0.0272  0.5982  0.6802
  522TMC3    H1 7810   3.023   3.595  17.360 -1.1358 -0.8420  1.7000
  522TMC3    H2 7811   3.438   3.513  17.271  0.6475  1.4339  0.0733
  522TMC3    C7 7812   3.219   3.647  17.182  0.4177  0.3545  0.4551
  522TMC3    C8 7813   3.485   3.379  17.489 -0.2127  0.1007 -0.2876
  522TMC3    O1 7814   3.322   3.700  17.149  0.1920 -0.5500  0.6588
  522TMC3    O2 7815   3.515   3.379  17.605 -0.7011  0.3901 -0.4541
  523MPD2     C 7816   4.561   2.779  10.208  0.1724  0.6230  1.1772
  523MPD2    C1 7817   4.457   2.715  10.142  0.3430 -0.0751  0.5576
  523MPD2    C2 7818   4.362   2.795  10.078 -0.4533 -0.3210 -0.0224
  523MPD2    C3 7819   4.373   2.934  10.078 -1.0850 -0.8855  0.9043
  523MPD2    C4 7820   4.473   2.996  10.152 -0.2596  0.8493 -0.0340
  523MPD2    C5 7821   4.561   2.914  10.220  0.2599  0.2908  0.1140
  523MPD2     H 7822   4.273   2.749  10.036  0.8600 -3.8171  1.0771
  523MPD2    H1 7823   4.473   3.104  10.150 -0.2706  0.8483 -0.0783
  523MPD2    H2 7824   4.635   2.716  10.257 -0.1491 -0.7544 -0.1014
  523MPD2    H3 7825   4.642   2.955  10.279 -0.5736  0.9423  0.8001
  523MPD2     N 7826   4.294   3.016   9.989 -0.1809 -0.3913 -0.8993
  523MPD2    H5 7827   4.310   3.117   9.988  1.1242 -0.6045 -2.9112
  523MPD2    N1 7828   4.450   2.575  10.134  0.2805  0.1502  0.2681
  523MPD2    H7 7829   4.516   2.521  10.188 -0.2740 -5.0317 -4.2461
  524TMC3    C1 7830   4.197   3.065   9.775 -0.2655 -0.3937  0.3193
  524TMC3    C2 7831   4.169   3.027   9.644  0.3087 -0.0772  0.0823
  524TMC3    C3 7832   4.119   3.122   9.551  1.1610  0.3324  0.2220
  524TMC3    C4 7833   4.162   3.187   9.818 -0.5131  0.5036  0.5822
  524TMC3    C5 7834   4.085   3.262   9.738 -0.0234  0.3866 -0.2641
  524TMC3    C6 7835   4.064   3.237   9.606  0.9986 -0.1359 -0.7114
  524TMC3     C 7836   4.236   2.964   9.874 -0.0543  0.4820  0.7169
  524TMC3     O 7837   4.207   2.849   9.845  0.0379  0.5790 -0.6271
  524TMC3     H 7838   4.165   2.923   9.615 -1.2345  0.4820 -1.7515
  524TMC3    H1 7839   4.144   3.214   9.921  0.8827 -2.0893  1.4923
  524TMC3    H2 7840   4.022   3.310   9.537 -0.6203 -1.0581 -0.6908
  524TMC3    C7 7841   4.042   3.382   9.788 -0.2815 -0.1961  0.0132
  524TMC3    C8 7842   4.085   3.087   9.410 -0.6871  0.0285  0.0405
  524TMC3    O1 7843   4.108   3.436   9.882 -0.3610  0.0667  0.7006
  524TMC3    O2 7844   3.996   3.146   9.357 -0.3147 -0.2437 -0.1190
  525MPD2     C 7845   2.652   4.611  14.310  0.2891  0.1256  0.1789
  525MPD2    C1 7846   2.774   4.625  14.373  0.1212 -0.2395  0.4384
  525MPD2    C2 7847   2.869   4.712  14.325  1.1877 -0.6234 -0.2006
  525MPD2    C3 7848   2.850   0.058  14.223 -0.0543  0.4890  0.3199
  525MPD2    C4 7849   2.726   0.040  14.163  0.1826  0.5196 -0.6573
  525MPD2    C5 7850   2.630   4.692  14.213  0.3136 -0.1991 -0.6031
  525MPD2     H 7851   2.963   4.714  14.379 -0.3399 -0.1295  2.4207
  525MPD2    H1 7852   2.696   0.099  14.077 -2.2881  1.6118  0.9703
  525MPD2    H2 7853   2.579   4.533  14.327 -1.2955  1.4888 -0.3675
  525MPD2    H3 7854   2.542   4.678  14.152  1.8250 -2.1104 -2.3163
  525MPD2     N 7855   2.943   0.163  14.188 -0.0222  0.7347 -0.1881
  525MPD2    H5 7856   2.900   0.233  14.129  1.6944  0.4365 -1.8130
  525MPD2    N1 7857   2.795   4.555  14.494  0.7199 -0.3734  0.0459
  525MPD2    H7 7858   2.888   4.539  14.532  0.2345  0.6201  1.6779
  526TMC3    C1 7859   2.727   4.430  14.683 -0.6299  0.1176 -0.5884
  526TMC3    C2 7860   2.636   4.432  14.789  0.0804 -0.4457  0.7516
  526TMC3    C3 7861   2.664   4.354  14.893 -0.7831 -0.0234 -0.3554
  526TMC3    C4 7862   2.844   4.363  14.678  0.2070  0.2987 -0.0230
  526TMC3    C5 7863   2.864   4.285  14.790 -0.1344 -1.2430 -1.0176
  526TMC3    C6 7864   2.774   4.277  14.892 -0.1101  0.0291  0.4512
  526TMC3     C 7865   2.689   4.512  14.568  0.3274 -0.1459  0.0534
  526TMC3     O 7866   2.571   4.542  14.565 -0.3168 -0.1677  0.6132
  526TMC3     H 7867   2.553   4.502  14.789 -2.3393 -3.3264  0.0865
  526TMC3    H1 7868   2.901   4.351  14.587 -0.4173  2.0030 -0.6351
  526TMC3    H2 7869   2.791   4.202  14.968  1.8089  1.1050  1.0817
  526TMC3    C7 7870   2.986   4.216  14.817 -0.1914  0.1070 -0.3516
  526TMC3    C8 7871   2.620   4.391  15.030 -0.0115 -0.5385  0.3576
  526TMC3    O1 7872   2.996   4.162  14.928 -0.1350 -0.0808 -0.5107
  526TMC3    O2 7873   2.669   4.328  15.122  0.0060  0.3834 -0.3351
  527MPD2     C 7874   1.557   3.649   1.223  0.2932 -0.7723 -0.4985
  527MPD2    C1 7875   1.458   3.559   1.190 -0.4456 -1.0779  0.2965
  527MPD2    C2 7876   1.501   3.429   1.166  0.0972  0.4126  0.4601
  527MPD2    C3 7877   1.631   3.391   1.157 -0.5039  0.1885  0.1057
  527MPD2    C4 7878   1.732   3.483   1.192  0.4557 -0.4453  0.4244
  527MPD2    C5 7879   1.689   3.613   1.225 -0.2615  0.3646  0.1181
  527MPD2     H 7880   1.427   3.354   1.145  2.6112 -1.8245 -0.4252
  527MPD2    H1 7881   1.831   3.446   1.213  0.4789 -1.3383 -1.3035
  527MPD2    H2 7882   1.537   3.752   1.249  1.8163 -0.9668  1.4126
  527MPD2    H3 7883   1.765   3.684   1.256  0.4346 -0.2604 -0.1359
  527MPD2     N 7884   1.662   3.254   1.118  0.1347 -0.2604  0.1332
  527MPD2    H5 7885   1.580   3.193   1.114  1.3969 -1.9864  0.7968
  527MPD2    N1 7886   1.316   3.578   1.194 -0.5120  1.0091  0.6137
  527MPD2    H7 7887   1.257   3.500   1.166  0.4159  0.6289 -0.2676
  528TMC3    C1 7888   1.117   3.701   1.205 -0.3901 -0.0763  0.5730
  528TMC3    C2 7889   1.080   3.642   1.089 -0.1447 -0.1491  0.3285
  528TMC3    C3 7890   0.950   3.630   1.059 -0.0945  0.4078 -0.9146
  528TMC3    C4 7891   1.023   3.763   1.286  0.5326  0.1887  0.5695
  528TMC3    C5 7892   0.890   3.742   1.253  0.7180  0.0899 -0.0745
  528TMC3    C6 7893   0.850   3.679   1.135 -0.5883  0.0472 -0.2791
  528TMC3     C 7894   1.254   3.693   1.242  0.2111 -0.4713  0.6851
  528TMC3     O 7895   1.299   3.778   1.316  0.4832 -0.1622 -0.1219
  528TMC3     H 7896   1.150   3.592   1.023  0.4037 -0.6592  1.3017
  528TMC3    H1 7897   1.059   3.816   1.373 -0.8948  0.7934  0.7943
  528TMC3    H2 7898   0.748   3.656   1.107  0.1684 -2.0806 -1.2867
  528TMC3    C7 7899   0.785   3.768   1.339  0.1413 -0.0726  0.3494
  528TMC3    C8 7900   0.926   3.517   0.977  0.9504  0.0908 -0.4633
  528TMC3    O1 7901   0.673   3.766   1.296  0.1162 -0.3475  0.2057
  528TMC3    O2 7902   0.998   3.508   0.877 -0.1982 -0.4270 -0.1026
  529MPD2     C 7903   3.527   1.515   0.397  1.1714 -0.0901  0.1789
  529MPD2    C1 7904   3.573   1.415   0.315 -0.1630  0.2707  0.2638
  529MPD2    C2 7905   3.559   1.422   0.180  0.2998 -0.0156  0.3954
  529MPD2    C3 7906   3.491   1.532   0.126  0.5293 -0.2591  0.0382
  529MPD2    C4 7907   3.432   1.627   0.205  0.5199 -0.2615  0.2954
  529MPD2    C5 7908   3.451   1.610   0.336  0.0365  0.2670 -0.5667
  529MPD2     H 7909   3.599   1.349   0.110 -0.3123 -1.3169  1.3921
  529MPD2    H1 7910   3.374   1.707   0.160 -0.3878 -1.4555 -0.6473
  529MPD2    H2 7911   3.543   1.528   0.504 -1.0356  0.2190  0.4625
  529MPD2    H3 7912   3.397   1.682   0.397 -1.4916 -0.9492 -0.4958
  529MPD2     N 7913   3.479   1.562  17.739 -0.5907  0.1902 -0.2877
  529MPD2    H5 7914   3.425   1.645  17.719  0.4091  1.0356  0.5372
  529MPD2    N1 7915   3.653   1.308   0.366  0.0608  0.2170  0.6896
  529MPD2    H7 7916   3.672   1.231   0.302  0.2092 -0.0360  1.0360
  530TMC3    C1 7917   3.778   1.171   0.510  0.5461 -0.5662  0.1853
  530TMC3    C2 7918   3.863   1.173   0.616  0.1756  0.5132 -0.2436
  530TMC3    C3 7919   3.928   1.056   0.645 -0.6611  0.1812  0.0026
  530TMC3    C4 7920   3.750   1.058   0.438  0.6341 -0.1427  0.0193
  530TMC3    C5 7921   3.821   0.950   0.470  1.3244  0.2980 -0.7375
  530TMC3    C6 7922   3.894   0.942   0.581 -0.1031  0.3527  0.5317
  530TMC3     C 7923   3.693   1.291   0.495  0.6069  0.3456 -0.1625
  530TMC3     O 7924   3.677   1.349   0.603 -0.4224  0.1213 -0.4926
  530TMC3     H 7925   3.900   1.261   0.668  1.4489  0.1645 -0.5475
  530TMC3    H1 7926   3.676   1.059   0.359 -1.4409 -1.1784  1.9748
  530TMC3    H2 7927   3.934   0.848   0.617  0.0981  0.6756  1.1697
  530TMC3    C7 7928   3.747   0.837   0.436  0.3321 -0.3226  0.3131
  530TMC3    C8 7929   4.010   1.058   0.768  0.1919 -0.4584 -0.2047
  530TMC3    O1 7930   3.713   0.832   0.322 -0.3118  0.1089  0.2421
  530TMC3    O2 7931   3.994   1.153   0.847 -0.3814 -0.1103  0.7334
  531MPD2     C 7932   2.838   3.657  12.738 -0.6406  0.6994 -0.4401
  531MPD2    C1 7933   2.808   3.795  12.748  0.0617  0.3265  0.1955
  531MPD2    C2 7934   2.695   3.845  12.677  0.1590 -0.1226  0.0395
  531MPD2    C3 7935   2.615   3.759  12.603 -0.0521  0.7269  0.4546
  531MPD2    C4 7936   2.648   3.626  12.591  0.1075 -0.7731 -0.3188
  531MPD2    C5 7937   2.754   3.575  12.664 -0.6822  0.1412  0.0253
  531MPD2     H 7938   2.666   3.949  12.683 -1.5986 -0.5451 -1.1520
  531MPD2    H1 7939   2.598   3.566  12.516 -0.5343  0.3568 -0.7869
  531MPD2    H2 7940   2.925   3.618  12.789 -2.8677 -3.2818  0.3772
  531MPD2    H3 7941   2.775   3.469  12.654  0.6949  0.3562  0.5987
  531MPD2     N 7942   2.514   3.824  12.535  0.2787 -0.2648 -0.2118
  531MPD2    H5 7943   2.486   3.917  12.564  1.1297 -0.4284  1.1725
  531MPD2    N1 7944   2.888   3.875  12.838 -0.3694  0.1033 -0.3551
  531MPD2    H7 7945   2.958   3.829  12.896 -1.1547 -0.0348  0.4774
  532TMC3    C1 7946   2.927   4.039  13.000  0.0117  0.0308  0.1312
  532TMC3    C2 7947   2.865   4.152  13.041 -0.5979  0.0101 -0.4876
  532TMC3    C3 7948   2.846   4.161  13.177 -0.2760  0.5958 -0.3054
  532TMC3    C4 7949   2.994   3.955  13.078  0.0951 -0.0525 -0.4159
  532TMC3    C5 7950   2.993   3.982  13.207  0.6223  0.1815  0.6827
  532TMC3    C6 7951   2.911   4.078  13.263 -0.2261  0.2237 -0.4443
  532TMC3     C 7952   2.863   4.000  12.877  0.0222  0.3041 -0.6323
  532TMC3     O 7953   2.800   4.091  12.821 -0.4663  0.2240 -0.1309
  532TMC3     H 7954   2.835   4.232  12.974  0.9705  0.6666 -0.4121
  532TMC3    H1 7955   3.066   3.885  13.037  0.6760  0.1915  0.1919
  532TMC3    H2 7956   2.903   4.090  13.370  2.5232  2.0079 -0.4320
  532TMC3    C7 7957   3.063   3.901  13.302  0.4686  0.2269 -0.3978
  532TMC3    C8 7958   2.708   4.150  13.196 -0.1410 -0.1927 -0.6738
  532TMC3    O1 7959   3.104   3.954  13.405  0.7664 -0.0460  0.6354
  532TMC3    O2 7960   2.660   4.119  13.305 -0.7659  0.2781 -0.3632
  533TMC3    C1 7961   3.086   0.331  14.247 -0.1925 -0.6842 -0.1436
  533TMC3    C2 7962   3.217   0.379  14.262 -0.1276 -0.2558 -0.1560
  533TMC3    C3 7963   3.240   0.507  14.309 -0.0160 -0.2283 -0.5122
  533TMC3    C4 7964   2.986   0.411  14.296 -0.0034  0.2040  0.3354
  533TMC3    C5 7965   3.013   0.533  14.360  0.6411  0.0269 -0.4475
  533TMC3    C6 7966   3.145   0.577  14.370  0.4365  0.5052  0.3490
  533TMC3     C 7967   3.063   0.188  14.249 -0.2311  0.2552  0.0835
  533TMC3     O 7968   3.135   0.125  14.333  0.1761  0.3576 -0.0347
  533TMC3     H 7969   3.307   0.326  14.232 -0.1744 -0.2322 -0.3410
  533TMC3    H1 7970   2.887   0.370  14.309 -0.0076 -0.3025 -1.3128
  533TMC3    H2 7971   3.165   0.675  14.411  0.3211  0.3698  0.7259
  533TMC3    C7 7972   2.928   0.559  14.476 -0.1448 -0.4096 -0.1458
  533TMC3    C8 7973   3.375   0.550  14.316  0.6137 -0.2530 -0.1424
  533TMC3    O1 7974   2.824   0.497  14.490  0.1490 -0.3975 -0.0850
  533TMC3    O2 7975   3.458   0.481  14.369 -0.8462  0.1092  0.3566
  534MPD2     C 7976   1.416   1.393   0.895 -0.2633 -0.6092 -0.2967
  534MPD2    C1 7977   1.384   1.528   0.871  1.5823  0.9395  0.0631
  534MPD2    C2 7978   1.262   1.554   0.811  0.1945 -0.6291 -0.1966
  534MPD2    C3 7979   1.175   1.450   0.769 -0.5469  0.3736  0.3611
  534MPD2    C4 7980   1.214   1.322   0.797  0.2856 -0.6050 -0.0517
  534MPD2    C5 7981   1.339   1.293   0.854  0.5727  0.1408 -0.2867
  534MPD2     H 7982   1.232   1.658   0.804 -2.6548 -1.5017 -0.6318
  534MPD2    H1 7983   1.151   1.237   0.770 -0.3086 -0.6673  1.5416
  534MPD2    H2 7984   1.505   1.365   0.949 -0.9328 -2.0231  0.0547
  534MPD2    H3 7985   1.364   1.189   0.876 -0.2315  0.0547  0.2232
  534MPD2     N 7986   1.051   1.472   0.703  0.0500 -0.3087  0.3856
  534MPD2    H5 7987   0.990   1.392   0.686  0.6642 -1.0709  1.8391
  534MPD2    N1 7988   1.460   1.639   0.908  0.5211  0.3213 -0.1740
  534MPD2    H7 7989   1.422   1.728   0.879 -0.2866  0.3727  1.0449
  535TMC3    C1 7990   0.879   1.572   0.586 -0.4637 -0.4547 -0.2381
  535TMC3    C2 7991   0.784   1.489   0.646  0.1177 -0.0855 -0.1892
  535TMC3    C3 7992   0.654   1.496   0.598  0.3296 -0.3650 -0.3327
  535TMC3    C4 7993   0.841   1.669   0.496 -0.4747  0.1227  0.0987
  535TMC3    C5 7994   0.706   1.672   0.463 -0.0235  0.5014  0.1207
  535TMC3    C6 7995   0.605   1.588   0.507 -0.5044  0.4942  0.8321
  535TMC3     C 7996   1.006   1.587   0.649 -0.1534 -0.0556  0.7710
  535TMC3     O 7997   1.074   1.690   0.629  0.2613 -0.3409 -0.2103
  535TMC3     H 7998   0.803   1.423   0.730  0.3400  0.1454 -0.0605
  535TMC3    H1 7999   0.908   1.735   0.442 -2.8498 -1.0009 -4.1887
  535TMC3    H2 8000   0.503   1.588   0.470 -1.1747 -0.9305  2.6916
  535TMC3    C7 8001   0.673   1.765   0.354  0.8266 -0.3451  0.0437
  535TMC3    C8 8002   0.545   1.443   0.688 -0.4684 -0.3964 -0.1481
  535TMC3    O1 8003   0.765   1.819   0.289  0.1608  0.2676 -0.3988
  535TMC3    O2 8004   0.432   1.421   0.648 -0.0793 -0.2803 -0.2447
  536MPD2     C 8005   4.426   0.056  15.838  0.0371 -0.8286 -0.8000
  536MPD2    C1 8006   4.324   4.730  15.909  0.2927  0.1253 -0.3927
  536MPD2    C2 8007   4.215   4.695  15.829  0.2799 -1.2033  0.0313
  536MPD2    C3 8008   4.211   4.721  15.694  0.2191 -0.2078  0.0879
  536MPD2    C4 8009   4.316   0.047  15.632 -0.0114  0.2543  0.3049
  536MPD2    C5 8010   4.423   0.087  15.711 -0.4789  0.5998 -0.0839
  536MPD2     H 8011   4.141   4.635  15.882 -0.1006  0.9003  1.8801
  536MPD2    H1 8012   4.324   0.060  15.525 -2.2453 -1.2122 -0.0210
  536MPD2    H2 8013   4.514   0.095  15.886  0.4230 -3.9090  1.0085
  536MPD2    H3 8014   4.510   0.122  15.657  0.2322 -0.3823  0.4218
  536MPD2     N 8015   4.097   4.690  15.612 -0.2710 -0.2409 -0.8075
  536MPD2    H5 8016   4.099   4.712  15.513 -0.3228  1.8452 -0.3381
  536MPD2    N1 8017   4.338   4.697  16.049  0.9312  0.2179 -0.2645
  536MPD2    H7 8018   4.423   4.731  16.091  2.6549 -0.8337 -2.8656
  537TMC3    C1 8019   4.307   4.563  16.237 -0.5380 -0.4883  0.1008
  537TMC3    C2 8020   4.442   4.568  16.258 -0.6618  0.0463 -0.4315
  537TMC3    C3 8021   4.500   4.474  16.340  0.2595  1.0540 -0.3011
  537TMC3    C4 8022   4.234   4.472  16.311  0.2949  0.1987 -0.4698
  537TMC3    C5 8023   4.297   4.385  16.400 -0.5408  0.5871 -0.7534
  537TMC3    C6 8024   4.430   4.394  16.422 -0.2623  0.7486  0.3935
  537TMC3     C 8025   4.246   4.629  16.128  0.3263  0.2610 -0.6205
  537TMC3     O 8026   4.128   4.598  16.104 -0.0008  0.5787 -0.0761
  537TMC3     H 8027   4.511   4.638  16.211  0.1021 -0.5439 -0.2045
  537TMC3    H1 8028   4.130   4.456  16.284  0.1683  0.5228 -0.1654
  537TMC3    H2 8029   4.468   4.314  16.484 -1.4488 -1.6494 -1.9486
  537TMC3    C7 8030   4.216   4.266  16.432  0.4101 -0.1808 -0.1607
  537TMC3    C8 8031   4.644   4.496  16.370 -0.0999  0.0125 -0.3391
  537TMC3    O1 8032   4.113   4.255  16.369  0.0201  0.1417  0.0026
  537TMC3    O2 8033   4.682   4.613  16.359  0.1638  0.7141  0.1908
  538TMC3    C1 8034   0.680   2.481  10.779 -0.2182  0.6600  0.7016
  538TMC3    C2 8035   0.811   2.522  10.795 -0.4200  0.1289 -0.1582
  538TMC3    C3 8036   0.851   2.644  10.751 -0.2960  0.4575  0.2601
  538TMC3    C4 8037   0.594   2.552  10.701  0.0625 -0.6102 -0.1946
  538TMC3    C5 8038   0.634   2.679  10.664 -0.2403  0.1270  0.1225
  538TMC3    C6 8039   0.760   2.724  10.681 -0.3536  0.0950  0.4523
  538TMC3     C 8040   0.605   2.451  10.902 -0.2863 -0.2157  0.2899
  538TMC3     O 8041   0.509   2.374  10.897  0.1886 -0.6020 -0.3015
  538TMC3     H 8042   0.876   2.471  10.866 -1.5701 -2.4158 -0.9421
  538TMC3    H1 8043   0.489   2.527  10.713 -0.1493  0.1639 -0.3860
  538TMC3    H2 8044   0.787   2.822  10.644  0.3988  0.5145  2.1168
  538TMC3    C7 8045   0.526   2.771  10.699  0.5345  0.4499 -0.2087
  538TMC3    C8 8046   0.991   2.658  10.712 -0.5062 -0.4759 -0.5937
  538TMC3    O1 8047   0.415   2.726  10.671  0.0798  0.3986 -0.0769
  538TMC3    O2 8048   1.054   2.554  10.695  0.1649  0.3138 -0.2896
  539MPD2     C 8049   0.011   2.161  12.072 -0.2307  0.3509 -0.1864
  539MPD2    C1 8050   0.006   2.161  11.930 -0.3727 -0.2754 -0.3310
  539MPD2    C2 8051   0.049   2.276  11.866 -0.1566 -0.6605  0.1853
  539MPD2    C3 8052   0.101   2.389  11.933  0.3872 -0.3650  0.2910
  539MPD2    C4 8053   0.107   2.382  12.070 -0.3371  0.4551  0.5982
  539MPD2    C5 8054   0.054   2.277  12.139  0.5720 -0.9076  0.8494
  539MPD2     H 8055   0.044   2.269  11.758 -2.4255  2.4060  0.0703
  539MPD2    H1 8056   0.145   2.459  12.137 -1.8915  1.6777  0.0826
  539MPD2    H2 8057   4.729   2.069  12.126 -1.6874 -0.1905 -1.6379
  539MPD2    H3 8058   0.079   2.276  12.245 -2.2859 -1.5475  1.5268
  539MPD2     N 8059   0.167   2.493  11.869  0.3627  0.4749  0.6211
  539MPD2    H5 8060   0.177   2.574  11.929 -1.0119  0.1319  1.3026
  539MPD2    N1 8061   4.686   2.053  11.849 -0.4921 -0.1676  0.4577
  539MPD2    H7 8062   4.711   2.058  11.751  0.1497  1.7448  0.7078
  540TMC3    C1 8063   0.200   2.625  11.677 -0.2868 -0.3474 -0.2386
  540TMC3    C2 8064   0.239   2.637  11.551  0.8194 -0.1938  0.1776
  540TMC3    C3 8065   0.241   2.767  11.497  0.5107 -0.6433  0.0689
  540TMC3    C4 8066   0.177   2.733  11.758  0.0629  0.3686  0.2992
  540TMC3    C5 8067   0.176   2.855  11.700 -0.3184  1.0624  0.2093
  540TMC3    C6 8068   0.204   2.879  11.569  0.3665  0.2617 -0.4147
  540TMC3     C 8069   0.196   2.494  11.733  0.6984 -0.2088 -0.2146
  540TMC3     O 8070   0.206   2.400  11.652  0.2800 -0.6831 -0.4811
  540TMC3     H 8071   0.269   2.550  11.494 -1.6693 -1.4701  0.8311
  540TMC3    H1 8072   0.153   2.723  11.863  2.0943  0.3583  0.7683
  540TMC3    H2 8073   0.167   2.971  11.525  0.6579 -0.1128 -1.4502
  540TMC3    C7 8074   0.107   2.955  11.774 -0.3661 -0.5749  0.3741
  540TMC3    C8 8075   0.239   2.780  11.352  0.7492  0.2789 -0.1861
  540TMC3    O1 8076   0.032   2.920  11.865 -0.2190  0.0402 -0.1843
  540TMC3    O2 8077   0.292   2.870  11.294  0.8119  0.0053 -0.4705
  541MPD2     C 8078   3.831   3.651  13.452  0.4877  0.1714  0.1221
  541MPD2    C1 8079   3.741   3.592  13.358 -0.0964  0.3447 -0.2015
  541MPD2    C2 8080   3.757   3.622  13.228 -0.0511 -0.1526 -0.6399
  541MPD2    C3 8081   3.855   3.709  13.186 -0.2219 -0.6880  0.1757
  541MPD2    C4 8082   3.938   3.768  13.277  0.6474  0.7463  0.1367
  541MPD2    C5 8083   3.935   3.728  13.408 -0.1340 -0.1053 -0.2604
  541MPD2     H 8084   3.693   3.572  13.157  0.8249  1.1512 -2.3409
  541MPD2    H1 8085   4.003   3.851  13.249  0.5894  1.2022  1.3207
  541MPD2    H2 8086   3.810   3.631  13.557  4.7135 -0.1844  0.8852
  541MPD2    H3 8087   4.008   3.770  13.476  0.2867  1.7687 -1.8723
  541MPD2     N 8088   3.853   3.774  13.057 -0.1848 -0.0115 -0.7221
  541MPD2    H5 8089   3.908   3.859  13.055 -1.5948  0.9440  0.6830
  541MPD2    N1 8090   3.634   3.512  13.407  0.3725 -0.3990  0.4518
  541MPD2    H7 8091   3.627   3.505  13.508  0.2155 -2.0909  0.3296
  542TMC3    C1 8092   3.743   3.846  12.859  0.0783  0.4114  0.0153
  542TMC3    C2 8093   3.690   3.815  12.732 -0.2372 -0.2473 -1.1891
  542TMC3    C3 8094   3.629   3.911  12.656 -0.0305  0.0412  0.5703
  542TMC3    C4 8095   3.731   3.975  12.913  0.2458  0.7758 -0.0321
  542TMC3    C5 8096   3.668   4.063  12.830 -0.6183 -0.4259 -0.9972
  542TMC3    C6 8097   3.618   4.043  12.705 -0.3773 -0.0608  0.4281
  542TMC3     C 8098   3.770   3.738  12.954 -0.0010  0.2396 -0.3532
  542TMC3     O 8099   3.738   3.622  12.926  0.2185  0.7910  0.2723
  542TMC3     H 8100   3.702   3.719  12.683 -0.8297 -1.1110  0.3396
  542TMC3    H1 8101   3.766   3.998  13.013  3.5856  0.9573 -1.2187
  542TMC3    H2 8102   3.582   4.126  12.645 -0.1660  0.8682  1.5856
  542TMC3    C7 8103   3.663   4.202  12.879  0.0482  0.9226  0.0019
  542TMC3    C8 8104   3.628   3.891  12.506  0.0400 -0.7206  0.2432
  542TMC3    O1 8105   3.773   4.234  12.925 -0.1391  0.5749 -0.5671
  542TMC3    O2 8106   3.598   3.780  12.464 -0.0431 -0.0982  0.5966
  543TMC3    C1 8107   3.130   0.803  16.967 -0.6754 -0.8289  0.0292
  543TMC3    C2 8108   3.161   0.696  17.044  0.5594  0.2452 -0.2610
  543TMC3    C3 8109   3.160   0.704  17.179 -0.3885  0.0123 -0.0757
  543TMC3    C4 8110   3.096   0.914  17.026  0.4531  0.4154  0.1626
  543TMC3    C5 8111   3.086   0.924  17.157 -0.2768  0.8620 -0.5391
  543TMC3    C6 8112   3.119   0.819  17.238  0.0916 -0.3416 -0.4377
  543TMC3     C 8113   3.112   0.776  16.831 -0.0670 -1.0380  0.5551
  543TMC3     O 8114   3.197   0.702  16.785  0.2230  0.4793  0.0428
  543TMC3     H 8115   3.198   0.610  16.988 -0.4082  0.4476 -1.2135
  543TMC3    H1 8116   3.066   0.997  16.962  2.3394  0.6546 -0.4254
  543TMC3    H2 8117   3.116   0.829  17.346  1.8275 -1.0954 -0.3369
  543TMC3    C7 8118   3.045   1.057  17.220  0.1682  0.3480 -0.2641
  543TMC3    C8 8119   3.187   0.585  17.253 -0.0391 -0.0064  0.7777
  543TMC3    O1 8120   3.003   1.048  17.340 -0.1191  0.2804 -0.0678
  543TMC3    O2 8121   3.233   0.490  17.186 -0.3212 -0.1726 -0.4868
  544MPD2     C 8122   3.173   0.250  17.633 -0.3357  0.6273 -0.1139
  544MPD2    C1 8123   3.137   0.230  17.504  0.3112  0.1760 -0.1690
  544MPD2    C2 8124   3.131   0.345  17.425 -0.4019  0.3822  0.4265
  544MPD2    C3 8125   3.166   0.472  17.473  0.1373 -0.3741  0.4470
  544MPD2    C4 8126   3.185   0.479  17.607 -0.1550  0.6145  0.3669
  544MPD2    C5 8127   3.187   0.372  17.688 -0.0211  0.5078 -0.1807
  544MPD2     H 8128   3.117   0.334  17.318 -0.6313  1.7258  0.3062
  544MPD2    H1 8129   3.201   0.575  17.654 -2.6116  1.4072 -0.4248
  544MPD2    H2 8130   3.185   0.169  17.704  1.5001  1.9610  1.0891
  544MPD2    H3 8131   3.225   0.386   0.039 -1.2304  0.9479  0.2173
  544MPD2     N 8132   3.180   0.588  17.391  0.2442  0.1947 -0.7975
  544MPD2    H5 8133   3.168   0.677  17.439 -0.9087 -1.1225  1.3717
  544MPD2    N1 8134   3.102   0.098  17.467 -0.1356  0.3002  0.1786
  544MPD2    H7 8135   3.110   0.017  17.529 -1.3315 -0.4185 -0.6074
  545TMC3    C1 8136   3.007   4.678  17.323 -0.4492 -0.4907  0.5731
  545TMC3    C2 8137   2.895   4.669  17.251 -0.1602  1.1359  0.0019
  545TMC3    C3 8138   2.817   4.554  17.265 -0.2527  0.3942 -0.9373
  545TMC3    C4 8139   3.024   4.585  17.425  0.8113  0.3185  0.1449
  545TMC3    C5 8140   2.950   4.467  17.430  0.3299 -0.6796 -0.6563
  545TMC3    C6 8141   2.843   4.455  17.356  0.6703 -1.2088 -0.0008
  545TMC3     C 8142   3.058   0.070  17.338 -0.7285 -0.7085  0.5576
  545TMC3     O 8143   3.070   0.124  17.226  0.0239 -0.3928 -1.1137
  545TMC3     H 8144   2.871   0.003  17.174 -1.5095  0.5532 -0.1308
  545TMC3    H1 8145   3.117   4.591  17.480  1.5931  2.2668 -1.3624
  545TMC3    H2 8146   2.793   4.359  17.361  0.7418 -1.2184  0.5418
  545TMC3    C7 8147   2.984   4.364  17.524  0.5997  0.0131 -0.7185
  545TMC3    C8 8148   2.686   4.542  17.198  0.1923 -0.2173 -0.4793
  545TMC3    O1 8149   2.897   4.277  17.548 -0.4468  0.2720 -0.1161
  545TMC3    O2 8150   2.611   4.453  17.234 -0.0837 -0.0876 -0.9178
  546MPD2     C 8151   4.311   0.609  16.377 -0.0141  0.3209  0.2021
  546MPD2    C1 8152   4.339   0.593  16.510 -0.5540  0.5692 -0.2619
  546MPD2    C2 8153   4.405   0.694  16.579 -0.1366  0.4032 -0.5126
  546MPD2    C3 8154   4.471   0.799  16.513  0.3853  0.4057 -0.8628
  546MPD2    C4 8155   4.455   0.800  16.376  0.2507  0.5315 -0.6023
  546MPD2    C5 8156   4.369   0.714  16.314  0.8118  0.7553 -0.3849
  546MPD2     H 8157   4.424   0.679  16.684 -1.1902  1.1297 -0.2227
  546MPD2    H1 8158   4.494   0.881  16.316  0.3912  1.4071  0.6757
  546MPD2    H2 8159   4.240   0.550  16.320  0.3050  3.6501 -3.6021
  546MPD2    H3 8160   4.343   0.729  16.210  1.4389 -0.0831 -0.6562
  546MPD2     N 8161   4.538   0.909  16.571 -0.3009  0.1216 -0.5609
  546MPD2    H5 8162   4.571   0.983  16.510 -2.5980 -0.5583 -2.6304
  546MPD2    N1 8163   4.280   0.483  16.563 -0.0381 -0.5924  0.4000
  546MPD2    H7 8164   4.213   0.428  16.511 -1.3460  0.0264  1.4300
  547TMC3    C1 8165   4.210   0.321  16.718  0.7603  0.2886  0.0476
  547TMC3    C2 8166   4.091   0.311  16.646 -0.6342  0.2875 -0.3540
  547TMC3    C3 8167   3.998   0.223  16.688 -0.7942 -0.1003  0.2939
  547TMC3    C4 8168   4.225   0.251  16.839  0.3682 -0.8174 -0.0660
  547TMC3    C5 8169   4.122   0.165  16.877 -0.7015  0.4895  0.3077
  547TMC3    C6 8170   4.007   0.160  16.806  0.0533 -0.4137 -0.0493
  547TMC3     C 8171   4.308   0.426  16.685 -0.1490 -0.1683  0.6026
  547TMC3     O 8172   4.398   0.458  16.762  0.1247 -0.2803  0.1229
  547TMC3     H 8173   4.060   0.385  16.574  1.1895  0.9685 -0.4465
  547TMC3    H1 8174   4.317   0.260  16.895 -0.1778  1.2968  0.5121
  547TMC3    H2 8175   3.927   0.089  16.827 -0.5050  0.0182 -0.7099
  547TMC3    C7 8176   4.170   0.049  16.955  0.1620  0.1253 -0.0005
  547TMC3    C8 8177   3.891   0.180  16.597  0.4262 -0.0846 -0.7844
  547TMC3    O1 8178   4.248   0.062  17.049 -0.0247 -0.0831  0.5548
  547TMC3    O2 8179   3.777   0.165  16.639 -0.2068  0.1625 -0.4491
  548MPD2     C 8180   4.225   1.186  12.372 -0.6771  1.1713 -0.3545
  548MPD2    C1 8181   4.196   1.056  12.403  0.7821  0.2864  0.0303
  548MPD2    C2 8182   4.259   0.958  12.326 -0.3155  0.3442 -0.4187
  548MPD2    C3 8183   4.342   0.989  12.221  0.2824 -0.0619  0.3544
  548MPD2    C4 8184   4.367   1.121  12.189 -0.5325 -0.3510  0.1962
  548MPD2    C5 8185   4.310   1.217  12.263 -0.1092 -0.2239  0.3530
  548MPD2     H 8186   4.260   0.853  12.353 -3.1911  1.1906  2.8661
  548MPD2    H1 8187   4.432   1.138  12.104  0.1694  0.7948  0.9739
  548MPD2    H2 8188   4.176   1.263  12.430 -0.7132  0.6786  0.2720
  548MPD2    H3 8189   4.322   1.321  12.234 -1.0915 -0.8142 -2.1867
  548MPD2     N 8190   4.422   0.882  12.163 -0.2902  0.1888 -1.1276
  548MPD2    H5 8191   4.409   0.789  12.203  2.3960  0.3901  0.2768
  548MPD2    N1 8192   4.109   1.032  12.514 -0.2782 -0.2165  0.3711
  548MPD2    H7 8193   4.048   1.110  12.538  0.3509  0.7252 -1.0939
  549TMC3    C1 8194   3.967   0.910  12.653 -1.1081 -0.0180  0.1634
  549TMC3    C2 8195   3.912   1.024  12.692  0.4559 -0.1745 -0.2686
  549TMC3    C3 8196   3.792   1.026  12.755  0.5639 -0.4913 -0.0397
  549TMC3    C4 8197   3.903   0.788  12.675  0.1683  0.3868 -0.5122
  549TMC3    C5 8198   3.792   0.786  12.751 -0.1507 -0.2797 -0.1592
  549TMC3    C6 8199   3.728   0.907  12.786 -0.0385 -1.0781 -0.0111
  549TMC3     C 8200   4.062   0.910  12.551  0.5383  0.6388 -0.1819
  549TMC3     O 8201   4.100   0.800  12.509  0.1672 -0.8544  0.4785
  549TMC3     H 8202   3.966   1.119  12.688 -0.1231  0.1275 -0.9673
  549TMC3    H1 8203   3.944   0.697  12.634  0.9472  0.9861 -1.0507
  549TMC3    H2 8204   3.635   0.905  12.842  1.4138 -1.2317  2.3790
  549TMC3    C7 8205   3.727   0.661  12.783 -0.0033 -0.2943 -0.2015
  549TMC3    C8 8206   3.714   1.146  12.769  0.6456 -0.1282 -0.2723
  549TMC3    O1 8207   3.618   0.666  12.838 -0.0739  0.0759 -0.7441
  549TMC3    O2 8208   3.595   1.121  12.763  0.2929 -0.1407 -0.5375
  550TMC3    C1 8209   2.799   3.052  11.731  0.2213 -0.2081  0.4581
  550TMC3    C2 8210   2.831   3.094  11.859  0.0842 -0.4029  0.1007
  550TMC3    C3 8211   2.730   3.138  11.941  0.3784  0.3565 -0.3253
  550TMC3    C4 8212   2.670   3.050  11.688  0.3330  0.1896  0.0467
  550TMC3    C5 8213   2.572   3.107  11.767  0.3218  0.9211 -0.2545
  550TMC3    C6 8214   2.604   3.154  11.893  0.0344  0.8272 -0.2126
  550TMC3     C 8215   2.904   2.993  11.649  0.1471 -0.7948 -0.1438
  550TMC3     O 8216   3.015   2.988  11.702  0.0230 -0.3826 -0.2587
  550TMC3     H 8217   2.931   3.072  11.895 -1.0020  0.8566  3.9201
  550TMC3    H1 8218   2.646   3.005  11.593  1.1170  0.1854 -0.1467
  550TMC3    H2 8219   2.527   3.196  11.956  0.4855 -0.6154  1.2874
  550TMC3    C7 8220   2.440   3.153  11.716 -0.6002  0.1917  0.0295
  550TMC3    C8 8221   2.775   3.237  12.039  0.3225  0.0428 -0.2176
  550TMC3    O1 8222   2.365   3.221  11.787 -0.3064 -0.8687  0.2551
  550TMC3    O2 8223   2.774   3.353  12.006 -0.3570  0.1087 -0.6996
  551TMC3    C1 8224   0.506   1.604  13.167 -0.4725  0.3960  0.0740
  551TMC3    C2 8225   0.605   1.597  13.072 -0.9651 -0.0902  0.2805
  551TMC3    C3 8226   0.726   1.649  13.095 -0.3983 -1.2826  0.3747
  551TMC3    C4 8227   0.517   1.678  13.282  0.0475 -0.1683  0.3974
  551TMC3    C5 8228   0.642   1.735  13.295 -0.7527  0.1888 -0.0063
  551TMC3    C6 8229   0.751   1.714  13.214 -0.0920  0.2304  0.1352
  551TMC3     C 8230   0.390   1.519  13.134 -0.4669 -0.3831 -0.1112
  551TMC3     O 8231   0.401   1.434  13.045 -0.6644 -0.3663  0.1696
  551TMC3     H 8232   0.575   1.564  12.973  0.1172  0.4693 -0.2285
  551TMC3    H1 8233   0.447   1.674  13.365  0.8255  0.3983  1.0894
  551TMC3    H2 8234   0.843   1.765  13.239  1.5046 -2.3931 -0.4872
  551TMC3    C7 8235   0.672   1.778  13.426 -0.0833 -0.2982 -1.0008
  551TMC3    C8 8236   0.799   1.696  12.981  0.4963  0.3200 -0.6325
  551TMC3    O1 8237   0.771   1.733  13.485  0.2043 -0.6660  0.0515
  551TMC3    O2 8238   0.785   1.633  12.877 -0.3241  0.3631 -0.5492
  552MPD2     C 8239   2.355   2.874  14.572  0.4397 -0.7259  0.0560
  552MPD2    C1 8240   2.400   2.893  14.446  0.0169 -0.1953 -0.2310
  552MPD2    C2 8241   2.535   2.933  14.435 -0.0630 -0.4429  0.5817
  552MPD2    C3 8242   2.615   2.950  14.549 -0.4380 -0.3807 -0.4036
  552MPD2    C4 8243   2.555   2.934  14.672  0.0206 -0.1582 -0.3686
  552MPD2    C5 8244   2.425   2.903  14.682 -0.8458 -0.2369  0.6488
  552MPD2     H 8245   2.586   2.955  14.342 -0.9297 -0.6645  0.0553
  552MPD2    H1 8246   2.602   2.954  14.768 -0.9761 -1.7201  0.4363
  552MPD2    H2 8247   2.249   2.859  14.591  0.5967 -1.3360  0.4416
  552MPD2    H3 8248   2.372   2.900  14.776 -0.8373 -0.6212  0.6389
  552MPD2     N 8249   2.746   3.002  14.550 -0.2047 -0.0652 -0.1977
  552MPD2    H5 8250   2.779   3.032  14.642 -0.1667 -0.6409 -0.0240
  552MPD2    N1 8251   2.316   2.883  14.331  0.0505  0.0223 -0.0062
  552MPD2    H7 8252   2.360   2.902  14.241  1.4317  1.8820  1.0700
  553TMC3    C1 8253   2.150   2.816  14.189 -0.1268  0.1906  0.5591
  553TMC3    C2 8254   2.163   2.929  14.100 -0.4965  0.3585 -0.2382
  553TMC3    C3 8255   2.176   2.889  13.970  0.6511  0.3091  0.1937
  553TMC3    C4 8256   2.160   2.685  14.147  0.1958 -0.7154  0.0076
  553TMC3    C5 8257   2.172   2.654  14.017  0.5843  0.8770  0.7229
  553TMC3    C6 8258   2.184   2.756  13.925 -0.6717 -0.5897 -0.4805
  553TMC3     C 8259   2.190   2.838  14.324 -0.4699 -0.8012 -0.1903
  553TMC3     O 8260   2.142   2.769  14.409  0.3863  0.6726 -0.1983
  553TMC3     H 8261   2.171   3.032  14.132 -0.5476 -0.2661  1.7598
  553TMC3    H1 8262   2.166   2.602  14.216  0.6357 -1.3153 -0.7518
  553TMC3    H2 8263   2.196   2.733  13.820 -0.7091  2.0221 -1.0467
  553TMC3    C7 8264   2.264   2.543  13.991  0.5295 -0.2052  0.5638
  553TMC3    C8 8265   2.153   2.989  13.864  0.8559  0.1738 -0.1717
  553TMC3    O1 8266   2.231   2.452  13.919  0.0224  0.6935 -0.3219
  553TMC3    O2 8267   2.079   3.086  13.901  0.1338  0.0994 -0.1698
  554TMC3    C1 8268   3.732   2.607  11.771  0.0018  0.4698  0.3227
  554TMC3    C2 8269   3.641   2.620  11.670  1.4044  0.9975  0.3009
  554TMC3    C3 8270   3.689   2.666  11.550  0.6032  0.1840  0.3802
  554TMC3    C4 8271   3.860   2.656  11.765  0.5828 -0.0471 -0.1485
  554TMC3    C5 8272   3.900   2.719  11.649 -0.0427  0.5384  0.1284
  554TMC3    C6 8273   3.817   2.718  11.538  0.4489 -0.7507 -0.5199
  554TMC3     C 8274   3.683   2.520  11.877 -0.3587 -0.4051  0.9107
  554TMC3     O 8275   3.568   2.492  11.883 -0.0975  0.8351 -0.4831
  554TMC3     H 8276   3.543   2.573  11.667  3.0703 -2.4986  1.5395
  554TMC3    H1 8277   3.940   2.638  11.836 -0.3110  0.7459  1.0802
  554TMC3    H2 8278   3.854   2.755  11.443  3.9350 -1.3696  0.6040
  554TMC3    C7 8279   4.039   2.704  11.612 -0.6869 -0.2009  0.2369
  554TMC3    C8 8280   3.633   2.616  11.430  0.2486  0.1503 -0.0731
  554TMC3    O1 8281   4.048   2.676  11.494  0.9852 -0.3553 -0.3406
  554TMC3    O2 8282   3.718   2.619  11.338  0.4659 -0.1204 -0.1499
  555TMC3    C1 8283   3.221   2.164  15.378 -0.4756 -0.1288  0.1800
  555TMC3    C2 8284   3.322   2.174  15.466  0.3851 -0.0888  0.1785
  555TMC3    C3 8285   3.401   2.066  15.493  0.0349  0.0054  0.4416
  555TMC3    C4 8286   3.187   2.043  15.319 -0.2144  0.8701  0.3817
  555TMC3    C5 8287   3.254   1.929  15.362  0.1542 -0.3670  0.1953
  555TMC3    C6 8288   3.359   1.939  15.450 -0.1299  0.1338  0.1504
  555TMC3     C 8289   3.192   2.288  15.312 -0.3861  1.0009  0.7081
  555TMC3     O 8290   3.252   2.390  15.350 -0.0432 -0.1640  0.1867
  555TMC3     H 8291   3.345   2.265  15.521 -1.0289  0.1406  0.3982
  555TMC3    H1 8292   3.111   2.027  15.244  1.3954 -1.0527 -0.8487
  555TMC3    H2 8293   3.417   1.848  15.460  0.2308  0.3922  0.3985
  555TMC3    C7 8294   3.244   1.791  15.304  0.2259  0.2763  0.0749
  555TMC3    C8 8295   3.543   2.093  15.522 -0.0552  0.9663 -0.2441
  555TMC3    O1 8296   3.276   1.703  15.380 -0.6457  0.1983 -0.6316
  555TMC3    O2 8297   3.570   2.211  15.514 -0.5946  0.1686  0.2981
  556MPD2     C 8298   0.695   3.843  10.898  0.7849  0.3951  0.4446
  556MPD2    C1 8299   0.819   3.805  10.949  0.0040 -0.2672  0.1778
  556MPD2    C2 8300   0.910   3.760  10.855  0.3929 -0.3628 -0.4143
  556MPD2    C3 8301   0.886   3.758  10.724  0.1547  0.2572 -0.5286
  556MPD2    C4 8302   0.771   3.811  10.675 -0.8188 -0.3035 -0.3498
  556MPD2    C5 8303   0.678   3.863  10.763  0.2327  0.8967 -0.4499
  556MPD2     H 8304   1.003   3.712  10.884  2.5768  3.9220 -0.3500
  556MPD2    H1 8305   0.744   3.833  10.572 -0.8161  1.8636  0.1116
  556MPD2    H2 8306   0.615   3.875  10.964 -0.7467 -0.9208 -0.7834
  556MPD2    H3 8307   0.586   3.907  10.727  0.2085  1.3193  0.1232
  556MPD2     N 8308   0.975   3.691  10.642  0.3063  0.0119 -0.3272
  556MPD2    H5 8309   1.063   3.663  10.683 -0.3627  0.0261  1.1451
  556MPD2    N1 8310   0.844   3.784  11.088 -0.6194 -0.0110  0.1316
  556MPD2    H7 8311   0.918   3.719  11.112  0.2593  0.8350 -0.3355
  557TMC3    C1 8312   1.030   3.567  10.451  0.1551  0.5381 -0.1053
  557TMC3    C2 8313   1.035   3.557  10.318  0.0733 -0.2539 -0.4336
  557TMC3    C3 8314   1.084   3.439  10.258  0.2558 -0.1502  0.4478
  557TMC3    C4 8315   1.093   3.479  10.536 -0.8867 -0.4493 -0.1222
  557TMC3    C5 8316   1.152   3.366  10.476  0.2084 -0.4196 -0.4270
  557TMC3    C6 8317   1.143   3.350  10.339  0.1685 -0.4606  0.0705
  557TMC3     C 8318   0.949   3.671  10.505 -0.0661 -0.1695 -0.2728
  557TMC3     O 8319   0.853   3.697  10.438  0.1296  0.2429  0.6997
  557TMC3     H 8320   0.979   3.627  10.257 -2.0908 -0.9950  0.7043
  557TMC3    H1 8321   1.099   3.490  10.644  4.0161  1.3287 -0.5425
  557TMC3    H2 8322   1.196   3.272  10.287 -0.0391 -0.8660  0.4645
  557TMC3    C7 8323   1.185   3.262  10.571  0.6913 -0.0387 -0.4241
  557TMC3    C8 8324   1.086   3.428  10.115  0.0728 -0.5079  0.4800
  557TMC3    O1 8325   1.126   3.267  10.678  0.1410 -0.2522 -0.5688
  557TMC3    O2 8326   1.078   3.530  10.053  0.5628  0.0141  0.5559
  558TMC3    C1 8327   3.530   1.410  10.330 -0.1956 -0.4561 -0.2251
  558TMC3    C2 8328   3.468   1.351  10.435 -0.0200  0.6618 -0.3037
  558TMC3    C3 8329   3.358   1.411  10.488  0.4373 -0.1704  0.0611
  558TMC3    C4 8330   3.466   1.520  10.271 -0.1573 -0.4099  0.5892
  558TMC3    C5 8331   3.343   1.563  10.312  0.2395 -0.3274  0.2504
  558TMC3    C6 8332   3.284   1.506  10.419 -0.1643 -0.2694  0.3971
  558TMC3     C 8333   3.669   1.378  10.303  0.1090  0.4502  0.7273
  558TMC3     O 8334   3.734   1.474  10.266 -0.6072  0.0176  0.2566
  558TMC3     H 8335   3.504   1.264  10.489  0.3358  1.7405  1.1996
  558TMC3    H1 8336   3.521   1.567  10.191  0.0551  0.1612  1.0688
  558TMC3    H2 8337   3.201   1.538  10.480  1.5376  3.0623  0.9294
  558TMC3    C7 8338   3.273   1.648  10.221 -0.3839 -0.3356  0.5722
  558TMC3    C8 8339   3.264   1.328  10.565 -0.4264  0.1816  0.3821
  558TMC3    O1 8340   3.334   1.710  10.138  0.5391  0.2726 -0.1330
  558TMC3    O2 8341   3.153   1.320  10.521 -0.1597  0.3307  0.0341
  559MPD2     C 8342   3.458   2.124  10.915 -0.0857  0.0672 -0.5686
  559MPD2    C1 8343   3.403   2.036  11.001 -0.1337  0.1565  0.0065
  559MPD2    C2 8344   3.483   1.981  11.103 -0.6483  0.0641 -0.4386
  559MPD2    C3 8345   3.614   2.007  11.107  0.0688  0.5931  0.1361
  559MPD2    C4 8346   3.669   2.098  11.016  0.0747  0.1232 -0.4054
  559MPD2    C5 8347   3.593   2.154  10.917  0.9148  0.5667  1.0865
  559MPD2     H 8348   3.443   1.917  11.180  0.0477 -1.2732 -1.1905
  559MPD2    H1 8349   3.773   2.124  11.002  0.3836 -0.2832  1.0757
  559MPD2    H2 8350   3.394   2.176  10.845  0.7145 -1.0355 -2.1219
  559MPD2    H3 8351   3.639   2.227  10.851  0.1883  0.2313  0.2028
  559MPD2     N 8352   3.685   1.948  11.210 -0.0015 -0.2263  0.0876
  559MPD2    H5 8353   3.641   1.874  11.264 -0.4795  0.1377  0.1971
  559MPD2    N1 8354   3.262   2.026  10.990  0.2613 -0.1918  0.0671
  559MPD2    H7 8355   3.217   2.073  10.913 -1.1022 -0.2648  0.8072
  560TMC3    C1 8356   3.869   1.889  11.349  0.5030 -0.0938  0.3614
  560TMC3    C2 8357   3.822   1.773  11.385  0.6912  0.6408  0.1468
  560TMC3    C3 8358   3.890   1.707  11.488  0.1947  0.5513  1.0513
  560TMC3    C4 8359   3.977   1.951  11.408 -0.1794  0.0530 -0.2742
  560TMC3    C5 8360   4.043   1.886  11.510 -0.0391  0.4096 -0.5929
  560TMC3    C6 8361   4.005   1.757  11.543 -1.1745  0.2814 -0.3781
  560TMC3     C 8362   3.819   1.968  11.233  0.8566  0.1800  0.0587
  560TMC3     O 8363   3.890   2.059  11.193  0.2560 -0.3153  0.2738
  560TMC3     H 8364   3.737   1.726  11.337 -0.8972  3.6920 -0.0693
  560TMC3    H1 8365   4.009   2.053  11.391  0.8028 -0.6213 -2.5176
  560TMC3    H2 8366   4.049   1.714  11.633 -1.6299 -2.3255 -1.4088
  560TMC3    C7 8367   4.150   1.955  11.584 -0.5114  0.1516  0.3369
  560TMC3    C8 8368   3.875   1.562  11.485  0.2113 -0.1727 -0.2113
  560TMC3    O1 8369   4.155   1.937  11.702 -0.4043  0.6034 -0.2188
  560TMC3    O2 8370   3.790   1.524  11.406  0.3489 -0.0197 -0.3788
  561TMC3    C1 8371   1.677   1.235  11.838 -0.3644 -0.0585  0.1722
  561TMC3    C2 8372   1.583   1.179  11.919  0.5074 -0.2655  0.1910
  561TMC3    C3 8373   1.462   1.237  11.941  0.0450 -0.0373 -0.0650
  561TMC3    C4 8374   1.649   1.348  11.771  1.0640  0.3747  0.5154
  561TMC3    C5 8375   1.532   1.411  11.799 -0.4769  0.1919 -0.1214
  561TMC3    C6 8376   1.433   1.361  11.881  0.6590  0.2921  0.5600
  561TMC3     C 8377   1.799   1.157  11.821 -0.1549 -0.1270  0.0098
  561TMC3     O 8378   1.815   1.084  11.917  0.2786  0.1855  0.3227
  561TMC3     H 8379   1.613   1.087  11.969  0.8686 -1.0608 -1.4852
  561TMC3    H1 8380   1.735   1.397  11.727 -0.4595 -0.6580 -3.5467
  561TMC3    H2 8381   1.338   1.412  11.892 -1.0545 -3.3013  2.3881
  561TMC3    C7 8382   1.499   1.518  11.710  0.2756  0.2124  0.4277
  561TMC3    C8 8383   1.378   1.186  12.042 -0.3637  0.5354 -0.3229
  561TMC3    O1 8384   1.383   1.556  11.722  0.4766  0.5735 -0.4272
  561TMC3    O2 8385   1.419   1.083  12.097  0.2014  0.3738 -0.8396
  562TMC3    C1 8386   4.009   1.990  16.162 -0.3008  0.0603  0.3544
  562TMC3    C2 8387   4.048   2.079  16.061 -0.4460  0.2027  0.6565
  562TMC3    C3 8388   3.959   2.105  15.958  0.5006 -0.7657 -0.5152
  562TMC3    C4 8389   3.886   1.925  16.143 -0.0858  0.0459 -0.0069
  562TMC3    C5 8390   3.811   1.942  16.024  0.5407 -0.5566 -0.3449
  562TMC3    C6 8391   3.837   2.047  15.939 -0.7386  0.6086 -0.1220
  562TMC3     C 8392   4.082   1.998  16.292  0.2980 -0.7535 -0.2156
  562TMC3     O 8393   4.100   1.889  16.343  0.2183 -0.6983  0.1666
  562TMC3     H 8394   4.148   2.121  16.063 -0.3975  0.1364 -0.6472
  562TMC3    H1 8395   3.846   1.852  16.212 -0.8332  1.0776  0.6675
  562TMC3    H2 8396   3.791   2.054  15.841 -0.0824  0.2658 -0.4500
  562TMC3    C7 8397   3.679   1.893  16.018  0.1528 -0.1822  0.3717
  562TMC3    C8 8398   3.990   2.233  15.886  0.8900  0.2982 -0.0369
  562TMC3    O1 8399   3.613   1.958  15.940 -0.3273  0.4625  0.4389
  562TMC3    O2 8400   4.099   2.284  15.915  0.3806 -0.0494 -0.0243
  563MPD2     C 8401   1.220   3.414  15.591  0.7849 -0.3771  0.3475
  563MPD2    C1 8402   1.240   3.537  15.647 -0.3998  0.5037  0.3888
  563MPD2    C2 8403   1.294   3.556  15.769  0.0214  0.3877  0.5879
  563MPD2    C3 8404   1.350   3.446  15.832 -0.6199  0.0402  0.0085
  563MPD2    C4 8405   1.341   3.318  15.781 -0.0876 -0.9791  0.7527
  563MPD2    C5 8406   1.268   3.307  15.661  1.3239  0.3682 -0.4563
  563MPD2     H 8407   1.308   3.653  15.815  0.8217  0.7948 -0.5231
  563MPD2    H1 8408   1.352   3.232  15.846 -0.8681  2.0985  4.9681
  563MPD2    H2 8409   1.181   3.399  15.491  0.9044  1.0318  0.0959
  563MPD2    H3 8410   1.256   3.213  15.609  4.2202 -1.2961  1.9355
  563MPD2     N 8411   1.419   3.477  15.951  0.9762  0.0400  0.6157
  563MPD2    H5 8412   1.416   3.573  15.983 -0.2752 -0.0939  0.8786
  563MPD2    N1 8413   1.160   3.640  15.585 -0.2356  0.8491 -0.6579
  563MPD2    H7 8414   1.102   3.611  15.508 -0.0694 -4.6103  1.3218
  564TMC3    C1 8415   1.013   3.742  15.716  1.3141  0.0590  0.3047
  564TMC3    C2 8416   0.930   3.642  15.674 -0.1092  0.0508 -0.5807
  564TMC3    C3 8417   0.849   3.576  15.761 -0.9303  0.2971 -0.0521
  564TMC3    C4 8418   1.031   3.757  15.852 -0.5546  0.7898  0.1734
  564TMC3    C5 8419   0.952   3.685  15.942  0.5167  0.3729 -0.5088
  564TMC3    C6 8420   0.847   3.612  15.895 -0.0319  0.4175 -0.2591
  564TMC3     C 8421   1.132   3.762  15.637  0.2160 -0.0027 -0.8451
  564TMC3     O 8422   1.213   3.839  15.684 -0.5582  0.0231 -0.2677
  564TMC3     H 8423   0.909   3.635  15.568  0.1747 -0.5572 -0.5973
  564TMC3    H1 8424   1.120   3.807  15.890  0.6613 -1.0517 -0.2274
  564TMC3    H2 8425   0.772   3.572  15.962  1.6014 -1.7534  0.2700
  564TMC3    C7 8426   1.031   3.601  16.034 -0.0990  0.4378  0.2436
  564TMC3    C8 8427   0.820   3.437  15.739  0.1713 -0.1933 -0.1012
  564TMC3    O1 8428   1.128   3.646  16.092  0.5010  0.3822  0.5929
  564TMC3    O2 8429   0.805   3.373  15.842 -0.6704 -0.3875  0.6063
  565TMC3    C1 8430   1.760   0.174  10.518  0.4479 -0.8423  0.6393
  565TMC3    C2 8431   1.717   0.258  10.622 -0.7842 -0.7651 -0.1897
  565TMC3    C3 8432   1.700   0.206  10.751  0.0598  0.1759 -0.2309
  565TMC3    C4 8433   1.795   0.044  10.543  0.0634  0.5066 -0.2885
  565TMC3    C5 8434   1.764   4.735  10.666  0.5246  0.4590  0.4266
  565TMC3    C6 8435   1.718   0.073  10.772  0.1356 -0.2951 -0.1148
  565TMC3     C 8436   1.787   0.235  10.384  0.1120 -0.1779 -0.7474
  565TMC3     O 8437   1.790   0.157  10.291  0.4374 -0.4561  0.4105
  565TMC3     H 8438   1.690   0.359  10.593 -0.2482 -0.4402  0.4176
  565TMC3    H1 8439   1.830   4.717  10.463  0.9421  0.3404  0.2330
  565TMC3    H2 8440   1.738   0.032  10.870 -0.6913 -2.1644 -0.7372
  565TMC3    C7 8441   1.845   4.617  10.692 -0.0004  0.8545  1.2168
  565TMC3    C8 8442   1.666   0.280  10.868  0.2025 -0.3624 -0.0437
  565TMC3    O1 8443   1.955   4.608  10.641  0.5745  0.1497 -0.3939
  565TMC3    O2 8444   1.609   0.220  10.961 -0.0883  0.2898 -0.2018
  566MPD2     C 8445   3.018   1.659  13.988 -0.3023  0.2938  0.2056
  566MPD2    C1 8446   3.028   1.710  13.862 -0.5619 -0.3718  0.5979
  566MPD2    C2 8447   2.997   1.628  13.752 -0.2411 -0.0822 -0.1000
  566MPD2    C3 8448   2.948   1.499  13.783 -0.2649 -0.0924 -0.0437
  566MPD2    C4 8449   2.964   1.447  13.909  0.2469  0.3159 -0.5442
  566MPD2    C5 8450   3.000   1.523  14.012  0.1240  0.3398 -0.3709
  566MPD2     H 8451   3.011   1.653  13.647  0.5212 -0.8764 -0.1870
  566MPD2    H1 8452   2.954   1.340  13.924 -3.4109  0.5023 -1.7724
  566MPD2    H2 8453   3.019   1.711  14.083 -0.9303 -1.2656  1.0820
  566MPD2    H3 8454   3.006   1.491  14.116 -1.0582  1.1276 -0.0716
  566MPD2     N 8455   2.887   1.416  13.682 -0.2216 -0.1439  0.0088
  566MPD2    H5 8456   2.869   1.318  13.703  0.4939 -1.0243 -3.4960
  566MPD2    N1 8457   3.061   1.844  13.855 -0.1061 -0.0480 -0.5870
  566MPD2    H7 8458   3.089   1.891  13.941  1.4093 -1.0631 -0.5089
  567TMC3    C1 8459   3.046   2.063  13.768 -0.6170  0.4516  0.1797
  567TMC3    C2 8460   3.022   2.143  13.657  0.4780 -0.0946 -0.4427
  567TMC3    C3 8461   3.040   2.278  13.682 -1.0221 -0.5368 -0.4288
  567TMC3    C4 8462   3.079   2.108  13.895 -0.2755  0.4144  0.1064
  567TMC3    C5 8463   3.111   2.243  13.913 -0.3398 -0.8490 -0.4519
  567TMC3    C6 8464   3.089   2.324  13.806  0.8729  0.0076 -0.0130
  567TMC3     C 8465   3.053   1.925  13.740  0.0764 -0.3220 -0.6538
  567TMC3     O 8466   3.000   1.889  13.636  0.5946  0.1619 -0.3511
  567TMC3     H 8467   2.997   2.106  13.558 -1.3110  1.0521 -0.3956
  567TMC3    H1 8468   3.118   2.046  13.975 -3.1161 -0.4665  0.7982
  567TMC3    H2 8469   3.075   2.431  13.817  0.9533 -0.0784  0.9784
  567TMC3    C7 8470   3.140   2.300  14.042  0.0042  0.1164 -0.4078
  567TMC3    C8 8471   2.973   2.369  13.585  0.5536 -0.0266 -0.0312
  567TMC3    O1 8472   3.178   2.414  14.047  0.2339  0.7710 -0.2097
  567TMC3    O2 8473   3.020   2.478  13.572 -0.1241 -0.8277  0.1036
  568MPD2     C 8474   0.517   1.992  16.133  0.4224 -0.0422  1.2207
  568MPD2    C1 8475   0.602   2.102  16.151 -1.0901 -0.4284 -0.7241
  568MPD2    C2 8476   0.636   2.184  16.044 -0.0112 -0.3006 -0.1096
  568MPD2    C3 8477   0.580   2.159  15.920 -0.1466  0.3508 -0.0349
  568MPD2    C4 8478   0.491   2.059  15.914 -0.1397 -0.5371  0.2051
  568MPD2    C5 8479   0.464   1.964  16.013  0.4339  0.0066  0.2735
  568MPD2     H 8480   0.696   2.274  16.051 -1.3118  0.4544  1.3548
  568MPD2    H1 8481   0.435   2.048  15.821  2.0436  0.3490 -1.1989
  568MPD2    H2 8482   0.488   1.928  16.216 -0.7047  0.9184  1.5726
  568MPD2    H3 8483   0.396   1.880  16.001  0.4759 -0.2557  1.9656
  568MPD2     N 8484   0.572   2.266  15.827  0.4039 -0.5242 -0.0172
  568MPD2    H5 8485   0.489   2.289  15.772 -1.5965 -0.6333  2.9546
  568MPD2    N1 8486   0.634   2.129  16.291  0.3808  0.3214 -0.2594
  568MPD2    H7 8487   0.585   2.064  16.352  2.4132 -0.2974  0.7176
  569TMC3    C1 8488   0.626   2.477  15.791 -0.8544  0.0986  0.1033
  569TMC3    C2 8489   0.558   2.527  15.886 -0.7538  0.3349 -0.3961
  569TMC3    C3 8490   0.542   2.664  15.887  0.9282  0.4725  0.3177
  569TMC3    C4 8491   0.701   2.558  15.706  0.5905  0.5759 -0.2089
  569TMC3    C5 8492   0.692   2.691  15.713 -0.0919 -0.5378 -0.3904
  569TMC3    C6 8493   0.603   2.745  15.802 -0.1433  0.2631  0.3759
  569TMC3     C 8494   0.678   2.345  15.813  0.0025 -0.5210 -0.3971
  569TMC3     O 8495   0.795   2.333  15.853  0.4839 -0.9735 -0.0845
  569TMC3     H 8496   0.494   2.460  15.942 -3.9105  2.3429 -1.5857
  569TMC3    H1 8497   0.754   2.517  15.621  0.6110 -0.3086  0.2305
  569TMC3    H2 8498   0.583   2.851  15.813 -0.9449  0.0019  1.4309
  569TMC3    C7 8499   0.769   2.784  15.627 -0.4139 -0.1571  0.4731
  569TMC3    C8 8500   0.478   2.710  16.007 -0.0395  0.9258 -0.1810
  569TMC3    O1 8501   0.813   2.719  15.532  0.1731 -0.3006  0.4180
  569TMC3    O2 8502   0.416   2.631  16.074 -0.2747  0.2923 -0.6357
  570TMC3    C1 8503   4.417   0.948  15.584  1.2209  0.2345  0.1670
  570TMC3    C2 8504   4.490   0.903  15.479  0.3363  0.8890  0.6260
  570TMC3    C3 8505   4.582   0.982  15.421  0.2800  0.5194  0.2958
  570TMC3    C4 8506   4.434   1.080  15.628  0.4516 -0.6286  0.8293
  570TMC3    C5 8507   4.510   1.162  15.553 -0.4134 -0.5157 -0.0943
  570TMC3    C6 8508   4.583   1.119  15.446 -0.0927  0.5796  0.7697
  570TMC3     C 8509   4.311   0.862  15.632  0.2478 -0.5246  0.2719
  570TMC3     O 8510   4.267   0.764  15.572  0.6219 -0.5695  0.6003
  570TMC3     H 8511   4.487   0.797  15.457 -0.4480  1.2321 -0.9104
  570TMC3    H1 8512   4.375   1.128  15.705  0.1693 -1.9625  1.4314
  570TMC3    H2 8513   4.648   1.186  15.390  1.1270  0.2957  1.8499
  570TMC3    C7 8514   4.516   1.308  15.587 -0.8311  0.9351 -0.5295
  570TMC3    C8 8515   4.689   0.924  15.334  0.0359 -0.1565  0.2585
  570TMC3    O1 8516   4.548   1.334  15.702  0.3241  0.0533  0.0863
  570TMC3    O2 8517   4.674   0.817  15.274  0.4820 -0.2111 -0.1575
  571MPD2     C 8518   2.309   3.072   0.711  0.0365  0.1493  0.6758
  571MPD2    C1 8519   2.360   3.106   0.585 -0.2851 -1.0293  0.0303
  571MPD2    C2 8520   2.410   3.234   0.577 -1.0985  0.1690 -0.7727
  571MPD2    C3 8521   2.402   3.331   0.673  0.6103  0.1969 -0.3536
  571MPD2    C4 8522   2.351   3.295   0.795 -0.2645  0.1136  0.3279
  571MPD2    C5 8523   2.300   3.169   0.810 -0.1080 -0.2919  0.0914
  571MPD2     H 8524   2.461   3.268   0.487  1.1917  1.5463  1.0511
  571MPD2    H1 8525   2.341   3.376   0.866  0.2109  0.1304  0.3705
  571MPD2    H2 8526   2.267   2.974   0.726 -0.5005  0.4198  0.9297
  571MPD2    H3 8527   2.253   3.144   0.904 -1.0701  2.3753  0.3226
  571MPD2     N 8528   2.468   3.451   0.665  0.1398 -0.1404  0.1483
  571MPD2    H5 8529   2.478   3.506   0.749 -3.0097  0.3284  0.1955
  571MPD2    N1 8530   2.369   3.007   0.491 -0.3290  0.0911  0.5788
  571MPD2    H7 8531   2.336   2.914   0.513 -1.1447  0.4478  0.8654
  572TMC3    C1 8532   2.604   3.619   0.595  0.4774  0.0115 -0.4109
  572TMC3    C2 8533   2.686   3.597   0.705 -0.5828 -0.4184 -0.1331
  572TMC3    C3 8534   2.808   3.658   0.713  0.5310  0.1053 -0.1702
  572TMC3    C4 8535   2.634   3.727   0.507 -0.0943 -0.0528 -0.1878
  572TMC3    C5 8536   2.753   3.788   0.525 -0.1867  0.2071  0.4631
  572TMC3    C6 8537   2.839   3.757   0.629 -0.2792 -0.3123  0.2547
  572TMC3     C 8538   2.518   3.519   0.560  0.2114  0.1512  0.1554
  572TMC3     O 8539   2.503   3.502   0.442  0.1834  0.1365 -1.0200
  572TMC3     H 8540   2.689   3.504   0.760  1.1757 -0.1657  0.2126
  572TMC3    H1 8541   2.566   3.767   0.432 -0.3891 -0.0846  0.0608
  572TMC3    H2 8542   2.932   3.813   0.640  0.7432 -1.8545 -0.5933
  572TMC3    C7 8543   2.766   3.903   0.435  0.0323  0.1149 -0.1087
  572TMC3    C8 8544   2.870   3.672   0.848 -0.0357  0.4651  0.4705
  572TMC3    O1 8545   2.658   3.955   0.411  0.1470  0.2760  0.2548
  572TMC3    O2 8546   2.983   3.714   0.859  0.0390  0.1792  0.3504
  573MPD2     C 8547   4.477   4.236   0.305 -0.4118 -0.5955  0.1068
  573MPD2    C1 8548   4.361   4.215   0.379 -0.1712 -0.2688  0.1983
  573MPD2    C2 8549   4.254   4.160   0.309 -0.4323  0.5703 -0.2658
  573MPD2    C3 8550   4.256   4.117   0.174  0.5545  0.1838 -0.4776
  573MPD2    C4 8551   4.382   4.128   0.114  0.7415 -0.7782  0.5656
  573MPD2    C5 8552   4.485   4.187   0.177  1.2602  0.6947  0.6631
  573MPD2     H 8553   4.167   4.130   0.367 -0.3523 -0.8863 -0.9258
  573MPD2    H1 8554   4.387   4.094   0.011  0.6261 -1.6215  0.8424
  573MPD2    H2 8555   4.568   4.278   0.346  0.3922 -0.8842 -1.3807
  573MPD2    H3 8556   4.574   4.201   0.115  0.2274  1.1566 -0.7102
  573MPD2     N 8557   4.158   4.042   0.113  0.3099  0.0787 -0.6097
  573MPD2    H5 8558   4.180   3.987   0.030 -1.5965  0.0063 -1.0803
  573MPD2    N1 8559   4.351   4.262   0.512  0.6434  0.1450  0.2096
  573MPD2    H7 8560   4.443   4.279   0.553  0.1787  0.6075  1.0396
  574TMC3    C1 8561   3.942   3.979   0.055 -0.2940 -0.0608  0.5978
  574TMC3    C2 8562   3.810   3.989   0.097  0.8006 -0.2677 -0.3803
  574TMC3    C3 8563   3.716   4.007  17.746  0.6101  1.1111 -0.0642
  574TMC3    C4 8564   3.973   3.965  17.672 -0.6227 -0.3475 -1.0353
  574TMC3    C5 8565   3.876   3.989  17.576  0.4026 -0.5383 -0.3405
  574TMC3    C6 8566   3.746   3.995  17.609  0.1732  0.2272  0.5159
  574TMC3     C 8567   4.029   4.052   0.146 -0.3768 -0.2220 -0.8295
  574TMC3     O 8568   3.980   4.133   0.224  0.0648 -0.3450 -0.4780
  574TMC3     H 8569   3.787   4.018   0.199 -1.7413  1.0985 -1.3459
  574TMC3    H1 8570   4.075   3.959  17.637 -0.7687  0.9164 -1.7082
  574TMC3    H2 8571   3.667   3.971  17.539 -0.7026 -0.9161  1.8760
  574TMC3    C7 8572   3.921   4.008  17.440 -0.2559 -0.0145  0.3364
  574TMC3    C8 8573   3.581   4.034   0.035  0.1159  0.3345  0.4692
  574TMC3    O1 8574   4.032   3.967  17.420 -0.1181 -0.1689 -0.3948
  574TMC3    O2 8575   3.569   4.021   0.155  0.0406  0.0975 -0.1760
  575TMC3    C1 8576   1.369   0.645  11.632 -0.3738  0.4032 -0.2262
  575TMC3    C2 8577   1.426   0.589  11.739  0.8896  0.1137 -0.1384
  575TMC3    C3 8578   1.547   0.536  11.723 -0.2123  0.0882 -0.5091
  575TMC3    C4 8579   1.423   0.643  11.509 -0.1204  0.0978 -0.2967
  575TMC3    C5 8580   1.545   0.571  11.493  0.4115 -0.3634 -0.2929
  575TMC3    C6 8581   1.604   0.516  11.600 -0.2020 -0.2822  0.6423
  575TMC3     C 8582   1.224   0.675  11.648  0.0544 -0.0897 -0.5265
  575TMC3     O 8583   1.169   0.630  11.751 -0.6897 -0.5410  0.2703
  575TMC3     H 8584   1.386   0.600  11.840  2.8886  2.0667  0.4492
  575TMC3    H1 8585   1.365   0.667  11.421 -1.7237  0.1637  0.7693
  575TMC3    H2 8586   1.699   0.468  11.581  0.1981  0.9879 -0.5447
  575TMC3    C7 8587   1.598   0.547  11.357 -0.4851  0.3481  0.9142
  575TMC3    C8 8588   1.605   0.452  11.832  0.3806 -0.3229  0.3543
  575TMC3    O1 8589   1.698   0.481  11.340 -0.0248  0.1317  0.1375
  575TMC3    O2 8590   1.539   0.470  11.934  0.0832 -0.1572 -0.3893
  576MPD2     C 8591   0.363   1.735  12.787  0.4537  0.1009 -0.0998
  576MPD2    C1 8592   0.472   1.788  12.728  0.4646  0.3659  0.4827
  576MPD2    C2 8593   0.541   1.888  12.787  0.8687 -0.0802  0.1288
  576MPD2    C3 8594   0.512   1.938  12.907  0.4183 -0.3938  0.0504
  576MPD2    C4 8595   0.405   1.879  12.972 -0.2600 -0.6421 -0.3252
  576MPD2    C5 8596   0.330   1.789  12.906  0.3210  0.6368  0.8464
  576MPD2     H 8597   0.633   1.920  12.740 -0.1359  0.8535 -1.2088
  576MPD2    H1 8598   0.380   1.907  13.073 -0.7248  0.3610 -0.7184
  576MPD2    H2 8599   0.295   1.662  12.743  1.4963 -1.2194  0.4797
  576MPD2    H3 8600   0.240   1.751  12.953  1.5902 -1.1648  1.7992
  576MPD2     N 8601   0.593   2.044  12.954 -0.0376 -0.0520 -0.1446
  576MPD2    H5 8602   0.673   2.076  12.901  1.5774 -2.9743  0.5596
  576MPD2    N1 8603   0.519   1.750  12.603  0.3923  0.1173 -0.3433
  576MPD2    H7 8604   0.586   1.811  12.557  0.9633 -0.8489 -0.7923
  577TMC3    C1 8605   0.544   1.595  12.424  0.8801 -0.4652 -0.5552
  577TMC3    C2 8606   0.563   1.461  12.407 -0.4611 -0.8612  0.0191
  577TMC3    C3 8607   0.607   1.426  12.285 -0.0546 -0.3352  0.1345
  577TMC3    C4 8608   0.574   1.686  12.323  0.8208 -0.2468  0.2209
  577TMC3    C5 8609   0.611   1.638  12.201 -0.2849 -0.0450  0.1692
  577TMC3    C6 8610   0.628   1.504  12.181 -0.8529 -0.5638 -0.2663
  577TMC3     C 8611   0.478   1.627  12.547 -0.1261 -0.1613  0.3537
  577TMC3     O 8612   0.423   1.534  12.599 -1.1595  0.2253  0.2291
  577TMC3     H 8613   0.551   1.389  12.487 -0.4615 -1.5664 -0.6131
  577TMC3    H1 8614   0.557   1.793  12.326 -2.2203 -0.7345  0.3914
  577TMC3    H2 8615   0.669   1.478  12.085 -1.7929 -1.4533 -0.4283
  577TMC3    C7 8616   0.612   1.725  12.089 -0.5260  0.1758 -0.2970
  577TMC3    C8 8617   0.694   1.304  12.286 -0.2383 -0.1414  0.2568
  577TMC3    O1 8618   0.643   1.842  12.097  0.6337  0.3537 -0.2933
  577TMC3    O2 8619   0.675   1.222  12.376  0.0171  0.1003 -0.2637
  578MPD2     C 8620   4.012   1.706   0.715 -0.9204 -0.4417  0.0599
  578MPD2    C1 8621   4.032   1.598   0.629 -0.1095 -0.1910 -0.4634
  578MPD2    C2 8622   4.127   1.504   0.665  0.0000  0.7948 -0.1617
  578MPD2    C3 8623   4.190   1.503   0.785  0.4073  0.5435  0.0959
  578MPD2    C4 8624   4.149   1.604   0.873 -0.0927  0.1273 -0.1373
  578MPD2    C5 8625   4.062   1.705   0.840 -0.1350 -0.5958 -0.7442
  578MPD2     H 8626   4.167   1.431   0.595  0.3499  1.9444 -1.1730
  578MPD2    H1 8627   4.183   1.615   0.975  2.9107  2.3481 -1.3693
  578MPD2    H2 8628   3.944   1.790   0.703  0.6676  0.6815 -0.9697
  578MPD2    H3 8629   4.037   1.778   0.916  0.2895 -1.4215  0.1821
  578MPD2     N 8630   4.277   1.408   0.817  0.2408  0.3118 -0.2633
  578MPD2    H5 8631   4.306   1.360   0.732 -0.0940  0.1902 -0.3082
  578MPD2    N1 8632   3.978   1.614   0.498  0.0737 -0.2856 -0.2673
  578MPD2    H7 8633   3.916   1.693   0.488  1.6861  0.9670 -0.2105
  579TMC3    C1 8634   4.455   1.290   0.942 -0.1001 -0.2852 -0.3392
  579TMC3    C2 8635   4.559   1.304   1.028  0.1534 -0.2837 -0.0478
  579TMC3    C3 8636   4.676   1.229   1.004  0.6648  0.2539  0.5794
  579TMC3    C4 8637   4.462   1.191   0.842 -0.6576 -0.8057  0.2059
  579TMC3    C5 8638   4.580   1.117   0.829  0.2937 -0.2121 -0.2601
  579TMC3    C6 8639   4.690   1.141   0.903  0.6699  0.0897  0.5223
  579TMC3     C 8640   4.354   1.400   0.931  0.3992 -0.6812  0.4699
  579TMC3     O 8641   4.337   1.461   1.036 -0.1255 -0.4426 -0.3912
  579TMC3     H 8642   4.557   1.381   1.103  1.1581 -0.3267  0.0192
  579TMC3    H1 8643   4.371   1.178   0.784 -1.8645  0.9963  1.6887
  579TMC3    H2 8644   0.039   1.078   0.885 -0.4133 -1.3180  0.2594
  579TMC3    C7 8645   4.591   1.010   0.728 -0.4342 -0.6310  0.0277
  579TMC3    C8 8646   0.048   1.259   1.088 -0.4631  0.4324  0.3645
  579TMC3    O1 8647   4.690   0.940   0.745 -0.2141  0.1702  0.0397
  579TMC3    O2 8648   0.031   1.318   1.200 -0.5646  0.4326 -0.2700
  580TMC3    C1 8649   3.261   0.552  12.353 -0.2161 -0.4722  0.3807
  580TMC3    C2 8650   3.332   0.651  12.411  0.1845  0.2081 -0.0707
  580TMC3    C3 8651   3.458   0.607  12.454 -0.4749  0.0479 -0.2212
  580TMC3    C4 8652   3.280   0.417  12.366  0.3173  0.7393 -0.2618
  580TMC3    C5 8653   3.403   0.378  12.407 -0.2176 -0.0049 -0.7830
  580TMC3    C6 8654   3.498   0.475  12.442  0.4118 -0.1979  0.5498
  580TMC3     C 8655   3.203   0.594  12.229  0.3433  0.3704  0.7034
  580TMC3     O 8656   3.264   0.574  12.128  0.0184 -0.5130 -0.3322
  580TMC3     H 8657   3.313   0.757  12.397 -0.4179  0.2480  1.0128
  580TMC3    H1 8658   3.226   0.338  12.317 -0.2050  0.1355  1.3085
  580TMC3    H2 8659   3.592   0.433  12.477 -0.0474 -0.7117  1.1731
  580TMC3    C7 8660   3.444   0.240  12.390 -0.3542 -0.1619 -0.2329
  580TMC3    C8 8661   3.562   0.708  12.438 -0.2352 -0.0808  0.3569
  580TMC3    O1 8662   3.556   0.231  12.344 -0.6799  0.5233  0.6304
  580TMC3    O2 8663   3.551   0.818  12.501  0.7888  0.4412 -0.2988
  581MPD2     C 8664   1.758   4.700  14.457 -0.2042 -0.3475  1.1982
  581MPD2    C1 8665   1.644   4.695  14.532 -0.2197 -0.0805 -0.2035
  581MPD2    C2 8666   1.531   0.030  14.497  0.1514  0.1815  0.6995
  581MPD2    C3 8667   1.529   0.113  14.388 -0.3763 -0.1690 -0.2224
  581MPD2    C4 8668   1.641   0.111  14.306 -0.3285  0.5323  0.7156
  581MPD2    C5 8669   1.754   0.038  14.346 -0.5835  0.0055 -0.2093
  581MPD2     H 8670   1.439   0.025  14.554  0.2626 -0.8834  0.7840
  581MPD2    H1 8671   1.649   0.164  14.212 -0.6245 -0.0268  0.3782
  581MPD2    H2 8672   1.853   4.655  14.482 -1.0859 -1.6500  2.1836
  581MPD2    H3 8673   1.839   0.037  14.279 -1.1243  0.9984 -0.9104
  581MPD2     N 8674   1.417   0.183  14.347 -0.5992  0.1590  0.0329
  581MPD2    H5 8675   1.333   0.173  14.402  0.9506  2.2057  2.7569
  581MPD2    N1 8676   1.655   4.613  14.650 -0.2179 -0.5557  0.3524
  581MPD2    H7 8677   1.739   4.557  14.659 -0.1271 -0.6005 -0.7550
  582TMC3    C1 8678   1.598   4.508  14.853 -0.2948 -0.3142  0.6263
  582TMC3    C2 8679   1.720   4.524  14.912  0.3490  0.9655  1.0504
  582TMC3    C3 8680   1.729   4.501  15.047 -0.0788  1.5727  1.1546
  582TMC3    C4 8681   1.499   4.462  14.932  0.3338  0.6011  0.1238
  582TMC3    C5 8682   1.506   4.451  15.065  0.3520 -0.6704  0.2204
  582TMC3    C6 8683   1.623   4.470  15.128  0.5028 -0.9990  0.1684
  582TMC3     C 8684   1.563   4.606  14.756 -0.2541  0.9421  0.0846
  582TMC3     O 8685   1.454   4.656  14.776 -0.5768 -0.1444 -0.1654
  582TMC3     H 8686   1.809   4.557  14.859  0.6284  0.5852  1.2852
  582TMC3    H1 8687   1.397   4.450  14.898 -0.2007 -0.7510  2.2243
  582TMC3    H2 8688   1.620   4.454  15.235  1.2214 -2.4439 -0.0350
  582TMC3    C7 8689   1.385   4.487  15.131  0.3181 -0.1640 -0.5450
  582TMC3    C8 8690   1.846   4.548  15.113 -0.3654  1.2609  0.0268
  582TMC3    O1 8691   1.310   4.395  15.158  0.5545 -0.5672 -0.5768
  582TMC3    O2 8692   1.958   4.508  15.081  0.5176 -0.3394  0.0060
  583MPD2     C 8693   1.558   2.145  16.481 -0.4596  0.2363  0.0832
  583MPD2    C1 8694   1.677   2.206  16.468  0.4393 -0.2400 -0.2270
  583MPD2    C2 8695   1.731   2.269  16.579  0.2206  0.0302  0.2719
  583MPD2    C3 8696   1.661   2.272  16.700 -0.0148  0.2651 -0.9764
  583MPD2    C4 8697   1.541   2.202  16.709 -0.4086  0.2436  0.4051
  583MPD2    C5 8698   1.491   2.136  16.602 -0.6478 -0.0842  0.0877
  583MPD2     H 8699   1.832   2.309  16.572  0.6669 -0.9412  1.1037
  583MPD2    H1 8700   1.485   2.187  16.801 -1.3308 -0.1233 -0.2121
  583MPD2    H2 8701   1.523   2.076  16.404 -0.5578 -1.4033  1.5889
  583MPD2    H3 8702   1.402   2.074  16.604  0.5576 -1.7600  1.1503
  583MPD2     N 8703   1.716   2.337  16.814  0.3608 -0.1883  0.3571
  583MPD2    H5 8704   1.800   2.394  16.802  0.4436 -0.3212  0.3073
  583MPD2    N1 8705   1.746   2.202  16.343 -0.7814 -0.6742  0.0638
  583MPD2    H7 8706   1.832   2.256  16.336 -1.2145  0.5411  3.7776
  584TMC3    C1 8707   1.763   2.394  17.043 -0.5369 -0.0644  0.2158
  584TMC3    C2 8708   1.839   2.505  17.008  0.4338 -0.3026 -0.0802
  584TMC3    C3 8709   1.865   2.594  17.109 -0.6461  0.6871 -0.5073
  584TMC3    C4 8710   1.726   2.366  17.173  0.4386  0.1123  0.1160
  584TMC3    C5 8711   1.744   2.464  17.268  0.4758 -0.1772  0.1444
  584TMC3    C6 8712   1.815   2.574  17.238  0.1385  0.0272 -1.0672
  584TMC3     C 8713   1.684   2.313  16.946  0.7632  0.6434 -0.2102
  584TMC3     O 8714   1.586   2.249  16.982  0.0962 -0.1054  0.2146
  584TMC3     H 8715   1.871   2.524  16.906  1.9929  0.8246  0.6211
  584TMC3    H1 8716   1.683   2.272  17.205 -0.6177  0.2022 -1.0297
  584TMC3    H2 8717   1.831   2.652  17.311  0.9600 -1.8639  0.7736
  584TMC3    C7 8718   1.658   2.457  17.379  0.0414 -0.7838  1.1192
  584TMC3    C8 8719   1.927   2.723  17.074 -0.0797 -0.5429  0.0470
  584TMC3    O1 8720   1.624   2.352  17.434 -0.3580  0.1403  0.0880
  584TMC3    O2 8721   1.905   2.755  16.957 -0.0174 -0.1613  0.0830
  585MPD2     C 8722   0.448   1.365  17.287  0.7858 -0.5345  0.4388
  585MPD2    C1 8723   0.555   1.428  17.232  0.1619 -0.2773  0.4387
  585MPD2    C2 8724   0.642   1.361  17.153  0.3039  0.1879 -0.0735
  585MPD2    C3 8725   0.627   1.226  17.140  0.5678 -0.2777  0.7641
  585MPD2    C4 8726   0.519   1.153  17.201 -0.4402  0.5209  0.1233
  585MPD2    C5 8727   0.429   1.227  17.279 -0.0700  0.5105  1.2420
  585MPD2     H 8728   0.728   1.412  17.112 -1.6383  2.2488 -1.6036
  585MPD2    H1 8729   0.500   1.048  17.186 -2.5557  0.6142  2.1824
  585MPD2    H2 8730   0.379   1.419  17.351 -0.9121  0.1749 -1.9655
  585MPD2    H3 8731   0.341   1.185  17.326 -0.2037  1.2417  1.6531
  585MPD2     N 8732   0.708   1.160  17.044  0.4709 -0.0246  1.0448
  585MPD2    H5 8733   0.686   1.061  17.037  2.2959 -0.5234  2.1777
  585MPD2    N1 8734   0.562   1.561  17.265  0.3680  0.1240  0.1552
  585MPD2    H7 8735   0.494   1.599  17.330 -0.7615 -0.9747 -0.3950
  586TMC3    C1 8736   0.862   1.117  16.876  0.1933 -0.3167  0.4438
  586TMC3    C2 8737   0.998   1.109  16.843  0.1947  0.0705  0.4628
  586TMC3    C3 8738   1.033   1.032  16.731 -0.2288  0.0433 -0.4016
  586TMC3    C4 8739   0.767   1.044  16.808 -0.5015  0.8488 -0.0866
  586TMC3    C5 8740   0.804   0.961  16.711  0.4059  0.4271  0.1617
  586TMC3    C6 8741   0.935   0.962  16.661 -0.3511  0.7065  0.7438
  586TMC3     C 8742   0.820   1.205  16.979 -0.6570  0.0675  0.3135
  586TMC3     O 8743   0.893   1.303  16.996  0.2070  0.1948  0.0979
  586TMC3     H 8744   1.078   1.139  16.909  0.2739 -0.8930  0.7999
  586TMC3    H1 8745   0.664   1.043  16.842 -0.6544 -3.0310 -0.6989
  586TMC3    H2 8746   0.967   0.875  16.605  0.7257  1.4347  0.2236
  586TMC3    C7 8747   0.716   0.858  16.671  0.6031  0.3709  0.0731
  586TMC3    C8 8748   1.156   0.955  16.731 -0.4578 -0.7420  0.0395
  586TMC3    O1 8749   0.766   0.759  16.624 -0.0979  0.2105 -0.8221
  586TMC3    O2 8750   1.196   0.919  16.839 -0.0920  0.0858 -0.3308
  587TMC3    C1 8751   3.200   4.455  16.064  0.1745 -0.2573  0.2945
  587TMC3    C2 8752   3.209   4.545  16.173  0.3691  0.0962 -0.5700
  587TMC3    C3 8753   3.317   4.525  16.259  0.0738 -0.1974 -0.4625
  587TMC3    C4 8754   3.279   4.351  16.041 -0.1541  0.0076 -0.5001
  587TMC3    C5 8755   3.374   4.330  16.133 -0.3223  0.1036 -0.0630
  587TMC3    C6 8756   3.391   4.411  16.246  0.3593 -0.1387  0.8247
  587TMC3     C 8757   3.064   4.435  16.018  0.0093  0.3032 -0.0636
  587TMC3     O 8758   2.983   4.514  16.071  0.3301 -0.1697  0.6038
  587TMC3     H 8759   3.161   4.641  16.180 -0.2933 -0.2373 -0.5797
  587TMC3    H1 8760   3.285   4.322  15.937  1.4375  0.5175 -0.5380
  587TMC3    H2 8761   3.465   4.385  16.320  2.1938 -0.2026 -1.0416
  587TMC3    C7 8762   3.472   4.228  16.116  0.3917 -0.5112  0.8165
  587TMC3    C8 8763   3.331   4.602  16.388 -0.1495 -0.2358  0.3333
  587TMC3    O1 8764   3.577   4.240  16.176 -0.1004  0.6608  0.3396
  587TMC3    O2 8765   3.431   4.589  16.449 -0.2545 -1.0578  0.3333
  588TMC3    C1 8766   0.394   1.808   9.908 -0.4908 -0.0580  0.8127
  588TMC3    C2 8767   0.389   1.678   9.859  0.0102  0.6666  0.3987
  588TMC3    C3 8768   0.477   1.587   9.906  0.1536  0.5466 -0.1294
  588TMC3    C4 8769   0.475   1.833  10.016  0.7264 -0.1289 -0.2289
  588TMC3    C5 8770   0.557   1.740  10.070 -0.1248 -0.4646  1.0125
  588TMC3    C6 8771   0.564   1.615  10.005 -0.1632  0.0087  0.4980
  588TMC3     C 8772   0.349   1.917   9.830  0.3264 -0.1365 -0.1143
  588TMC3     O 8773   0.331   1.896   9.711 -0.1720 -0.1584  0.3265
  588TMC3     H 8774   0.331   1.663   9.770 -1.4602  0.1828  1.4478
  588TMC3    H1 8775   0.500   1.937  10.028  0.0464 -0.1674  1.4736
  588TMC3    H2 8776   0.609   1.538  10.066 -1.2659 -0.7073  0.4038
  588TMC3    C7 8777   0.672   1.782  10.155 -0.1196 -1.1912  0.1344
  588TMC3    C8 8778   0.456   1.449   9.871 -0.1004 -0.1034  0.8031
  588TMC3    O1 8779   0.778   1.726  10.138 -0.2852  0.0948 -0.3777
  588TMC3    O2 8780   0.355   1.420   9.812 -0.0987 -0.3548 -0.3351
  589TMC3    C1 8781   0.376   4.654   0.700  0.2962 -0.8087  0.0736
  589TMC3    C2 8782   0.472   4.718   0.772  0.4446 -0.1667  0.1016
  589TMC3    C3 8783   0.594   4.652   0.798  0.5864 -0.2423  0.3329
  589TMC3    C4 8784   0.401   4.542   0.625 -0.2672 -0.3365  0.8406
  589TMC3    C5 8785   0.520   4.474   0.660 -0.5625 -0.1173 -0.1973
  589TMC3    C6 8786   0.616   4.520   0.751 -0.9457 -0.1933 -1.0099
  589TMC3     C 8787   0.248   4.705   0.679  0.4072 -0.6288 -0.2000
  589TMC3     O 8788   0.199   4.689   0.567  0.0848  0.0064  0.4220
  589TMC3     H 8789   0.464   0.083   0.805  0.7331 -0.9152  2.4739
  589TMC3    H1 8790   0.321   4.500   0.564 -0.3141  0.4709  0.3442
  589TMC3    H2 8791   0.704   4.465   0.782 -0.6493  0.2418 -1.0833
  589TMC3    C7 8792   0.518   4.332   0.641 -0.2264 -0.4502  0.1704
  589TMC3    C8 8793   0.683   4.707   0.906 -0.2753 -0.5325 -0.4061
  589TMC3    O1 8794   0.407   4.289   0.608 -0.3089  0.1625 -0.2563
  589TMC3    O2 8795   0.636   0.060   0.975 -0.0420 -0.3126  0.2193
  590MPD2     C 8796   4.355   2.620  16.760  0.1277 -0.1988 -0.4516
  590MPD2    C1 8797   4.292   2.714  16.686  0.3681 -0.4191  0.2771
  590MPD2    C2 8798   4.359   2.773  16.580  0.4873 -0.1508 -0.6529
  590MPD2    C3 8799   4.481   2.735  16.543  0.4081 -0.3391 -0.1813
  590MPD2    C4 8800   4.544   2.634  16.606 -0.9519  0.0770 -0.2829
  590MPD2    C5 8801   4.481   2.579  16.715  0.5173 -0.0543 -0.1375
  590MPD2     H 8802   4.319   2.853  16.518 -0.0117 -0.3554 -0.5941
  590MPD2    H1 8803   4.645   2.600  16.585 -1.0702 -0.3214 -0.2123
  590MPD2    H2 8804   4.303   2.568  16.839  0.4780  1.0400  0.5980
  590MPD2    H3 8805   4.545   2.506  16.764  0.6743  0.7804  0.8911
  590MPD2     N 8806   4.534   2.792  16.425  0.2809 -0.2721  0.0078
  590MPD2    H5 8807   4.470   2.846  16.368  0.6104  0.2413  0.1319
  590MPD2    N1 8808   4.164   2.757  16.716  0.4297  0.2591 -0.2762
  590MPD2    H7 8809   4.127   2.829  16.655 -2.1362 -1.7378 -1.0864
  591TMC3    C1 8810   4.689   2.883  16.282  0.1308  0.2874 -0.2066
  591TMC3    C2 8811   0.061   2.875  16.202  0.2404 -0.3175 -0.7159
  591TMC3    C3 8812   0.091   2.979  16.115  0.4276 -0.4555  0.2608
  591TMC3    C4 8813   4.603   2.994  16.274  0.6321  0.3189 -0.2788
  591TMC3    C5 8814   4.637   3.087  16.183  0.2718 -0.1519 -0.6997
  591TMC3    C6 8815   0.009   3.089  16.103  0.3037  0.0498  0.4405
  591TMC3     C 8816   4.667   2.780  16.378  0.0674 -0.4081  0.1398
  591TMC3     O 8817   0.019   2.704  16.419 -0.3858 -0.4292 -0.0652
  591TMC3     H 8818   0.113   2.782  16.219  0.0950 -0.4707 -1.0994
  591TMC3    H1 8819   4.517   3.013  16.337  1.8859 -2.0990  2.1551
  591TMC3    H2 8820   0.027   3.156  16.020 -1.0366 -0.3485 -0.1736
  591TMC3    C7 8821   4.524   3.181  16.156  0.0732 -0.2099  0.0421
  591TMC3    C8 8822   0.148   2.930  15.994 -0.6989  0.1949  0.3432
  591TMC3    O1 8823   4.413   3.137  16.187  0.4459 -0.2891  0.4997
  591TMC3    O2 8824   0.137   2.811  15.969 -0.0468 -0.9275 -0.1615
  592MPD2     C 8825   4.400   4.698  11.303 -0.1645  0.0822  0.2746
  592MPD2    C1 8826   4.397   0.049  11.409 -0.0151 -0.4174  0.0741
  592MPD2    C2 8827   4.303   0.030  11.507  0.2614  0.2283 -0.8701
  592MPD2    C3 8828   4.224   4.654  11.511 -0.9378  0.4970  0.9557
  592MPD2    C4 8829   4.247   4.559  11.415  0.3288  0.1781  0.8799
  592MPD2    C5 8830   4.330   4.578  11.309 -1.1701  0.3147 -0.1720
  592MPD2     H 8831   4.288   0.100  11.588 -1.8226  0.9279 -1.8569
  592MPD2    H1 8832   4.184   4.471  11.416  0.1550  0.2736 -0.5222
  592MPD2    H2 8833   4.466   4.712  11.219 -0.5796 -1.3070 -0.2707
  592MPD2    H3 8834   4.325   4.506  11.228 -0.4761  0.1876 -0.1067
  592MPD2     N 8835   4.130   4.636  11.608 -0.1515 -0.4889 -0.7479
  592MPD2    H5 8836   4.105   4.714  11.669  3.1980 -1.5063  1.9018
  592MPD2    N1 8837   4.488   0.152  11.414  0.3990 -0.4398  0.4544
  592MPD2    H7 8838   4.565   0.155  11.349  0.4677 -1.5747  0.4752
  593TMC3    C1 8839   4.614   0.339  11.504 -0.5531 -0.2956  0.0098
  593TMC3    C2 8840   4.642   0.418  11.618 -0.0487 -0.0840 -0.0772
  593TMC3    C3 8841   0.013   0.500  11.593  0.3253 -0.0602  1.1865
  593TMC3    C4 8842   4.671   0.353  11.377 -0.1105 -0.0443 -0.1852
  593TMC3    C5 8843   0.025   0.450  11.363  0.3885  0.2406  0.2481
  593TMC3    C6 8844   0.077   0.524  11.466 -0.4088  0.2715  0.8255
  593TMC3     C 8845   4.512   0.238  11.525  0.4555  0.3460  0.5146
  593TMC3     O 8846   4.469   0.232  11.640 -0.3561 -0.1015  0.1409
  593TMC3     H 8847   4.598   0.404  11.716 -0.8748  1.1374 -0.2818
  593TMC3    H1 8848   4.630   0.293  11.297  0.0082  1.0874 -1.1002
  593TMC3    H2 8849   0.146   0.606  11.452  0.7812 -0.7627  0.5853
  593TMC3    C7 8850   0.065   0.500  11.232 -0.0365 -0.2255  0.1625
  593TMC3    C8 8851   0.038   0.592  11.705  0.1416 -0.2024  0.7215
  593TMC3    O1 8852   0.174   0.554  11.219 -0.3496  0.7811 -0.0380
  593TMC3    O2 8853   4.674   0.616  11.765  0.2572 -0.2094  0.3444
  594MPD2     C 8854   3.269   3.275  14.010  0.1019  0.3429  0.2583
  594MPD2    C1 8855   3.286   3.300  14.143 -0.4110 -0.8876  0.2859
  594MPD2    C2 8856   3.348   3.418  14.186 -0.0509  0.3056  0.8414
  594MPD2    C3 8857   3.407   3.501  14.097  0.2841  0.1745  0.2422
  594MPD2    C4 8858   3.380   3.482  13.960  0.3745  0.0991  0.5467
  594MPD2    C5 8859   3.320   3.365  13.920 -0.4678 -0.6228  0.3980
  594MPD2     H 8860   3.376   3.435  14.289 -0.1714  2.8125  0.4529
  594MPD2    H1 8861   3.412   3.556  13.888 -2.1101 -0.5352 -1.1927
  594MPD2    H2 8862   3.243   3.178  13.970 -2.0561  1.5491 -1.2386
  594MPD2    H3 8863   3.308   3.354  13.812  4.0445 -0.4955 -0.1367
  594MPD2     N 8864   3.475   3.612  14.152 -1.1018  0.2247  0.6155
  594MPD2    H5 8865   3.466   3.634  14.251 -0.2980  3.3511 -0.0135
  594MPD2    N1 8866   3.240   3.200  14.228  0.0927 -0.0345 -0.2024
  594MPD2    H7 8867   3.188   3.126  14.182 -0.9630  0.1576  0.6870
  595TMC3    C1 8868   3.757   3.980  14.206  0.4033 -0.0735 -0.8407
  595TMC3    C2 8869   3.729   3.859  14.145 -0.0015 -0.0691 -0.0649
  595TMC3    C3 8870   3.603   3.806  14.167 -0.0919 -0.2708 -0.3542
  595TMC3    C4 8871   3.669   4.038  14.292  0.0794 -0.4540 -0.0056
  595TMC3    C5 8872   3.547   3.986  14.309  0.3179  0.1249  1.0542
  595TMC3    C6 8873   3.510   3.866  14.246  0.4461  0.6213  0.1167
  595TMC3     C 8874   3.892   4.029  14.208 -0.0660 -0.4425 -0.9796
  595TMC3     O 8875   3.904   4.145  14.252 -0.3999  0.3399 -0.1397
  595TMC3     H 8876   3.787   3.813  14.066 -1.0117  0.4406 -1.1121
  595TMC3    H1 8877   3.682   4.138  14.332  1.3067 -0.3567 -0.6490
  595TMC3    H2 8878   3.412   3.822  14.264  0.4554  1.3708  1.9616
  595TMC3    C7 8879   3.446   4.052  14.383  0.5003 -0.0424 -0.4633
  595TMC3    C8 8880   3.554   3.697  14.080  0.2409 -0.3837  0.2099
  595TMC3    O1 8881   3.331   4.021  14.349  0.0521  0.4905  0.2621
  595TMC3    O2 8882   3.609   3.676  13.973  0.4646 -0.5525 -0.1858
  596MPD2     C 8883   2.213   1.704  16.524  0.4802  0.2739 -0.9085
  596MPD2    C1 8884   2.289   1.809  16.475 -1.4642  0.5545 -0.0773
  596MPD2    C2 8885   2.319   1.812  16.337  0.2994 -0.5157 -0.8045
  596MPD2    C3 8886   2.277   1.711  16.255  0.3728  0.2601  0.3152
  596MPD2    C4 8887   2.194   1.607  16.304 -0.4344 -0.2236  0.1427
  596MPD2    C5 8888   2.161   1.614  16.435  0.4049 -0.2916  0.4798
  596MPD2     H 8889   2.381   1.894  16.303 -0.0951 -0.2879 -0.9700
  596MPD2    H1 8890   2.154   1.532  16.236 -0.7117  0.5214 -0.5099
  596MPD2    H2 8891   2.172   1.699  16.624  2.3548  0.7513 -0.1060
  596MPD2    H3 8892   2.089   1.542  16.472 -0.5887  0.9805  1.0107
  596MPD2     N 8893   2.304   1.706  16.115  0.8544  0.8987  0.3915
  596MPD2    H5 8894   2.263   1.634  16.057  0.6896  0.6693  0.7955
  596MPD2    N1 8895   2.331   1.916  16.548  0.3425  0.0471  0.5776
  596MPD2    H7 8896   2.396   1.977  16.500  0.4621 -2.9420 -3.0524
  597TMC3    C1 8897   2.386   2.052  16.736  0.4923  0.3270  0.3847
  597TMC3    C2 8898   2.466   2.129  16.657 -0.0917 -0.3275  0.4195
  597TMC3    C3 8899   2.528   2.235  16.714  0.6741 -0.1565 -0.3175
  597TMC3    C4 8900   2.366   2.078  16.867 -0.2877  0.0569  0.2461
  597TMC3    C5 8901   2.431   2.183  16.921 -0.0654 -0.1397 -0.3702
  597TMC3    C6 8902   2.522   2.259  16.850  0.1980 -0.1354 -0.1698
  597TMC3     C 8903   2.310   1.943  16.682  0.2203 -0.7546 -0.0406
  597TMC3     O 8904   2.250   1.867  16.757 -0.2419  0.4218  0.7861
  597TMC3     H 8905   2.477   2.110  16.551 -0.1916  0.1799  0.3203
  597TMC3    H1 8906   2.300   2.010  16.919 -0.8654  0.8947  0.6038
  597TMC3    H2 8907   2.583   2.334  16.899  1.4041 -1.5674  0.5375
  597TMC3    C7 8908   2.362   2.237  17.038  0.4572  0.0685  0.2900
  597TMC3    C8 8909   2.632   2.295  16.627 -0.1337  0.3998 -0.0955
  597TMC3    O1 8910   2.276   2.168  17.091 -0.2558  0.6282  0.6003
  597TMC3    O2 8911   2.661   2.225  16.533  0.1488 -0.2939  0.6404
  598TMC3    C1 8912   0.278   3.081  15.148  0.7215 -0.1665 -0.1845
  598TMC3    C2 8913   0.277   3.124  15.271 -0.1515  0.1713 -0.4527
  598TMC3    C3 8914   0.353   3.227  15.305 -0.0426  0.4821  0.0482
  598TMC3    C4 8915   0.354   3.136  15.047 -0.9592  0.0614  0.9250
  598TMC3    C5 8916   0.426   3.248  15.089 -0.7722 -0.1305 -0.0376
  598TMC3    C6 8917   0.438   3.281  15.219  0.1766  0.7471  0.3644
  598TMC3     C 8918   0.203   2.962  15.126 -0.0317  0.1204  0.0318
  598TMC3     O 8919   0.114   2.929  15.204  0.6550 -0.2667  0.4913
  598TMC3     H 8920   0.221   3.067  15.344  2.7624 -1.1041  0.7811
  598TMC3    H1 8921   0.334   3.103  14.945  3.8523 -2.5356  0.8525
  598TMC3    H2 8922   0.507   3.359  15.249  1.9079  0.2079 -2.2012
  598TMC3    C7 8923   0.524   3.294  14.995 -0.5802 -0.0323  0.6383
  598TMC3    C8 8924   0.335   3.292  15.436  0.6492 -1.0097  0.0999
  598TMC3    O1 8925   0.518   3.234  14.891  0.5273 -0.0953 -0.6945
  598TMC3    O2 8926   0.392   3.397  15.446 -0.6994  0.3813 -0.4154
  599MPD2     C 8927   0.816   1.018  15.311  0.2404 -0.7046 -0.4641
  599MPD2    C1 8928   0.777   0.897  15.371  0.2337  0.0903 -0.0322
  599MPD2    C2 8929   0.649   0.890  15.434 -0.5833 -0.1035 -0.5784
  599MPD2    C3 8930   0.560   0.995  15.429 -0.1707  0.2919 -0.1501
  599MPD2    C4 8931   0.601   1.103  15.353 -0.0707 -0.5149  0.3287
  599MPD2    C5 8932   0.727   1.120  15.293 -0.1059  0.1493 -0.1947
  599MPD2     H 8933   0.616   0.800  15.484 -0.9529  0.1237 -0.4125
  599MPD2    H1 8934   0.539   1.192  15.352  0.3686 -0.1981  1.4946
  599MPD2    H2 8935   0.914   1.022  15.264  0.3058  1.1204 -0.2011
  599MPD2    H3 8936   0.748   1.209  15.235 -0.2408  1.3043  1.4903
  599MPD2     N 8937   0.439   1.002  15.500  0.5126  0.3168  0.2390
  599MPD2    H5 8938   0.398   1.094  15.511 -0.4996  0.2755 -3.0522
  599MPD2    N1 8939   0.881   0.799  15.387  0.5108  0.0675  0.3022
  599MPD2    H7 8940   0.970   0.831  15.351  0.8982 -0.6441  0.6409
  600TMC3    C1 8941   0.253   0.925  15.616 -0.3776  0.4692  0.1331
  600TMC3    C2 8942   0.138   0.850  15.609  0.2104 -0.1189  0.1551
  600TMC3    C3 8943   0.042   0.873  15.704  0.2993 -0.4232  0.1517
  600TMC3    C4 8944   0.258   1.028  15.698 -0.2308 -0.8203  0.6083
  600TMC3    C5 8945   0.164   1.050  15.789 -0.0408  0.3280  0.3060
  600TMC3    C6 8946   0.054   0.972  15.797 -0.1362 -0.7013 -0.0077
  600TMC3     C 8947   0.363   0.894  15.529 -1.0595  0.9531 -0.5510
  600TMC3     O 8948   0.377   0.781  15.498  0.6044 -0.2218  0.8256
  600TMC3     H 8949   0.129   0.755  15.557  0.8857 -0.0234 -0.1417
  600TMC3    H1 8950   0.343   1.094  15.709  0.5042 -1.1959 -3.0277
  600TMC3    H2 8951   4.710   0.988  15.866  0.4988  2.1725  0.0762
  600TMC3    C7 8952   0.165   1.157  15.884 -0.2606 -0.1202  0.0528
  600TMC3    C8 8953   4.708   0.758  15.754  0.1659 -0.0870  1.1642
  600TMC3    O1 8954   0.054   1.189  15.921  0.8492 -0.4013 -0.3059
  600TMC3    O2 8955   4.688   0.669  15.672  0.3559 -0.5894  0.6730
  601MPD2     C 8956   3.045   4.307   0.266  0.1889 -0.4355 -0.0210
  601MPD2    C1 8957   2.907   4.283   0.250 -0.3711 -0.3558 -0.4159
  601MPD2    C2 8958   2.848   4.174   0.309 -0.4686 -0.5913  0.5478
  601MPD2    C3 8959   2.930   4.090   0.388  0.3147 -0.3998  0.3517
  601MPD2    C4 8960   3.065   4.115   0.407  0.3964  0.4418 -0.0967
  601MPD2    C5 8961   3.122   4.223   0.350 -0.6264 -0.2387  0.0923
  601MPD2     H 8962   2.744   4.148   0.293  0.5007 -3.7376 -0.6470
  601MPD2    H1 8963   3.123   4.046   0.468 -1.7617 -0.5021  0.8874
  601MPD2    H2 8964   3.092   4.398   0.229  0.5830 -1.0867 -1.1055
  601MPD2    H3 8965   3.225   4.247   0.374 -0.4137 -0.3329 -0.7177
  601MPD2     N 8966   2.893   3.957   0.434  0.6394 -0.2623  0.0967
  601MPD2    H5 8967   2.963   3.899   0.479 -0.0725 -1.0519  0.1799
  601MPD2    N1 8968   2.825   4.360   0.159  0.0967  0.2727  0.7285
  601MPD2    H7 8969   2.727   4.337   0.155 -0.0324  1.4351 -3.2063
  602TMC3    C1 8970   2.755   4.515  17.743  0.1338  0.0520 -0.2871
  602TMC3    C2 8971   2.768   4.643  17.706 -0.1944  0.2039  0.6173
  602TMC3    C3 8972   2.687   4.680  17.602  0.2775 -0.4464 -0.1846
  602TMC3    C4 8973   2.668   4.426  17.692  0.5044 -0.0394  0.8971
  602TMC3    C5 8974   2.591   4.469  17.585  0.0564  0.2856  0.0239
  602TMC3    C6 8975   2.600   4.598  17.535  0.0495  0.3144 -0.3396
  602TMC3     C 8976   2.865   4.458   0.073 -0.0971  0.3599 -0.0719
  602TMC3     O 8977   2.965   4.530   0.082  0.1424  0.9229 -0.4199
  602TMC3     H 8978   2.841   4.710   0.001  1.0320 -0.8603  0.2086
  602TMC3    H1 8979   2.676   4.320  17.715 -3.8040 -0.6715 -0.6645
  602TMC3    H2 8980   2.556   4.628  17.440  0.2821  1.2871 -0.1373
  602TMC3    C7 8981   2.486   4.387  17.532 -0.4762  0.1476  0.6167
  602TMC3    C8 8982   2.694   0.076  17.558 -0.2269 -0.7364 -0.1550
  602TMC3    O1 8983   2.503   4.267  17.534  0.5569 -0.5008  0.6346
  602TMC3    O2 8984   2.800   0.132  17.588  0.6744  0.2650  0.0502
  603TMC3    C1 8985   0.948   4.220  11.428  0.2131 -0.4210  0.9611
  603TMC3    C2 8986   0.973   4.214  11.565 -0.2988  0.1221  0.3324
  603TMC3    C3 8987   0.886   4.289  11.641 -0.3099  0.1040 -0.6574
  603TMC3    C4 8988   0.843   4.302  11.382  0.2298 -0.1179  0.5437
  603TMC3    C5 8989   0.763   4.376  11.464 -0.2551 -0.1012  0.0243
  603TMC3    C6 8990   0.800   4.387  11.594 -0.9929  0.1369  0.7843
  603TMC3     C 8991   1.041   4.147  11.335 -0.9101 -0.4166 -0.5941
  603TMC3     O 8992   1.107   4.066  11.398  0.1808 -0.2737  0.3001
  603TMC3     H 8993   1.045   4.143  11.604 -2.1341 -1.3131  1.0519
  603TMC3    H1 8994   0.819   4.314  11.277 -2.3673 -3.4760  0.7663
  603TMC3    H2 8995   0.729   4.425  11.666  0.4859  1.9536  1.2919
  603TMC3    C7 8996   0.645   4.457  11.427 -0.0150 -0.3004 -0.3777
  603TMC3    C8 8997   0.898   4.268  11.790  0.1439 -0.2684 -0.4344
  603TMC3    O1 8998   0.604   4.544  11.506 -0.0992 -0.5394  1.1855
  603TMC3    O2 8999   0.915   4.152  11.828 -0.0589 -1.2105  0.5052
  604MPD2     C 9000   2.150   3.203  16.492 -0.2269  0.1275 -0.6964
  604MPD2    C1 9001   2.032   3.185  16.411 -0.5547 -0.4037  0.0955
  604MPD2    C2 9002   2.051   3.156  16.276 -0.0793  0.5361  1.0518
  604MPD2    C3 9003   2.178   3.159  16.227  0.3642 -0.1062  0.4560
  604MPD2    C4 9004   2.294   3.181  16.299  0.0225 -0.1647 -0.1381
  604MPD2    C5 9005   2.279   3.196  16.436 -0.8623 -0.2181  0.2855
  604MPD2     H 9006   1.967   3.138  16.211 -0.4571 -1.1560  2.0246
  604MPD2    H1 9007   2.391   3.202  16.257  0.0818  0.5456  0.3488
  604MPD2    H2 9008   2.148   3.225  16.598  0.8901  0.3313 -0.7161
  604MPD2    H3 9009   2.368   3.215  16.496 -0.4884  2.0762 -1.0050
  604MPD2     N 9010   2.188   3.147  16.087 -0.0485 -0.4678 -0.4164
  604MPD2    H5 9011   2.096   3.134  16.045  1.2245  1.2607 -3.7245
  604MPD2    N1 9012   1.903   3.195  16.475 -0.4245  0.0067 -0.5200
  604MPD2    H7 9013   1.905   3.232  16.569 -0.4196 -0.8581 -0.1789
  605TMC3    C1 9014   1.669   3.194  16.506  0.2685  0.2906  0.3012
  605TMC3    C2 9015   1.715   3.266  16.622 -0.0836  0.2140  0.0306
  605TMC3    C3 9016   1.634   3.378  16.646 -0.1459  0.1237  0.1874
  605TMC3    C4 9017   1.550   3.214  16.442  0.0218 -0.6232  0.4817
  605TMC3    C5 9018   1.475   3.317  16.489 -0.4182  0.1462 -0.4700
  605TMC3    C6 9019   1.517   3.405  16.580 -0.3919  0.0096  0.3641
  605TMC3     C 9020   1.781   3.163  16.413  0.3337 -0.4245 -0.6084
  605TMC3     O 9021   1.754   3.141  16.296  0.2152  0.2291  0.0197
  605TMC3     H 9022   1.799   3.238  16.685  0.5050  1.9757  0.0486
  605TMC3    H1 9023   1.523   3.159  16.352  1.4133 -1.5806  0.6398
  605TMC3    H2 9024   1.462   3.497  16.596 -1.1518 -0.3948  0.1050
  605TMC3    C7 9025   1.351   3.347  16.425 -0.0161  0.5140 -0.5174
  605TMC3    C8 9026   1.703   3.487  16.709  0.1869 -0.3547  0.0881
  605TMC3    O1 9027   1.303   3.458  16.441 -0.3202 -0.4961  0.3077
  605TMC3    O2 9028   1.807   3.463  16.769 -0.5141 -0.2089 -0.4875
  606TMC3    C1 9029   2.509   1.934  17.221 -0.5213 -0.1012  0.5342
  606TMC3    C2 9030   2.628   2.006  17.237  0.1328 -0.0646 -1.1501
  606TMC3    C3 9031   2.715   2.014  17.133  0.1941  0.2290  0.1205
  606TMC3    C4 9032   2.486   1.853  17.116  0.5466 -0.2925  0.2589
  606TMC3    C5 9033   2.584   1.857  17.021  0.4082 -0.1503 -0.3755
  606TMC3    C6 9034   2.695   1.936  17.021  0.4308 -0.1620  0.1195
  606TMC3     C 9035   2.393   1.956  17.310  0.3702  0.1028 -0.3243
  606TMC3     O 9036   2.300   1.881  17.312 -0.1274  0.0781 -0.0792
  606TMC3     H 9037   2.644   2.038  17.340  1.3191 -3.6148 -0.2205
  606TMC3    H1 9038   2.393   1.799  17.105  0.7175 -0.7777  1.1964
  606TMC3    H2 9039   2.762   1.932  16.936  1.7151  0.4587  1.0991
  606TMC3    C7 9040   2.574   1.769  16.908  0.0926  0.1555 -0.1318
  606TMC3    C8 9041   2.855   2.033  17.176 -0.8534 -0.8494  0.1484
  606TMC3    O1 9042   2.626   1.803  16.803 -0.5335 -0.6873  0.2417
  606TMC3    O2 9043   2.946   1.991  17.103  0.3372  0.1508  0.0173
  607MPD2     C 9044   4.345   4.302  11.830 -0.2692 -0.8960  0.6905
  607MPD2    C1 9045   4.392   4.413  11.906 -0.6572  0.5226 -0.1152
  607MPD2    C2 9046   4.370   4.413  12.040  0.2585  0.7117  0.6005
  607MPD2    C3 9047   4.292   4.319  12.100  0.2412  0.6999  0.6884
  607MPD2    C4 9048   4.225   4.222  12.025  0.4554  0.4743 -0.5011
  607MPD2    C5 9049   4.268   4.209  11.895 -0.4737 -0.3439 -0.1485
  607MPD2     H 9050   4.408   4.496  12.099 -0.6036  2.2771 -1.0259
  607MPD2    H1 9051   4.148   4.158  12.067  0.1192  1.3053  0.1353
  607MPD2    H2 9052   4.373   4.288  11.727 -0.2583  2.0623  0.2958
  607MPD2    H3 9053   4.251   4.129  11.825 -0.0543  0.3760 -1.0825
  607MPD2     N 9054   4.285   4.327  12.237  0.8204 -0.3479 -1.1855
  607MPD2    H5 9055   4.345   4.396  12.282 -1.4431  0.4281  0.5991
  607MPD2    N1 9056   4.469   4.516  11.859 -0.0822 -0.1365  0.0401
  607MPD2    H7 9057   4.496   4.582  11.931  1.6592 -1.8845  1.0125
  608TMC3    C1 9058   4.576   4.663  11.727 -1.0349 -0.0445  0.3929
  608TMC3    C2 9059   4.582   0.004  11.840 -0.3346 -0.8705 -0.2482
  608TMC3    C3 9060   4.695   0.080  11.852 -0.5302  0.5421 -0.9238
  608TMC3    C4 9061   4.662   4.682  11.622  0.3092  0.7306 -0.4740
  608TMC3    C5 9062   0.029   0.033  11.633  0.9630  0.3231  0.0489
  608TMC3    C6 9063   0.039   0.110  11.751 -0.1450 -0.0181  0.3764
  608TMC3     C 9064   4.501   4.541  11.731  0.4936  0.1647  0.2362
  608TMC3     O 9065   4.487   4.473  11.630  0.1623  0.3981  0.2167
  608TMC3     H 9066   4.497   0.032  11.901  0.5336  1.2573 -0.0143
  608TMC3    H1 9067   4.660   4.617  11.535 -1.4383  0.1610 -0.0139
  608TMC3    H2 9068   0.119   0.181  11.767 -0.1109 -0.5649  2.5438
  608TMC3    C7 9069   0.104   0.069  11.513  0.0610 -0.1496  0.2224
  608TMC3    C8 9070   0.005   0.133  11.979 -0.3227  0.3341  0.7957
  608TMC3    O1 9071   0.053   0.037  11.407 -0.6744 -0.5870  0.1353
  608TMC3    O2 9072   0.118   0.178  11.989  0.1708 -0.2999  0.4743
  609TMC3    C1 9073   2.356   3.432   8.774 -0.2404  0.1608  0.8614
  609TMC3    C2 9074   2.257   3.354   8.722  0.0272  0.1013 -0.0234
  609TMC3    C3 9075   2.298   3.253   8.637  0.0566  0.2229  0.1578
  609TMC3    C4 9076   2.489   3.407   8.750 -0.3519  0.1711 -0.4867
  609TMC3    C5 9077   2.531   3.310   8.653  0.3137 -0.5976 -0.0400
  609TMC3    C6 9078   2.429   3.230   8.601  0.2589  0.3188 -0.2033
  609TMC3     C 9079   2.322   3.523   8.886  0.2717  0.2477  0.1010
  609TMC3     O 9080   2.215   3.497   8.940  0.6553  0.0598 -0.0277
  609TMC3     H 9081   2.155   3.368   8.754  0.6063  1.1864  1.3302
  609TMC3    H1 9082   2.570   3.459   8.799  0.4994 -0.8243 -0.8347
  609TMC3    H2 9083   2.447   3.151   8.529 -2.4104 -1.6297  1.2819
  609TMC3    C7 9084   2.666   3.270   8.635  0.2539 -0.5147 -0.1258
  609TMC3    C8 9085   2.199   3.155   8.593  0.8680 -0.7461  0.3086
  609TMC3    O1 9086   2.742   3.330   8.705  0.3916  0.3560 -0.1978
  609TMC3    O2 9087   2.192   3.123   8.474 -0.4189 -0.4261 -0.0143
  610TMC3    C1 9088   0.247   4.677  12.780  0.2168 -0.3553  0.3225
  610TMC3    C2 9089   0.281   4.719  12.656  0.1473  0.7929  0.1710
  610TMC3    C3 9090   0.361   4.642  12.577  0.5542  0.2318 -0.0124
  610TMC3    C4 9091   0.272   4.550  12.825 -0.2423 -0.2512 -0.2767
  610TMC3    C5 9092   0.342   4.473  12.745 -0.1415 -0.4693  0.1637
  610TMC3    C6 9093   0.395   4.517  12.626 -0.1195  0.4483 -0.0155
  610TMC3     C 9094   0.139   0.009  12.837 -0.2489 -0.6722  0.2672
  610TMC3     O 9095   0.112   0.123  12.797 -0.8721  0.5823  0.5518
  610TMC3     H 9096   0.243   0.075  12.619 -1.1890 -0.3812 -1.4366
  610TMC3    H1 9097   0.263   4.533  12.931  5.5026 -0.0514  0.2737
  610TMC3    H2 9098   0.453   4.448  12.566 -0.8117 -0.5934  0.5082
  610TMC3    C7 9099   0.421   4.376  12.813  0.2206 -0.2418 -0.5900
  610TMC3    C8 9100   0.364   4.668  12.432 -0.8153  0.1007  0.2895
  610TMC3    O1 9101   0.529   4.361  12.761 -0.1912  0.7014 -0.6337
  610TMC3    O2 9102   0.377   0.049  12.409  0.4839 -0.1087  0.1233
  611MPD2     C 9103   4.031   4.325  10.561 -0.3783  0.1785  0.4089
  611MPD2    C1 9104   4.090   4.203  10.534  0.1001 -0.5823 -0.2895
  611MPD2    C2 9105   4.215   4.175  10.579 -0.3221 -0.2309  0.1809
  611MPD2    C3 9106   4.277   4.268  10.665  0.2237 -0.2030  0.2229
  611MPD2    C4 9107   4.211   4.388  10.704  0.6066  0.1203  0.6051
  611MPD2    C5 9108   4.092   4.410  10.648  0.8279 -0.0635  0.1411
  611MPD2     H 9109   4.257   4.079  10.550  1.6856  0.9204 -0.7208
  611MPD2    H1 9110   4.249   4.464  10.771  0.8677 -0.1479  0.7656
  611MPD2    H2 9111   3.927   4.344  10.537 -1.4582 -2.9244  2.6774
  611MPD2    H3 9112   4.037   4.496  10.685  0.5063  0.7517 -2.2380
  611MPD2     N 9113   4.403   4.249  10.730  0.0316  0.3422  0.7573
  611MPD2    H5 9114   4.425   4.327  10.790 -0.0307  0.4149  0.6862
  611MPD2    N1 9115   4.011   4.113  10.461  0.4485 -0.1338  0.3750
  611MPD2    H7 9116   3.920   4.146  10.430  0.6972  1.6484  1.5382
  612TMC3    C1 9117   4.599   4.140  10.802 -0.2598  0.5568  0.0764
  612TMC3    C2 9118   4.640   4.256  10.874 -0.0315 -0.8477 -0.0393
  612TMC3    C3 9119   0.037   4.263  10.908 -0.5981  0.6329  0.1738
  612TMC3    C4 9120   4.689   4.038  10.773  0.6812  0.3145 -0.0560
  612TMC3    C5 9121   0.083   4.051  10.814 -0.6079  0.0066 -0.1664
  612TMC3    C6 9122   0.130   4.163  10.879 -0.8919  0.4050 -0.1962
  612TMC3     C 9123   4.482   4.137  10.716 -0.3424 -0.0432 -0.4609
  612TMC3     O 9124   4.453   4.033  10.654 -0.1794 -0.0252  0.1003
  612TMC3     H 9125   4.566   4.331  10.900 -0.2496 -0.9437 -0.3785
  612TMC3    H1 9126   4.660   3.943  10.731 -0.9691  0.4518  0.7844
  612TMC3    H2 9127   0.237   4.172  10.893 -0.4778 -0.7234 -2.6943
  612TMC3    C7 9128   0.182   3.959  10.776  0.0024  0.3180  0.1386
  612TMC3    C8 9129   0.076   4.371  10.989 -0.1457 -0.9154 -0.6885
  612TMC3    O1 9130   0.275   3.937  10.851  0.0789 -0.2965  0.7477
  612TMC3    O2 9131   0.012   4.475  10.978  0.4643  0.2130 -0.3254
  613MPD2     C 9132   4.056   1.594  16.403 -0.0689  0.5024  0.6683
  613MPD2    C1 9133   4.064   1.508  16.299 -0.0290 -0.8393 -0.3205
  613MPD2    C2 9134   3.985   1.395  16.299 -0.4098  0.7742 -0.3770
  613MPD2    C3 9135   3.896   1.372  16.401  0.2282  0.0109 -0.4056
  613MPD2    C4 9136   3.879   1.471  16.495  0.4002  0.1326 -0.3499
  613MPD2    C5 9137   3.960   1.579  16.496 -0.3157 -0.3348  0.6549
  613MPD2     H 9138   3.991   1.321  16.219 -3.0082 -0.8595  0.9531
  613MPD2    H1 9139   3.800   1.462  16.569  0.8792 -0.4602  0.0975
  613MPD2    H2 9140   4.123   1.679  16.408 -1.4006  1.5786 -0.1140
  613MPD2    H3 9141   3.958   1.657  16.572 -2.2790  1.3799 -1.1508
  613MPD2     N 9142   3.814   1.253  16.418  0.0874 -0.2725  0.1647
  613MPD2    H5 9143   3.746   1.248  16.493 -3.1675 -0.2995 -2.7722
  613MPD2    N1 9144   4.149   1.547  16.191  0.1989  0.0415 -0.1142
  613MPD2    H7 9145   4.199   1.635  16.195 -0.4926  0.4927 -1.4937
  614TMC3    C1 9146   4.252   1.521  15.985  0.1684  0.2982  0.2744
  614TMC3    C2 9147   4.269   1.421  15.896 -0.5143 -0.5533 -0.0580
  614TMC3    C3 9148   4.248   1.450  15.766 -0.4697  0.2580  0.3931
  614TMC3    C4 9149   4.204   1.643  15.953  0.4413  0.2344  0.6192
  614TMC3    C5 9150   4.181   1.669  15.827 -0.0417  0.1649 -0.4739
  614TMC3    C6 9151   4.201   1.576  15.730  0.4322 -0.6370  0.2731
  614TMC3     C 9152   4.191   1.460  16.095  0.6661  0.6717  0.2642
  614TMC3     O 9153   4.182   1.339  16.080  0.6497 -0.3136  0.1815
  614TMC3     H 9154   4.325   1.332  15.922  1.5500  0.5900 -0.6207
  614TMC3    H1 9155   4.193   1.723  16.025  2.3447  0.0006  1.1639
  614TMC3    H2 9156   4.174   1.600  15.628  1.2590  0.3284  0.2830
  614TMC3    C7 9157   4.143   1.810  15.781 -0.4935 -0.5833  0.0791
  614TMC3    C8 9158   4.182   1.337  15.707 -0.2300 -0.0505 -0.2416
  614TMC3    O1 9159   4.195   1.906  15.837  0.7316 -0.3402  0.1652
  614TMC3    O2 9160   4.156   1.336  15.588  0.5886  0.3439  0.1538
  615MPD2     C 9161   3.141   3.210  16.254 -0.2262  0.2577 -0.7358
  615MPD2    C1 9162   3.124   3.328  16.174  0.0404  0.2868  0.3473
  615MPD2    C2 9163   3.044   3.317  16.062 -0.1586 -0.1401  0.0343
  615MPD2    C3 9164   2.982   3.195  16.036 -0.1632  0.1294 -0.2301
  615MPD2    C4 9165   2.990   3.092  16.123 -0.5171 -0.4885  0.2462
  615MPD2    C5 9166   3.075   3.096  16.225  0.6608 -0.3821  0.3761
  615MPD2     H 9167   3.040   3.399  15.992 -0.5293  0.0841  0.3175
  615MPD2    H1 9168   2.939   2.999  16.103 -2.5951  0.4702  1.0596
  615MPD2    H2 9169   3.214   3.209  16.333  0.7943  1.3684 -1.6640
  615MPD2    H3 9170   3.102   3.001  16.269 -0.3097  0.7548  3.4251
  615MPD2     N 9171   2.912   3.171  15.920 -0.2093  1.0647  0.6842
  615MPD2    H5 9172   2.862   3.083  15.924 -1.5225  1.6349 -2.8272
  615MPD2    N1 9173   3.187   3.447  16.205 -0.1073 -0.1335 -0.0294
  615MPD2    H7 9174   3.250   3.448  16.285  2.1949 -0.3557 -1.8529
  616TMC3    C1 9175   3.259   3.669  16.183  0.0587 -1.0020 -0.0320
  616TMC3    C2 9176   3.365   3.641  16.266 -0.0965 -0.0921 -0.8179
  616TMC3    C3 9177   3.420   3.750  16.331 -0.1741 -0.7336 -0.0658
  616TMC3    C4 9178   3.208   3.797  16.167  0.5100  1.1490 -0.1635
  616TMC3    C5 9179   3.270   3.899  16.237  0.1214 -0.3950 -0.2005
  616TMC3    C6 9180   3.380   3.876  16.324  0.1150  0.2887 -0.6806
  616TMC3     C 9181   3.176   3.564  16.138  1.0003 -0.1882 -0.8342
  616TMC3     O 9182   3.113   3.591  16.036  0.4155 -0.3128 -0.4339
  616TMC3     H 9183   3.394   3.537  16.264 -1.1068 -0.3569 -1.8989
  616TMC3    H1 9184   3.130   3.822  16.097 -0.4613 -0.1268  0.4749
  616TMC3    H2 9185   3.434   3.954  16.377 -0.4983  1.4608 -1.7938
  616TMC3    C7 9186   3.195   4.025  16.263 -0.6331 -0.1811  0.0929
  616TMC3    C8 9187   3.549   3.725  16.396  0.2622  0.4058 -0.5533
  616TMC3    O1 9188   3.123   4.063  16.169 -0.0892 -0.6566  0.4160
  616TMC3    O2 9189   3.630   3.818  16.400 -0.1293  0.2458  0.3451
  617MPD2     C 9190   1.476   1.318  13.071  0.1058 -0.7019 -0.2781
  617MPD2    C1 9191   1.536   1.342  13.195 -0.5456  0.0203 -0.6543
  617MPD2    C2 9192   1.452   1.390  13.297 -0.3878  0.4476  0.7262
  617MPD2    C3 9193   1.317   1.408  13.287 -0.0140 -0.6187 -0.5716
  617MPD2    C4 9194   1.260   1.374  13.166 -0.0832  0.0156  0.8888
  617MPD2    C5 9195   1.336   1.326  13.063 -0.0270  0.7541  0.3784
  617MPD2     H 9196   1.489   1.420  13.394  0.2546 -0.6064  0.8053
  617MPD2    H1 9197   1.153   1.383  13.151  0.0746 -1.5151 -1.1155
  617MPD2    H2 9198   1.533   1.272  12.991 -1.9866 -1.1873 -1.4918
  617MPD2    H3 9199   1.283   1.296  12.974  0.8611  1.8108 -0.5048
  617MPD2     N 9200   1.234   1.456  13.390 -0.4330 -0.3643  0.5733
  617MPD2    H5 9201   1.137   1.471  13.365  0.4433  1.3354 -1.8839
  617MPD2    N1 9202   1.678   1.328  13.198 -0.4645 -0.3440 -0.4564
  617MPD2    H7 9203   1.723   1.303  13.111  1.0935 -2.5054  0.9546
  618TMC3    C1 9204   1.888   1.302  13.289  0.3596 -0.1287 -0.6807
  618TMC3    C2 9205   1.970   1.360  13.381  0.1903 -0.9261 -1.1955
  618TMC3    C3 9206   2.098   1.334  13.367 -0.2986  0.1659 -0.1155
  618TMC3    C4 9207   1.923   1.219  13.186  0.1957 -0.5235 -0.1230
  618TMC3    C5 9208   2.060   1.198  13.182 -0.0953  0.1881 -0.1000
  618TMC3    C6 9209   2.153   1.257  13.269  0.0742 -0.3230 -0.2238
  618TMC3     C 9210   1.752   1.321  13.315  0.3671  0.1954  0.5192
  618TMC3     O 9211   1.720   1.351  13.429  0.7519 -0.3253  0.5345
  618TMC3     H 9212   1.943   1.420  13.467 -0.0698 -1.4120 -0.9349
  618TMC3    H1 9213   1.852   1.159  13.131 -0.0465 -0.0904 -0.2858
  618TMC3    H2 9214   2.261   1.245  13.261  0.0196 -1.9041  1.4195
  618TMC3    C7 9215   2.101   1.108  13.074 -0.2091 -0.2907 -0.1701
  618TMC3    C8 9216   2.182   1.362  13.478 -0.2773 -0.4649  0.1733
  618TMC3    O1 9217   2.019   1.064  12.992 -0.0342  0.3274  0.3124
  618TMC3    O2 9218   2.167   1.467  13.534 -0.6436 -0.0735  0.8663
  619MPD2     C 9219   2.684   2.619  13.649  0.5972  0.1424 -0.1555
  619MPD2    C1 9220   2.600   2.692  13.573 -0.1012 -0.3931 -0.2739
  619MPD2    C2 9221   2.465   2.659  13.568 -0.3566  0.6614 -0.3634
  619MPD2    C3 9222   2.418   2.555  13.644 -0.3298 -0.4545 -0.0364
  619MPD2    C4 9223   2.504   2.488  13.727 -0.7741  0.1784  0.4939
  619MPD2    C5 9224   2.636   2.516  13.727  0.2386  0.3432  0.3624
  619MPD2     H 9225   2.408   2.727  13.506 -1.0882 -2.0887 -2.6838
  619MPD2    H1 9226   2.482   2.399  13.785  0.9458 -0.4203  0.2505
  619MPD2    H2 9227   2.788   2.648  13.657  0.3795  1.0113 -0.4614
  619MPD2    H3 9228   2.712   2.475  13.793  0.0469 -0.5053  0.0515
  619MPD2     N 9229   2.285   2.519  13.644 -0.1971  0.1796 -0.0573
  619MPD2    H5 9230   2.251   2.445  13.705 -2.1909  0.4853 -0.8178
  619MPD2    N1 9231   2.651   2.788  13.487 -0.4017 -0.5400 -0.5216
  619MPD2    H7 9232   2.588   2.843  13.430  0.5474 -0.7674 -1.7892
  620TMC3    C1 9233   2.786   2.940  13.381 -0.2578 -0.4727 -0.1113
  620TMC3    C2 9234   2.692   2.932  13.280  0.3644  0.1937 -0.4813
  620TMC3    C3 9235   2.615   3.040  13.249 -0.3664 -0.1769 -0.1812
  620TMC3    C4 9236   2.843   3.061  13.422 -1.3015  0.5694  0.7735
  620TMC3    C5 9237   2.773   3.173  13.368 -0.1250  0.2703  0.4340
  620TMC3    C6 9238   2.658   3.162  13.287 -0.2518  0.2291  0.0628
  620TMC3     C 9239   2.779   2.842  13.489  0.2093 -0.6051  0.0941
  620TMC3     O 9240   2.874   2.821  13.566 -0.1678  0.4646 -0.0979
  620TMC3     H 9241   2.673   2.833  13.240  0.5417  0.3628 -0.9846
  620TMC3    H1 9242   2.916   3.073  13.501 -1.2901  0.7358  0.7378
  620TMC3    H2 9243   2.599   3.248  13.256  1.5575  2.2458  2.2456
  620TMC3    C7 9244   2.840   3.295  13.357  0.5245  0.4074 -0.2660
  620TMC3    C8 9245   2.474   3.005  13.280 -0.0979  0.3731 -0.7220
  620TMC3    O1 9246   2.797   3.359  13.263  0.4881 -0.2653  0.4028
  620TMC3    O2 9247   2.450   2.886  13.287 -0.4804 -0.3766  0.0541
  621MPD2     C 9248   3.109   2.997   9.341  0.1961  0.4981  0.1571
  621MPD2    C1 9249   3.046   3.080   9.429  0.1497  0.4204 -0.5051
  621MPD2    C2 9250   3.123   3.162   9.516 -0.3895 -0.2901 -0.3205
  621MPD2    C3 9251   3.262   3.151   9.520  0.0302  0.0375  0.1875
  621MPD2    C4 9252   3.316   3.051   9.442 -0.1825  0.0623  0.2966
  621MPD2    C5 9253   3.243   2.975   9.353  0.2299 -0.4100  0.4141
  621MPD2     H 9254   3.062   3.230   9.575  1.8103 -1.0533  2.8089
  621MPD2    H1 9255   3.424   3.043   9.429 -0.4721 -1.8129 -0.9479
  621MPD2    H2 9256   3.056   2.940   9.266 -0.2536  0.6279  0.3736
  621MPD2    H3 9257   3.287   2.897   9.290  1.1717  2.8592 -2.9619
  621MPD2     N 9258   3.342   3.241   9.600 -0.3045  0.3975  0.3374
  621MPD2    H5 9259   3.287   3.300   9.661 -0.8033 -2.3632  2.5773
  621MPD2    N1 9260   2.906   3.089   9.448 -0.3397  0.9445  0.2635
  621MPD2    H7 9261   2.879   3.161   9.513 -0.3563  0.5238  0.7195
  622TMC3    C1 9262   2.684   3.035   9.419 -0.1327  0.0095 -0.1358
  622TMC3    C2 9263   2.662   3.075   9.549 -0.0956  0.2655  0.3633
  622TMC3    C3 9264   2.533   3.084   9.584  0.1634 -0.9428  0.6224
  622TMC3    C4 9265   2.583   3.024   9.326  0.5344 -0.1549 -0.2015
  622TMC3    C5 9266   2.456   3.046   9.366  0.6606 -0.4716  0.0941
  622TMC3    C6 9267   2.427   3.082   9.496  0.1643  0.2425 -0.1534
  622TMC3     C 9268   2.814   3.019   9.372  0.1272  0.2329  0.2863
  622TMC3     O 9269   2.825   2.954   9.271 -0.1865 -0.2643  0.6889
  622TMC3     H 9270   2.736   3.064   9.627 -1.2197  0.1676  1.4080
  622TMC3    H1 9271   2.611   2.990   9.227 -0.3799  1.4134 -1.0075
  622TMC3    H2 9272   2.327   3.086   9.537 -0.0909 -0.2888 -0.7337
  622TMC3    C7 9273   2.354   3.017   9.269  0.3756  0.7947  0.7582
  622TMC3    C8 9274   2.504   3.066   9.730 -0.0989 -0.0059  0.3044
  622TMC3    O1 9275   2.384   2.971   9.160 -0.1232  0.1457 -0.6629
  622TMC3    O2 9276   2.594   3.012   9.791  0.7171  0.0169  0.9858
  623MPD2     C 9277   2.170   3.491  16.086  0.2258 -0.4175 -0.2940
  623MPD2    C1 9278   2.089   3.535  16.190 -0.5680  0.3698  1.1255
  623MPD2    C2 9279   2.151   3.603  16.297 -0.2012 -0.2703  0.1446
  623MPD2    C3 9280   2.283   3.624  16.300 -0.0507  0.0436 -0.6793
  623MPD2    C4 9281   2.365   3.571  16.201  0.3065  0.2612 -0.0080
  623MPD2    C5 9282   2.306   3.507  16.095  0.1313  0.2524 -0.4511
  623MPD2     H 9283   2.092   3.658  16.369 -1.5037  1.0297 -1.9190
  623MPD2    H1 9284   2.472   3.579  16.195  0.3095 -0.7618 -1.5737
  623MPD2    H2 9285   2.126   3.433  16.006 -2.3302 -1.7934  2.0837
  623MPD2    H3 9286   2.359   3.460  16.013  0.7702  2.1758 -1.1529
  623MPD2     N 9287   2.320   3.693  16.412 -0.0658 -0.4696 -0.9066
  623MPD2    H5 9288   2.244   3.710  16.477  0.1956  0.3598 -0.8154
  623MPD2    N1 9289   1.957   3.496  16.187  0.6166  0.4532 -0.6802
  623MPD2    H7 9290   1.917   3.459  16.101 -1.6409  0.7626  0.2381
  624TMC3    C1 9291   2.530   3.782  16.783  0.2120 -0.7612 -0.0283
  624TMC3    C2 9292   2.405   3.771  16.834 -0.6276  0.0496 -0.1283
  624TMC3    C3 9293   2.296   3.805  16.755  1.0855  0.3684 -0.5401
  624TMC3    C4 9294   2.549   3.794  16.647 -0.3387 -0.4188  0.4772
  624TMC3    C5 9295   2.437   3.803  16.566 -0.6368 -0.2624 -0.1127
  624TMC3    C6 9296   2.314   3.827  16.621  0.7213  0.4987  1.1829
  624TMC3     C 9297   2.641   3.770  16.874 -0.2250 -0.6686  0.1208
  624TMC3     O 9298   2.628   3.702  16.975  0.5528  0.3381 -0.2287
  624TMC3     H 9299   2.390   3.777  16.941 -0.5789 -2.1882  0.0125
  624TMC3    H1 9300   2.646   3.781  16.601 -1.2575 -0.8236 -1.3546
  624TMC3    H2 9301   2.235   3.857  16.553 -0.3528 -0.6756  1.9148
  624TMC3    C7 9302   2.444   3.732  16.440  0.2833  0.2255  0.1442
  624TMC3    C8 9303   2.163   3.775  16.795  0.2973 -0.3826  0.6563
  624TMC3    O1 9304   2.549   3.687  16.406  0.2669 -0.5445  0.0190
  624TMC3    O2 9305   2.153   3.674  16.861  0.1797  0.5493 -0.3584
  625MPD2     C 9306   2.356   0.222   0.610  0.1506  0.6054 -0.0549
  625MPD2    C1 9307   2.417   0.336   0.564  0.9555 -0.4539 -0.1369
  625MPD2    C2 9308   2.551   0.358   0.603  0.0220 -0.6546  0.1782
  625MPD2    C3 9309   2.621   0.265   0.677  0.1243 -0.0312 -0.6333
  625MPD2    C4 9310   2.565   0.140   0.708  0.2918 -0.0932  0.0397
  625MPD2    C5 9311   2.434   0.125   0.674  0.0750 -0.1425 -0.1458
  625MPD2     H 9312   2.599   0.450   0.572 -1.6844 -0.1291 -0.9057
  625MPD2    H1 9313   2.611   0.061   0.767 -0.1099 -2.0356 -2.2688
  625MPD2    H2 9314   2.252   0.197   0.588  0.8647 -0.1302 -2.6057
  625MPD2    H3 9315   2.390   0.032   0.710  2.4253 -0.4747  1.8181
  625MPD2     N 9316   2.762   0.290   0.707  0.7499 -0.7761 -0.3765
  625MPD2    H5 9317   2.793   0.385   0.689 -1.0275 -0.3643 -1.2733
  625MPD2    N1 9318   2.340   0.440   0.495 -0.5163 -0.4155  0.3866
  625MPD2    H7 9319   2.376   0.535   0.488 -0.0698 -0.5763  0.5393
  626TMC3    C1 9320   2.152   0.547   0.410  0.3559 -0.3409 -0.3750
  626TMC3    C2 9321   2.074   0.555   0.296  0.2247 -0.3330  0.4758
  626TMC3    C3 9322   1.993   0.666   0.279 -0.0063  0.8343  0.1845
  626TMC3    C4 9323   2.149   0.641   0.513 -0.6314 -0.5938  0.4829
  626TMC3    C5 9324   2.054   0.745   0.495  0.8611 -0.1209 -0.4995
  626TMC3    C6 9325   1.981   0.761   0.380  0.0664  0.1627  0.0715
  626TMC3     C 9326   2.217   0.421   0.436 -0.6179 -0.3786 -0.6027
  626TMC3     O 9327   2.166   0.315   0.403 -0.0258  0.4332  0.3038
  626TMC3     H 9328   2.086   0.472   0.227 -1.8879  0.2767 -0.6503
  626TMC3    H1 9329   2.216   0.633   0.598 -1.1759 -1.1319  0.8617
  626TMC3    H2 9330   1.920   0.849   0.363  0.5297  0.4766  0.0590
  626TMC3    C7 9331   2.013   0.812   0.618 -0.5198 -0.0262 -0.4758
  626TMC3    C8 9332   1.920   0.669   0.148  0.4845 -0.2408  0.7732
  626TMC3    O1 9333   2.098   0.832   0.707  0.2671  0.1425  0.1228
  626TMC3    O2 9334   1.962   0.604   0.051  0.1775 -0.2308  0.2213
  627MPD2     C 9335   0.803   0.109  13.916 -0.2341 -0.7111  0.5741
  627MPD2    C1 9336   0.822   0.105  14.050 -0.4848 -0.3526 -0.1964
  627MPD2    C2 9337   0.741   0.035  14.135 -0.1420  0.5839 -0.3015
  627MPD2    C3 9338   0.645   4.690  14.084  0.2928 -0.4702  0.3188
  627MPD2    C4 9339   0.642   4.680  13.951  0.2613 -0.6710 -0.0111
  627MPD2    C5 9340   0.717   0.020  13.866 -0.1663 -0.7623  1.1910
  627MPD2     H 9341   0.756   0.039  14.243  1.7628 -0.9927 -0.4854
  627MPD2    H1 9342   0.557   4.629  13.907 -0.9174  0.6310  0.7567
  627MPD2    H2 9343   0.871   0.161  13.850 -2.5804  1.6624  0.0129
  627MPD2    H3 9344   0.705   4.735  13.760  0.9327 -0.4396  0.9969
  627MPD2     N 9345   0.568   4.616  14.183  0.5344  1.0180 -0.1130
  627MPD2    H5 9346   0.598   4.628  14.279  0.0771 -0.6264  0.2395
  627MPD2    N1 9347   0.922   0.189  14.117  0.2073 -0.3941  0.2241
  627MPD2    H7 9348   0.959   0.163  14.208  1.0836  2.0249  0.5642
  628TMC3    C1 9349   1.083   0.352  14.142  0.1115 -0.2068 -0.1558
  628TMC3    C2 9350   1.177   0.279  14.205 -0.0693 -0.8623 -1.2631
  628TMC3    C3 9351   1.292   0.346  14.242 -0.6876 -0.8588 -0.2272
  628TMC3    C4 9352   1.097   0.487  14.116 -0.1312 -0.5480  0.2235
  628TMC3    C5 9353   1.208   0.550  14.151 -0.5813  0.6317  0.8733
  628TMC3    C6 9354   1.303   0.482  14.217  0.1943 -0.6152  0.2264
  628TMC3     C 9355   0.991   0.291  14.056 -0.4264  0.6312  0.5066
  628TMC3     O 9356   0.970   0.349  13.949 -0.1448  0.0065  0.1701
  628TMC3     H 9357   1.176   0.172  14.222 -3.0983 -0.7892 -1.0060
  628TMC3    H1 9358   1.013   0.535  14.068  0.3095 -0.8938 -0.8806
  628TMC3    H2 9359   1.379   0.545  14.262  0.0097  0.3194 -0.7703
  628TMC3    C7 9360   1.201   0.691  14.199 -0.6663  0.2445  0.4065
  628TMC3    C8 9361   1.414   0.279  14.254 -0.0895  0.1049  0.0452
  628TMC3    O1 9362   1.254   0.709  14.311 -0.4720 -0.2999  0.8325
  628TMC3    O2 9363   1.507   0.324  14.189  0.4177 -0.6066 -0.2448
  629MPD2     C 9364   3.921   3.462  16.594 -0.5838  0.0107  0.4971
  629MPD2    C1 9365   3.919   3.544  16.488 -0.6373 -0.0840  0.0701
  629MPD2    C2 9366   3.794   3.597  16.454  0.5137 -0.9100 -0.8236
  629MPD2    C3 9367   3.675   3.564  16.522  0.4410  0.0327 -0.3817
  629MPD2    C4 9368   3.687   3.479  16.628  1.3343  0.5407  0.2798
  629MPD2    C5 9369   3.809   3.426  16.659 -0.3271  0.0679 -0.1000
  629MPD2     H 9370   3.786   3.668  16.372 -1.3916 -1.1510 -0.8492
  629MPD2    H1 9371   3.604   3.441  16.687  1.3020 -0.8514 -0.6474
  629MPD2    H2 9372   4.016   3.415  16.619 -0.2023  1.0933  1.1046
  629MPD2    H3 9373   3.818   3.369  16.751 -1.3115  2.6071  1.5584
  629MPD2     N 9374   3.553   3.609  16.462 -0.1240  0.4048 -0.1297
  629MPD2    H5 9375   3.463   3.567  16.485  0.3203 -0.3217  0.2874
  629MPD2    N1 9376   4.040   3.581  16.426 -0.1011  0.4444 -0.7322
  629MPD2    H7 9377   4.125   3.531  16.452 -1.6457 -3.3854 -3.0966
  630TMC3    C1 9378   4.196   3.682  16.281  0.2277  0.0885  0.0285
  630TMC3    C2 9379   4.240   3.793  16.215  0.4414  0.0660  0.7587
  630TMC3    C3 9380   4.376   3.801  16.189 -0.2845  0.5502 -0.4312
  630TMC3    C4 9381   4.278   3.578  16.305  0.2551 -0.4232 -0.6515
  630TMC3    C5 9382   4.410   3.589  16.280  0.1518 -0.5105  0.6445
  630TMC3    C6 9383   4.467   3.703  16.215 -0.0613 -0.3504  0.8395
  630TMC3     C 9384   4.058   3.671  16.322 -0.3327  0.7189 -0.3079
  630TMC3     O 9385   3.983   3.731  16.249 -0.1199  0.6525 -0.2391
  630TMC3     H 9386   4.174   3.879  16.222  0.3754 -0.0932  2.0618
  630TMC3    H1 9387   4.252   3.492  16.366  0.3456 -1.1487 -1.6295
  630TMC3    H2 9388   4.567   3.716  16.177 -0.3922 -0.1077  0.0373
  630TMC3    C7 9389   4.485   3.544  16.393 -0.0058  1.0824  0.2227
  630TMC3    C8 9390   4.442   3.929  16.149  0.1362  0.2479 -0.2744
  630TMC3    O1 9391   4.428   3.524  16.498  0.1122  0.0043 -0.2758
  630TMC3    O2 9392   4.564   3.931  16.161 -0.1103 -0.0231  0.3547
  631MPD2     C 9393   2.457   3.991  15.850 -0.1279 -0.2066  0.5482
  631MPD2    C1 9394   2.452   3.948  15.717 -0.0142 -0.2142 -0.3323
  631MPD2    C2 9395   2.473   3.821  15.692  0.1755  0.4097  0.5323
  631MPD2    C3 9396   2.507   3.725  15.791  0.2209 -0.8097  0.1508
  631MPD2    C4 9397   2.513   3.765  15.922 -0.3715 -0.5642  0.9565
  631MPD2    C5 9398   2.479   3.896  15.952  0.2294 -0.4070 -0.1927
  631MPD2     H 9399   2.460   3.794  15.588 -2.2554 -3.8280  1.9490
  631MPD2    H1 9400   2.524   3.701  16.009 -0.1801 -0.7261  0.8173
  631MPD2    H2 9401   2.427   4.089  15.886 -2.7813 -1.4863  1.8453
  631MPD2    H3 9402   2.465   3.939  16.050  1.5417 -0.5175  0.0379
  631MPD2     N 9403   2.521   3.588  15.747 -0.4895 -0.7027 -0.1152
  631MPD2    H5 9404   2.490   3.571  15.652 -1.1693  2.0485 -0.3697
  631MPD2    N1 9405   2.403   4.045  15.626  0.4296 -0.1411  0.5956
  631MPD2    H7 9406   2.377   4.135  15.666  0.6967 -0.3843  1.3126
  632TMC3    C1 9407   2.394   4.165  15.416 -0.2035  0.0602 -0.4671
  632TMC3    C2 9408   2.272   4.230  15.438  0.2287 -0.4460  0.1041
  632TMC3    C3 9409   2.211   4.277  15.327 -0.7270 -0.0014 -0.0553
  632TMC3    C4 9410   2.458   4.173  15.299 -0.0247  0.2035  0.1485
  632TMC3    C5 9411   2.386   4.214  15.185 -0.3796 -0.5776 -0.3485
  632TMC3    C6 9412   2.259   4.252  15.203 -0.5511 -0.0665  0.5934
  632TMC3     C 9413   2.421   4.040  15.490 -0.1444  0.2653 -0.4920
  632TMC3     O 9414   2.445   3.946  15.412 -0.0312  0.1188  1.1942
  632TMC3     H 9415   2.234   4.257  15.536 -0.3059  2.9299 -1.0098
  632TMC3    H1 9416   2.560   4.138  15.291 -0.0887  0.0616 -0.0544
  632TMC3    H2 9417   2.209   4.290  15.115 -1.9864 -1.9427  0.5988
  632TMC3    C7 9418   2.401   4.126  15.072 -0.2961  0.0475  0.5988
  632TMC3    C8 9419   2.068   4.278  15.343  0.8160  0.3232 -0.7070
  632TMC3    O1 9420   2.346   4.163  14.967  0.0123 -0.4352 -0.2853
  632TMC3    O2 9421   2.025   4.312  15.452 -0.4418 -0.2804 -0.3149
  633MPD2     C 9422   1.804   1.639  17.100 -0.4742 -0.3208 -0.1332
  633MPD2    C1 9423   1.816   1.587  16.972  0.2789 -0.0559  0.1491
  633MPD2    C2 9424   1.848   1.454  16.965 -0.1833 -0.6444 -0.1065
  633MPD2    C3 9425   1.884   1.375  17.075  0.2813  0.2520 -0.4978
  633MPD2    C4 9426   1.874   1.431  17.198 -0.9744 -0.4453 -0.5625
  633MPD2    C5 9427   1.831   1.562  17.210  0.4497 -0.7272  0.2053
  633MPD2     H 9428   1.853   1.411  16.865 -1.7564 -0.9997 -0.0269
  633MPD2    H1 9429   1.900   1.382  17.292 -3.0142 -0.8120 -0.1822
  633MPD2    H2 9430   1.778   1.742  17.125 -2.8374 -0.4514 -1.9796
  633MPD2    H3 9431   1.823   1.607  17.308  1.5578 -2.0483  0.9138
  633MPD2     N 9432   1.925   1.244  17.067  0.0392 -0.2270 -0.1633
  633MPD2    H5 9433   1.936   1.203  17.159  1.1280 -0.5780 -0.4427
  633MPD2    N1 9434   1.815   1.664  16.852  0.6835  0.2072  0.2186
  633MPD2    H7 9435   1.833   1.608  16.770  1.0220  1.4445 -0.5539
  634TMC3    C1 9436   1.833   1.862  16.711  0.8080 -0.3375  0.7433
  634TMC3    C2 9437   1.801   1.789  16.599 -0.1455 -0.3046 -0.0239
  634TMC3    C3 9438   1.858   1.817  16.475 -0.2857 -0.2207  0.5005
  634TMC3    C4 9439   1.905   1.971  16.700 -0.6771  0.5041 -0.0087
  634TMC3    C5 9440   1.972   1.992  16.584  0.8522 -0.6032 -0.6406
  634TMC3    C6 9441   1.945   1.918  16.471 -0.0610 -0.1131  0.7722
  634TMC3     C 9442   1.804   1.801  16.845 -0.9173  0.0384  0.2385
  634TMC3     O 9443   1.795   1.880  16.940  0.5515  0.1113 -0.5483
  634TMC3     H 9444   1.742   1.699  16.618  1.0759 -0.8769  1.0932
  634TMC3    H1 9445   1.933   2.015  16.795 -2.8319  2.2646 -0.1910
  634TMC3    H2 9446   1.996   1.937  16.377  2.7856 -1.2819  2.0836
  634TMC3    C7 9447   2.049   2.117  16.567  0.2731 -0.1159  0.4117
  634TMC3    C8 9448   1.852   1.728  16.360 -0.3104 -0.4380 -0.9179
  634TMC3    O1 9449   2.080   2.139  16.452 -0.2827 -0.2321  0.5314
  634TMC3    O2 9450   1.920   1.745  16.262  0.9911  0.3644 -0.4152
  635TMC3    C1 9451   2.364   2.929   0.267  0.1376 -0.4697  0.3263
  635TMC3    C2 9452   2.387   2.948   0.132 -0.1009  0.4895 -0.0758
  635TMC3    C3 9453   2.318   2.871   0.041  0.0267  0.3022  0.8116
  635TMC3    C4 9454   2.272   2.828   0.307 -0.6348  0.0392  0.0151
  635TMC3    C5 9455   2.216   2.750   0.210 -0.2607  0.3550 -0.3551
  635TMC3    C6 9456   2.228   2.772   0.079 -0.2383  0.9682 -0.3364
  635TMC3     C 9457   2.397   3.038   0.357  0.2505 -0.0428 -0.5166
  635TMC3     O 9458   2.464   3.131   0.312  0.5683  0.7829 -0.0981
  635TMC3     H 9459   2.453   3.028   0.099 -0.1619 -0.8108 -3.2878
  635TMC3    H1 9460   2.248   2.818   0.412  1.2134 -1.4020  0.3011
  635TMC3    H2 9461   2.171   2.707   0.014 -1.1378 -0.3695  1.7862
  635TMC3    C7 9462   2.168   2.617   0.248  0.7365 -0.2612 -0.1269
  635TMC3    C8 9463   2.319   2.910  17.652 -0.1679  0.3993  0.7491
  635TMC3    O1 9464   2.169   2.534   0.156 -0.2984  0.2155 -0.3855
  635TMC3    O2 9465   2.224   2.887  17.581  0.2934  0.5348  0.0354
  636MPD2     C 9466   3.433   1.735  16.021  0.5811  0.4333 -0.8705
  636MPD2    C1 9467   3.554   1.690  16.068  0.6795 -0.0907 -0.1746
  636MPD2    C2 9468   3.570   1.560  16.111  0.2559  1.1055  0.6653
  636MPD2    C3 9469   3.458   1.476  16.117  0.0898  0.1696  0.7938
  636MPD2    C4 9470   3.335   1.521  16.069 -0.0191 -0.5023  0.5153
  636MPD2    C5 9471   3.326   1.648  16.022 -0.4588 -0.6709 -0.4619
  636MPD2     H 9472   3.661   1.527  16.159 -1.2707  1.3203  3.6723
  636MPD2    H1 9473   3.252   1.454  16.086  0.0784 -0.7468  0.0281
  636MPD2    H2 9474   3.418   1.836  15.984  1.9354  1.8910  2.6073
  636MPD2    H3 9475   3.235   1.671  15.968 -0.6158  0.3006  0.2161
  636MPD2     N 9476   3.480   1.349  16.168  0.8517 -0.1519 -0.6041
  636MPD2    H5 9477   3.572   1.336  16.210 -0.2863 -3.0611  1.0088
  636MPD2    N1 9478   3.668   1.762  16.069 -0.3109 -0.3083 -0.2061
  636MPD2    H7 9479   3.755   1.711  16.083  0.6638  1.1288 -0.9475
  637TMC3    C1 9480   3.472   1.126  16.226 -0.6498 -1.1805  0.3551
  637TMC3    C2 9481   3.569   1.160  16.313 -0.0933 -0.5718  0.3959
  637TMC3    C3 9482   3.685   1.083  16.307  0.1910 -0.1429  0.5833
  637TMC3    C4 9483   3.488   1.020  16.136 -0.6118 -0.0694  1.1170
  637TMC3    C5 9484   3.606   0.954  16.131  0.1690 -0.6691 -0.5053
  637TMC3    C6 9485   3.699   0.973  16.222 -0.6174  0.4971 -0.5682
  637TMC3     C 9486   3.403   1.239  16.154  0.1371 -0.3819 -0.1438
  637TMC3     O 9487   3.293   1.224  16.102  0.3772  0.2559  0.3489
  637TMC3     H 9488   3.562   1.249  16.375 -0.6525 -0.0966 -0.3551
  637TMC3    H1 9489   3.402   0.998  16.074  1.6853 -2.7283 -1.1217
  637TMC3    H2 9490   3.789   0.913  16.223 -0.4304  0.7931  0.5373
  637TMC3    C7 9491   3.657   0.940  15.997 -0.3077  0.6001 -0.1872
  637TMC3    C8 9492   3.810   1.154  16.317 -0.6752 -0.0601  1.2322
  637TMC3    O1 9493   3.585   0.925  15.898 -1.0846 -0.2694  0.1830
  637TMC3    O2 9494   3.889   1.131  16.225 -0.3043 -0.6517  0.2479
  638MPD2     C 9495   2.975   0.773  14.764 -0.4123 -0.1994  0.0885
  638MPD2    C1 9496   2.929   0.661  14.695 -0.2954 -0.1821  0.1572
  638MPD2    C2 9497   2.854   0.575  14.772  0.0692  0.4211 -0.3376
  638MPD2    C3 9498   2.822   0.591  14.903  0.4470  0.2499  0.6777
  638MPD2    C4 9499   2.871   0.698  14.973  0.0722 -0.0498 -0.2995
  638MPD2    C5 9500   2.952   0.787  14.904 -0.0395  0.4530 -0.9247
  638MPD2     H 9501   2.797   0.498  14.721  0.8874 -0.7671  0.5803
  638MPD2    H1 9502   2.851   0.724  15.077  2.5561 -2.7892  0.8624
  638MPD2    H2 9503   3.038   0.847  14.716 -0.4106 -1.4062 -1.7949
  638MPD2    H3 9504   2.999   0.877  14.943 -1.5983  0.6089  0.5847
  638MPD2     N 9505   2.750   0.490  14.964 -0.8799  0.0845  0.7182
  638MPD2    H5 9506   2.733   0.410  14.903  1.0374  0.1811  0.0655
  638MPD2    N1 9507   2.971   0.649  14.562 -0.8610 -0.1830  0.0818
  638MPD2    H7 9508   3.043   0.714  14.531 -0.4325 -0.0361  1.3453
  639TMC3    C1 9509   2.658   0.342  15.126 -0.0716  0.2578 -0.1189
  639TMC3    C2 9510   2.577   0.293  15.027  0.3093 -0.6866  0.3298
  639TMC3    C3 9511   2.582   0.159  15.008 -0.0124  0.0467  0.7546
  639TMC3    C4 9512   2.738   0.253  15.199 -0.2604  0.4166 -0.0863
  639TMC3    C5 9513   2.750   0.128  15.159 -0.0305  0.5617 -0.3441
  639TMC3    C6 9514   2.676   0.077  15.063 -0.1379  1.0365  0.4302
  639TMC3     C 9515   2.728   0.466  15.101 -0.3994  0.3689 -0.1843
  639TMC3     O 9516   2.756   0.527  15.202  0.6265  0.6141  0.3442
  639TMC3     H 9517   2.508   0.359  14.975 -2.1082 -1.1534  2.9287
  639TMC3    H1 9518   2.822   0.284  15.260  2.0294 -0.4382 -2.7735
  639TMC3    H2 9519   2.701   4.721  15.015  3.1865  1.0171  2.2119
  639TMC3    C7 9520   2.865   0.052  15.190 -0.5444 -0.9339  0.0498
  639TMC3    C8 9521   2.517   0.096  14.897 -0.1243 -0.1947  0.6064
  639TMC3    O1 9522   2.888   0.010  15.301 -0.4276  0.1959  0.1695
  639TMC3    O2 9523   2.580   0.016  14.826 -0.3844  0.3798  1.0194
  640MPD2     C 9524   2.285   4.298   9.203  0.6381 -0.5025 -0.0405
  640MPD2    C1 9525   2.415   4.260   9.236 -0.0015 -0.8849  0.2332
  640MPD2    C2 9526   2.474   4.303   9.358  0.0349 -0.2995  0.5204
  640MPD2    C3 9527   2.404   4.379   9.448  1.0103 -0.2198 -0.6387
  640MPD2    C4 9528   2.275   4.414   9.421  0.1917  0.4339  0.2594
  640MPD2    C5 9529   2.217   4.373   9.301 -0.3926  0.4179 -0.0667
  640MPD2     H 9530   2.577   4.280   9.383  0.6874  0.7528 -1.1709
  640MPD2    H1 9531   2.216   4.481   9.482 -1.1185 -0.8219  0.3613
  640MPD2    H2 9532   2.239   4.266   9.110 -1.6837  2.4184  0.1014
  640MPD2    H3 9533   2.114   4.403   9.284 -0.6732 -1.2596 -1.2459
  640MPD2     N 9534   2.466   4.431   9.569 -0.3170 -0.2529 -0.3697
  640MPD2    H5 9535   2.405   4.470   9.639 -1.1288  1.1407 -1.8608
  640MPD2    N1 9536   2.489   4.180   9.143 -0.4131  0.2564 -0.3451
  640MPD2    H7 9537   2.444   4.173   9.052  0.2272  2.5787 -0.8345
  641TMC3    C1 9538   2.670   4.065   9.052 -0.0238  0.1899  0.5475
  641TMC3    C2 9539   2.797   4.018   9.069 -0.5677  0.2963 -0.2660
  641TMC3    C3 9540   2.852   3.933   8.977 -0.2051  0.0244 -0.2104
  641TMC3    C4 9541   2.590   4.031   8.944 -0.5518 -0.3646 -0.0742
  641TMC3    C5 9542   2.646   3.947   8.854  0.4755 -0.6325 -0.3751
  641TMC3    C6 9543   2.774   3.904   8.870 -0.4623 -0.8140  0.0088
  641TMC3     C 9544   2.610   4.130   9.167 -0.0093  0.5332  0.1429
  641TMC3     O 9545   2.676   4.124   9.271  0.1895  0.2301  0.3273
  641TMC3     H 9546   2.850   4.053   9.157 -0.2703 -2.4156  0.6321
  641TMC3    H1 9547   2.491   4.073   8.938 -0.1720  0.8235  2.0469
  641TMC3    H2 9548   2.826   3.847   8.794 -0.4488 -1.6385  0.6259
  641TMC3    C7 9549   2.571   3.890   8.749  0.2137 -0.4556 -0.3163
  641TMC3    C8 9550   2.960   3.837   9.012 -0.9671  0.0846  0.0438
  641TMC3    O1 9551   2.453   3.927   8.734 -0.0728 -0.1002  0.1151
  641TMC3    O2 9552   2.992   3.749   8.931 -0.4378 -0.0609 -0.7395
  642TMC3    C1 9553   4.569   0.757  12.051 -0.2246 -0.4511 -0.9180
  642TMC3    C2 9554   4.702   0.754  12.072  0.0812 -0.3293 -0.3179
  642TMC3    C3 9555   0.016   0.630  12.110 -0.7741  0.3776  1.2408
  642TMC3    C4 9556   4.483   0.646  12.056  0.5331 -0.5373 -0.4847
  642TMC3    C5 9557   4.544   0.524  12.096 -0.4114  0.1910  0.4706
  642TMC3    C6 9558   4.673   0.513  12.133  0.0661  0.7250  0.7938
  642TMC3     C 9559   4.515   0.889  12.066 -0.2820 -0.2604  0.6938
  642TMC3     O 9560   4.584   0.982  12.026 -0.4233 -0.1753 -0.0803
  642TMC3     H 9561   0.028   0.840  12.060 -1.4402  1.0267  1.3551
  642TMC3    H1 9562   4.378   0.654  12.032  0.3346  0.5505  0.7661
  642TMC3    H2 9563   4.710   0.416  12.165 -1.3216 -0.3266 -0.7823
  642TMC3    C7 9564   4.459   0.405  12.097  0.6414 -0.2852  0.0887
  642TMC3    C8 9565   0.154   0.609  12.141  0.2684 -0.0988  0.0955
  642TMC3    O1 9566   4.380   0.390  12.002 -0.1618 -0.2013 -0.4241
  642TMC3    O2 9567   0.193   0.493  12.163  0.2610 -0.0987  0.5120
  643TMC3    C1 9568   4.212   4.436  17.702 -0.0897  0.5724 -0.2816
  643TMC3    C2 9569   4.085   4.390  17.708  0.2971  0.4899 -0.4592
  643TMC3    C3 9570   4.036   4.334  17.590  0.6057 -0.5171  0.4307
  643TMC3    C4 9571   4.287   4.431  17.585  0.1770  0.1724 -0.4325
  643TMC3    C5 9572   4.247   4.358  17.475 -0.0404 -0.4870 -0.1103
  643TMC3    C6 9573   4.119   4.300  17.478  0.2480  0.2464  0.4117
  643TMC3     C 9574   4.262   4.529   0.054 -0.3575 -0.0509 -0.0163
  643TMC3     O 9575   4.171   4.588   0.113  0.1785  0.1943  0.0787
  643TMC3     H 9576   4.030   4.412   0.048 -0.1937  0.3395 -0.7228
  643TMC3    H1 9577   4.381   4.481  17.569  0.7834 -0.7245  0.3506
  643TMC3    H2 9578   4.084   4.231  17.402 -0.0134  0.2463  0.5319
  643TMC3    C7 9579   4.292   4.426  17.354 -0.2791 -0.2395  0.1512
  643TMC3    C8 9580   3.918   4.405  17.556  1.1200  0.3031  0.1765
  643TMC3    O1 9581   4.319   4.546  17.365 -0.1977  0.5139  0.0224
  643TMC3    O2 9582   3.890   4.498  17.632 -0.1702  0.1123  0.0565
  644MPD2     C 9583   3.162   4.234   8.877 -0.0184 -0.2690 -0.4134
  644MPD2    C1 9584   3.138   4.194   9.010 -0.3506 -0.5742 -0.1577
  644MPD2    C2 9585   3.032   4.256   9.072 -0.4568 -0.3433  0.0723
  644MPD2    C3 9586   2.954   4.351   9.011  0.8059 -0.0408 -0.0950
  644MPD2    C4 9587   2.992   4.403   8.886 -0.0877  0.1078  0.5106
  644MPD2    C5 9588   3.093   4.341   8.816 -0.1971  0.0271 -0.0744
  644MPD2     H 9589   3.012   4.230   9.175 -0.4506  0.7118  0.3438
  644MPD2    H1 9590   2.934   4.476   8.831 -2.3940 -1.7987  0.3873
  644MPD2    H2 9591   3.231   4.188   8.808 -0.5406  0.1980 -1.2579
  644MPD2    H3 9592   3.118   4.371   8.715  0.7432  0.6543  0.3449
  644MPD2     N 9593   2.843   4.402   9.086  0.2549  0.0802  0.2611
  644MPD2    H5 9594   2.837   4.378   9.185  1.7053 -0.9373  0.1032
  644MPD2    N1 9595   3.224   4.099   9.066  0.3536 -0.2237 -0.9580
  644MPD2    H7 9596   3.299   4.067   9.006  1.7970  1.9028 -0.2895
  645TMC3    C1 9597   2.654   4.547   9.130 -0.0300  0.1745 -0.4521
  645TMC3    C2 9598   2.699   4.597   9.247  0.4534  0.3437  0.5380
  645TMC3    C3 9599   2.617   4.675   9.322  0.8508  0.6145  0.0952
  645TMC3    C4 9600   2.527   4.573   9.086  0.5891  0.2070 -0.0966
  645TMC3    C5 9601   2.443   4.639   9.166  0.2319 -0.0967 -0.1148
  645TMC3    C6 9602   2.482   4.688   9.293  0.2510 -1.0969  0.5527
  645TMC3     C 9603   2.738   4.476   9.034  0.8013 -0.0038  0.2216
  645TMC3     O 9604   2.705   4.477   8.919 -0.1699 -0.5271  0.1618
  645TMC3     H 9605   2.807   4.599   9.263  1.0756 -0.1327 -3.3901
  645TMC3    H1 9606   2.489   4.527   8.995 -1.6991 -0.6825  1.2851
  645TMC3    H2 9607   2.427   0.021   9.354 -0.1668 -1.0112  0.0844
  645TMC3    C7 9608   2.305   4.654   9.115 -0.3777  0.2981 -0.0185
  645TMC3    C8 9609   2.653   4.726   9.458 -0.1758  0.5887  0.1365
  645TMC3    O1 9610   2.292   4.616   9.000 -0.7542  0.1935  0.2689
  645TMC3    O2 9611   2.564   0.028   9.534 -0.0562  0.3512  0.5156
  646MPD2     C 9612   2.975   4.041  14.423 -0.0408  0.0800  0.0363
  646MPD2    C1 9613   2.896   4.027  14.531  0.0926  0.0020 -0.0864
  646MPD2    C2 9614   2.761   4.065  14.521 -0.6658  0.2365  0.1166
  646MPD2    C3 9615   2.720   4.145  14.418 -0.4457 -0.6685  0.9201
  646MPD2    C4 9616   2.811   4.175  14.314 -0.5883  0.1995  0.2630
  646MPD2    C5 9617   2.935   4.116  14.320  0.2334  0.6717  0.0169
  646MPD2     H 9618   2.694   4.030  14.599  2.3040 -2.8600  1.2765
  646MPD2    H1 9619   2.791   4.241  14.230 -1.2073 -0.2315  0.0714
  646MPD2    H2 9620   3.071   3.991  14.417  0.2460  0.7881 -1.1905
  646MPD2    H3 9621   3.006   4.131  14.239 -0.3008  0.1719 -0.5357
  646MPD2     N 9622   2.586   4.182  14.402  0.0375  0.4662  0.1998
  646MPD2    H5 9623   2.521   4.140  14.469  1.9161 -2.8057 -0.0193
  646MPD2    N1 9624   2.946   3.942  14.633 -0.5287  0.0298 -0.0776
  646MPD2    H7 9625   3.042   3.908  14.626 -0.0966  0.7645  2.1236
  647TMC3    C1 9626   2.968   3.833  14.837  0.1412  0.5503 -0.6123
  647TMC3    C2 9627   2.910   3.775  14.949 -0.2430  0.0915  0.1983
  647TMC3    C3 9628   2.982   3.710  15.041  0.2296  0.4482  0.1449
  647TMC3    C4 9629   3.105   3.830  14.817  0.0899 -0.6062 -0.1745
  647TMC3    C5 9630   3.175   3.768  14.919 -0.3500  0.5088 -0.2557
  647TMC3    C6 9631   3.120   3.705  15.029 -0.1480 -0.0315  0.3455
  647TMC3     C 9632   2.883   3.905  14.748 -0.0297  0.1154 -1.0870
  647TMC3     O 9633   2.771   3.926  14.791  0.7097 -0.2394 -0.0860
  647TMC3     H 9634   2.802   3.767  14.952 -0.1335 -1.1247  1.0302
  647TMC3    H1 9635   3.155   3.890  14.743 -1.8263  0.0266 -0.9599
  647TMC3    H2 9636   3.182   3.647  15.096  0.8696 -1.8998 -2.2024
  647TMC3    C7 9637   3.313   3.733  14.894  0.1574 -0.0233  0.4010
  647TMC3    C8 9638   2.930   3.591  15.097 -0.2949 -0.4917  0.7671
  647TMC3    O1 9639   3.367   3.663  14.977  0.2600  0.5696  0.1111
  647TMC3    O2 9640   2.866   3.523  15.019 -0.3029  0.3723 -0.2583
  648TMC3    C1 9641   2.382   1.785  15.908  0.0260  0.7329 -0.1180
  648TMC3    C2 9642   2.334   1.675  15.836 -0.1513 -0.0782 -0.0375
  648TMC3    C3 9643   2.290   1.679  15.713 -0.3400  0.3034  0.1759
  648TMC3    C4 9644   2.396   1.902  15.838 -0.2087  0.2446  0.5008
  648TMC3    C5 9645   2.358   1.898  15.707  0.1651 -0.0186  0.5606
  648TMC3    C6 9646   2.296   1.794  15.642 -0.3772  0.5102 -0.3920
  648TMC3     C 9647   2.383   1.797  16.050  0.2936  0.3120 -0.3374
  648TMC3     O 9648   2.462   1.882  16.093 -0.0343  0.2273  0.5372
  648TMC3     H 9649   2.331   1.580  15.887 -0.5696 -0.2622 -0.4007
  648TMC3    H1 9650   2.463   1.978  15.876 -0.1135 -0.5794  1.9746
  648TMC3    H2 9651   2.276   1.802  15.536 -1.9125 -1.2528 -0.2343
  648TMC3    C7 9652   2.367   2.018  15.634 -0.3685  0.0031  0.7310
  648TMC3    C8 9653   2.267   1.556  15.646  0.2679  0.3673  0.5085
  648TMC3    O1 9654   2.370   2.014  15.511  0.2816 -0.2455  0.1400
  648TMC3    O2 9655   2.161   1.544  15.581 -0.2611 -0.0899  0.5502
  649TMC3    C1 9656   1.136   2.937  12.675 -0.7936 -0.2102 -0.0747
  649TMC3    C2 9657   1.222   2.977  12.579 -0.2565 -0.2630 -0.9848
  649TMC3    C3 9658   1.360   2.958  12.601 -0.8048 -0.2729 -0.2042
  649TMC3    C4 9659   1.172   2.864  12.785  0.0085  0.5912  0.1994
  649TMC3    C5 9660   1.308   2.832  12.801 -0.7757  0.2416  0.0666
  649TMC3    C6 9661   1.399   2.888  12.714 -0.3582 -0.7067 -0.4354
  649TMC3     C 9662   0.999   2.958  12.625 -0.1580  0.2164 -0.2793
  649TMC3     O 9663   0.911   2.974  12.707 -0.7693 -0.3708  0.0578
  649TMC3     H 9664   1.192   3.046  12.501  2.1203 -0.4388 -2.0682
  649TMC3    H1 9665   1.094   2.855  12.861 -2.6278  0.3490 -2.5119
  649TMC3    H2 9666   1.503   2.870  12.740 -0.3162  0.6529  0.3191
  649TMC3    C7 9667   1.357   2.767  12.921  0.2927  0.7529  0.3824
  649TMC3    C8 9668   1.451   3.058  12.552  0.2528  0.6751  0.2436
  649TMC3    O1 9669   1.463   2.821  12.965  0.1510  0.3904 -0.3857
  649TMC3    O2 9670   1.540   3.109  12.621  0.2445  0.4472  0.1382
  650TMC3    C1 9671   4.002   4.446  12.765  1.2192 -0.2157 -0.0806
  650TMC3    C2 9672   4.037   4.577  12.769  0.6638 -0.5471  0.1155
  650TMC3    C3 9673   4.012   4.650  12.655  0.1713  0.9233 -0.0552
  650TMC3    C4 9674   3.931   4.391  12.657 -0.3150  0.1210  0.3350
  650TMC3    C5 9675   3.892   4.469  12.558  0.3480 -0.2363 -0.1103
  650TMC3    C6 9676   3.942   4.592  12.549  0.4382 -0.2619  0.1313
  650TMC3     C 9677   4.071   4.350  12.855 -0.5074  0.0907  0.6071
  650TMC3     O 9678   4.130   4.398  12.951 -0.2509  0.4936 -0.4611
  650TMC3     H 9679   4.090   4.626  12.850  0.6626 -1.2045  0.5092
  650TMC3    H1 9680   3.886   4.294  12.673  0.3442 -0.1254  0.7263
  650TMC3    H2 9681   3.921   4.650  12.459  1.7316 -0.5381 -0.3423
  650TMC3    C7 9682   3.773   4.431  12.490 -0.8245 -0.3223  0.7818
  650TMC3    C8 9683   3.987   0.054  12.679  0.2134  0.4798  0.1036
  650TMC3    O1 9684   3.721   4.320  12.516 -0.4695 -0.6657  0.2267
  650TMC3    O2 9685   4.073   0.132  12.722  0.1920 -0.3005 -0.1799
  651MPD2     C 9686   2.400   1.380  10.904  0.1555  0.1469 -0.2992
  651MPD2    C1 9687   2.350   1.516  10.901 -0.0259 -0.8613  0.7497
  651MPD2    C2 9688   2.443   1.612  10.924  0.1237 -0.0196 -0.1534
  651MPD2    C3 9689   2.575   1.582  10.949  1.0332 -0.8165  0.0010
  651MPD2    C4 9690   2.622   1.455  10.950  0.4435 -0.9607  0.6822
  651MPD2    C5 9691   2.532   1.351  10.928  0.4047 -0.1627  0.2963
  651MPD2     H 9692   2.407   1.714  10.931  0.9767  0.2115  0.9375
  651MPD2    H1 9693   2.721   1.420  10.979  0.4739  0.3073  2.1136
  651MPD2    H2 9694   2.339   1.298  10.868  0.9506 -1.4420  1.9691
  651MPD2    H3 9695   2.571   1.250  10.929  1.5490  0.2476 -1.6459
  651MPD2     N 9696   2.653   1.696  10.973 -0.1238 -0.3863  0.4366
  651MPD2    H5 9697   2.607   1.785  10.987  0.3785  0.0185 -0.4909
  651MPD2    N1 9698   2.215   1.551  10.880  0.1622  0.3337  0.6162
  651MPD2    H7 9699   2.196   1.650  10.865 -0.3136  0.1269 -0.1468
  652TMC3    C1 9700   3.040   1.962  11.029 -0.5495 -0.5469 -0.5198
  652TMC3    C2 9701   2.961   1.853  11.066  0.3881 -0.2481 -1.1737
  652TMC3    C3 9702   2.839   1.839  11.006  0.1935  0.5919  0.1663
  652TMC3    C4 9703   2.991   2.062  10.945 -0.3860  0.0025 -0.3520
  652TMC3    C5 9704   2.861   2.051  10.901  0.0256 -0.1339 -0.0998
  652TMC3    C6 9705   2.791   1.937  10.920  0.7927 -0.1846  0.3249
  652TMC3     C 9706   3.183   1.941  11.059 -0.0005  0.0536 -0.4243
  652TMC3     O 9707   3.215   1.853  11.140 -0.5713  0.3505  0.8542
  652TMC3     H 9708   2.999   1.774  11.129  0.8926  1.1374  0.2516
  652TMC3    H1 9709   3.062   2.135  10.906 -0.6472  0.5719  0.2407
  652TMC3    H2 9710   2.694   1.920  10.874  0.8928 -0.9426  0.3972
  652TMC3    C7 9711   2.815   2.143  10.797 -0.3122 -0.2118 -0.4547
  652TMC3    C8 9712   2.790   1.703  10.985  0.1352  0.3090  1.1374
  652TMC3    O1 9713   2.710   2.121  10.736  0.0612 -0.3947 -0.0241
  652TMC3    O2 9714   2.873   1.608  10.983  0.2165  0.1554  0.1074
  653MPD2     C 9715   1.762   1.919  17.697 -0.0469 -0.2967 -0.0937
  653MPD2    C1 9716   1.737   2.017  17.607  1.1011 -0.3636  0.4672
  653MPD2    C2 9717   1.664   1.988  17.495 -0.8253 -0.4137 -0.4077
  653MPD2    C3 9718   1.608   1.864  17.467  0.2448  0.5614 -0.0156
  653MPD2    C4 9719   1.624   1.763  17.561  0.4232 -0.5871  0.1282
  653MPD2    C5 9720   1.711   1.794  17.669  0.9247  0.8083 -0.0562
  653MPD2     H 9721   1.662   2.066  17.420 -0.4590  0.9752  1.0381
  653MPD2    H1 9722   1.598   1.662  17.532 -1.9640  0.0392  0.1545
  653MPD2    H2 9723   1.830   1.932   0.031  0.6978  1.3065 -0.9741
  653MPD2    H3 9724   1.750   1.716  17.733  2.3490  1.0327 -0.6462
  653MPD2     N 9725   1.539   1.850  17.342  0.6018  0.1018 -0.2725
  653MPD2    H5 9726   1.533   1.922  17.271  1.1252 -0.2255 -0.6485
  653MPD2    N1 9727   1.778   2.148  17.616  0.5214  0.8776 -0.1012
  653MPD2    H7 9728   1.744   2.213  17.546  1.7664  2.2521  0.5465
  654TMC3    C1 9729   1.428   1.761  17.169 -0.3889  0.7395 -0.7813
  654TMC3    C2 9730   1.377   1.891  17.146  0.9275  0.8462  1.0699
  654TMC3    C3 9731   1.342   1.917  17.018  0.2832 -0.6720  0.1704
  654TMC3    C4 9732   1.466   1.673  17.073  0.0090 -0.0541  0.0124
  654TMC3    C5 9733   1.429   1.709  16.941  0.2025  0.0642  0.6143
  654TMC3    C6 9734   1.372   1.834  16.915 -0.1187  0.4363 -0.2853
  654TMC3     C 9735   1.481   1.734  17.301 -0.8991 -0.3689  0.0093
  654TMC3     O 9736   1.493   1.615  17.338  0.8276  0.3058 -0.2650
  654TMC3     H 9737   1.334   1.947  17.228 -0.6352  1.2615 -0.0241
  654TMC3    H1 9738   1.529   1.589  17.100  2.3072  1.5937 -0.2827
  654TMC3    H2 9739   1.351   1.861  16.812  0.3480 -1.8249 -0.9979
  654TMC3    C7 9740   1.464   1.625  16.830  0.2529 -0.2250 -0.7354
  654TMC3    C8 9741   1.237   2.021  17.002  0.0280 -0.1893 -0.1042
  654TMC3    O1 9742   1.472   1.674  16.720 -0.3528  0.2594 -0.3524
  654TMC3    O2 9743   1.177   2.010  16.896  0.0818  0.3254 -0.3076
  655MPD2     C 9744   2.859   1.748  15.494 -0.5084  0.1203  1.0932
  655MPD2    C1 9745   2.861   1.874  15.441 -0.1251 -0.5224 -0.1895
  655MPD2    C2 9746   2.843   1.883  15.303 -0.5353 -0.3146 -0.0030
  655MPD2    C3 9747   2.845   1.765  15.228 -0.8967  0.3482  0.1359
  655MPD2    C4 9748   2.839   1.642  15.286  0.0572  0.1478 -0.3570
  655MPD2    C5 9749   2.847   1.630  15.421 -0.3406  0.6549 -0.2370
  655MPD2     H 9750   2.836   1.979  15.253 -0.1158 -0.1106  0.3196
  655MPD2    H1 9751   2.828   1.559  15.217 -0.6668  0.5614 -0.7454
  655MPD2    H2 9752   2.872   1.729  15.600  1.2138  1.3205  1.1010
  655MPD2    H3 9753   2.858   1.536  15.474  3.1292 -0.0687 -2.2526
  655MPD2     N 9754   2.827   1.773  15.089 -0.0372 -0.2577  0.5574
  655MPD2    H5 9755   2.808   1.684  15.044 -1.4992 -0.7814  2.2130
  655MPD2    N1 9756   2.867   1.989  15.511 -0.4281 -0.3462  0.2542
  655MPD2    H7 9757   2.851   2.076  15.461 -0.9224 -0.1604  0.7250
  656TMC3    C1 9758   2.877   2.137  15.689 -0.7967 -0.5213  0.1001
  656TMC3    C2 9759   2.835   2.167  15.815  0.2693  0.4576 -0.2732
  656TMC3    C3 9760   2.837   2.295  15.862  0.3971 -0.4084 -0.6218
  656TMC3    C4 9761   2.923   2.236  15.611 -0.6166  0.2745 -0.2521
  656TMC3    C5 9762   2.942   2.363  15.659 -0.2738  0.2730  0.5343
  656TMC3    C6 9763   2.891   2.392  15.787 -0.2738 -0.4364  0.4893
  656TMC3     C 9764   2.863   1.999  15.649 -0.5309  0.1951 -0.3485
  656TMC3     O 9765   2.849   1.913  15.737  0.0768  0.1488  0.3103
  656TMC3     H 9766   2.815   2.084  15.882 -2.3806  1.6384  0.4022
  656TMC3    H1 9767   2.958   2.206  15.512  1.0119 -0.1753  0.4485
  656TMC3    H2 9768   2.904   2.490  15.831 -0.0436  0.0380 -0.6262
  656TMC3    C7 9769   2.907   2.461  15.562  0.5495  1.0697  0.2559
  656TMC3    C8 9770   2.779   2.332  15.987  0.0536 -0.1931 -0.2398
  656TMC3    O1 9771   2.933   2.437  15.440  0.0118  0.4148  0.1402
  656TMC3    O2 9772   2.825   2.435  16.045  0.0524 -0.0835 -0.3287
  657TMC3    C1 9773   1.742   1.342  14.599 -0.1469  0.0027 -0.1344
  657TMC3    C2 9774   1.731   1.380  14.735 -0.6376 -0.1420 -0.1359
  657TMC3    C3 9775   1.689   1.505  14.766 -0.2785  0.3332 -0.7083
  657TMC3    C4 9776   1.688   1.424  14.505  0.2863  0.1114  0.0401
  657TMC3    C5 9777   1.642   1.553  14.538  0.1830  0.2352 -0.2262
  657TMC3    C6 9778   1.657   1.596  14.669 -0.5108 -0.3546 -0.2904
  657TMC3     C 9779   1.784   1.212  14.559  0.6588  0.0242  0.1733
  657TMC3     O 9780   1.751   1.166  14.449 -0.0237 -0.3589 -0.1540
  657TMC3     H 9781   1.758   1.311  14.814  1.2180  0.0275 -0.6166
  657TMC3    H1 9782   1.680   1.384  14.405 -1.0773  0.3030  0.0830
  657TMC3    H2 9783   1.634   1.697  14.700  0.2482 -0.3400  0.2168
  657TMC3    C7 9784   1.587   1.635  14.436  0.6746 -0.1746  0.7630
  657TMC3    C8 9785   1.688   1.548  14.909 -0.3372 -0.1286  0.4763
  657TMC3    O1 9786   1.580   1.571  14.337  0.6957 -0.3483  0.7602
  657TMC3    O2 9787   1.637   1.651  14.937 -0.1469 -0.2830  0.5689
  658MPD2     C 9788   3.137   2.221  14.555  0.5510  0.0493  0.0993
  658MPD2    C1 9789   3.055   2.125  14.492  0.0043  0.0317 -0.8433
  658MPD2    C2 9790   3.044   2.125  14.354 -0.5812  0.3468 -0.7993
  658MPD2    C3 9791   3.112   2.219  14.279  0.1857  0.3452 -0.0374
  658MPD2    C4 9792   3.191   2.317  14.335 -0.4160  0.8582 -0.2480
  658MPD2    C5 9793   3.204   2.315  14.472 -0.5045 -0.1445  0.2626
  658MPD2     H 9794   2.979   2.059  14.298 -0.8824 -0.4801  0.5247
  658MPD2    H1 9795   3.246   2.390  14.279  0.0999  0.6325 -0.0353
  658MPD2    H2 9796   3.145   2.239  14.661 -1.0065 -0.8604  0.3546
  658MPD2    H3 9797   3.263   2.390  14.524 -0.9704 -0.2488  0.9563
  658MPD2     N 9798   3.095   2.211  14.138  0.2454 -0.0852  0.3027
  658MPD2    H5 9799   3.041   2.129  14.112  2.0615 -2.0445  2.7173
  658MPD2    N1 9800   2.984   2.042  14.579 -0.2753 -0.1397  0.6477
  658MPD2    H7 9801   2.992   2.059  14.679  0.0334 -2.2356  0.9784
  659TMC3    C1 9802   2.849   1.867  14.657 -0.0037 -0.4914 -0.6778
  659TMC3    C2 9803   2.881   1.899  14.788 -0.3313  0.3630 -0.3299
  659TMC3    C3 9804   2.793   1.858  14.879  0.3430  0.0685  0.4930
  659TMC3    C4 9805   2.738   1.790  14.623  0.2898 -0.6347  0.1720
  659TMC3    C5 9806   2.651   1.750  14.727 -0.8045 -0.3604 -0.1684
  659TMC3    C6 9807   2.675   1.792  14.853  0.5968 -0.2344 -0.4044
  659TMC3     C 9808   2.918   1.931  14.547  0.3515 -0.1433  0.0817
  659TMC3     O 9809   2.904   1.888  14.437  0.2371  0.1863 -0.0226
  659TMC3     H 9810   2.975   1.949  14.809  0.9325 -2.5153  0.8627
  659TMC3    H1 9811   2.722   1.776  14.517 -1.6416 -0.6674  0.4749
  659TMC3    H2 9812   2.613   1.758  14.935 -0.3419  4.1734  0.7034
  659TMC3    C7 9813   2.515   1.729  14.690  0.1652 -0.7719 -0.1950
  659TMC3    C8 9814   2.829   1.890  15.015  0.0949 -0.0157  0.2113
  659TMC3    O1 9815   2.443   1.790  14.767 -0.1291  0.4854  0.4702
  659TMC3    O2 9816   2.885   1.994  15.037 -0.0564  0.0492  0.3939
  660MPD2     C 9817   1.266   0.436  12.085 -0.3540  0.6530  0.3302
  660MPD2    C1 9818   1.141   0.484  12.120 -0.2857 -0.6107  0.6451
  660MPD2    C2 9819   1.081   0.439  12.242  0.2432  0.5832 -0.2632
  660MPD2    C3 9820   1.155   0.347  12.323  0.2401  0.5453 -0.5909
  660MPD2    C4 9821   1.277   0.297  12.277 -0.4124 -0.4347 -0.0437
  660MPD2    C5 9822   1.335   0.347  12.162 -0.4331 -0.0756  0.4333
  660MPD2     H 9823   0.978   0.463  12.267  0.2575  0.2779  0.0947
  660MPD2    H1 9824   1.333   0.224  12.333 -0.2221 -1.0103 -0.9807
  660MPD2    H2 9825   1.315   0.480  12.000 -1.6943 -0.1422 -0.8486
  660MPD2    H3 9826   1.431   0.309  12.126  0.5189  2.0603  0.7226
  660MPD2     N 9827   1.097   0.275  12.429  0.3475  0.0319 -0.0847
  660MPD2    H5 9828   1.150   0.195  12.465  1.7130  0.2907 -1.4752
  660MPD2    N1 9829   1.079   0.583  12.037 -0.3334  0.1065 -0.7675
  660MPD2    H7 9830   1.139   0.619  11.963 -1.8035  2.9756 -0.5614
  661TMC3    C1 9831   0.919   0.752  11.981  0.4751  0.1555  0.5675
  661TMC3    C2 9832   1.019   0.831  11.933  0.3399  0.3985 -0.0397
  661TMC3    C3 9833   0.985   0.955  11.890  0.8644 -0.2554  0.2065
  661TMC3    C4 9834   0.789   0.795  11.987 -0.0806  0.8538  0.0786
  661TMC3    C5 9835   0.764   0.919  11.955  1.1258  0.0306  0.5661
  661TMC3    C6 9836   0.855   1.000  11.898  0.4290 -0.4258  0.0036
  661TMC3     C 9837   0.949   0.629  12.051 -0.8481  0.2361 -0.0311
  661TMC3     O 9838   0.860   0.579  12.117  0.6474 -0.0463 -0.6073
  661TMC3     H 9839   1.125   0.804  11.934  0.4914  1.0381  1.1324
  661TMC3    H1 9840   0.711   0.730  12.023 -0.1287  0.6203 -0.4439
  661TMC3    H2 9841   0.829   1.101  11.868  1.0351  0.1031  1.2855
  661TMC3    C7 9842   0.628   0.960  11.951  0.9161 -0.6721 -0.1827
  661TMC3    C8 9843   1.079   1.039  11.813 -0.7425  0.0090  0.3397
  661TMC3    O1 9844   0.603   1.072  11.983 -0.3572 -0.3947 -0.1458
  661TMC3    O2 9845   1.034   1.147  11.774 -0.0353  0.2877  0.0660
  662MPD2     C 9846   1.434   0.642  16.456 -0.5392 -0.0393 -0.0650
  662MPD2    C1 9847   1.416   0.647  16.594  0.7257  0.2461  0.1236
  662MPD2    C2 9848   1.359   0.759  16.649  0.5267  0.5021 -0.1679
  662MPD2    C3 9849   1.292   0.850  16.565 -0.0644 -0.7553  0.0535
  662MPD2    C4 9850   1.302   0.841  16.430  0.3434 -0.1163  0.7192
  662MPD2    C5 9851   1.373   0.741  16.378  0.3504  0.3033 -0.0588
  662MPD2     H 9852   1.346   0.764  16.757  0.3682 -1.0840 -0.1270
  662MPD2    H1 9853   1.261   0.912  16.360  0.8210 -0.5331  0.0238
  662MPD2    H2 9854   1.500   0.568  16.412 -0.6596 -0.5391  0.5992
  662MPD2    H3 9855   1.389   0.736  16.271 -0.1196 -3.1318  0.0189
  662MPD2     N 9856   1.197   0.943  16.607 -0.0371  0.2020 -0.4426
  662MPD2    H5 9857   1.152   1.008  16.542 -1.8443  0.0682  0.6823
  662MPD2    N1 9858   1.459   0.545  16.681 -0.4513 -0.0259 -0.3203
  662MPD2    H7 9859   1.417   0.551  16.773  0.8266 -2.1059  0.4288
  663TMC3    C1 9860   1.449   0.316  16.693 -0.8180 -0.0133 -0.0614
  663TMC3    C2 9861   1.313   0.306  16.698 -0.2763  0.4794 -0.8247
  663TMC3    C3 9862   1.243   0.185  16.714  1.0972 -0.0710  0.5801
  663TMC3    C4 9863   1.516   0.198  16.709  0.2437  0.1993 -0.2269
  663TMC3    C5 9864   1.457   0.074  16.733 -0.0871  0.2620  0.5518
  663TMC3    C6 9865   1.315   0.070  16.743 -0.7788  0.0232 -0.8447
  663TMC3     C 9866   1.512   0.427  16.628 -0.5014 -0.2066 -0.5456
  663TMC3     O 9867   1.608   0.412  16.552 -0.0611 -0.4837 -0.1597
  663TMC3     H 9868   1.255   0.390  16.662 -2.9681 -0.8948  0.2983
  663TMC3    H1 9869   1.624   0.201  16.705  0.1908  2.0239 -0.1746
  663TMC3    H2 9870   1.263   4.728  16.795  0.3604 -0.1221  0.0595
  663TMC3    C7 9871   1.543   4.711  16.793 -0.0569 -0.9643 -0.0899
  663TMC3    C8 9872   1.121   0.203  16.795  0.5069  0.0009 -0.3955
  663TMC3    O1 9873   1.660   0.007  16.802  0.1240 -0.0722 -0.9050
  663TMC3    O2 9874   1.020   0.143  16.757  0.6377  0.0822 -0.0359
  664MPD2     C 9875   4.148   3.379  17.416 -0.0457  0.0284  0.3562
  664MPD2    C1 9876   4.209   3.499  17.397 -0.1537  0.4224  0.3187
  664MPD2    C2 9877   4.210   3.579  17.505 -0.5658  0.0608 -0.4107
  664MPD2    C3 9878   4.155   3.559  17.627 -0.0628 -0.5479 -0.8578
  664MPD2    C4 9879   4.093   3.437  17.649 -1.4027  0.5736  0.5064
  664MPD2    C5 9880   4.089   3.353  17.539 -0.1275 -0.5725  0.7219
  664MPD2     H 9881   4.246   3.679  17.488  2.0816 -0.7446  0.4960
  664MPD2    H1 9882   4.051   3.401  17.742 -2.8758  1.6080  0.2508
  664MPD2    H2 9883   4.131   3.312  17.333 -0.9981  0.0723  0.5135
  664MPD2    H3 9884   4.038   3.258  17.544  0.1910 -0.8360 -1.3766
  664MPD2     N 9885   4.172   3.648  17.731  0.2120 -0.1889  0.3997
  664MPD2    H5 9886   4.233   3.726  17.708 -0.1352  0.4917  1.7503
  664MPD2    N1 9887   4.270   3.548  17.279 -0.0226  0.1848 -0.3108
  664MPD2    H7 9888   4.291   3.645  17.260 -1.3422  0.5779  0.2106
  665TMC3    C1 9889   4.202   3.715   0.210  0.7959  0.1570  0.3285
  665TMC3    C2 9890   4.172   3.692   0.343  0.2807 -0.1491  0.3177
  665TMC3    C3 9891   4.267   3.696   0.440 -0.2039  0.3847  0.7051
  665TMC3    C4 9892   4.327   3.750   0.176  0.4049  0.1663  0.4563
  665TMC3    C5 9893   4.419   3.768   0.279 -0.3180  0.6052 -0.3376
  665TMC3    C6 9894   4.391   3.739   0.408 -0.7296 -1.0297  0.0283
  665TMC3     C 9895   4.130   3.632   0.114 -0.5572 -0.9270 -0.0981
  665TMC3     O 9896   4.039   3.557   0.155  0.0704  0.3553  0.5125
  665TMC3     H 9897   4.068   3.667   0.359  0.6428 -0.3423  2.4092
  665TMC3    H1 9898   4.359   3.770   0.074  1.6953 -0.7083  0.6804
  665TMC3    H2 9899   4.461   3.745   0.490  0.2240  0.5540 -0.8788
  665TMC3    C7 9900   4.547   3.829   0.248  0.4435 -0.0439 -0.3176
  665TMC3    C8 9901   4.252   3.636   0.573  0.2004  0.4521 -0.3202
  665TMC3    O1 9902   4.590   3.793   0.136  0.2846  0.1955  0.1078
  665TMC3    O2 9903   4.342   3.657   0.649 -0.8334  0.2979 -0.1676
  666TMC3    C1 9904   3.530   3.315   9.718 -0.5734  0.8713 -0.9883
  666TMC3    C2 9905   3.621   3.261   9.807  0.3277 -0.7418 -0.0619
  666TMC3    C3 9906   3.635   3.332   9.922 -0.8385  0.6131  0.1962
  666TMC3    C4 9907   3.472   3.441   9.723 -0.1048  0.2579  0.4959
  666TMC3    C5 9908   3.489   3.505   9.844  0.0634 -0.0047  0.6774
  666TMC3    C6 9909   3.572   3.451   9.940  0.3252  0.4457  0.4837
  666TMC3     C 9910   3.478   3.221   9.621  0.1753  0.3270  0.4438
  666TMC3     O 9911   3.552   3.126   9.601 -0.1032 -0.0492 -0.1658
  666TMC3     H 9912   3.653   3.157   9.798  0.5711 -0.6652 -0.0676
  666TMC3    H1 9913   3.400   3.483   9.654  0.1973  0.4723  0.3074
  666TMC3    H2 9914   3.593   3.508  10.030 -2.0571  0.4441  1.0197
  666TMC3    C7 9915   3.438   3.637   9.868 -0.7795  0.0825 -0.4413
  666TMC3    C8 9916   3.645   3.254  10.047  0.7016  1.1997 -0.7119
  666TMC3    O1 9917   3.335   3.669   9.811 -0.1192 -0.6584  0.0145
  666TMC3    O2 9918   3.579   3.296  10.141  0.2490 -0.3985 -0.5569
  667MPD2     C 9919   0.361   3.495  14.705 -0.6792 -0.8107 -0.0080
  667MPD2    C1 9920   0.333   3.570  14.817 -0.0635 -0.1772 -0.1416
  667MPD2    C2 9921   0.250   3.512  14.917  0.8070 -0.3462 -0.4601
  667MPD2    C3 9922   0.184   3.400  14.885 -0.6796  0.2849 -0.4467
  667MPD2    C4 9923   0.191   3.336  14.768 -0.5035 -0.0415  0.2209
  667MPD2    C5 9924   0.290   3.381  14.677 -0.3358  0.0279  0.2571
  667MPD2     H 9925   0.230   3.567  15.009 -1.2380 -0.0818 -1.0457
  667MPD2    H1 9926   0.140   3.240  14.759 -0.8898  0.1654  0.2179
  667MPD2    H2 9927   0.425   3.537  14.628 -1.5326 -2.6793 -1.7437
  667MPD2    H3 9928   0.291   3.334  14.579  3.3499  0.4038  0.0962
  667MPD2     N 9929   0.087   3.342  14.969  0.2449 -0.2185  0.1667
  667MPD2    H5 9930   0.023   3.275  14.930 -1.7017  0.4552  2.1848
  667MPD2    N1 9931   0.398   3.692  14.845 -0.5499  0.4475 -0.9621
  667MPD2    H7 9932   0.380   3.738  14.933  3.2787 -0.2086  0.1707
  668TMC3    C1 9933   0.564   3.856  14.848 -0.2916  0.8307 -1.4611
  668TMC3    C2 9934   0.608   3.970  14.776  0.3016 -0.1721  0.2981
  668TMC3    C3 9935   0.642   4.081  14.848 -1.2787 -0.2546  0.1400
  668TMC3    C4 9936   0.566   3.856  14.984 -0.5600 -0.3756 -0.4132
  668TMC3    C5 9937   0.586   3.974  15.050 -0.0698  0.2955  0.0859
  668TMC3    C6 9938   0.624   4.088  14.983  0.2511  0.2834 -0.3589
  668TMC3     C 9939   0.494   3.759  14.767 -0.1773  0.4692  0.0279
  668TMC3     O 9940   0.528   3.747  14.646  0.2343 -0.4075 -0.4351
  668TMC3     H 9941   0.603   3.971  14.668  1.0541  1.8745  0.2683
  668TMC3    H1 9942   0.538   3.765  15.036  0.0402  0.9136  2.1678
  668TMC3    H2 9943   0.638   4.184  15.032  1.1468 -0.5521  1.0097
  668TMC3    C7 9944   0.588   3.963  15.196 -0.1436  0.5711  0.8721
  668TMC3    C8 9945   0.670   4.205  14.780  0.6979 -0.0824 -0.4372
  668TMC3    O1 9946   0.593   3.853  15.237  0.2512 -0.7623 -0.4963
  668TMC3    O2 9947   0.662   4.302  14.852  0.4771 -0.5420 -0.4735
  669TMC3    C1 9948   3.141   3.004  14.646 -0.9662 -0.3706  0.2851
  669TMC3    C2 9949   3.009   2.982  14.611 -0.4556 -0.4927 -0.2112
  669TMC3    C3 9950   2.968   3.026  14.486 -0.6952 -0.6837  0.0526
  669TMC3    C4 9951   3.229   3.057  14.559 -0.1104  0.2449 -0.0631
  669TMC3    C5 9952   3.186   3.102  14.436 -0.6587 -0.1590  0.2048
  669TMC3    C6 9953   3.055   3.082  14.400 -0.3679 -0.7324  0.6310
  669TMC3     C 9954   3.170   2.984  14.780 -0.5652  0.2043  0.2987
  669TMC3     O 9955   3.109   2.902  14.852  0.3645  0.3234  0.5700
  669TMC3     H 9956   2.946   2.949  14.693 -0.5905  0.4734  0.0684
  669TMC3    H1 9957   3.334   3.073  14.579 -0.1090  0.4885 -0.2706
  669TMC3    H2 9958   3.021   3.116  14.303 -3.4153  2.9282  2.9717
  669TMC3    C7 9959   3.267   3.194  14.363 -0.0578  0.1027  0.5139
  669TMC3    C8 9960   2.835   3.010  14.445 -0.1502  0.4556  0.0685
  669TMC3    O1 9961   3.344   3.257  14.436 -0.4862 -0.1144  0.2203
  669TMC3    O2 9962   2.814   3.007  14.323  0.4598  0.4141 -0.3764
  670MPD2     C 9963   1.389   0.487  12.915 -0.2489  0.0855  1.3988
  670MPD2    C1 9964   1.489   0.529  12.997 -0.6729 -0.2129 -0.4658
  670MPD2    C2 9965   1.466   0.639  13.069  0.1671 -0.2529 -0.6190
  670MPD2    C3 9966   1.352   0.719  13.047 -0.0503  0.6460  0.7971
  670MPD2    C4 9967   1.260   0.678  12.950 -0.8888  0.2524  0.7432
  670MPD2    C5 9968   1.276   0.559  12.895  0.5946  0.3627 -0.5335
  670MPD2     H 9969   1.541   0.679  13.137  0.7479 -3.6658  0.7289
  670MPD2    H1 9970   1.170   0.735  12.929  0.9698  3.2322  0.7223
  670MPD2    H2 9971   1.393   0.392  12.863  0.7311 -0.8198  3.0957
  670MPD2    H3 9972   1.202   0.511  12.831 -0.0717 -1.0650  1.3207
  670MPD2     N 9973   1.337   0.830  13.125 -0.3282  0.4925  0.4727
  670MPD2    H5 9974   1.414   0.846  13.190  1.9132  1.3270 -2.3847
  670MPD2    N1 9975   1.614   0.469  13.003  0.4301  0.3384  0.0536
  670MPD2    H7 9976   1.691   0.517  13.049 -1.1681  0.4233  2.6329
  671TMC3    C1 9977   1.239   1.020  13.231  0.1863  0.3882 -0.0850
  671TMC3    C2 9978   1.352   1.010  13.310 -0.1675 -0.0691 -0.3502
  671TMC3    C3 9979   1.334   1.006  13.445  0.5102  0.1452 -0.5946
  671TMC3    C4 9980   1.116   1.009  13.292 -0.0785 -0.0143 -0.4253
  671TMC3    C5 9981   1.100   0.992  13.423 -0.6381  0.4062  0.2283
  671TMC3    C6 9982   1.212   0.991  13.502 -0.5477  0.4628 -0.2419
  671TMC3     C 9983   1.243   0.931  13.114  0.1831 -0.7194  0.2630
  671TMC3     O 9984   1.152   0.943  13.034  0.0398 -0.2978 -0.2391
  671TMC3     H 9985   1.449   1.038  13.272  0.3830  0.8700  1.7295
  671TMC3    H1 9986   1.037   1.000  13.219 -1.0034  1.2156  0.3996
  671TMC3    H2 9987   1.205   0.936  13.594  1.1764 -0.9491 -0.9692
  671TMC3    C7 9988   1.008   0.884  13.438 -0.1153  0.0905 -0.6465
  671TMC3    C8 9989   1.451   0.941  13.505 -0.2374 -0.5044 -0.5443
  671TMC3    O1 9990   0.997   0.810  13.343 -0.5533  0.1102 -0.1115
  671TMC3    O2 9991   1.516   0.880  13.425 -0.0310 -0.1477 -0.6815
  672MPD2     C 9992   1.678   1.873   0.654  0.0960 -0.8937  0.0130
  672MPD2    C1 9993   1.775   1.778   0.678  0.4368  0.5900  0.4464
  672MPD2    C2 9994   1.893   1.816   0.739  0.2403 -0.1863 -0.2254
  672MPD2    C3 9995   1.910   1.947   0.786 -0.0313 -0.1387 -0.4927
  672MPD2    C4 9996   1.813   2.044   0.748  0.6847 -0.2733 -0.0524
  672MPD2    C5 9997   1.698   1.999   0.694  0.0394 -0.1793 -0.1265
  672MPD2     H 9998   1.949   1.733   0.781  1.1293  0.7336  0.4049
  672MPD2    H1 9999   1.828   2.148   0.776  1.3010 -0.9637  2.1923
  672MPD2    H210000   1.578   1.866   0.613  0.7517 -0.6306 -1.6485
  672MPD2    H310001   1.616   2.068   0.679 -1.4229 -1.4377  2.0105
  672MPD2     N10002   2.015   1.987   0.872  0.3598  0.2192 -0.3027
  672MPD2    H510003   2.018   2.086   0.896  0.5500  0.5204 -1.5848
  672MPD2    N110004   1.755   1.638   0.651 -0.5879  0.0979 -0.3601
  672MPD2    H710005   1.828   1.576   0.684 -1.4363 -0.5221  0.3811
  673TMC3    C110006   1.636   1.445   0.578  0.2332  0.5490  0.0967
  673TMC3    C210007   1.735   1.375   0.512  0.4945 -0.8242 -0.2413
  673TMC3    C310008   1.694   1.254   0.449  0.3378 -0.5256 -0.0297
  673TMC3    C410009   1.512   1.410   0.577  0.1920 -0.0336  0.5880
  673TMC3    C510010   1.476   1.294   0.512 -0.3698 -0.3311  0.3564
  673TMC3    C610011   1.569   1.203   0.462 -0.1772  0.7546 -0.0190
  673TMC3     C10012   1.645   1.590   0.580 -0.6347 -0.2531 -0.0090
  673TMC3     O10013   1.556   1.645   0.519  0.5573  0.1472 -0.9269
  673TMC3     H10014   1.822   1.432   0.482 -0.5926  0.9727 -0.0224
  673TMC3    H110015   1.449   1.471   0.641 -0.5097 -0.6551  0.5002
  673TMC3    H210016   1.544   1.113   0.409 -0.7028  0.0358  1.4367
  673TMC3    C710017   1.345   1.296   0.449 -0.2786  0.0918  0.3991
  673TMC3    C810018   1.796   1.177   0.378  0.7195 -0.4995  0.0739
  673TMC3    O110019   1.321   1.207   0.372  0.1371  0.1625 -0.4477
  673TMC3    O210020   1.759   1.080   0.318  0.2679 -0.3087 -0.4990
  674MPD2     C10021   1.312   1.957  17.615  0.0136  0.0271 -0.6726
  674MPD2    C110022   1.255   1.837  17.567  0.4825  0.1114 -0.4604
  674MPD2    C210023   1.149   1.847  17.488  0.3603 -0.9572 -1.0355
  674MPD2    C310024   1.091   1.971  17.460 -0.9777  0.6583 -0.0771
  674MPD2    C410025   1.150   2.086  17.500 -0.0895 -1.1941  0.6337
  674MPD2    C510026   1.259   2.079  17.571 -0.0331 -0.0786 -0.4844
  674MPD2     H10027   1.095   1.757  17.460 -1.1942 -0.0247 -1.0614
  674MPD2    H110028   1.102   2.179  17.472  0.0340 -0.9480  1.2275
  674MPD2    H210029   1.409   1.965  17.663 -0.4676  1.0215  0.1265
  674MPD2    H310030   1.310   2.168  17.603  0.0699 -0.2821 -0.0879
  674MPD2     N10031   0.972   1.954  17.384 -0.4293  0.4999 -0.0517
  674MPD2    H510032   0.955   1.858  17.358 -0.2397  0.4427  0.0367
  674MPD2    N110033   1.302   1.716  17.613  0.4692 -0.0848  0.3020
  674MPD2    H710034   1.358   1.720  17.697  0.0395  0.1088  0.5824
  675TMC3    C110035   1.306   1.484  17.657 -0.0358  0.3078  0.9891
  675TMC3    C210036   1.228   1.371  17.659  0.0509  0.0423 -0.1576
  675TMC3    C310037   1.261   1.279   0.006 -0.1120 -0.1322  0.3358
  675TMC3    C410038   1.403   1.511  17.747 -0.3320  0.4846  0.0708
  675TMC3    C510039   1.434   1.412   0.087 -0.5136  0.0065  0.1402
  675TMC3    C610040   1.364   1.294   0.085  0.6304  0.6687 -0.2891
  675TMC3     C10041   1.263   1.593  17.568  0.4015 -0.1163  0.3830
  675TMC3     O10042   1.199   1.561  17.468  0.1032  0.0756 -0.3965
  675TMC3     H10043   1.154   1.355  17.581  1.2539 -0.4713 -1.2123
  675TMC3    H110044   1.484   1.581  17.730  0.0785  0.0137  0.0828
  675TMC3    H210045   1.403   1.216   0.149  2.6900  0.6889 -1.5099
  675TMC3    C710046   1.563   1.412   0.150  1.1037 -0.6547 -0.1916
  675TMC3    C810047   1.172   1.167   0.030 -0.5643 -0.4019 -0.2841
  675TMC3    O110048   1.610   1.305   0.175 -0.0205 -0.0491  0.2562
  675TMC3    O210049   1.115   1.129  17.679  0.2265 -0.1539  0.0962
  676MPD2     C10050   4.047   4.287  11.101  0.5316 -0.0238  0.4662
  676MPD2    C110051   3.958   4.190  11.153 -0.5172 -0.1701  0.2238
  676MPD2    C210052   3.992   4.062  11.138  0.2142 -0.8456 -0.5507
  676MPD2    C310053   4.085   4.012  11.056  0.2544 -0.3830 -0.4632
  676MPD2    C410054   4.164   4.106  10.992  0.1785 -0.7415 -0.5689
  676MPD2    C510055   4.140   4.239  11.014 -0.7598 -0.9965  0.0321
  676MPD2     H10056   3.926   3.988  11.182 -0.7415 -0.3328 -1.1340
  676MPD2    H110057   4.238   4.078  10.918 -0.0291  0.1887 -1.1318
  676MPD2    H210058   4.043   4.393  11.121 -0.4423  0.0603 -0.1535
  676MPD2    H310059   4.202   4.311  10.962 -1.8767  0.1332  0.2749
  676MPD2     N10060   4.121   3.877  11.047  0.2734  0.1331 -0.1218
  676MPD2    H510061   4.178   3.849  10.969  1.7802 -1.3601  1.4923
  676MPD2    N110062   3.844   4.225  11.227  0.0343 -0.3196  0.0529
  676MPD2    H710063   3.791   4.146  11.262  0.0246 -0.0485  0.6417
  677TMC3    C110064   3.665   4.362  11.310  0.1314 -0.9033 -1.0281
  677TMC3    C210065   3.577   4.259  11.316 -0.2677  0.0403 -0.5484
  677TMC3    C310066   3.481   4.256  11.412 -0.1311 -0.0718 -0.7547
  677TMC3    C410067   3.659   4.460  11.408 -0.1189  0.2515  0.2801
  677TMC3    C510068   3.555   4.456  11.501 -0.4825  0.0154 -0.3156
  677TMC3    C610069   3.466   4.357  11.505  0.8829  0.1646  0.3748
  677TMC3     C10070   3.796   4.357  11.245 -0.7180 -0.5945 -0.0125
  677TMC3     O10071   3.848   4.461  11.209 -0.2229  0.0397 -0.5516
  677TMC3     H10072   3.591   4.173  11.252  0.0820  0.2524 -0.7522
  677TMC3    H110073   3.742   4.530  11.413  0.9984 -1.1339  1.1711
  677TMC3    H210074   3.397   4.341  11.588  1.0351  3.3798  1.1064
  677TMC3    C710075   3.567   4.533  11.626  0.6546  0.7667  0.0171
  677TMC3    C810076   3.401   4.129  11.417 -0.3900  0.6201 -0.0168
  677TMC3    O110077   3.491   4.507  11.722  0.2244  0.0466  0.1023
  677TMC3    O210078   3.345   4.093  11.313  0.3074 -0.2234 -0.6130
  678MPD2     C10079   1.136   0.100   1.079 -0.2767 -0.8414 -0.1692
  678MPD2    C110080   1.160   0.023   0.965 -0.6055  0.2677  0.1096
  678MPD2    C210081   1.049   4.703   0.901  0.4884 -0.0224  0.0125
  678MPD2    C310082   0.922   4.729   0.944 -0.2605 -0.2422  0.7666
  678MPD2    C410083   0.906   0.050   1.068  0.0055 -0.2126 -0.7873
  678MPD2    C510084   1.008   0.112   1.133  0.4840 -0.0089  0.4936
  678MPD2     H10085   1.068   4.627   0.827  0.9585 -0.4953  0.6158
  678MPD2    H110086   0.807   0.047   1.111  0.5954  1.2595  0.6745
  678MPD2    H210087   1.220   0.153   1.123 -0.9270  0.7816 -0.8490
  678MPD2    H310088   0.989   0.165   1.226 -0.5655 -0.7036  0.6738
  678MPD2     N10089   0.813   4.677   0.874 -0.2371 -0.0094 -0.3114
  678MPD2    H510090   0.842   4.628   0.791  1.1340  0.2214  0.0371
  678MPD2    N110091   1.290   4.731   0.918 -0.1946 -0.4288  0.0674
  678MPD2    H710092   1.302   4.686   0.829  0.9376  0.8311 -0.4191
  679TMC3    C110093   1.580   4.515   0.804 -0.4809 -0.3064  0.0170
  679TMC3    C210094   1.538   4.584   0.912  0.1953 -0.2778  0.4711
  679TMC3    C310095   1.509   4.721   0.894  0.3415 -0.8559  0.1478
  679TMC3    C410096   1.604   4.591   0.689  0.2443 -0.8160 -0.6577
  679TMC3    C510097   1.578   4.722   0.686  0.5757  0.4714  0.2841
  679TMC3    C610098   1.526   0.050   0.784  0.6990  0.2735 -0.1718
  679TMC3     C10099   1.615   4.370   0.804  0.8674 -0.0962  0.6703
  679TMC3     O10100   1.701   4.345   0.720  0.2428  0.1706 -0.5471
  679TMC3     H10101   1.538   4.540   1.011  0.0709  0.0541  0.6180
  679TMC3    H110102   1.615   4.547   0.591 -1.3330 -1.1864 -0.6678
  679TMC3    H210103   1.493   0.154   0.780  0.4783  0.2323  0.4393
  679TMC3    C710104   1.527   0.018   0.552 -0.5510 -1.5988 -0.3075
  679TMC3    C810105   1.406   0.026   0.981 -0.4344  0.8485  0.6932
  679TMC3    O110106   1.410   0.058   0.556 -0.6240 -0.1571 -0.4957
  679TMC3    O210107   1.433   0.054   1.096  0.8001  0.4614  0.5388
  680MPD2     C10108   0.663   3.060  13.610 -0.5401  0.0022 -0.5596
  680MPD2    C110109   0.764   3.010  13.693 -0.2923 -0.2918 -0.4311
  680MPD2    C210110   0.862   3.085  13.765  0.0585 -0.1711 -0.4864
  680MPD2    C310111   0.863   3.223  13.747 -0.6637  0.4282  0.0623
  680MPD2    C410112   0.763   3.273  13.672  0.9429  0.0327  0.3503
  680MPD2    C510113   0.668   3.196  13.605 -0.4998 -0.1242 -0.2514
  680MPD2     H10114   0.927   3.031  13.833 -1.6657 -0.0257  1.2701
  680MPD2    H110115   0.762   3.381  13.660  1.4100 -0.2229 -1.9511
  680MPD2    H210116   0.585   3.005  13.559 -1.7836 -0.4467  1.7973
  680MPD2    H310117   0.590   3.248  13.550  1.5830 -0.1828 -3.2535
  680MPD2     N10118   0.952   3.316  13.803 -0.4069  0.1628 -0.6142
  680MPD2    H510119   0.958   3.414  13.775  0.6115  1.1714  3.1176
  680MPD2    N110120   0.781   2.872  13.717 -0.2092  0.5622 -0.5936
  680MPD2    H710121   0.852   2.841  13.782  0.6226  2.8533 -0.4328
  681TMC3    C110122   0.773   2.645  13.674  0.2190  0.3534  0.5213
  681TMC3    C210123   0.733   2.572  13.782  0.4925 -0.2718  0.1722
  681TMC3    C310124   0.819   2.471  13.817 -0.1065 -0.2968  0.2532
  681TMC3    C410125   0.886   2.623  13.602  0.3754  0.1997  0.1314
  681TMC3    C510126   0.970   2.533  13.642  0.6116 -0.2333 -0.8283
  681TMC3    C610127   0.942   2.457  13.750 -0.8055  0.6429 -0.7947
  681TMC3     C10128   0.714   2.778  13.647 -0.7426 -0.2245 -0.2972
  681TMC3     O10129   0.615   2.775  13.574  0.7075 -0.8511 -0.1343
  681TMC3     H10130   0.641   2.603  13.830 -0.0990 -1.4532 -0.1848
  681TMC3    H110131   0.905   2.694  13.522 -1.8230 -2.2252 -2.5676
  681TMC3    H210132   1.013   2.378  13.771 -0.4174  1.3776  0.6788
  681TMC3    C710133   1.098   2.521  13.564  0.2436 -0.4065  0.0656
  681TMC3    C810134   0.814   2.433  13.951 -0.3646 -0.1704 -0.3240
  681TMC3    O110135   1.188   2.463  13.620 -0.8972  0.0728 -0.7599
  681TMC3    O210136   0.759   2.327  13.985  0.4985  0.4066 -0.3247
  682MPD2     C10137   2.712   4.497  10.556 -0.2804  0.1198  0.4426
  682MPD2    C110138   2.738   4.365  10.537 -0.0801  1.2980  0.4432
  682MPD2    C210139   2.736   4.283  10.642 -0.2101 -0.4290 -0.6917
  682MPD2    C310140   2.700   4.318  10.767 -0.7385  0.3161 -0.4721
  682MPD2    C410141   2.671   4.452  10.785  0.5428 -0.1146  0.5538
  682MPD2    C510142   2.690   4.539  10.684  0.5496 -0.1500 -0.3986
  682MPD2     H10143   2.749   4.179  10.614 -1.9143 -0.4163 -1.4715
  682MPD2    H110144   2.653   4.489  10.885  2.2529 -2.8769  1.8887
  682MPD2    H210145   2.704   4.565  10.472  0.5081 -0.7450 -0.3348
  682MPD2    H310146   2.663   4.641  10.711  0.2811  0.0576 -1.4783
  682MPD2     N10147   2.688   4.234  10.875 -0.7754  0.1601 -0.3500
  682MPD2    H510148   2.682   4.280  10.966  0.7772 -0.7893  0.2370
  682MPD2    N110149   2.767   4.301  10.412  0.7642 -0.7085 -0.8811
  682MPD2    H710150   2.781   4.201  10.423 -0.8697 -0.8636 -0.1541
  683TMC3    C110151   2.702   4.107  11.233  1.0637  0.2007 -0.3986
  683TMC3    C210152   2.650   3.981  11.249 -0.0250 -0.5195 -0.5579
  683TMC3    C310153   2.617   3.901  11.142 -0.1693  0.6128 -0.5706
  683TMC3    C410154   2.733   4.145  11.108 -0.4523 -0.0001 -0.8471
  683TMC3    C510155   2.721   4.054  11.004 -0.1614 -0.0869  0.9949
  683TMC3    C610156   2.665   3.925  11.015 -0.7151  0.5031  0.1502
  683TMC3     C10157   2.791   4.154  11.340  0.1949 -0.1901 -0.5089
  683TMC3     O10158   2.861   4.253  11.311  0.3640  0.0809  0.4284
  683TMC3     H10159   2.623   3.939  11.346  2.7887  0.6125  0.7217
  683TMC3    H110160   2.798   4.232  11.097  0.2232 -0.4072 -0.1273
  683TMC3    H210161   2.643   3.867  10.927  1.8161 -0.1266 -0.0818
  683TMC3    C710162   2.742   4.109  10.875 -0.2162  0.0318  0.6488
  683TMC3    C810163   2.516   3.801  11.156  0.2769  0.1847  0.6983
  683TMC3    O110164   2.794   4.038  10.790  0.3246 -0.2918 -0.3880
  683TMC3    O210165   2.438   3.809  11.252 -0.8263  0.1269 -0.3692
  684MPD2     C10166   1.415   3.977  16.481 -0.2242  0.3139  0.0916
  684MPD2    C110167   1.449   3.950  16.349 -0.6416  0.9784  0.3784
  684MPD2    C210168   1.494   4.052  16.270  0.6088 -0.2988 -0.6970
  684MPD2    C310169   1.507   4.184  16.318 -0.5744  0.6579  0.1621
  684MPD2    C410170   1.463   4.208  16.451 -0.3730 -0.2318  0.1533
  684MPD2    C510171   1.433   4.100  16.532 -0.3285  0.0223 -0.4547
  684MPD2     H10172   1.541   4.031  16.175  3.1460  4.4958 -0.5206
  684MPD2    H110173   1.467   4.308  16.492 -0.7929  0.7462 -2.1694
  684MPD2    H210174   1.384   3.892  16.542  0.3413  1.7630  2.3941
  684MPD2    H310175   1.413   4.124  16.636  1.1905 -0.4996 -0.0328
  684MPD2     N10176   1.559   4.289  16.240  0.0412  0.0086  0.0223
  684MPD2    H510177   1.593   4.373  16.285  0.4002  0.6882 -1.5079
  684MPD2    N110178   1.459   3.825  16.284 -0.4197  0.0879 -0.0257
  684MPD2    H710179   1.478   3.819  16.185  0.8047 -0.4206  0.2453
  685TMC3    C110180   1.539   3.614  16.289  0.6664 -1.0037 -0.0784
  685TMC3    C210181   1.483   3.547  16.190 -0.1946 -0.1213 -0.2662
  685TMC3    C310182   1.547   3.439  16.137  0.0938  0.2804  0.6407
  685TMC3    C410183   1.663   3.580  16.338  0.0945  0.6644 -0.5307
  685TMC3    C510184   1.729   3.480  16.276  0.0138  0.2974 -0.5138
  685TMC3    C610185   1.676   3.409  16.172 -0.2149 -0.2254  0.0063
  685TMC3     C10186   1.465   3.710  16.363 -1.0197 -0.1554 -0.4238
  685TMC3     O10187   1.460   3.697  16.481 -0.0806 -0.4058  0.8871
  685TMC3     H10188   1.382   3.566  16.158 -0.4465 -0.6600  0.2013
  685TMC3    H110189   1.706   3.635  16.421 -2.1284 -1.2221  1.9034
  685TMC3    H210190   1.731   3.339  16.110 -2.9623 -2.5945  0.2164
  685TMC3    C710191   1.869   3.493  16.300 -0.5359 -0.1534 -0.5652
  685TMC3    C810192   1.489   3.383  16.021 -0.2636  0.0647  0.1529
  685TMC3    O110193   1.907   3.526  16.409  0.4119 -0.6408 -0.6112
  685TMC3    O210194   1.540   3.276  15.985 -0.2041 -0.4930 -0.1505
  686MPD2     C10195   2.780   3.818  15.528 -0.9428  0.0777  0.2292
  686MPD2    C110196   2.810   3.701  15.592  0.1117  0.2981  0.3391
  686MPD2    C210197   2.794   3.580  15.526  0.6049  0.1384 -0.0663
  686MPD2    C310198   2.727   3.571  15.405 -0.5339 -0.2556  0.5082
  686MPD2    C410199   2.688   3.692  15.354 -0.1116  0.3887 -0.0128
  686MPD2    C510200   2.707   3.814  15.413  0.5090  0.0567 -0.8029
  686MPD2     H10201   2.842   3.493  15.568 -2.6990 -0.7469  1.8957
  686MPD2    H110202   2.647   3.683  15.254  0.1679  0.7506 -0.1617
  686MPD2    H210203   2.774   3.913  15.579 -0.0215  0.8708 -1.1334
  686MPD2    H310204   2.677   3.908  15.368 -2.8226  0.2130  1.7070
  686MPD2     N10205   2.692   3.447  15.345  0.1252  0.4419  0.0351
  686MPD2    H510206   2.656   3.452  15.250 -1.3244 -0.2978  0.5509
  686MPD2    N110207   2.858   3.699  15.724  0.3772 -0.6309 -0.0226
  686MPD2    H710208   2.882   3.607  15.760  0.9705 -0.2532  0.5563
  687TMC3    C110209   2.676   3.311  15.543 -0.6467 -0.0978 -0.0162
  687TMC3    C210210   2.568   3.360  15.607  0.0171 -0.3826  0.0671
  687TMC3    C310211   2.576   3.359  15.747 -0.0466 -0.1928  0.1529
  687TMC3    C410212   2.779   3.248  15.607 -0.2844 -0.3827  0.3929
  687TMC3    C510213   2.771   3.208  15.740  0.3882 -0.0445  0.3055
  687TMC3    C610214   2.665   3.269  15.806 -0.3531 -0.1406 -0.1435
  687TMC3     C10215   2.692   3.324  15.399  0.5088 -0.5321  0.8840
  687TMC3     O10216   2.709   3.222  15.336  0.1557 -0.0481 -0.4063
  687TMC3     H10217   2.501   3.425  15.552  2.3985  0.4743 -1.8405
  687TMC3    H110218   2.862   3.215  15.546 -0.0306  0.5343  0.2469
  687TMC3    H210219   2.659   3.264  15.914 -0.9899 -2.7921 -0.2984
  687TMC3    C710220   2.889   3.251  15.812 -0.0419 -0.3925  0.5097
  687TMC3    C810221   2.575   3.482  15.820  0.6729 -0.2232 -0.5366
  687TMC3    O110222   2.920   3.367  15.794  0.2796 -0.3026  0.3703
  687TMC3    O210223   2.600   3.479  15.939 -0.8792  0.1498 -0.0904
  688MPD2     C10224   2.241   2.650  17.337 -0.1543 -0.2043 -0.0736
  688MPD2    C110225   2.194   2.523  17.346 -0.2575 -0.3442 -0.1877
  688MPD2    C210226   2.251   2.424  17.263 -0.1625 -0.4088  0.4309
  688MPD2    C310227   2.354   2.448  17.171 -0.2711  0.0351 -0.5830
  688MPD2    C410228   2.394   2.579  17.167 -0.2755 -0.4068 -0.6092
  688MPD2    C510229   2.337   2.682  17.242  0.1640 -0.3199  0.8537
  688MPD2     H10230   2.235   2.319  17.287  1.9105 -1.2991 -2.1192
  688MPD2    H110231   2.482   2.607  17.110 -0.4455 -0.8868 -1.1129
  688MPD2    H210232   2.216   2.733  17.403  1.8582 -0.3373  0.8554
  688MPD2    H310233   2.372   2.785  17.242  3.7530 -1.5413 -1.3854
  688MPD2     N10234   2.409   2.359  17.078 -0.0037 -0.3164 -0.3034
  688MPD2    H510235   2.484   2.398  17.022  0.7535 -1.1515  0.1285
  688MPD2    N110236   2.096   2.484  17.447 -0.2931 -0.0992  0.3548
  688MPD2    H710237   2.072   2.386  17.459  2.0058 -0.5460  1.3910
  689TMC3    C110238   1.944   2.530  17.626 -0.3355 -0.3983  0.0848
  689TMC3    C210239   1.885   2.618  17.721  0.0470  0.3760 -1.1258
  689TMC3    C310240   1.805   2.561   0.065 -0.0446 -0.3188  0.2091
  689TMC3    C410241   1.914   2.398  17.621 -0.5521  0.0906 -0.3707
  689TMC3    C510242   1.851   2.348  17.727 -0.5274 -0.4347 -0.0640
  689TMC3    C610243   1.795   2.424   0.076  0.7957 -0.3579  0.0981
  689TMC3     C10244   2.025   2.579  17.518  0.3574 -0.0441  0.5104
  689TMC3     O10245   2.004   2.698  17.493  0.3965 -0.2105 -0.4864
  689TMC3     H10246   1.908   2.724  17.713  0.7734  0.3449  0.4694
  689TMC3    H110247   1.932   2.333  17.536 -1.2139 -2.5267  1.5096
  689TMC3    H210248   1.752   2.374   0.162  0.4893 -0.4728 -0.1212
  689TMC3    C710249   1.830   2.206  17.732  0.5514  0.1728  0.3843
  689TMC3    C810250   1.757   2.642   0.178 -0.8173  0.0997 -0.2822
  689TMC3    O110251   1.852   2.147   0.087 -0.4764 -0.0948  0.6420
  689TMC3    O210252   1.816   2.748   0.196 -0.3093  0.6035 -0.2291
  690MPD2     C10253   3.979   4.243  15.548  0.3544  0.1534 -0.0581
  690MPD2    C110254   3.979   4.262  15.409  0.6688  0.0308 -0.4540
  690MPD2    C210255   4.087   4.338  15.356 -0.1652  0.6622 -0.1198
  690MPD2    C310256   4.189   4.388  15.444 -0.9714  0.0211 -0.6062
  690MPD2    C410257   4.183   4.372  15.577 -0.7675 -0.1165 -0.4304
  690MPD2    C510258   4.079   4.297  15.627 -0.3241 -0.0623 -0.2927
  690MPD2     H10259   4.091   4.352  15.249 -0.1038 -0.8090 -0.3017
  690MPD2    H110260   4.259   4.410  15.645 -2.4136 -0.0380  1.3659
  690MPD2    H210261   3.905   4.190  15.606  0.4364 -1.7043 -1.6445
  690MPD2    H310262   4.074   4.273  15.732  2.5486  2.9209  0.5144
  690MPD2     N10263   4.296   4.456  15.386  0.5236 -0.1081 -0.3299
  690MPD2    H510264   4.278   4.497  15.295  0.0937  1.9022  0.6588
  690MPD2    N110265   3.881   4.207  15.320  0.5747  0.1151  0.1243
  690MPD2    H710266   3.913   4.182  15.227 -1.9028  0.6492 -0.8574
  691TMC3    C110267   3.689   4.104  15.247 -0.0722 -0.3148 -0.1410
  691TMC3    C210268   3.557   4.109  15.249 -0.0929  0.1062 -0.3852
  691TMC3    C310269   3.485   3.993  15.229 -0.1745  0.1844  0.1883
  691TMC3    C410270   3.751   3.989  15.207 -0.6608 -0.2247 -0.7718
  691TMC3    C510271   3.675   3.875  15.202  0.1243 -0.1566  0.4421
  691TMC3    C610272   3.539   3.871  15.200 -0.4077 -0.2884 -0.1242
  691TMC3     C10273   3.752   4.173  15.357  0.1909  0.6424  0.6529
  691TMC3     O10274   3.688   4.206  15.458 -0.8133 -0.5631  0.2859
  691TMC3     H10275   3.505   4.202  15.268 -0.4589  0.1819 -1.7221
  691TMC3    H110276   3.859   3.984  15.218 -0.7452 -0.0434  0.1259
  691TMC3    H210277   3.482   3.782  15.175 -1.0059  0.2394 -0.6247
  691TMC3    C710278   3.745   3.765  15.256 -0.1082  0.3276  0.9415
  691TMC3    C810279   3.338   3.998  15.240  0.1428 -0.5262  0.4201
  691TMC3    O110280   3.864   3.760  15.228  0.1781  0.2918 -0.2508
  691TMC3    O210281   3.267   3.916  15.184 -0.5106  0.5343  0.0283
  692TMC3    C110282   0.996   0.596  15.414  0.1094 -0.4273  0.3314
  692TMC3    C210283   1.105   0.676  15.431  0.3066  0.2089 -0.7066
  692TMC3    C310284   1.219   0.616  15.470  0.2850  0.7305 -0.1955
  692TMC3    C410285   0.996   0.473  15.449 -0.1063  0.7269  0.7461
  692TMC3    C510286   1.109   0.413  15.489 -0.8687  0.3127 -0.1275
  692TMC3    C610287   1.221   0.483  15.515 -0.1672  0.4520  0.1830
  692TMC3     C10288   0.867   0.667  15.420  0.8267  0.2302 -0.2694
  692TMC3     O10289   0.763   0.609  15.447  0.0241  0.1965  0.1703
  692TMC3     H10290   1.116   0.741  15.345 -1.2596  1.9982  0.4607
  692TMC3    H110291   0.907   0.417  15.422  1.6205 -1.5424 -0.2562
  692TMC3    H210292   1.315   0.428  15.511 -0.2184  0.2160  2.2411
  692TMC3    C710293   1.098   0.271  15.500  0.1548 -0.1887 -1.0325
  692TMC3    C810294   1.307   0.708  15.541 -0.2368 -0.2065  0.2096
  692TMC3    O110295   1.020   0.217  15.419  0.3850 -0.4827 -0.4698
  692TMC3    O210296   1.375   0.667  15.635 -0.1753 -0.0799  0.4041
  693MPD2     C10297   0.306   3.147  10.969  0.9412 -0.8563  0.2678
  693MPD2    C110298   0.249   3.052  10.891  0.1170  0.6856  0.2107
  693MPD2    C210299   0.326   2.969  10.815 -0.2852  0.0773  0.3689
  693MPD2    C310300   0.465   2.981  10.810  0.3409 -0.3420 -0.2949
  693MPD2    C410301   0.523   3.077  10.890 -0.4562 -0.0011 -0.5653
  693MPD2    C510302   0.441   3.169  10.956  0.0561  0.0299  0.7551
  693MPD2     H10303   0.277   2.898  10.750 -1.2326  3.0542 -2.1946
  693MPD2    H110304   0.629   3.099  10.887 -0.2238 -1.0177  0.2717
  693MPD2    H210305   0.251   3.227  11.017  2.1908 -2.0022  3.5878
  693MPD2    H310306   0.487   3.246  11.017 -1.3788  0.8447  0.8182
  693MPD2     N10307   0.560   2.889  10.754 -0.0285 -0.1490 -0.5870
  693MPD2    H510308   0.657   2.918  10.748 -0.1828  0.2413 -1.2052
  693MPD2    N110309   0.116   3.024  10.903  0.2284 -0.6525  0.3476
  693MPD2    H710310   0.062   3.087  10.960  1.0026 -1.3909  1.8862
  694TMC3    C110311   4.663   2.885  10.923 -0.0988 -0.1118  0.3076
  694TMC3    C210312   4.563   2.824  10.854 -0.2152  0.4970 -0.3836
  694TMC3    C310313   4.457   2.803  10.927  0.0212  0.3751 -0.2530
  694TMC3    C410314   4.673   2.913  11.061  0.3369  0.3160 -0.0361
  694TMC3    C510315   4.558   2.881  11.128 -0.1991  0.0839  0.5661
  694TMC3    C610316   4.449   2.829  11.059  0.3253  0.0525  0.8348
  694TMC3     C10317   0.039   2.930  10.839 -0.7736 -0.7710  0.0074
  694TMC3     O10318   0.056   2.869  10.733  0.8777 -0.0887 -0.1666
  694TMC3     H10319   4.566   2.823  10.746  0.4519  0.3628 -0.3636
  694TMC3    H110320   0.022   2.948  11.115 -0.4834  0.7123  1.0207
  694TMC3    H210321   4.354   2.809  11.108 -0.5607 -0.2507 -1.0071
  694TMC3    C710322   4.562   2.898  11.272  0.0322 -0.6065  0.8697
  694TMC3    C810323   4.337   2.743  10.860 -0.7820 -0.3154 -0.1452
  694TMC3    O110324   4.658   2.956  11.321  0.0122  0.1642 -0.0018
  694TMC3    O210325   4.246   2.699  10.928 -0.7022  0.0917 -0.1894
  695MPD2     C10326   1.418   0.113  13.066  0.0670 -1.2112 -0.2935
  695MPD2    C110327   1.399   0.198  13.171 -0.4373  0.8149 -0.3997
  695MPD2    C210328   1.283   0.266  13.177  0.4220  0.3624  0.5796
  695MPD2    C310329   1.191   0.276  13.081 -0.0524  0.7182  0.7381
  695MPD2    C410330   1.212   0.191  12.969  0.2256  0.3046 -0.2008
  695MPD2    C510331   1.325   0.110  12.970 -0.8620  0.2976 -0.9513
  695MPD2     H10332   1.268   0.323  13.268 -0.2902 -0.0940  0.7501
  695MPD2    H110333   1.143   0.192  12.885  0.3944 -0.0581 -0.3442
  695MPD2    H210334   1.502   0.045  13.061  0.5121 -0.6284 -0.8097
  695MPD2    H310335   1.345   0.063  12.875 -2.2907  1.1215 -1.6559
  695MPD2     N10336   1.078   0.364  13.091 -0.4057  0.0105  0.3948
  695MPD2    H510337   1.084   0.429  13.169  1.2841  0.0664  0.2186
  695MPD2    N110338   1.481   0.209  13.280 -0.1675  0.5256 -0.3948
  695MPD2    H710339   1.458   0.283  13.346  1.6739 -0.4042  1.3089
  696TMC3    C110340   0.868   0.454  13.067 -0.3864 -0.0795 -0.5494
  696TMC3    C210341   0.856   0.448  13.205  0.4193  0.9433  0.4334
  696TMC3    C310342   0.762   0.531  13.263  0.7591  0.1276  0.2613
  696TMC3    C410343   0.822   0.562  12.998 -0.0040 -0.7538  0.0393
  696TMC3    C510344   0.742   0.648  13.069  0.2982  0.6621  0.0420
  696TMC3    C610345   0.700   0.629  13.198 -0.0474  0.3902  0.5591
  696TMC3     C10346   0.970   0.370  13.001 -0.5371 -0.0148 -0.1200
  696TMC3     O10347   0.951   0.324  12.893  0.2496 -0.1609  1.0929
  696TMC3     H10348   0.890   0.357  13.255  1.4834  0.4161 -1.2318
  696TMC3    H110349   0.822   0.569  12.890  3.1005 -0.4353  0.0352
  696TMC3    H210350   0.609   0.676  13.235 -0.7975 -0.9061  0.3648
  696TMC3    C710351   0.735   0.785  13.016  0.4160  0.2601 -0.0454
  696TMC3    C810352   0.685   0.456  13.349  0.2643 -0.6680  0.4009
  696TMC3    O110353   0.752   0.797  12.898  0.2029  0.0139 -0.0528
  696TMC3    O210354   0.660   0.341  13.315  0.0118  0.1155  0.3692
  697MPD2     C10355   0.754   1.986  15.437 -0.6660  0.7559  1.0425
  697MPD2    C110356   0.760   1.951  15.306 -0.2290 -0.2739  0.3830
  697MPD2    C210357   0.796   2.039  15.205  1.1494 -0.2286 -0.7643
  697MPD2    C310358   0.825   2.171  15.242 -0.4931  0.1931 -0.3755
  697MPD2    C410359   0.815   2.211  15.376 -0.4602  0.0003 -0.1263
  697MPD2    C510360   0.787   2.113  15.467 -0.6333  0.6473  0.2961
  697MPD2     H10361   0.805   2.007  15.102 -1.3243 -1.9242 -0.4439
  697MPD2    H110362   0.840   2.312  15.408 -2.5881  0.3161  0.5969
  697MPD2    H210363   0.723   1.920  15.516  1.6741 -0.0452  1.2866
  697MPD2    H310364   0.792   2.127  15.575  0.3647 -1.5514  0.5365
  697MPD2     N10365   0.836   2.268  15.137 -0.1250  0.3433 -0.6474
  697MPD2    H510366   0.821   2.241  15.040 -1.8652  1.1891 -0.6097
  697MPD2    N110367   0.737   1.815  15.259  0.4387 -0.0512 -0.1470
  697MPD2    H710368   0.760   1.792  15.163  0.2830 -1.2078  0.0973
  698TMC3    C110369   0.807   2.477  15.035 -0.2326  0.3369 -0.4214
  698TMC3    C210370   0.868   2.594  15.008 -0.6401 -0.2055 -0.0018
  698TMC3    C310371   0.811   2.665  14.910  0.4990 -0.4871 -0.2511
  698TMC3    C410372   0.704   2.419  14.958  0.1091  0.0261 -0.5229
  698TMC3    C510373   0.654   2.498  14.855 -0.0979 -1.2598  0.1923
  698TMC3    C610374   0.701   2.621  14.842  0.3958  0.1408 -0.3125
  698TMC3     C10375   0.849   2.406  15.151  0.4526  0.5623 -0.4034
  698TMC3     O10376   0.903   2.475  15.236 -0.1389  0.8980  0.3314
  698TMC3     H10377   0.944   2.625  15.079  1.4764 -1.0983 -1.8872
  698TMC3    H110378   0.657   2.329  14.997  2.1099 -0.8275 -0.0666
  698TMC3    H210379   0.655   2.689  14.772 -0.3997  1.0421  1.0701
  698TMC3    C710380   0.597   2.425  14.748 -0.0365 -0.2248 -0.4412
  698TMC3    C810381   0.811   2.807  14.926 -0.4143 -0.0994  0.4824
  698TMC3    O110382   0.527   2.489  14.669  0.0867 -0.5136  0.6239
  698TMC3    O210383   0.704   2.861  14.908 -0.3489 -0.6130  0.0954
  699TMC3    C110384   0.919   0.204  12.559  0.0989  0.0559  0.4996
  699TMC3    C210385   0.947   0.076  12.534 -0.1762 -0.2474 -0.0405
  699TMC3    C310386   0.847   4.717  12.554 -0.5138 -0.5314  0.6283
  699TMC3    C410387   0.800   0.243  12.614 -0.4583 -0.1972  0.5419
  699TMC3    C510388   0.703   0.149  12.638  0.6395  0.2054 -1.0627
  699TMC3    C610389   0.727   0.015  12.614 -0.0186 -0.0011 -0.2823
  699TMC3     C10390   0.984   0.313  12.492 -0.1196 -0.7301 -0.2891
  699TMC3     O10391   0.921   0.416  12.481  0.2766  0.1163  0.3536
  699TMC3     H10392   1.027   0.055  12.463 -0.9461  2.4919 -1.7049
  699TMC3    H110393   0.790   0.341  12.659 -3.2692  0.2635 -1.1429
  699TMC3    H210394   0.647   4.682  12.636  0.0384 -0.0056 -0.0870
  699TMC3    C710395   0.600   0.178  12.740  0.1203  0.3831  0.8096
  699TMC3    C810396   0.901   4.611  12.636 -1.1586  0.3996 -0.2014
  699TMC3    O110397   0.552   0.084  12.801  0.1068  0.0634  0.0957
  699TMC3    O210398   0.817   4.530  12.674 -0.1055 -0.5403  0.0322
  700TMC3    C110399   4.538   2.921  16.996 -0.0341 -0.4535 -0.9691
  700TMC3    C210400   4.609   2.797  16.986  0.0554  0.1439  0.1376
  700TMC3    C310401   4.708   2.775  17.080  0.6858 -0.1317  0.6978
  700TMC3    C410402   4.568   3.014  17.095  0.2692 -0.2548 -0.2761
  700TMC3    C510403   4.665   2.987  17.186  0.0290  0.3517 -0.2747
  700TMC3    C610404   4.730   2.870  17.180  0.1523 -0.4111  0.2225
  700TMC3     C10405   4.505   2.971  16.866  0.1381 -0.4859 -0.2261
  700TMC3     O10406   4.389   2.992  16.838 -0.3409 -0.6366 -0.2921
  700TMC3     H10407   4.606   2.732  16.899 -0.6589  0.5954 -0.1776
  700TMC3    H110408   4.527   3.114  17.088 -0.1020 -0.2878  1.5466
  700TMC3    H210409   0.070   2.852  17.254 -0.7394 -0.1178  1.2358
  700TMC3    C710410   0.007   3.099  17.233 -0.4957  0.6011  0.3498
  700TMC3    C810411   0.057   2.668  17.059  0.0206 -0.3092  0.2077
  700TMC3    O110412   0.129   3.087  17.225 -0.1368  0.4328 -0.0507
  700TMC3    O210413   0.171   2.667  17.110  0.0224  0.8889  0.2687
  701TMC3    C110414   4.519   1.589  14.974  0.1947  0.0517 -0.5475
  701TMC3    C210415   4.543   1.451  14.957  0.1392 -0.2018  0.0308
  701TMC3    C310416   4.671   1.420  14.904  0.2167 -1.0001 -0.7873
  701TMC3    C410417   4.614   1.690  14.935 -0.1779  0.5932 -0.0884
  701TMC3    C510418   0.003   1.650  14.904  0.3791 -0.2726 -0.5995
  701TMC3    C610419   0.033   1.518  14.888 -0.3549 -0.0399  0.5553
  701TMC3     C10420   4.390   1.637  15.029  0.1971 -0.5129  0.0874
  701TMC3     O10421   4.379   1.757  15.041 -0.4164 -0.2962  0.3965
  701TMC3     H10422   4.476   1.376  14.997 -0.2250 -0.2242 -0.6282
  701TMC3    H110423   4.584   1.794  14.934  3.2510  1.5647 -0.4993
  701TMC3    H210424   0.135   1.488  14.866 -0.7323 -1.7691  1.1821
  701TMC3    C710425   0.105   1.744  14.860  1.0522  0.1945 -0.6259
  701TMC3    C810426   4.718   1.281  14.909 -0.2675 -0.3461 -0.1442
  701TMC3    O110427   0.175   1.707  14.769  0.7333 -0.5326  0.2466
  701TMC3    O210428   0.093   1.262  14.951 -0.6395 -0.0398  0.0083
  702MPD2     C10429   4.223   3.415  10.463  0.5987 -0.5005 -0.6569
  702MPD2    C110430   4.113   3.494  10.484  0.1832  0.0531 -0.5932
  702MPD2    C210431   4.037   3.534  10.375  0.5419 -0.1353 -0.3750
  702MPD2    C310432   4.081   3.510  10.248  0.1140  0.1617  0.4438
  702MPD2    C410433   4.196   3.424  10.229 -0.1260  0.3722  0.2967
  702MPD2    C510434   4.264   3.379  10.338 -0.8207  0.3930 -0.3693
  702MPD2     H10435   3.941   3.579  10.398  0.6439  0.7087 -1.6185
  702MPD2    H110436   4.229   3.388  10.133 -1.1791  1.9264 -0.6350
  702MPD2    H210437   4.284   3.388  10.549  0.2908  1.3474  0.1591
  702MPD2    H310438   4.356   3.321  10.330 -1.7628 -1.2741  1.0411
  702MPD2     N10439   4.007   3.554  10.128  0.0364  0.1698  0.2933
  702MPD2    H510440   4.041   3.511  10.042  1.4173  0.7476  0.5540
  702MPD2    N110441   4.074   3.533  10.619 -0.1116  0.3499 -0.0349
  702MPD2    H710442   3.983   3.578  10.627 -0.0812  0.8707 -2.5415
  703TMC3    C110443   3.873   3.734  10.227 -1.1019 -0.4315 -0.1400
  703TMC3    C210444   3.741   3.758  10.258 -0.6050  0.1009  0.2963
  703TMC3    C310445   3.716   3.854  10.358 -0.3132  0.5745 -0.0589
  703TMC3    C410446   3.981   3.808  10.277 -0.5114 -0.2200  0.1975
  703TMC3    C510447   3.942   3.913  10.359 -0.1121 -0.4502 -0.5495
  703TMC3    C610448   3.813   3.943  10.403  0.4667 -0.1970  0.7582
  703TMC3     C10449   3.893   3.641  10.118 -0.5876  0.2714  0.0657
  703TMC3     O10450   3.805   3.649  10.035 -0.3511  0.3528  0.4862
  703TMC3     H10451   3.663   3.691  10.225 -1.1155  0.9883 -0.2762
  703TMC3    H110452   4.084   3.780  10.255 -0.5297  0.7896 -1.1507
  703TMC3    H210453   3.791   4.001  10.492 -1.2814 -0.9468  0.8197
  703TMC3    C710454   4.049   3.980  10.425  0.4257 -1.0638 -0.3011
  703TMC3    C810455   3.581   3.875  10.409 -0.4435  0.0001  0.1711
  703TMC3    O110456   4.145   3.909  10.447  0.3573 -0.2475 -0.0082
  703TMC3    O210457   3.576   3.956  10.502  0.3397  0.1141 -0.0305
  704TMC3    C110458   2.511   2.125  11.983  0.2671  0.3291  0.8262
  704TMC3    C210459   2.416   2.157  11.889 -0.1530  0.9976  0.4371
  704TMC3    C310460   2.429   2.105  11.763 -0.3267  0.3968  0.6541
  704TMC3    C410461   2.616   2.046  11.951  0.5622  0.4924 -0.0245
  704TMC3    C510462   2.617   1.980  11.830 -0.1659  0.0535  0.3193
  704TMC3    C610463   2.527   2.015  11.733 -0.2565 -0.0695 -0.2718
  704TMC3     C10464   2.475   2.151  12.125 -0.1182 -0.1417 -0.2508
  704TMC3     O10465   2.542   2.101  12.217 -0.2826 -0.0842  0.5785
  704TMC3     H10466   2.329   2.220  11.902 -0.8179  0.6273 -2.1813
  704TMC3    H110467   2.681   2.006  12.029  2.0416 -1.0170 -2.0470
  704TMC3    H210468   2.539   1.971  11.634  0.6059  1.3789 -0.8084
  704TMC3    C710469   2.723   1.894  11.787  0.3530  0.4829  1.0314
  704TMC3    C810470   2.307   2.106  11.687 -0.1843 -0.5656  0.6678
  704TMC3    O110471   2.755   1.904  11.670  0.3265  0.0759  0.0254
  704TMC3    O210472   2.205   2.105  11.754 -0.2138 -0.5226 -0.1024
  705MPD2     C10473   1.450   0.290  16.284  0.5543  0.0583  0.2958
  705MPD2    C110474   1.438   0.387  16.186 -0.3578 -0.0060  0.1350
  705MPD2    C210475   1.310   0.450  16.180  0.2658  0.0940 -0.0996
  705MPD2    C310476   1.205   0.404  16.256 -0.1277  0.2025 -0.5107
  705MPD2    C410477   1.217   0.292  16.339 -0.7790 -0.0479 -0.7846
  705MPD2    C510478   1.344   0.237  16.354  0.3639 -0.1723  1.1727
  705MPD2     H10479   1.294   0.525  16.104 -1.6437  0.1846  0.4131
  705MPD2    H110480   1.129   0.254  16.389  0.1244 -0.1580  0.7114
  705MPD2    H210481   1.537   0.225  16.289  0.8236  0.3783 -0.1791
  705MPD2    H310482   1.367   0.145  16.407  0.2009 -0.4166  0.8157
  705MPD2     N10483   1.075   0.465  16.251  0.4931  0.5893 -0.1903
  705MPD2    H510484   0.997   0.425  16.301  0.4616  1.5820  0.5456
  705MPD2    N110485   1.541   0.423  16.098  0.2728  0.6078 -0.3984
  705MPD2    H710486   1.525   0.480  16.016  3.3753 -1.1354 -2.2247
  706TMC3    C110487   1.797   0.266  15.797 -0.0218 -0.2307  0.1203
  706TMC3    C210488   1.746   0.358  15.712 -0.0300 -0.2132  0.4987
  706TMC3    C310489   1.696   0.474  15.767  0.2748  0.1059 -0.0292
  706TMC3    C410490   1.799   0.280  15.933  1.1312  0.0680 -0.4270
  706TMC3    C510491   1.740   0.393  15.985 -0.5077  0.4157  0.3641
  706TMC3    C610492   1.694   0.494  15.900 -0.2068  0.2214 -0.0783
  706TMC3     C10493   1.868   0.154  15.751 -0.0620  0.4723 -0.4291
  706TMC3     O10494   1.955   0.107  15.822  0.2660  0.3149 -0.3428
  706TMC3     H10495   1.759   0.352  15.605 -1.0048 -0.2538  0.3838
  706TMC3    H110496   1.842   0.206  15.999  0.2699  0.6012  0.7190
  706TMC3    H210497   1.649   0.577  15.954  5.2564  1.6386  2.2833
  706TMC3    C710498   1.672   0.371  16.105  0.0238 -0.0094  0.2639
  706TMC3    C810499   1.692   0.600  15.679  0.7860  1.0261 -0.0072
  706TMC3    O110500   1.718   0.288  16.183 -0.1383  0.2839 -0.3566
  706TMC3    O210501   1.690   0.581  15.558  0.1829  0.2654  0.4648
  707TMC3    C110502   3.648   4.445   1.531 -0.0234  0.0267  0.0990
  707TMC3    C210503   3.701   4.352   1.615  0.5389 -0.0737 -0.3220
  707TMC3    C310504   3.636   4.320   1.734 -0.5856 -0.2355  0.8661
  707TMC3    C410505   3.533   4.514   1.562  0.7482  0.5206  0.4314
  707TMC3    C510506   3.462   4.473   1.674 -0.0530  0.3076  0.1608
  707TMC3    C610507   3.516   4.375   1.759 -0.5744 -0.4829  0.8783
  707TMC3     C10508   3.733   4.482   1.416 -0.2857  0.9128 -0.4569
  707TMC3     O10509   3.835   4.420   1.406 -0.4363 -0.5702  0.8952
  707TMC3     H10510   3.801   4.316   1.596 -0.5601 -2.3666 -1.7388
  707TMC3    H110511   3.491   4.573   1.481 -1.0358 -2.1404 -0.6173
  707TMC3    H210512   3.453   4.350   1.844  1.3398  0.4319  2.5686
  707TMC3    C710513   3.332   4.534   1.710  0.0130  0.5089  0.2665
  707TMC3    C810514   3.693   4.220   1.822 -0.1677  0.1238  0.4978
  707TMC3    O110515   3.264   4.486   1.801  0.0998  0.6637 -0.7163
  707TMC3    O210516   3.659   4.221   1.937 -0.0118 -0.3565 -0.7878
  708MPD2     C10517   4.406   3.224  13.985 -0.1225  0.0339 -0.3965
  708MPD2    C110518   4.306   3.301  14.041  0.2894 -0.4453 -0.1435
  708MPD2    C210519   4.303   3.309  14.175 -0.4298 -0.5356  0.0653
  708MPD2    C310520   4.388   3.249  14.259 -0.2513 -0.6493  0.5244
  708MPD2    C410521   4.471   3.157  14.209 -0.3183 -0.4039 -1.0725
  708MPD2    C510522   4.483   3.149  14.070 -0.2409  0.5462  1.2344
  708MPD2     H10523   4.226   3.369  14.222 -1.0918 -2.2556  1.1592
  708MPD2    H110524   4.535   3.096  14.273 -0.9668 -1.3525 -1.3371
  708MPD2    H210525   4.427   3.208  13.880  0.1835 -0.5573 -0.2428
  708MPD2    H310526   4.568   3.092  14.033 -2.0671 -3.7678  3.6971
  708MPD2     N10527   4.358   3.278  14.388  0.5614 -0.6606  0.5512
  708MPD2    H510528   4.291   3.351  14.406 -1.4069 -2.4277  0.4052
  708MPD2    N110529   4.220   3.383  13.962 -0.4027  0.3231  0.3493
  708MPD2    H710530   4.171   3.451  14.019 -0.2323  0.2262  0.6103
  709TMC3    C110531   4.117   3.478  13.775  0.1223  0.1453  0.4155
  709TMC3    C210532   4.045   3.401  13.689  0.2024 -0.6078  0.2629
  709TMC3    C310533   3.911   3.387  13.709 -0.0380  0.0947  0.3605
  709TMC3    C410534   4.048   3.553  13.866 -0.4811 -0.3786  0.1598
  709TMC3    C510535   3.919   3.525  13.897 -0.1364  0.9286  0.5146
  709TMC3    C610536   3.847   3.442  13.814 -0.0763 -0.3263  0.0347
  709TMC3     C10537   4.219   3.394  13.824  1.2885 -0.2663  0.1229
  709TMC3     O10538   4.250   3.298  13.754  0.1684  0.4678 -0.1819
  709TMC3     H10539   4.091   3.330  13.620  1.0619 -0.4431  0.6729
  709TMC3    H110540   4.105   3.611  13.937 -0.0880  0.9643 -1.2595
  709TMC3    H210541   3.744   3.411  13.826 -0.3247  1.2286  1.8926
  709TMC3    C710542   3.890   3.527  14.039 -0.2664 -0.3208  0.1915
  709TMC3    C810543   3.839   3.306  13.614 -0.1611 -0.1956  0.2998
  709TMC3    O110544   3.940   3.615  14.107 -0.7265 -0.2723  0.2785
  709TMC3    O210545   3.726   3.270  13.649  0.5134 -0.2858  0.7268
  710TMC3    C110546   0.923   0.293   0.020 -0.2788  0.2635  0.0660
  710TMC3    C210547   0.946   0.305  17.633  0.0663  0.8278  0.2510
  710TMC3    C310548   1.075   0.331  17.593 -0.4438  0.0400 -0.0413
  710TMC3    C410549   1.024   0.295   0.114 -0.2866  0.8416 -0.5449
  710TMC3    C510550   1.148   0.297   0.067  0.4225  0.6882 -1.0571
  710TMC3    C610551   1.181   0.320  17.680  0.6080  0.0915  0.3964
  710TMC3     C10552   0.786   0.289   0.059 -0.3281 -0.4465  0.0580
  710TMC3     O10553   0.721   0.231  17.727  0.1624  0.0404 -0.0350
  710TMC3     H10554   0.859   0.318  17.570  0.1709  1.2538  0.1919
  710TMC3    H110555   1.012   0.266   0.218  0.0029  0.3031 -0.6637
  710TMC3    H210556   1.281   0.340  17.645  0.3061 -1.4271 -1.3631
  710TMC3    C710557   1.250   0.252   0.160  0.7621 -0.1466 -0.5847
  710TMC3    C810558   1.111   0.349  17.453 -0.4902  0.2242 -0.2819
  710TMC3    O110559   1.226   0.264   0.282 -0.1773 -0.1204  0.3888
  710TMC3    O210560   1.226   0.347  17.416  0.1832  0.1972  0.3238
  711TMC3    C110561   0.498   0.995  14.371  0.2376  0.3823 -0.0253
  711TMC3    C210562   0.489   1.022  14.503 -0.6465  0.3247  0.4814
  711TMC3    C310563   0.590   1.084  14.566  0.3000  0.2484 -0.5727
  711TMC3    C410564   0.612   1.030  14.305  0.7914 -0.0368 -0.0569
  711TMC3    C510565   0.720   1.077  14.375  0.2534 -0.0546  0.4152
  711TMC3    C610566   0.700   1.126  14.501 -0.1220 -0.4972  0.2867
  711TMC3     C10567   0.474   0.853  14.353 -0.2487 -0.4864  0.5575
  711TMC3     O10568   0.466   0.813  14.239 -0.2018  0.4417  0.2809
  711TMC3     H10569   0.398   0.995  14.555 -0.8770 -0.0272 -0.0996
  711TMC3    H110570   0.619   0.993  14.204 -0.1541  1.5952 -0.7257
  711TMC3    H210571   0.782   1.177  14.549  0.2171 -1.9119  1.2206
  711TMC3    C710572   0.839   0.998  14.385  0.0430 -0.5899 -1.2436
  711TMC3    C810573   0.617   1.018  14.695 -0.4775 -0.6865 -1.1730
  711TMC3    O110574   0.921   1.033  14.473  0.2630 -0.0562  0.8489
  711TMC3    O210575   0.553   0.912  14.707  0.1432  0.1024 -0.1737
  712MPD2     C10576   1.967   1.814  13.406  0.1545  0.3427 -0.1891
  712MPD2    C110577   1.844   1.883  13.421  0.3886 -0.3180  0.1752
  712MPD2    C210578   1.830   2.001  13.487 -0.0423 -0.3253  0.1393
  712MPD2    C310579   1.940   2.062  13.549 -0.1034 -0.2857  0.0066
  712MPD2    C410580   2.065   1.996  13.535 -0.1484  0.7214 -0.2312
  712MPD2    C510581   2.068   1.875  13.476 -0.6635  0.2364 -0.0572
  712MPD2     H10582   1.730   2.042  13.494  0.6244  1.2434  0.2664
  712MPD2    H110583   2.154   2.044  13.574 -0.3648  1.1510 -0.2648
  712MPD2    H210584   1.983   1.714  13.369  0.4323  0.2070  0.2942
  712MPD2    H310585   2.158   1.818  13.455 -0.5153  0.2173  0.6286
  712MPD2     N10586   1.939   2.187  13.614 -0.3218 -0.2096  0.3640
  712MPD2    H510587   2.023   2.222  13.658  2.2718 -1.0692 -3.8170
  712MPD2    N110588   1.721   1.834  13.380  0.0227 -0.1743 -0.3076
  712MPD2    H710589   1.640   1.891  13.399 -0.6722 -0.8057 -1.3564
  713TMC3    C110590   1.880   2.408  13.636  0.1814 -0.0207  0.3944
  713TMC3    C210591   2.017   2.435  13.609 -0.5148  0.0070 -0.0635
  713TMC3    C310592   2.057   2.560  13.630  0.6609  0.0574  0.0692
  713TMC3    C410593   1.789   2.506  13.652  0.1907 -0.1441  0.1593
  713TMC3    C510594   1.839   2.636  13.664  0.0052  0.3097 -0.2460
  713TMC3    C610595   1.973   2.660  13.659 -0.3814  0.5775 -0.1225
  713TMC3     C10596   1.829   2.274  13.613  0.0361  0.3631  0.1288
  713TMC3     O10597   1.710   2.252  13.579  0.4465 -0.2951  0.0203
  713TMC3     H10598   2.090   2.379  13.554 -0.2348 -0.2386  0.5574
  713TMC3    H110599   1.687   2.480  13.677  0.1528 -1.7547 -1.5920
  713TMC3    H210600   2.010   2.762  13.657 -2.5936  1.3899  0.1979
  713TMC3    C710601   1.768   2.737  13.734  0.1691 -0.6246 -0.2801
  713TMC3    C810602   2.185   2.600  13.590 -0.2257 -1.2539  0.3400
  713TMC3    O110603   1.822   2.793  13.831  0.6391  0.2711  0.5319
  713TMC3    O210604   2.185   2.698  13.517 -0.5481  0.2634 -0.5123
  714MPD2     C10605   4.353   0.893   1.098  0.2220  0.4255 -0.0711
  714MPD2    C110606   4.390   0.839   0.976  0.1468  0.0509 -0.3303
  714MPD2    C210607   4.315   0.863   0.859 -0.7384 -0.0931  0.8727
  714MPD2    C310608   4.200   0.937   0.875 -0.1105  0.2990 -0.0269
  714MPD2    C410609   4.169   0.989   0.999 -0.0704  0.6227 -0.4133
  714MPD2    C510610   4.244   0.963   1.112  1.2549 -0.0533  0.3973
  714MPD2     H10611   4.346   0.836   0.759 -1.3767 -0.7030  0.8377
  714MPD2    H110612   4.081   1.048   1.023 -0.0112 -0.6012  2.8563
  714MPD2    H210613   4.418   0.875   1.183 -1.2291  1.9758  1.3928
  714MPD2    H310614   4.214   1.007   1.206  0.6574  0.7032 -0.1404
  714MPD2     N10615   4.113   0.964   0.769 -0.3149  0.2739 -0.1306
  714MPD2    H510616   4.115   0.901   0.689  0.2355  0.3226 -0.1550
  714MPD2    N110617   4.514   0.776   0.970 -0.0663  0.0486  0.4867
  714MPD2    H710618   4.555   0.758   1.061  1.0986 -0.4520 -0.1459
  715TMC3    C110619   4.705   0.665   0.895 -0.0599  0.2408  0.8653
  715TMC3    C210620   0.035   0.573   0.813 -0.8739  0.1768 -0.7884
  715TMC3    C310621   0.163   0.534   0.838  0.0316 -0.1605  0.7261
  715TMC3    C410622   0.036   0.722   1.003 -0.1223 -0.1234 -0.5364
  715TMC3    C510623   0.163   0.668   1.034  1.0546 -0.5352  0.8028
  715TMC3    C610624   0.233   0.581   0.948  0.2118  0.0221 -0.2660
  715TMC3     C10625   4.569   0.703   0.868  0.3822 -0.7289  0.3635
  715TMC3     O10626   4.524   0.679   0.758 -0.2570  0.2475  0.2963
  715TMC3     H10627   4.719   0.539   0.725  0.3580  0.9931 -1.8631
  715TMC3    H110628   4.720   0.800   1.056 -0.9438 -0.1960 -1.2594
  715TMC3    H210629   0.321   0.528   0.981  1.3116  0.9088 -1.7685
  715TMC3    C710630   0.241   0.722   1.144 -0.9954 -0.3738 -0.5985
  715TMC3    C810631   0.233   0.455   0.738 -0.6575 -0.3329 -1.3329
  715TMC3    O110632   0.361   0.725   1.130  0.1496 -0.9282  0.0420
  715TMC3    O210633   0.160   0.402   0.654 -0.1249 -0.2852 -0.6345
  716MPD2     C10634   3.068   3.744   9.364  0.9175  0.0007 -0.7127
  716MPD2    C110635   3.052   3.740   9.224  0.0775  0.1462 -1.0063
  716MPD2    C210636   3.125   3.635   9.161 -0.1017  0.3930  0.3312
  716MPD2    C310637   3.196   3.543   9.231  0.5768 -0.0363 -0.3525
  716MPD2    C410638   3.202   3.547   9.370 -0.3696  0.5456 -0.1526
  716MPD2    C510639   3.123   3.640   9.429 -0.5517  0.2105 -0.1253
  716MPD2     H10640   3.124   3.629   9.052  1.4394 -1.7166  0.4369
  716MPD2    H110641   3.251   3.479   9.439  1.0856  1.0426 -0.6786
  716MPD2    H210642   3.025   3.825   9.423 -0.9265 -0.2080 -1.7824
  716MPD2    H310643   3.141   3.650   9.536  1.4669  1.1282 -0.5342
  716MPD2     N10644   3.248   3.428   9.164 -0.2558 -0.0726  0.1235
  716MPD2    H510645   3.226   3.415   9.066  0.1462  0.2851 -0.0128
  716MPD2    N110646   2.974   3.835   9.152  0.0962  0.2905  0.8023
  716MPD2    H710647   2.928   3.902   9.213  0.4301 -0.3835  1.8034
  717TMC3    C110648   3.342   3.239   9.096 -0.2913  0.3653  0.7472
  717TMC3    C210649   3.224   3.216   9.031 -0.0801  0.1357  0.3787
  717TMC3    C310650   3.209   3.095   8.968 -0.2435  0.4837  0.9314
  717TMC3    C410651   3.450   3.155   9.098  0.4478  0.3282  0.6671
  717TMC3    C510652   3.436   3.043   9.021 -0.0175 -0.6444 -0.0805
  717TMC3    C610653   3.317   3.011   8.947 -0.6853  0.5976 -0.5066
  717TMC3     C10654   3.336   3.337   9.204  0.1911  0.1847 -0.4455
  717TMC3     O10655   3.401   3.316   9.307 -0.4308 -0.8448  0.0460
  717TMC3     H10656   3.131   3.272   9.031  0.1978  0.5943  0.3847
  717TMC3    H110657   3.540   3.165   9.157  1.0621 -1.3896  0.0299
  717TMC3    H210658   3.304   2.913   8.903  0.2876 -0.0181  0.5781
  717TMC3    C710659   3.535   2.940   9.038  0.9358  0.5917 -0.2011
  717TMC3    C810660   3.089   3.081   8.894 -0.4573  0.4458 -0.5620
  717TMC3    O110661   3.594   2.945   9.145  0.1115  0.6787 -0.8267
  717TMC3    O210662   2.985   3.126   8.937 -0.2687  0.2708  0.2440
  718MPD2     C10663   3.144   2.687  12.396  0.4586 -0.3465  0.3177
  718MPD2    C110664   3.241   2.628  12.470 -0.1103  0.2707  0.0764
  718MPD2    C210665   3.229   2.625  12.606  0.8477 -0.3098  1.1615
  718MPD2    C310666   3.112   2.666  12.664 -0.5532  0.0649 -0.0758
  718MPD2    C410667   3.017   2.726  12.591 -1.0925 -0.7846  0.2830
  718MPD2    C510668   3.033   2.740  12.454 -0.1024 -0.3306  0.1919
  718MPD2     H10669   3.307   2.577  12.663  1.0256  1.4280  2.3729
  718MPD2    H110670   2.923   2.750  12.639 -1.1300  0.8091 -0.6037
  718MPD2    H210671   3.148   2.689  12.288  0.7700 -0.9340  0.3182
  718MPD2    H310672   2.948   2.785  12.404  0.2888 -0.3342 -0.4795
  718MPD2     N10673   3.078   2.637  12.799 -0.1477 -0.1866 -0.5015
  718MPD2    H510674   2.992   2.683  12.828 -0.2015 -1.5570  1.5240
  718MPD2    N110675   3.356   2.573  12.426  0.1198 -0.2365  0.4848
  718MPD2    H710676   3.411   2.519  12.491  0.1346  1.5388  1.9615
  719TMC3    C110677   3.528   2.511  12.281  0.4758 -0.5640 -0.5282
  719TMC3    C210678   3.539   2.408  12.371  0.8075 -0.2783 -0.4402
  719TMC3    C310679   3.648   2.386  12.452  0.1483 -0.1786 -0.0413
  719TMC3    C410680   3.624   2.609  12.267  0.3821 -0.1764  0.1516
  719TMC3    C510681   3.732   2.595  12.355 -0.4711  0.3535 -0.5816
  719TMC3    C610682   3.742   2.487  12.439  0.3921  0.2823  0.5885
  719TMC3     C10683   3.399   2.570  12.292 -0.4228  0.0762  0.0453
  719TMC3     O10684   3.353   2.626  12.193  0.1090  0.0575 -0.3471
  719TMC3     H10685   3.457   2.337  12.381  0.7331 -0.2746 -1.0147
  719TMC3    H110686   3.604   2.700  12.211 -0.4091 -0.9602 -0.8472
  719TMC3    H210687   3.815   2.480  12.519 -0.3009  3.0527  1.4731
  719TMC3    C710688   3.824   2.706  12.352  0.8499 -0.1331 -0.2755
  719TMC3    C810689   3.604   2.374  12.586 -0.1647 -0.0594  0.2952
  719TMC3    O110690   3.807   2.780  12.255 -0.1132  0.0594  0.4817
  719TMC3    O210691   3.560   2.473  12.636 -0.5898  1.0230  0.5472
  720MPD2     C10692   1.908   3.453  13.805  0.1804  0.6236 -0.2134
  720MPD2    C110693   1.932   3.590  13.775 -0.6831  0.2960  1.0326
  720MPD2    C210694   2.018   3.662  13.858  0.3931 -0.0179 -0.1160
  720MPD2    C310695   2.069   3.602  13.970  0.0067 -0.5978 -0.3171
  720MPD2    C410696   2.042   3.469  14.010  0.3766 -0.1128  0.1730
  720MPD2    C510697   1.957   3.403  13.925 -0.0289 -0.4343  0.1653
  720MPD2     H10698   2.058   3.750  13.809  0.2829 -0.2935 -0.6962
  720MPD2    H110699   2.077   3.417  14.098 -1.2658  0.9676  1.4509
  720MPD2    H210700   1.843   3.395  13.740  0.8395 -1.3641  0.9030
  720MPD2    H310701   1.930   3.301  13.949  0.6590 -0.7897 -0.5895
  720MPD2     N10702   2.175   3.669  14.037  0.2881  0.2559  0.9960
  720MPD2    H510703   2.188   3.766  14.012  2.1165 -0.0089  0.9110
  720MPD2    N110704   1.884   3.653  13.659 -0.5069 -0.3924 -0.4970
  720MPD2    H710705   1.876   3.754  13.655 -1.6727 -0.4165  1.0417
  721TMC3    C110706   2.312   3.738  14.241 -0.1093 -0.2606 -0.3173
  721TMC3    C210707   2.329   3.690  14.366  0.0823  0.3270 -1.1011
  721TMC3    C310708   2.422   3.748  14.446  0.6279 -0.1563  0.0013
  721TMC3    C410709   2.408   3.816  14.178 -0.4346  0.3539 -0.1553
  721TMC3    C510710   2.505   3.862  14.259  0.0057 -0.1098 -0.5135
  721TMC3    C610711   2.516   3.821  14.391  0.0537  0.3703 -0.4161
  721TMC3     C10712   2.241   3.633  14.155 -0.0529 -0.2295 -0.2128
  721TMC3     O10713   2.246   3.520  14.201 -0.8540  0.5228  0.4234
  721TMC3     H10714   2.265   3.613  14.406 -1.0941  1.3683 -0.9674
  721TMC3    H110715   2.405   3.847  14.075  1.3113  0.1085 -0.2883
  721TMC3    H210716   2.603   3.848  14.450 -0.2705 -0.9253  0.6821
  721TMC3    C710717   2.629   3.884  14.185 -0.7202 -0.3299  0.1736
  721TMC3    C810718   2.433   3.695  14.581  0.3474 -0.0018 -0.1472
  721TMC3    O110719   2.629   3.970  14.103 -0.3735  0.2825  0.1007
  721TMC3    O210720   2.415   3.577  14.602 -0.0774 -0.2071  0.1205
  722MPD2     C10721   0.604   2.807  12.983 -0.1804 -0.3988  0.3051
  722MPD2    C110722   0.671   2.795  13.096  0.1620  0.6693  0.0189
  722MPD2    C210723   0.628   2.718  13.204  0.0334  0.4505 -0.7234
  722MPD2    C310724   0.504   2.651  13.194 -0.8159 -0.5049 -0.0601
  722MPD2    C410725   0.437   2.657  13.070 -0.8020 -0.1455  0.0217
  722MPD2    C510726   0.488   2.736  12.968  0.1098 -0.1793  0.2027
  722MPD2     H10727   0.674   2.722  13.302  1.1342 -3.8857 -1.0534
  722MPD2    H110728   0.342   2.608  13.053 -0.2087  0.3603 -4.7707
  722MPD2    H210729   0.646   2.868  12.904  2.9537 -0.9213  1.5733
  722MPD2    H310730   0.440   2.729  12.871  1.4339 -0.3099 -0.4506
  722MPD2     N10731   0.453   2.592  13.314  0.6245 -0.0694  0.2396
  722MPD2    H510732   0.507   2.593  13.399 -1.5453 -1.3214  1.6468
  722MPD2    N110733   0.783   2.868  13.116  0.2949  0.1003 -0.6526
  722MPD2    H710734   0.796   2.946  13.053 -1.7243  1.3199  0.4222
  723TMC3    C110735   0.300   2.473  13.456  0.0878 -0.4309 -0.2456
  723TMC3    C210736   0.205   2.371  13.459 -0.0644 -0.1092 -0.2113
  723TMC3    C310737   0.163   2.319  13.578 -0.0919 -0.0907 -0.6705
  723TMC3    C410738   0.344   2.533  13.573 -0.1531 -0.2460 -0.4843
  723TMC3    C510739   0.284   2.484  13.689 -0.3953 -0.1599 -0.0501
  723TMC3    C610740   0.198   2.377  13.691 -0.3758  0.3766 -0.0757
  723TMC3     C10741   0.333   2.521  13.323 -0.0735 -0.2803 -0.3156
  723TMC3     O10742   0.241   2.498  13.239  0.1640  0.4070  0.8368
  723TMC3     H10743   0.176   2.324  13.365 -0.5287  1.3400 -0.7934
  723TMC3    H110744   0.425   2.605  13.569 -1.0252  0.8561  1.7775
  723TMC3    H210745   0.159   2.342  13.786 -0.2651 -1.3634 -0.6727
  723TMC3    C710746   0.350   2.522  13.809  0.0909  0.2286 -0.0226
  723TMC3    C810747   0.050   2.235  13.583  0.3412 -0.2690 -0.8375
  723TMC3    O110748   0.384   2.428  13.887  0.6583 -0.3755 -0.1305
  723TMC3    O210749   4.713   2.231  13.679 -0.6157  0.2416  0.3266
  724TMC3    C110750   1.524   0.613  10.424 -0.3507  0.4024 -0.2631
  724TMC3    C210751   1.522   0.523  10.319 -0.0666 -0.1173  0.2556
  724TMC3    C310752   1.560   0.579  10.198  0.3000 -0.4588 -0.4377
  724TMC3    C410753   1.578   0.738  10.418 -0.7954 -0.7694 -0.5526
  724TMC3    C510754   1.639   0.772  10.302 -0.7004 -0.1756  0.3775
  724TMC3    C610755   1.628   0.695  10.197  0.2449 -0.6393  0.2883
  724TMC3     C10756   1.444   0.578  10.540  0.9445  0.0524 -0.0037
  724TMC3     O10757   1.475   0.473  10.594 -0.0648 -0.1536 -0.5527
  724TMC3     H10758   1.442   0.450  10.323  0.1970 -0.2735  2.4866
  724TMC3    H110759   1.573   0.808  10.501 -0.1758  1.3576 -2.3327
  724TMC3    H210760   1.672   0.726  10.103 -1.4657  1.3995  0.1617
  724TMC3    C710761   1.648   0.918  10.280  0.2863  0.0253 -1.1234
  724TMC3    C810762   1.454   0.568  10.095  0.3547 -0.0597  0.8063
  724TMC3    O110763   1.595   0.952  10.171 -0.2149  0.1589  0.0707
  724TMC3    O210764   1.375   0.473  10.103  0.2806 -0.0845  0.2587
  725TMC3    C110765   3.111   3.955  12.598  1.0350  0.1095  0.1622
  725TMC3    C210766   3.002   4.016  12.551  0.3933 -0.6286  0.0446
  725TMC3    C310767   2.940   3.948  12.449  0.2009 -0.8802  0.0527
  725TMC3    C410768   3.157   3.834  12.556  0.2137 -0.6032 -0.2471
  725TMC3    C510769   3.078   3.770  12.471  0.4096 -0.0876 -1.2159
  725TMC3    C610770   2.967   3.825  12.413 -0.2040 -0.0102  0.2883
  725TMC3     C10771   3.168   4.010  12.719  0.0150  0.4183  0.5593
  725TMC3     O10772   3.148   4.129  12.744 -0.1089 -0.0528 -0.3068
  725TMC3     H10773   2.965   4.108  12.595 -0.2505 -0.8818  0.0276
  725TMC3    H110774   3.254   3.792  12.580  1.0407  0.9454 -0.8597
  725TMC3    H210775   2.900   3.772  12.346  0.8713 -0.6321 -0.2934
  725TMC3    C710776   3.134   3.638  12.427 -0.0723 -0.5421 -0.3991
  725TMC3    C810777   2.822   4.014  12.397 -0.1637 -0.0198  0.0020
  725TMC3    O110778   3.231   3.596  12.482 -0.2736 -0.2175  0.6729
  725TMC3    O210779   2.722   3.950  12.374 -0.3774  0.7845 -0.3233
  726MPD2     C10780   0.124   0.851  10.118  0.4068  0.2839 -0.7653
  726MPD2    C110781   0.146   0.928  10.228 -0.9733 -0.2699  0.2616
  726MPD2    C210782   0.105   0.878  10.348 -0.2524  0.0670  0.1965
  726MPD2    C310783   0.011   0.771  10.352  0.3739  0.2423 -0.6353
  726MPD2    C410784   4.715   0.705  10.238 -0.4586  0.4098 -0.7353
  726MPD2    C510785   0.043   0.735  10.123 -0.3541  0.1448 -0.4865
  726MPD2     H10786   0.124   0.938  10.437 -2.2650  1.8323 -0.5463
  726MPD2    H110787   4.639   0.630  10.256 -1.5725  1.4314 -1.1279
  726MPD2    H210788   0.171   0.881  10.024  0.9973 -1.3763 -1.0047
  726MPD2    H310789   0.003   0.691  10.033  4.6229  0.9349 -3.0853
  726MPD2     N10790   4.681   0.747  10.471  0.5333 -0.1155  0.7586
  726MPD2    H510791   4.601   0.684  10.462 -0.4297  1.1363  0.5366
  726MPD2    N110792   0.228   1.047  10.228  0.4790  0.2202  0.0890
  726MPD2    H710793   0.242   1.090  10.319  1.0849 -0.6607  0.4121
  727TMC3    C110794   0.308   1.246  10.152 -0.2195  0.7033 -0.7455
  727TMC3    C210795   0.364   1.258  10.273 -0.1660  0.3282 -0.8579
  727TMC3    C310796   0.354   1.381  10.340 -0.1467 -0.9052 -0.6407
  727TMC3    C410797   0.247   1.347  10.084  1.0849 -0.5815 -0.0613
  727TMC3    C510798   0.230   1.464  10.153  0.2943  0.7062 -1.0727
  727TMC3    C610799   0.284   1.481  10.273 -0.4551  0.6053 -0.4974
  727TMC3     C10800   0.259   1.120  10.117  1.2650  0.3710  0.1461
  727TMC3     O10801   0.221   1.097  10.006  0.3121  0.2811  0.2931
  727TMC3     H10802   0.412   1.178  10.328 -0.0985  0.0941 -1.2587
  727TMC3    H110803   0.192   1.326   9.993  0.0542 -1.0641  0.6691
  727TMC3    H210804   0.262   1.574  10.326 -0.6042 -0.6784  1.6833
  727TMC3    C710805   0.144   1.562  10.105 -0.3294  0.6179  0.3979
  727TMC3    C810806   0.450   1.409  10.451 -0.2143  0.5296  0.5006
  727TMC3    O110807   0.120   1.665  10.170 -0.0216  0.4356  0.1974
  727TMC3    O210808   0.543   1.331  10.466 -0.3379  0.3939  0.5394
  728TMC3    C110809   4.490   4.556  15.339 -0.6250  0.1595 -0.3043
  728TMC3    C210810   4.578   4.651  15.383 -0.0321 -0.4611  0.1083
  728TMC3    C310811   4.627   4.730  15.287  0.6505 -0.2936  0.7329
  728TMC3    C410812   4.452   4.544  15.206 -0.6350  0.5576  0.6892
  728TMC3    C510813   4.514   4.623  15.117  0.1411  1.1928 -0.0394
  728TMC3    C610814   4.602   4.717  15.152  0.9871 -0.2926  0.6856
  728TMC3     C10815   4.422   4.475  15.440  0.2562  0.7329 -0.6317
  728TMC3     O10816   4.468   4.456  15.551  0.2041 -0.0479  0.4322
  728TMC3     H10817   4.608   4.662  15.487  2.7311 -1.6251 -0.5667
  728TMC3    H110818   4.396   4.456  15.177  0.5035  0.1216 -0.1325
  728TMC3    H210819   4.643   0.053  15.085 -1.9340  2.0455  1.4881
  728TMC3    C710820   4.445   4.625  14.994  0.7395 -0.9217 -0.2585
  728TMC3    C810821   4.706   0.108  15.341  0.1033  0.8134 -0.1638
  728TMC3    O110822   4.326   4.597  14.993  0.4837 -0.3342  0.4536
  728TMC3    O210823   4.666   0.148  15.449 -0.4430 -0.1886  0.3238
  729MPD2     C10824   1.973   0.621  16.290  0.5367 -0.0861  0.1280
  729MPD2    C110825   2.064   0.721  16.299 -0.2863 -0.0024  0.1404
  729MPD2    C210826   2.065   0.779  16.422 -0.0785  0.3076  0.3405
  729MPD2    C310827   2.009   0.726  16.536  0.5901  0.1102 -0.0481
  729MPD2    C410828   1.930   0.617  16.525  0.0461 -1.0345 -0.6180
  729MPD2    C510829   1.914   0.566  16.399  0.4242 -0.0859 -0.3588
  729MPD2     H10830   2.117   0.874  16.430 -0.5067  0.4076  1.9637
  729MPD2    H110831   1.876   0.579  16.610  1.3887  0.9675  1.1156
  729MPD2    H210832   1.956   0.581  16.190  0.5678  0.9148 -0.2809
  729MPD2    H310833   1.840   0.488  16.383 -0.8438  1.6985 -3.1215
  729MPD2     N10834   2.039   0.770  16.668 -0.0474 -0.3964  0.1672
  729MPD2    H510835   1.985   0.721  16.739 -2.7998  0.0403 -1.6238
  729MPD2    N110836   2.126   0.771  16.181  0.0192  0.4656  0.4904
  729MPD2    H710837   2.107   0.727  16.092  3.2049  1.9097 -0.8669
  730TMC3    C110838   2.139   0.905  16.844 -0.3409  0.1749  0.0536
  730TMC3    C210839   2.262   0.959  16.878  0.5405  0.3040  0.5071
  730TMC3    C310840   2.264   1.041  16.989  0.5357  0.2323  0.6846
  730TMC3    C410841   2.016   0.956  16.886 -0.0531  0.8197 -0.5562
  730TMC3    C510842   2.027   1.051  16.995  0.5735 -0.2932 -0.6371
  730TMC3    C610843   2.150   1.080  17.043  0.5953 -0.0816  0.2461
  730TMC3     C10844   2.143   0.862  16.702  0.0196  0.3891 -0.2826
  730TMC3     O10845   2.209   0.936  16.630  0.8284  0.5313  0.5416
  730TMC3     H10846   2.354   0.913  16.846 -0.4669 -1.0362 -0.4534
  730TMC3    H110847   1.930   0.940  16.822 -1.4831  2.7292  0.8495
  730TMC3    H210848   2.159   1.147  17.128  1.1538  1.3949 -0.9742
  730TMC3    C710849   1.949   1.170  16.951 -0.5887  0.7983 -0.3148
  730TMC3    C810850   2.351   1.155  16.983 -0.0034 -0.8689 -0.3933
  730TMC3    O110851   1.948   1.203  16.835 -0.0580 -0.5805 -0.2274
  730TMC3    O210852   2.376   1.216  17.086  0.2124  0.5255  0.3871
  731MPD2     C10853   1.576   3.650  12.156  0.8287 -0.1669 -0.4407
  731MPD2    C110854   1.688   3.652  12.081 -1.2209 -0.2982  0.2418
  731MPD2    C210855   1.814   3.696  12.139  1.2063 -0.4662  0.3868
  731MPD2    C310856   1.813   3.729  12.276 -0.4500 -0.2423  0.1127
  731MPD2    C410857   1.699   3.719  12.351  0.1252 -0.3079 -0.3061
  731MPD2    C510858   1.584   3.680  12.294  0.1491 -0.2680 -0.0597
  731MPD2     H10859   1.906   3.699  12.082  0.2364 -0.8022 -1.2333
  731MPD2    H110860   1.690   3.744  12.456  2.8242 -1.5885  0.2163
  731MPD2    H210861   1.477   3.636  12.114  0.1061  3.3092  0.1810
  731MPD2    H310862   1.492   3.673  12.351 -1.0427 -0.3050 -2.0179
  731MPD2     N10863   1.937   3.763  12.330 -1.0538 -0.5247  0.1372
  731MPD2    H510864   2.014   3.768  12.265 -1.5827 -0.1043 -0.4551
  731MPD2    N110865   1.663   3.598  11.952 -0.0562  0.5375  1.0915
  731MPD2    H710866   1.570   3.562  11.932  0.4008 -0.3441  0.5728
  732TMC3    C110867   1.719   3.511  11.736 -0.3217 -0.0919  0.3090
  732TMC3    C210868   1.587   3.494  11.720 -0.2867 -0.1136  0.1558
  732TMC3    C310869   1.545   3.422  11.608 -1.1403 -0.1767  0.1751
  732TMC3    C410870   1.818   3.471  11.650  0.0357 -0.2718  0.0024
  732TMC3    C510871   1.771   3.396  11.549 -0.2783 -0.4965 -0.0955
  732TMC3    C610872   1.642   3.371  11.525 -0.0962 -0.2284 -0.3862
  732TMC3     C10873   1.755   3.594  11.854  0.3598 -0.4375  0.9085
  732TMC3     O10874   1.872   3.627  11.864  0.7310  0.4703  0.4740
  732TMC3     H10875   1.520   3.560  11.775  1.5549  1.5104  0.4580
  732TMC3    H110876   1.919   3.504  11.672 -0.9902  1.9143  1.4463
  732TMC3    H210877   1.621   3.295  11.451 -0.8844  0.7257 -1.1453
  732TMC3    C710878   1.870   3.334  11.459 -0.7835 -0.9216 -0.1247
  732TMC3    C810879   1.411   3.389  11.577 -0.6413  0.8160 -0.5384
  732TMC3    O110880   1.821   3.259  11.370  0.1777  0.6209  0.0577
  732TMC3    O210881   1.398   3.331  11.470  0.4390  0.8539  0.0085
  733TMC3    C110882   2.938   2.369  13.069 -0.0701 -0.2968 -0.0305
  733TMC3    C210883   2.969   2.486  13.001  1.4339  0.2298 -0.3044
  733TMC3    C310884   3.096   2.536  13.020  0.0629  0.5955 -0.3702
  733TMC3    C410885   3.029   2.311  13.152 -0.3296 -0.1397  0.1099
  733TMC3    C510886   3.153   2.366  13.164  0.4079 -0.2031 -0.5150
  733TMC3    C610887   3.190   2.484  13.097 -0.3722 -0.7088  0.1416
  733TMC3     C10888   2.810   2.304  13.045 -0.1367 -1.3367 -0.6038
  733TMC3     O10889   2.721   2.375  12.994 -0.2662  0.3084 -0.2445
  733TMC3     H10890   2.898   2.528  12.931  1.1210  0.3674  0.0907
  733TMC3    H110891   3.013   2.232  13.225 -0.0381  1.0321  1.4419
  733TMC3    H210892   3.286   2.531  13.112 -0.8952 -0.0667  1.4525
  733TMC3    C710893   3.255   2.262  13.144 -0.4473  0.3366 -0.3444
  733TMC3    C810894   3.154   2.570  12.897  0.9852  0.0239  0.0971
  733TMC3    O110895   3.229   2.147  13.169 -0.0653 -0.2812  0.2842
  733TMC3    O210896   3.266   2.524  12.880  0.6779 -0.3059  0.3428
  734MPD2     C10897   4.691   0.057  12.493  0.5757 -0.4513 -0.4162
  734MPD2    C110898   4.586   0.000  12.430 -0.9374  0.7557  0.3764
  734MPD2    C210899   4.576   0.020  12.292  0.4064  0.1227  0.6290
  734MPD2    C310900   4.674   0.093  12.216  0.3097  0.2375  0.5877
  734MPD2    C410901   0.048   0.143  12.280  0.8876  0.9352 -0.0765
  734MPD2    C510902   0.045   0.126  12.419  0.3780  0.2243 -0.5246
  734MPD2     H10903   4.490   4.731  12.231  0.8197  0.9747 -0.3280
  734MPD2    H110904   0.113   0.211  12.226 -0.8562  0.4025 -2.8688
  734MPD2    H210905   4.683   0.063  12.601 -0.8594 -2.0831 -0.4365
  734MPD2    H310906   0.112   0.181  12.484  0.4098  0.0602 -0.4172
  734MPD2     N10907   4.649   0.106  12.079 -0.2748  0.7550 -0.3315
  734MPD2    H510908   4.556   0.077  12.054  0.1722 -0.4473 -0.5786
  734MPD2    N110909   4.493   4.672  12.515  0.5008 -0.2921  0.2523
  734MPD2    H710910   4.514   4.662  12.614 -1.9468 -0.9116  0.6979
  735TMC3    C110911   4.322   4.503  12.544 -0.5616  0.5691  0.4920
  735TMC3    C210912   4.236   4.436  12.464 -0.3751  0.1611  0.0779
  735TMC3    C310913   4.236   4.304  12.462  0.0677  0.5805 -0.0089
  735TMC3    C410914   4.402   4.436  12.631  1.1016 -0.0198  0.4727
  735TMC3    C510915   4.382   4.301  12.643 -0.5799  0.0412  0.0262
  735TMC3    C610916   4.304   4.231  12.551 -0.1532 -0.4268  0.3574
  735TMC3     C10917   4.399   4.590  12.456  0.6320 -0.0048 -0.0536
  735TMC3     O10918   4.379   4.567  12.337 -0.5744 -0.4086  0.2614
  735TMC3     H10919   4.178   4.498  12.396 -0.0762 -1.9060 -2.0489
  735TMC3    H110920   4.474   4.479  12.700 -0.6957  0.9163  1.7458
  735TMC3    H210921   4.299   4.124  12.538  0.3379 -0.3837 -0.1900
  735TMC3    C710922   4.490   4.236  12.704 -0.4182 -0.2009 -0.2726
  735TMC3    C810923   4.212   4.252  12.329  0.1740 -0.2960 -0.1817
  735TMC3    O110924   4.595   4.294  12.717  0.2519 -0.2495  0.1005
  735TMC3    O210925   4.164   4.139  12.315  0.6781 -0.4151 -0.3040
  736MPD2     C10926   4.523   3.880  12.798 -0.0749  0.5087  0.2061
  736MPD2    C110927   4.563   4.003  12.749  0.0687  0.2129 -0.5876
  736MPD2    C210928   4.695   4.015  12.707 -1.0356  0.7102 -0.3948
  736MPD2    C310929   0.042   3.905  12.706  0.3202 -0.6216 -0.3225
  736MPD2    C410930   4.735   3.786  12.759 -0.4849 -0.7578 -0.0359
  736MPD2    C510931   4.608   3.776  12.808 -0.2171  0.6750  0.7382
  736MPD2     H10932   4.737   4.106  12.667  0.1046  0.0768 -0.6320
  736MPD2    H110933   0.068   3.704  12.761  0.3764  0.0099  1.0942
  736MPD2    H210934   4.427   3.871  12.848  1.0092 -1.4683  1.9248
  736MPD2    H310935   4.578   3.680  12.847 -1.7094 -0.0469 -2.2358
  736MPD2     N10936   0.176   3.910  12.656 -0.3757 -0.5998 -0.2593
  736MPD2    H510937   0.225   3.821  12.658 -0.2472 -0.4816  1.8407
  736MPD2    N110938   4.462   4.105  12.739  0.5286 -0.1155 -0.1054
  736MPD2    H710939   4.368   4.074  12.763 -0.0702  0.7633 -1.2786
  737TMC3    C110940   0.364   3.985  12.552  0.1311  0.6801 -0.6600
  737TMC3    C210941   0.450   4.087  12.533 -0.7267 -0.1411  0.4239
  737TMC3    C310942   0.532   4.079  12.426 -0.5833 -0.3895 -0.0564
  737TMC3    C410943   0.363   3.871  12.483  0.0262  0.4021  0.2954
  737TMC3    C510944   0.446   3.868  12.377 -0.1197  0.0210 -0.0225
  737TMC3    C610945   0.529   3.969  12.345  0.2103 -0.4418  0.3658
  737TMC3     C10946   0.246   4.022  12.613  0.6805  0.0757 -0.1938
  737TMC3     O10947   0.206   4.138  12.608  0.3812  0.1453 -0.0470
  737TMC3     H10948   0.445   4.183  12.584 -3.7225  0.2711 -0.6248
  737TMC3    H110949   0.297   3.788  12.507 -0.1226  0.8513  1.4665
  737TMC3    H210950   0.615   3.949  12.282 -0.8283  1.7998 -1.7922
  737TMC3    C710951   0.451   3.742  12.303  0.3415  0.1692  1.0757
  737TMC3    C810952   0.616   4.199  12.391  0.2069 -0.4054  0.3145
  737TMC3    O110953   0.421   3.640  12.361 -0.6031  0.6265 -0.0251
  737TMC3    O210954   0.624   4.279  12.483  0.2169 -0.5114 -0.0332
  738MPD2     C10955   0.877   3.086  14.992  0.0354 -0.0903 -0.1518
  738MPD2    C110956   0.962   2.982  15.008  0.2211  0.1786  0.4595
  738MPD2    C210957   1.095   3.012  15.045  0.7671  0.1387  0.0092
  738MPD2    C310958   1.138   3.143  15.067 -0.2504  0.5928 -0.2343
  738MPD2    C410959   1.049   3.243  15.059 -0.3758 -0.0433 -0.3550
  738MPD2    C510960   0.918   3.208  15.019 -0.1202  0.2327 -0.1812
  738MPD2     H10961   1.159   2.929  15.072 -0.7919 -0.2314  2.5077
  738MPD2    H110962   1.071   3.348  15.075  1.7429 -0.2505 -1.8277
  738MPD2    H210963   0.773   3.081  14.960  0.1335  0.8724 -0.6144
  738MPD2    H310964   0.844   3.287  15.007  1.0096  1.3247 -0.0446
  738MPD2     N10965   1.270   3.176  15.094  0.0321 -0.7703  0.2015
  738MPD2    H510966   1.299   3.272  15.076 -0.1118 -0.8453 -0.4368
  738MPD2    N110967   0.928   2.851  14.978  0.1962 -0.6031 -0.2473
  738MPD2    H710968   1.006   2.785  14.975 -1.3985 -2.4551 -0.7742
  739TMC3    C110969   1.488   3.129  15.040 -0.2309  0.4204 -0.5968
  739TMC3    C210970   1.469   3.203  14.927 -1.0112  0.0253  1.2855
  739TMC3    C310971   1.579   3.266  14.870 -0.2038 -0.0384  0.1101
  739TMC3    C410972   1.609   3.127  15.098  0.5840  0.4441 -0.3486
  739TMC3    C510973   1.714   3.201  15.053 -0.6744 -0.2769  0.7904
  739TMC3    C610974   1.700   3.263  14.932 -0.0663 -0.0613 -0.1034
  739TMC3     C10975   1.374   3.087  15.113  0.4770 -0.1128  0.5987
  739TMC3     O10976   1.369   2.965  15.134  0.2923  0.1756  0.0860
  739TMC3     H10977   1.380   3.187  14.868 -0.1602 -1.8419  0.5093
  739TMC3    H110978   1.628   3.057  15.179 -1.9033  1.6140  1.2176
  739TMC3    H210979   1.782   3.327  14.901  1.6527 -0.8349  2.9070
  739TMC3    C710980   1.849   3.174  15.100 -0.4505 -0.4289  0.0969
  739TMC3    C810981   1.561   3.316  14.738 -0.3030 -0.3435  0.9369
  739TMC3    O110982   1.939   3.218  15.031  1.0526  0.2998  0.2322
  739TMC3    O210983   1.449   3.320  14.691  0.9838  0.1374  0.2084
  740TMC3    C110984   1.731   4.365  14.232 -0.0941 -0.3012 -0.3218
  740TMC3    C210985   1.791   4.305  14.339  0.0476 -0.4468 -0.9724
  740TMC3    C310986   1.897   4.215  14.331 -1.1667  0.4440  0.2390
  740TMC3    C410987   1.772   4.328  14.104 -0.5043 -0.7111  0.9623
  740TMC3    C510988   1.876   4.237  14.096 -0.1479  0.5120  0.1938
  740TMC3    C610989   1.935   4.181  14.208  0.2186 -0.2074 -0.0634
  740TMC3     C10990   1.598   4.426  14.240 -0.3632  0.2603  0.1445
  740TMC3     O10991   1.561   4.493  14.145 -0.5614  0.1115 -0.2661
  740TMC3     H10992   1.765   4.321  14.443 -0.6802 -0.1268 -1.2054
  740TMC3    H110993   1.730   4.367  14.012  1.8784  1.7107  0.9049
  740TMC3    H210994   2.021   4.115  14.204 -0.4494 -1.0031 -1.4535
  740TMC3    C710995   1.914   4.167  13.970 -0.5290 -0.0314  0.4009
  740TMC3    C810996   1.952   4.169  14.453 -0.8358 -0.7300  0.0010
  740TMC3    O110997   1.975   4.063  13.996  0.0710 -0.2426 -0.1593
  740TMC3    O210998   1.950   4.239  14.555  0.5153 -0.0075  0.6824
  741TMC3    C110999   1.020   3.775  14.292  0.2003  0.7784  0.4185
  741TMC3    C211000   0.972   3.647  14.268  0.2629 -1.0880 -0.1473
  741TMC3    C311001   1.018   3.540  14.339  0.4236  0.0476 -0.5810
  741TMC3    C411002   1.113   3.793  14.384 -0.1019 -0.0206 -0.6507
  741TMC3    C511003   1.152   3.683  14.462  0.2208 -0.3666 -0.5843
  741TMC3    C611004   1.108   3.551  14.442  0.3410  0.1346  0.4122
  741TMC3     C11005   0.959   3.891  14.238  0.1150 -0.3655 -0.7235
  741TMC3     O11006   1.011   3.998  14.237 -0.1534 -0.0191  0.1835
  741TMC3     H11007   0.902   3.628  14.187 -1.6436  0.5319  1.1024
  741TMC3    H111008   1.147   3.893  14.406 -1.4403  0.3211 -0.1071
  741TMC3    H211009   1.154   3.465  14.489 -1.1932 -1.7037 -1.4598
  741TMC3    C711010   1.276   3.683  14.531  0.0378  0.1040  0.2416
  741TMC3    C811011   0.935   3.421  14.339 -0.5532 -0.1302  0.1101
  741TMC3    O111012   1.289   3.607  14.622 -0.1388  0.5117 -0.5184
  741TMC3    O211013   0.863   3.410  14.235 -0.3611  0.2612  0.1091
  742TMC3    C111014   1.227   2.213  15.263 -0.2140  0.1173  0.2220
  742TMC3    C211015   1.180   2.207  15.132 -0.0081 -0.4346 -0.1186
  742TMC3    C311016   1.218   2.313  15.048 -0.0821 -0.0909  0.8217
  742TMC3    C411017   1.324   2.295  15.298 -0.2739  0.3167  0.4474
  742TMC3    C511018   1.386   2.367  15.197 -0.1189 -0.0922  0.9739
  742TMC3    C611019   1.319   2.395  15.082  0.2349 -0.9340 -0.1396
  742TMC3     C11020   1.193   2.112  15.350  0.2232 -0.2144  0.1877
  742TMC3     O11021   1.208   2.130  15.473  0.1329  0.6983 -0.1706
  742TMC3     H11022   1.086   2.157  15.109 -1.1352  1.2154  0.9454
  742TMC3    H111023   1.366   2.269  15.395  0.0643 -2.7045 -0.5117
  742TMC3    H211024   1.365   2.458  15.007 -2.3315  0.8609 -0.1711
  742TMC3    C711025   1.508   2.303  15.164  0.1554  0.0033  0.1287
  742TMC3    C811026   1.196   2.292  14.908 -0.0928 -0.1784 -0.2656
  742TMC3    O111027   1.520   2.246  15.056  0.3559 -0.2171 -0.2009
  742TMC3    O211028   1.154   2.182  14.876 -0.5320  0.1767 -0.5184
  743MPD2     C11029   4.620   3.595   1.867 -0.1600 -0.1715 -0.4302
  743MPD2    C111030   4.638   3.581   1.727  0.0016 -0.1390 -0.5072
  743MPD2    C211031   0.027   3.554   1.690  0.4730  0.7405 -0.4360
  743MPD2    C311032   0.132   3.547   1.774 -0.3504  0.7379  0.6787
  743MPD2    C411033   0.118   3.575   1.904 -0.0637  0.3117 -0.4152
  743MPD2    C511034   4.728   3.594   1.954  0.9951 -0.0257 -0.0217
  743MPD2     H11035   0.054   3.546   1.585  1.0865  1.1067 -0.3098
  743MPD2    H111036   0.189   3.574   1.986 -2.0262  0.6641  1.2815
  743MPD2    H211037   4.521   3.591   1.910  0.4328 -1.9503  0.7859
  743MPD2    H311038   4.718   3.601   2.061 -1.3080 -1.0271 -0.1762
  743MPD2     N11039   0.251   3.535   1.711  0.4578  0.1986  0.4190
  743MPD2    H511040   0.253   3.524   1.610  0.6530 -0.3570  0.4854
  743MPD2    N111041   4.524   3.590   1.644  0.2012 -0.1969 -0.2363
  743MPD2    H711042   4.430   3.593   1.683  1.5245  0.0372  2.8732
  744TMC3    C111043   4.385   3.579   1.450  0.3061  0.2316  0.2789
  744TMC3    C211044   4.293   3.660   1.517  0.1665  0.5146 -0.2360
  744TMC3    C311045   4.177   3.687   1.456 -0.3238 -0.2493 -0.2173
  744TMC3    C411046   4.359   3.541   1.317 -0.2101  0.1073  0.1396
  744TMC3    C511047   4.244   3.591   1.261 -0.2355  0.5398  0.2472
  744TMC3    C611048   4.155   3.671   1.322  0.2225  0.0335 -0.2607
  744TMC3     C11049   4.523   3.561   1.505 -0.0941  0.4683  0.2859
  744TMC3     O11050   4.621   3.534   1.428  0.6424 -0.2165 -0.2703
  744TMC3     H11051   4.320   3.707   1.611  0.4857 -1.4873  0.6762
  744TMC3    H111052   4.438   3.498   1.257  0.0217 -0.6515  1.0064
  744TMC3    H211053   4.073   3.717   1.268 -0.7444  0.1364  1.2889
  744TMC3    C711054   4.234   3.573   1.117 -0.1414  0.9605 -1.3365
  744TMC3    C811055   4.085   3.785   1.519 -0.3017 -0.2651  0.8377
  744TMC3    O111056   4.337   3.560   1.049  0.3356  0.2999 -0.0135
  744TMC3    O211057   4.027   3.869   1.457 -0.1643 -0.8628 -0.8268
  745TMC3    C111058   1.545   1.722  13.278 -0.2756 -0.2395 -0.7604
  745TMC3    C211059   1.464   1.765  13.382  0.1839  0.2186 -0.0848
  745TMC3    C311060   1.334   1.807  13.342 -0.1178 -0.0726  0.5636
  745TMC3    C411061   1.511   1.734  13.142  0.0477  0.7807 -0.2083
  745TMC3    C511062   1.387   1.773  13.111 -0.9735  0.2541 -0.8664
  745TMC3    C611063   1.300   1.809  13.212  0.2516 -0.6508 -0.2134
  745TMC3     C11064   1.689   1.729  13.291  0.0685  0.4975  0.5025
  745TMC3     O11065   1.758   1.649  13.231 -0.0534  0.0509  0.0783
  745TMC3     H11066   1.491   1.744  13.485 -1.0513  0.6879  0.3350
  745TMC3    H111067   1.583   1.723  13.063 -0.4336 -1.3130 -0.3720
  745TMC3    H211068   1.201   1.841  13.183  1.4731  2.2199 -1.1967
  745TMC3    C711069   1.364   1.836  12.984  0.4274 -0.2043  0.4995
  745TMC3    C811070   1.233   1.838  13.440 -0.0385  0.6115 -0.6422
  745TMC3    O111071   1.247   1.844  12.945  0.5534 -0.2825 -0.2526
  745TMC3    O211072   1.120   1.856  13.399 -0.0454  0.1500 -0.0451
  746TMC3    C111073   4.062   3.653  11.071 -0.3979  0.4754  0.1383
  746TMC3    C211074   4.137   3.636  10.959 -0.0256 -0.1325 -0.3463
  746TMC3    C311075   4.082   3.576  10.846  0.5929  0.6361 -0.1879
  746TMC3    C411076   3.933   3.613  11.071  0.5234  0.7729 -0.4687
  746TMC3    C511077   3.881   3.563  10.956 -0.4872  1.0439 -0.2346
  746TMC3    C611078   3.945   3.543  10.842 -0.2247  0.6210 -0.5267
  746TMC3     C11079   4.071   3.784  11.131  1.2401  0.1139  0.2102
  746TMC3     O11080   4.019   3.797  11.245  0.1045  0.5270  0.0225
  746TMC3     H11081   4.240   3.668  10.960 -0.9160  2.7959 -1.3857
  746TMC3    H111082   3.871   3.663  11.145 -0.8505 -0.3210 -0.8858
  746TMC3    H211083   3.889   3.489  10.766 -0.7674  2.4969 -1.4419
  746TMC3    C711084   3.733   3.550  10.945  0.2506 -0.0540 -0.1231
  746TMC3    C811085   4.157   3.538  10.735 -0.4100 -0.2832 -0.1851
  746TMC3    O111086   3.690   3.565  10.832 -0.1891  0.1385  0.2317
  746TMC3    O211087   4.269   3.506  10.759  0.1866 -0.7161 -0.3499
  747TMC3    C111088   0.834   3.788  11.326 -0.0681  0.3520  0.7916
  747TMC3    C211089   0.757   3.750  11.432 -0.8547  0.5389 -0.1388
  747TMC3    C311090   0.806   3.692  11.544  0.2303  0.5312 -0.1002
  747TMC3    C411091   0.968   3.779  11.334 -0.0969  0.1416 -0.1403
  747TMC3    C511092   1.016   3.735  11.455  0.3156 -0.2273  0.5607
  747TMC3    C611093   0.944   3.690  11.559 -0.5907 -0.5382 -0.1628
  747TMC3     C11094   0.770   3.829  11.198  0.1191 -0.4610 -0.6473
  747TMC3     O11095   0.659   3.882  11.202 -0.2862 -0.3874  0.6908
  747TMC3     H11096   0.650   3.738  11.417 -0.2977 -2.0944 -2.0154
  747TMC3    H111097   1.027   3.799  11.246 -1.7255 -2.7845 -1.9031
  747TMC3    H211098   0.984   3.651  11.651  1.1971  2.8280  0.4849
  747TMC3    C711099   1.155   3.743  11.476 -0.4997  0.5293  0.2877
  747TMC3    C811100   0.725   3.610  11.627  0.2307 -0.1439 -0.6710
  747TMC3    O111101   1.193   3.743  11.592  0.2717 -0.2514 -0.6078
  747TMC3    O211102   0.668   3.513  11.577  0.7065 -0.5769  0.2755
  748MPD2     C11103   3.363   0.676   1.314  0.8313  0.0090 -0.5120
  748MPD2    C111104   3.405   0.553   1.366 -0.3877 -0.3800 -0.4672
  748MPD2    C211105   3.496   0.476   1.297  0.2958 -0.3368 -0.2771
  748MPD2    C311106   3.562   0.529   1.192  0.8621 -0.3806 -0.0165
  748MPD2    C411107   3.535   0.659   1.151  0.4167 -0.1607  0.1765
  748MPD2    C511108   3.429   0.728   1.207 -0.4875  0.3274 -0.2560
  748MPD2     H11109   3.533   0.379   1.328  1.5219  0.1991 -0.0412
  748MPD2    H111110   3.583   0.710   1.068  0.8265 -0.0090  0.5099
  748MPD2    H211111   3.303   0.746   1.370  0.6506  0.6535 -1.4965
  748MPD2    H311112   3.416   0.830   1.172  1.8499  0.6512 -0.1924
  748MPD2     N11113   3.650   0.447   1.120  0.2114  0.2318  0.1032
  748MPD2    H511114   3.683   0.362   1.164 -0.1619  0.5226  0.9532
  748MPD2    N111115   3.348   0.517   1.491 -0.4675 -0.2886  0.1472
  748MPD2    H711116   3.271   0.573   1.525 -1.1496  0.1205 -2.0772
  749TMC3    C111117   3.798   0.383   0.958  0.4857 -0.0528  0.3337
  749TMC3    C211118   3.889   0.331   1.045  0.0846  0.2432  0.2814
  749TMC3    C311119   4.006   0.272   0.997 -1.2368  0.2110 -0.2870
  749TMC3    C411120   3.820   0.370   0.824 -0.2186 -0.0282  0.0127
  749TMC3    C511121   3.934   0.311   0.784 -0.3353 -0.5315 -0.2161
  749TMC3    C611122   4.031   0.261   0.864 -0.3265  0.0931  0.0215
  749TMC3     C11123   3.706   0.481   0.997  0.1544  0.0068  0.0811
  749TMC3     O11124   3.684   0.578   0.926 -0.6563 -0.3368  0.4906
  749TMC3     H11125   3.883   0.345   1.152  2.9628  1.7476  0.2430
  749TMC3    H111126   3.752   0.416   0.753  1.3230 -1.8865 -2.6106
  749TMC3    H211127   4.121   0.218   0.821  0.5205  0.7698  1.1197
  749TMC3    C711128   3.966   0.332   0.640 -0.5049 -0.4914 -0.0098
  749TMC3    C811129   4.085   0.201   1.096 -0.8913 -0.6369 -0.5833
  749TMC3    O111130   4.078   0.375   0.615  0.2223 -0.0324 -0.3276
  749TMC3    O211131   4.034   0.196   1.210 -0.1065  0.6139  0.0725
  750MPD2     C11132   3.942   0.792  11.556  0.4595 -0.6180  0.8732
  750MPD2    C111133   3.811   0.768  11.540  0.2245 -0.5982 -0.3723
  750MPD2    C211134   3.774   0.661  11.465  0.5575 -0.6060  0.3554
  750MPD2    C311135   3.869   0.582  11.400  0.4138  0.0600  0.4467
  750MPD2    C411136   4.001   0.611  11.412 -0.0391 -1.0526 -0.0535
  750MPD2    C511137   4.039   0.713  11.492 -0.2295  0.2931  0.2342
  750MPD2     H11138   3.670   0.637  11.445  0.8734 -0.2343 -1.8035
  750MPD2    H111139   4.080   0.552  11.367 -1.6447 -1.6087 -2.1638
  750MPD2    H211140   3.976   0.877  11.614 -0.6048  2.2571 -2.7623
  750MPD2    H311141   4.146   0.729  11.499  0.1549 -1.0283 -2.5510
  750MPD2     N11142   3.838   0.477  11.315  0.4527 -0.2259 -0.8123
  750MPD2    H511143   3.916   0.417  11.291  0.9861  0.3723 -0.5629
  750MPD2    N111144   3.719   0.849  11.611  0.1660  0.1191 -0.8281
  750MPD2    H711145   3.755   0.934  11.655  1.2595 -1.3928  1.1708
  751TMC3    C111146   3.723   0.310  11.205  0.7897  0.0028 -0.0037
  751TMC3    C211147   3.631   0.216  11.244  0.5885  0.3378  0.0255
  751TMC3    C311148   3.646   0.088  11.206  0.3360  0.2995 -0.2738
  751TMC3    C411149   3.826   0.283  11.119  0.7615  0.6219 -0.4108
  751TMC3    C511150   3.828   0.158  11.065  0.2226 -0.4080  1.1527
  751TMC3    C611151   3.741   0.066  11.108  0.0895  0.0417 -0.1206
  751TMC3     C11152   3.710   0.428  11.288 -0.5602 -0.4384  0.5606
  751TMC3     O11153   3.597   0.472  11.302  0.4513 -0.1844  0.0023
  751TMC3     H11154   3.545   0.237  11.307  0.6477  1.6555 -0.3357
  751TMC3    H111155   3.911   0.347  11.097  1.1960 -0.0064 -0.5778
  751TMC3    H211156   3.755   4.700  11.081 -0.8134 -0.2041  0.3425
  751TMC3    C711157   3.880   0.138  10.928 -0.3461  0.0785 -0.0161
  751TMC3    C811158   3.532   4.737  11.199 -0.0805 -0.3163  0.7581
  751TMC3    O111159   3.994   0.177  10.899  0.3176  0.3367  0.6851
  751TMC3    O211160   3.547   4.654  11.105  0.4374 -1.0082  0.6747
  752TMC3    C111161   2.801   1.372  16.761 -0.2826 -0.8956 -0.1570
  752TMC3    C211162   2.748   1.252  16.794 -0.2841  0.5904 -0.1828
  752TMC3    C311163   2.733   1.219  16.930 -0.2288 -0.0270  0.2429
  752TMC3    C411164   2.802   1.464  16.859  0.4108 -0.2284  0.0569
  752TMC3    C511165   2.773   1.437  16.985 -0.0583 -1.2812  0.2584
  752TMC3    C611166   2.745   1.314  17.027  0.5273  0.4292  0.0099
  752TMC3     C11167   2.801   1.430  16.631 -0.3204  0.3366 -0.2949
  752TMC3     O11168   2.849   1.539  16.618  0.7303 -0.2419 -0.0249
  752TMC3     H11169   2.745   1.175  16.717  0.7304  0.8635 -0.5032
  752TMC3    H111170   2.826   1.568  16.836 -1.9828  0.5267  1.0110
  752TMC3    H211171   2.732   1.291  17.132 -0.9189  0.6389 -0.1214
  752TMC3    C711172   2.769   1.540  17.084 -0.5682 -0.3318  0.1354
  752TMC3    C811173   2.751   1.076  16.958 -0.4742 -0.2093  0.6052
  752TMC3    O111174   2.830   1.645  17.053 -1.0245 -0.5670 -0.3636
  752TMC3    O211175   2.817   1.003  16.884 -0.1206  0.6709  0.2102
  753TMC3    C111176   0.180   1.374  13.545 -0.8797  0.5812  0.4205
  753TMC3    C211177   0.105   1.389  13.656  0.2694  0.9111  0.3233
  753TMC3    C311178   4.730   1.310  13.667  0.2348  0.0093  0.4891
  753TMC3    C411179   0.157   1.267  13.462 -0.3418  0.7235  0.0136
  753TMC3    C511180   0.052   1.182  13.481  0.1506 -0.6876  0.0279
  753TMC3    C611181   4.699   1.214  13.581  0.4897  0.0469  0.4060
  753TMC3     C11182   0.321   1.426  13.531 -0.2310 -1.1196  0.1344
  753TMC3     O11183   0.393   1.354  13.464 -0.2593 -0.5066  0.2731
  753TMC3     H11184   0.146   1.461  13.726 -0.0689  0.9231  0.5089
  753TMC3    H111185   0.226   1.253  13.379  1.5688  0.7483  1.5959
  753TMC3    H211186   4.616   1.153  13.613  1.7558 -1.4959  0.7496
  753TMC3    C711187   0.011   1.090  13.380  0.5317  0.5511 -0.5525
  753TMC3    C811188   4.625   1.359  13.751 -0.6709 -0.1588 -0.7096
  753TMC3    O111189   4.649   1.023  13.404 -0.1379  0.5105  0.0012
  753TMC3    O211190   4.514   1.312  13.756  0.5264  0.3862 -0.2037
  754MPD2     C11191   4.089   0.112  13.120 -0.0819 -0.2467  0.4403
  754MPD2    C111192   4.076   4.730  13.184  0.1687 -0.0171 -0.1154
  754MPD2    C211193   3.946   4.669  13.200 -0.3044 -0.6304  0.4190
  754MPD2    C311194   3.836   4.738  13.167  0.5249  0.1004  0.0640
  754MPD2    C411195   3.851   0.121  13.096  0.6665 -0.1998  0.0186
  754MPD2    C511196   3.978   0.170  13.069  0.1626 -0.1201  0.0951
  754MPD2     H11197   3.938   4.569  13.242  3.3037 -0.2786  1.9451
  754MPD2    H111198   3.769   0.184  13.063  0.9172  0.2370  0.2304
  754MPD2    H211199   4.183   0.166  13.111 -0.4664  0.6306  1.6967
  754MPD2    H311200   3.982   0.266  13.018 -1.9924 -0.6424 -1.0652
  754MPD2     N11201   3.704   4.684  13.190  0.3791 -0.1257 -0.1937
  754MPD2    H511202   3.621   4.737  13.165  0.7638  0.2553 -0.6440
  754MPD2    N111203   4.203   4.675  13.224 -0.7054  0.2926  0.7123
  754MPD2    H711204   4.281   4.713  13.171  0.5875 -2.2651  0.7759
  755MPD2     C11205   2.844   0.313  13.098 -1.0243 -0.6650 -0.0377
  755MPD2    C111206   2.927   0.337  13.206  0.4277  0.2422  0.2059
  755MPD2    C211207   3.039   0.252  13.227  0.2629  0.4189 -0.6844
  755MPD2    C311208   3.047   0.128  13.157 -0.1602 -0.1318 -0.0400
  755MPD2    C411209   2.954   0.108  13.056  0.1040 -0.2135 -0.5000
  755MPD2    C511210   2.867   0.201  13.022  1.2989 -0.1135 -0.4973
  755MPD2     H11211   3.113   0.268  13.305 -0.2969 -0.3982  0.0092
  755MPD2    H111212   2.953   0.018  12.996  0.9413  0.1223 -1.0097
  755MPD2    H211213   2.767   0.382  13.065 -0.6936 -0.8359 -1.1624
  755MPD2    H311214   2.799   0.183  12.940  0.7598 -0.8591  0.1173
  755MPD2     N11215   3.154   0.041  13.167  0.0917 -0.2320  0.2639
  755MPD2    H511216   3.176   4.710  13.095 -1.3534  0.0495 -0.4457
  755MPD2    N111217   2.922   0.451  13.290  0.0022  0.2206 -0.2578
  755MPD2    H711218   3.003   0.462  13.350  0.4700  0.4474 -0.9280
  756MPD2     C11219   3.075   1.793  10.061 -0.1476 -0.0494 -0.3099
  756MPD2    C111220   3.041   1.697  10.155 -0.7384 -0.1744 -0.8782
  756MPD2    C211221   2.912   1.655  10.184 -0.3049  1.0090 -0.6419
  756MPD2    C311222   2.805   1.716  10.120 -0.3177 -0.7910 -0.3932
  756MPD2    C411223   2.843   1.804  10.016 -0.9429  0.0463 -0.0367
  756MPD2    C511224   2.973   1.834   9.985 -0.0262  0.0649 -0.2553
  756MPD2     H11225   2.898   1.587  10.268 -0.7908 -0.0884 -1.6151
  756MPD2    H111226   2.760   1.850   9.964 -1.4116 -0.2611  0.4336
  756MPD2    H211227   3.175   1.829  10.040  0.0482  0.7497  1.9664
  756MPD2    H311228   2.998   1.905   9.906  0.6792  0.2178  0.1085
  756MPD2     N11229   2.670   1.694  10.168 -0.2628 -0.4161  0.1970
  756MPD2    H511230   2.669   1.608  10.222 -0.5567 -0.4593  0.1197
  756MPD2    N111231   3.136   1.636  10.234 -0.7558 -0.1880 -0.0219
  756MPD2    H711232   3.104   1.573  10.306 -0.2760 -0.1849  0.1960
  757MPD2     C11233   2.282   0.928  10.178 -0.5539 -0.0447 -0.2366
  757MPD2    C111234   2.407   0.977  10.213  0.2594 -0.8455 -0.0673
  757MPD2    C211235   2.420   1.118  10.240  0.1906  0.2216  1.2686
  757MPD2    C311236   2.304   1.199  10.229  0.3945 -0.0259  0.2246
  757MPD2    C411237   2.181   1.142  10.201 -0.8130  0.0231  0.3771
  757MPD2    C511238   2.168   1.005  10.177 -0.1083 -0.2374  0.1341
  757MPD2     H11239   2.512   1.173  10.261 -0.3023  0.8507  1.7837
  757MPD2    H111240   2.087   1.196  10.192  0.4644  1.8051 -2.2203
  757MPD2    H211241   2.259   0.833  10.131  0.2850 -1.0496  1.3820
  757MPD2    H311242   2.070   0.967  10.151  1.2983 -2.0872 -2.4366
  757MPD2     N11243   2.322   1.336  10.244 -0.3913 -0.4707  0.1392
  757MPD2    H511244   2.416   1.362  10.272 -0.7441  0.9078  0.0411
  757MPD2    N111245   2.511   0.884  10.196  0.1361  0.0390  0.1671
  757MPD2    H711246   2.490   0.788  10.171  0.9934 -0.2871  0.7173
  758MPD2     C11247   3.374   0.316  15.491  0.3769 -0.3871  0.7006
  758MPD2    C111248   3.387   0.193  15.555  0.5030 -0.4578 -0.3971
  758MPD2    C211249   3.309   0.173  15.671  0.0135 -0.0540  0.9676
  758MPD2    C311250   3.226   0.270  15.721 -0.2389  0.3711 -0.1819
  758MPD2    C411251   3.226   0.392  15.662 -0.0615 -0.6141  0.1075
  758MPD2    C511252   3.296   0.420  15.548 -0.6015 -0.7099  0.5808
  758MPD2     H11253   3.302   0.076  15.718 -1.9924 -0.0879  0.5770
  758MPD2    H111254   3.164   0.476  15.691 -0.3805 -1.5605  2.1201
  758MPD2    H211255   3.421   0.334  15.395  0.4364 -1.6726  0.4891
  758MPD2    H311256   3.277   0.519  15.507  0.5768 -0.2178  1.2133
  758MPD2     N11257   3.154   0.257  15.839 -0.5687  0.0702 -0.2091
  758MPD2    H511258   3.128   0.346  15.881 -0.3247  1.2056 -2.4649
  758MPD2    N111259   3.499   0.112  15.518  0.7107  0.4752 -0.4647
  758MPD2    H711260   3.553   0.144  15.438  1.0312  3.1330  0.8181
  759MPD2     C11261   1.551   3.922   9.990  0.2745 -0.4170 -0.0526
  759MPD2    C111262   1.641   3.839   9.930  0.1668 -0.5356 -0.1246
  759MPD2    C211263   1.720   3.885   9.826  0.1299  0.2470 -0.5957
  759MPD2    C311264   1.711   4.015   9.776  0.1461 -0.3702  0.2254
  759MPD2    C411265   1.621   4.095   9.838 -0.2530 -0.5277  0.2813
  759MPD2    C511266   1.533   4.049   9.937  0.1608  0.1517  0.2144
  759MPD2     H11267   1.798   3.822   9.786 -1.5733 -1.9504 -0.4931
  759MPD2    H111268   1.621   4.202   9.822  1.3634 -0.7943 -1.5210
  759MPD2    H211269   1.494   3.895  10.078 -1.3950 -0.1676 -1.0578
  759MPD2    H311270   1.479   4.125   9.993  0.4463  1.2168 -0.9450
  759MPD2     N11271   1.798   4.048   9.673  0.6557  0.2673  0.0833
  759MPD2    H511272   1.858   3.978   9.631 -0.7610  0.9313 -3.0528
  759MPD2    N111273   1.661   3.701   9.970 -0.6669  0.0130  0.3052
  759MPD2    H711274   1.726   3.646   9.915 -1.9094 -1.2468  0.1056
  760MPD2     C11275   2.010   0.625  12.302 -0.6260  0.3263 -0.3597
  760MPD2    C111276   2.137   0.678  12.273 -0.5749 -0.6731  0.2068
  760MPD2    C211277   2.230   0.592  12.213  0.3846  0.4540  0.1451
  760MPD2    C311278   2.212   0.455  12.220 -0.5365  0.4766  0.1356
  760MPD2    C411279   2.097   0.402  12.272 -1.0368 -0.1642 -0.2925
  760MPD2    C511280   2.001   0.489  12.314 -0.1294 -0.1758 -0.8334
  760MPD2     H11281   2.324   0.635  12.180 -0.1464  1.1412 -0.4514
  760MPD2    H111282   2.090   0.295  12.285  0.0781 -0.1320  0.5595
  760MPD2    H211283   1.934   0.691  12.343  0.5676  0.6333  1.3978
  760MPD2    H311284   1.904   0.458  12.350  0.7162 -2.0328 -0.1527
  760MPD2     N11285   2.307   0.355  12.179 -0.1647 -0.2690 -0.4507
  760MPD2    H511286   2.289   0.257  12.199 -1.2435  0.3745  1.6769
  760MPD2    N111287   2.159   0.817  12.264  0.7396  0.2233 -0.3996
  760MPD2    H711288   2.250   0.848  12.231  0.9752  1.0021  0.9816
  761MPD2     C11289   3.090   4.538  11.336  0.3897 -0.0073  0.3468
  761MPD2    C111290   3.178   4.485  11.248 -0.0842 -0.3466  0.0544
  761MPD2    C211291   3.293   4.555  11.225 -0.0013  0.6658  0.3387
  761MPD2    C311292   3.316   4.676  11.290 -0.4567 -0.2897  0.5065
  761MPD2    C411293   3.218   4.731  11.366  0.3295  1.0079  0.0131
  761MPD2    C511294   3.103   4.665  11.387  0.3912 -0.0398  0.1542
  761MPD2     H11295   3.371   4.521  11.157 -0.2399 -2.1951  1.5450
  761MPD2    H111296   3.229   0.091  11.411  1.7762  0.6771  0.3570
  761MPD2    H211297   2.998   4.488  11.362 -0.5722  0.2631 -2.5108
  761MPD2    H311298   3.020   4.700  11.447  0.2986 -1.9456  1.1679
  761MPD2     N11299   3.429   0.023  11.289  0.5878 -0.4746  0.6141
  761MPD2    H511300   3.435   0.102  11.353 -0.0168 -0.7470  0.9948
  761MPD2    N111301   3.139   4.363  11.189  0.0579  0.2883  0.1148
  761MPD2    H711302   3.049   4.330  11.223  0.4273 -0.5503  0.2720
  762MPD2     C11303   3.097   3.750  10.491 -0.3442 -0.1189  0.9615
  762MPD2    C111304   3.184   3.819  10.573 -0.2369 -0.1830 -0.4007
  762MPD2    C211305   3.314   3.833  10.531 -0.1174  0.3996  0.5301
  762MPD2    C311306   3.354   3.780  10.408  0.0794 -0.5446  0.1857
  762MPD2    C411307   3.266   3.709  10.329 -0.0916 -0.5478 -0.4645
  762MPD2    C511308   3.139   3.700  10.373 -0.7353  0.4168 -0.5302
  762MPD2     H11309   3.388   3.884  10.593 -0.6151 -0.3461  1.7384
  762MPD2    H111310   3.282   3.674  10.227 -2.0617 -0.4355 -0.8015
  762MPD2    H211311   2.992   3.732  10.511  0.0578 -2.7977  0.6428
  762MPD2    H311312   3.067   3.654  10.306 -0.2793 -1.5322  0.3083
  762MPD2     N11313   3.483   3.806  10.353  0.5091  0.1638 -0.3283
  762MPD2    H511314   3.513   3.748  10.274 -2.5546 -0.0042 -1.3624
  762MPD2    N111315   3.134   3.880  10.686 -0.0039  0.2890  0.4318
  762MPD2    H711316   3.037   3.853  10.701  0.0231  0.2141  0.4724
  763MPD2     C11317   0.995   0.563  15.809  0.6066 -0.7314  0.2180
  763MPD2    C111318   0.863   0.580  15.772  0.6885 -0.2637  0.2096
  763MPD2    C211319   0.818   0.715  15.770  0.0261  0.3046  0.7171
  763MPD2    C311320   0.909   0.817  15.798  0.1000  0.3593  0.1563
  763MPD2    C411321   1.035   0.795  15.835 -0.6064 -0.1734 -0.2547
  763MPD2    C511322   1.068   0.666  15.854  0.0261 -0.3894 -0.3843
  763MPD2     H11323   0.720   0.737  15.731  0.3044  0.2310 -0.0309
  763MPD2    H111324   1.102   0.876  15.862  0.7140 -1.7262  1.1698
  763MPD2    H211325   1.048   0.470  15.792  3.5255  0.6565  1.6490
  763MPD2    H311326   1.172   0.640  15.873 -0.4532 -1.0987  1.2464
  763MPD2     N11327   0.874   0.958  15.791  0.5089  0.1660  0.1479
  763MPD2    H511328   0.946   1.029  15.796  1.5016 -0.7116 -1.6174
  763MPD2    N111329   0.787   0.473  15.724  0.2927  0.5386  0.3723
  763MPD2    H711330   0.695   0.490  15.684  0.1194 -0.3052  0.4184
  764MPD2     C11331   3.954   1.982  16.892  0.2590  1.1520 -0.1315
  764MPD2    C111332   3.838   1.919  16.851 -0.5703 -0.4942  0.3851
  764MPD2    C211333   3.774   1.840  16.939 -0.1664  0.6912 -1.0017
  764MPD2    C311334   3.817   1.822  17.071 -0.4402 -0.6924  1.0410
  764MPD2    C411335   3.935   1.888  17.117  0.3350 -0.0613  0.4931
  764MPD2    C511336   3.996   1.968  17.025  0.6439 -0.1232  0.1109
  764MPD2     H11337   3.687   1.783  16.907 -1.4682  0.8741  2.1751
  764MPD2    H111338   3.975   1.874  17.217 -2.9141 -0.7404  1.7099
  764MPD2    H211339   4.017   2.046  16.831  1.7239 -0.2358 -0.0580
  764MPD2    H311340   4.083   2.024  17.056  0.2078  0.2549  0.6669
  764MPD2     N11341   3.737   1.729  17.145  0.2652  0.3155  0.1072
  764MPD2    H511342   3.652   1.701  17.097  1.3060 -1.4941 -0.6914
  764MPD2    N111343   3.791   1.912  16.721 -0.3581  0.2676 -0.8459
  764MPD2    H711344   3.722   1.841  16.699 -1.7880  1.9188 -1.6981
  765MPD2     C11345   2.893   4.239  15.334  0.2680  0.2101  0.3232
  765MPD2    C111346   2.987   4.303  15.405  0.2235 -0.2236  0.0074
  765MPD2    C211347   3.118   4.266  15.376 -0.3102 -0.1816  0.4798
  765MPD2    C311348   3.148   4.152  15.302  1.1912  0.2687  0.0753
  765MPD2    C411349   3.048   4.093  15.228 -0.9913  0.2633  0.6542
  765MPD2    C511350   2.917   4.133  15.248 -0.1513 -0.4142 -0.7606
  765MPD2     H11351   3.200   4.317  15.424  0.6651  0.2309 -1.6788
  765MPD2    H111352   3.056   4.008  15.161 -1.2186  0.9477 -0.2454
  765MPD2    H211353   2.789   4.270  15.340  0.8110  2.3757 -1.3925
  765MPD2    H311354   2.835   4.094  15.189 -1.8065  0.4293  0.9898
  765MPD2     N11355   3.282   4.116  15.297  0.2385  0.3964 -0.7493
  765MPD2    H511356   3.342   4.173  15.356  1.3448  0.6918 -2.1759
  765MPD2    N111357   2.950   4.415  15.478  0.0027 -0.3550  0.1505
  765MPD2    H711358   2.853   4.430  15.506  0.0029 -0.1897  0.0595
  766MPD2     C11359   2.406   0.023  15.319 -0.2719 -0.2520 -0.2351
  766MPD2    C111360   2.513   4.679  15.346  0.3509  0.5128  0.9781
  766MPD2    C211361   2.551   4.578  15.260  0.1410 -0.0919 -0.5036
  766MPD2    C311362   2.479   4.572  15.140 -0.1696 -0.4344  0.2736
  766MPD2    C411363   2.370   4.651  15.122  0.2707  0.3139 -0.1608
  766MPD2    C511364   2.330   0.002  15.209  0.6281  0.0247 -0.1661
  766MPD2     H11365   2.634   4.514  15.288 -0.6341 -0.6513  0.5418
  766MPD2    H111366   2.311   4.659  15.031  0.6397 -2.4414 -0.6556
  766MPD2    H211367   2.367   0.083  15.400  0.5984 -0.9640  0.7170
  766MPD2    H311368   2.233   0.048  15.194  0.1863 -0.1707  1.9582
  766MPD2     N11369   2.519   4.488  15.032 -0.0637  0.5866  0.0847
  766MPD2    H511370   2.462   4.497  14.948 -2.2523 -0.6066  1.4465
  766MPD2    N111371   2.577   4.702  15.471 -0.4411  0.0630 -0.6211
  766MPD2    H711372   2.562   0.055  15.513 -1.6341 -0.1344 -0.6269
  767MPD2     C11373   2.163   0.146  14.798  1.0363 -0.3478 -0.1019
  767MPD2    C111374   2.295   0.091  14.788  0.0391  1.0680  0.0213
  767MPD2    C211375   2.311   4.721  14.709 -0.3330  0.7853  0.5338
  767MPD2    C311376   2.214   4.681  14.619 -0.4049  0.6637  0.0143
  767MPD2    C411377   2.089   0.004  14.625  0.1700  0.5301 -0.3566
  767MPD2    C511378   2.062   0.098  14.718  0.1689  0.2639 -0.2850
  767MPD2     H11379   2.403   4.664  14.706 -1.2301 -0.6705  1.0257
  767MPD2    H111380   2.015   4.719  14.549 -0.0069 -0.3653  0.0905
  767MPD2    H211381   2.137   0.218  14.874  0.2759 -0.0019 -0.6838
  767MPD2    H311382   1.963   0.142  14.723  0.0683  0.0412 -0.3295
  767MPD2     N11383   2.237   4.575  14.524  0.2849  0.2351  0.0672
  767MPD2    H511384   2.332   4.539  14.524  0.3542  0.4137 -0.7626
  767MPD2    N111385   2.388   0.136  14.888 -0.5926 -0.5226  0.7569
  767MPD2    H711386   2.349   0.199  14.957 -0.3314  1.9365 -1.3529
  768MPD2     C11387   3.648   3.247  10.557 -1.2329 -0.1101  0.3812
  768MPD2    C111388   3.567   3.230  10.671 -0.1792  0.3665 -0.0036
  768MPD2    C211389   3.632   3.209  10.789 -0.4654  0.7419  0.1743
  768MPD2    C311390   3.769   3.210  10.805 -0.1582 -0.2517 -1.0389
  768MPD2    C411391   3.847   3.219  10.690 -0.0301  0.5447  0.0929
  768MPD2    C511392   3.785   3.246  10.570  0.4971 -0.0547  0.1672
  768MPD2     H11393   3.569   3.198  10.876 -0.9934  2.6134  0.0104
  768MPD2    H111394   3.952   3.196  10.684 -0.3628 -1.4251  1.6409
  768MPD2    H211395   3.601   3.273  10.463 -2.1956 -0.1391  0.8514
  768MPD2    H311396   3.844   3.246  10.479  0.2359 -1.8670 -0.0144
  768MPD2     N11397   3.842   3.195  10.923  0.3568 -1.0772 -0.5533
  768MPD2    H511398   3.939   3.178  10.900  0.9264  2.6899 -0.8389
  768MPD2    N111399   3.429   3.225  10.666 -0.5775 -0.3646 -0.2640
  768MPD2    H711400   3.382   3.193  10.750 -0.0972  1.6794  0.7859
  769MPD2     C11401   4.616   0.782  14.809  0.5699 -0.0032 -0.2313
  769MPD2    C111402   4.544   0.859  14.721  0.8127 -0.2166  0.5776
  769MPD2    C211403   4.546   0.998  14.743  0.4141 -0.2599  0.1146
  769MPD2    C311404   4.637   1.063  14.826 -0.2085  0.0873 -0.0582
  769MPD2    C411405   4.708   0.982  14.907 -0.3666 -0.4992 -0.0394
  769MPD2    C511406   4.697   0.846  14.898 -0.0933 -0.0459  0.6798
  769MPD2     H11407   4.483   1.049  14.672 -0.1618 -0.7519  0.2738
  769MPD2    H111408   0.044   1.026  14.974 -0.1016  1.4670 -1.6123
  769MPD2    H211409   4.611   0.673  14.807 -1.6157  0.0573  1.6686
  769MPD2    H311410   0.014   0.771  14.954 -1.8502 -2.1211 -0.3751
  769MPD2     N11411   4.636   1.201  14.840  0.4338  0.6358  0.1290
  769MPD2    H511412   4.553   1.248  14.806 -0.6206 -0.4179  1.2346
  769MPD2    N111413   4.477   0.789  14.622 -0.1074  0.1380  0.0509
  769MPD2    H711414   4.455   0.694  14.646 -2.9614  1.1925  1.5079
  770MPD2     C11415   3.839   0.241  14.858 -0.1751  0.4605  0.1723
  770MPD2    C111416   3.825   0.193  14.725  0.1226  0.1611 -0.4195
  770MPD2    C211417   3.920   0.233  14.634 -0.2738 -0.6837 -0.1996
  770MPD2    C311418   4.017   0.327  14.660  0.0611  0.5132  0.2329
  770MPD2    C411419   4.032   0.374  14.791  0.1274  0.4172  0.1044
  770MPD2    C511420   3.942   0.325  14.886  0.3224  0.2016 -0.2815
  770MPD2     H11421   3.906   0.209  14.529  0.8463  0.4615 -0.6096
  770MPD2    H111422   4.110   0.438  14.831  1.3569 -0.2330 -1.2738
  770MPD2    H211423   3.761   0.223  14.932  0.2173  1.4862  0.8398
  770MPD2    H311424   3.944   0.370  14.985 -2.4400 -1.1510  0.4083
  770MPD2     N11425   4.091   0.376  14.547  0.2573  0.4870 -0.1694
  770MPD2    H511426   4.057   0.349  14.455  0.1044  0.7204 -0.1800
  770MPD2    N111427   3.714   0.108  14.687 -0.3499  0.3023  0.1110
  770MPD2    H711428   3.666   0.065  14.765 -0.9982  0.2472 -0.3184
  771MPD2     C11429   0.928   4.088  13.841 -0.0714 -0.0484 -0.0875
  771MPD2    C111430   0.810   4.086  13.772  0.4257  0.4425  0.6603
  771MPD2    C211431   0.750   3.960  13.770  0.1933  0.4307  0.1840
  771MPD2    C311432   0.801   3.853  13.835 -0.9132 -0.3171  1.3025
  771MPD2    C411433   0.917   3.853  13.907  0.3480  0.2154 -0.8640
  771MPD2    C511434   0.979   3.976  13.905  0.2312  0.1855  0.2290
  771MPD2     H11435   0.653   3.948  13.722  1.5727 -2.7954 -1.8625
  771MPD2    H111436   0.967   3.767  13.950  0.5255 -0.2710 -2.0415
  771MPD2    H211437   0.999   4.170  13.844 -0.5620  0.4090 -0.9191
  771MPD2    H311438   1.072   3.998  13.956  0.5832 -0.6082 -0.0727
  771MPD2     N11439   0.717   3.738  13.825 -0.0336  0.8603 -0.1060
  771MPD2    H511440   0.632   3.748  13.770 -1.3154 -1.8272  1.3599
  771MPD2    N111441   0.752   4.188  13.699 -0.3472 -0.6671  0.0210
  771MPD2    H711442   0.668   4.178  13.642  0.1128  0.6897 -0.8759
  772MPD2     C11443   0.197   4.363  13.269  0.4794  0.0018  0.2306
  772MPD2    C111444   0.251   4.328  13.396  0.7494  0.0225  0.3286
  772MPD2    C211445   0.161   4.297  13.498 -0.4412 -0.2425 -0.4556
  772MPD2    C311446   0.025   4.299  13.474  0.1176 -0.8844 -0.0070
  772MPD2    C411447   4.715   4.330  13.347  0.0639 -0.3381  0.2837
  772MPD2    C511448   0.058   4.363  13.243  0.1689  0.1362 -0.1166
  772MPD2     H11449   0.201   4.271  13.595 -4.6011 -2.0931  0.7519
  772MPD2    H111450   4.608   4.337  13.332  0.2854 -0.1355 -1.1894
  772MPD2    H211451   0.248   4.387  13.177  0.8646  0.9862  0.7002
  772MPD2    H311452   0.016   4.382  13.145  0.2156  0.7823 -0.0082
  772MPD2     N11453   4.660   4.267  13.569  0.8570  0.2632 -0.0064
  772MPD2    H511454   4.567   4.276  13.529  1.0583 -2.0900 -1.0129
  772MPD2    N111455   0.388   4.314  13.418 -0.3108 -0.0647  0.9534
  772MPD2    H711456   0.412   4.271  13.507 -0.2729  0.3042  1.1213
  773MPD2     C11457   4.370   0.397   0.045 -0.0383 -0.2821 -0.8240
  773MPD2    C111458   4.355   0.323  17.678 -0.0860  1.0063  0.3668
  773MPD2    C211459   4.445   0.222  17.647  0.4158 -0.6358  0.4691
  773MPD2    C311460   4.562   0.212  17.723  0.2378 -0.3862  0.2059
  773MPD2    C411461   4.577   0.278   0.091  0.2510  0.2036 -0.3781
  773MPD2    C511462   4.482   0.372   0.121  0.4146 -0.1061  0.4030
  773MPD2     H11463   4.431   0.159  17.560 -0.5806  0.7407 -0.3615
  773MPD2    H111464   4.663   0.273   0.158 -0.3722  0.3191  0.4360
  773MPD2    H211465   4.312   0.485   0.069  1.4855  2.0976 -5.8217
  773MPD2    H311466   4.493   0.432   0.211  2.3648  1.2062 -0.7026
  773MPD2     N11467   4.653   0.123  17.667 -0.0042 -0.5120  0.0051
  773MPD2    H511468   4.629   0.076  17.580  0.0589  0.6627 -0.6568
  773MPD2    N111469   4.252   0.361  17.593 -0.1822 -0.0836 -0.3057
  773MPD2    H711470   4.249   0.299  17.513  1.7415  0.8038 -1.0793
  774MPD2     C11471   3.459   4.008  13.520  0.2911  0.3773  0.2887
  774MPD2    C111472   3.439   4.140  13.540  0.3115 -0.6580  0.3446
  774MPD2    C211473   3.552   4.223  13.528 -0.8356 -0.2329 -0.1344
  774MPD2    C311474   3.679   4.177  13.505 -0.0942  0.6418  0.2602
  774MPD2    C411475   3.695   4.041  13.488 -0.0200  0.4172  0.5311
  774MPD2    C511476   3.586   3.961  13.488  0.1787  0.0871 -0.1046
  774MPD2     H11477   3.542   4.331  13.534  1.1191 -0.0419 -0.2495
  774MPD2    H111478   3.796   4.005  13.478 -0.0349  0.2112  1.1406
  774MPD2    H211479   3.384   3.933  13.543  0.4656 -0.3289 -1.3802
  774MPD2    H311480   3.609   3.860  13.455  0.6592 -0.1540  0.9767
  774MPD2     N11481   3.783   4.276  13.515  0.4558 -0.0084  0.4124
  774MPD2    H511482   3.759   4.368  13.550 -1.4773 -0.4455  0.2465
  774MPD2    N111483   3.308   4.180  13.589 -0.5951  0.2956 -0.0143
  774MPD2    H711484   3.248   4.106  13.627  0.2987 -0.0936  0.6264
  775MPD2     C11485   0.204   0.903  15.159 -0.2818 -0.0298  0.2380
  775MPD2    C111486   0.173   1.011  15.241  0.3333 -0.4640  0.8861
  775MPD2    C211487   0.242   1.128  15.229 -0.2222 -0.0418  0.0134
  775MPD2    C311488   0.352   1.139  15.146 -0.7513  0.1388 -0.0362
  775MPD2    C411489   0.387   1.026  15.069 -0.3615  0.1127  0.0417
  775MPD2    C511490   0.305   0.916  15.070 -0.0257 -0.2955 -0.5306
  775MPD2     H11491   0.212   1.207  15.296  1.9261  2.4156 -1.9183
  775MPD2    H111492   0.479   1.016  15.012  0.0027 -0.0795  0.6642
  775MPD2    H211493   0.150   0.809  15.167 -0.7493  0.2213  0.0364
  775MPD2    H311494   0.335   0.830  15.011  1.2119 -0.2497  0.0227
  775MPD2     N11495   0.418   1.268  15.135  0.0261  0.9115 -0.0331
  775MPD2    H511496   0.488   1.279  15.062  0.5426 -0.6728  0.2191
  775MPD2    N111497   0.059   1.012  15.321  0.7688 -0.5949  0.0922
  775MPD2    H711498   0.057   1.091  15.385  2.7990 -0.9010  0.5325
  776MPD2     C11499   3.877   1.384  11.850  0.0702 -0.0395 -0.1612
  776MPD2    C111500   3.757   1.413  11.780 -0.1551  0.2186  0.0629
  776MPD2    C211501   3.705   1.547  11.777  0.9033 -0.5187 -0.3883
  776MPD2    C311502   3.781   1.646  11.838  0.2502  0.1954  0.3059
  776MPD2    C411503   3.908   1.616  11.896  0.2058 -0.0341  0.0507
  776MPD2    C511504   3.954   1.487  11.898  0.1267  0.3274  0.5703
  776MPD2     H11505   3.612   1.573  11.729  0.9596  1.2343  0.4490
  776MPD2    H111506   3.962   1.700  11.938  0.7937 -0.3084 -0.1534
  776MPD2    H211507   3.917   1.283  11.854  0.6870  0.1400 -1.7803
  776MPD2    H311508   4.047   1.466  11.951  0.2939  1.6393  0.7984
  776MPD2     N11509   3.744   1.781  11.824 -0.2685 -0.4220  0.4292
  776MPD2    H511510   3.817   1.840  11.864 -1.7824  1.6861  0.1061
  776MPD2    N111511   3.682   1.301  11.727  0.4198 -0.5699 -0.2036
  776MPD2    H711512   3.732   1.213  11.743 -3.9707 -3.2596 -1.2113
  777MPD2     C11513   0.229   4.103   0.369 -0.2233  0.0497 -0.5859
  777MPD2    C111514   0.125   4.149   0.443 -0.1920 -0.0137  0.4890
  777MPD2    C211515   0.003   4.084   0.434  0.0004 -0.2753  0.2790
  777MPD2    C311516   4.720   3.985   0.341  0.3870 -0.1921 -0.7273
  777MPD2    C411517   0.088   3.941   0.261  0.4854  0.2422  0.5888
  777MPD2    C511518   0.211   4.000   0.283 -0.1843 -0.5288 -0.5376
  777MPD2     H11519   4.662   4.104   0.506  0.4073  1.6633  0.1826
  777MPD2    H111520   0.077   3.845   0.212  0.6511  0.7680 -0.4756
  777MPD2    H211521   0.325   4.148   0.391  0.9933 -1.4191 -2.9248
  777MPD2    H311522   0.298   3.959   0.234  0.9471 -0.9404  1.7943
  777MPD2     N11523   4.592   3.918   0.347  0.0511  0.1371 -0.6291
  777MPD2    H511524   4.528   3.945   0.421  0.0349 -1.0241 -0.2331
  777MPD2    N111525   0.139   4.256   0.531 -0.2933 -0.2302 -0.1180
  777MPD2    H711526   0.232   4.288   0.555 -0.3311 -0.4603  0.3333
  778MPD2     C11527   0.733   4.433  14.600  0.3894 -0.4990  1.0493
  778MPD2    C111528   0.764   4.300  14.574 -0.6164  0.3623 -0.5686
  778MPD2    C211529   0.853   4.274  14.466 -0.2258 -0.0831  0.2075
  778MPD2    C311530   0.889   4.375  14.380 -0.2024  0.3469 -0.7167
  778MPD2    C411531   0.852   4.504  14.405  0.6663  0.0357  0.1522
  778MPD2    C511532   0.781   4.534  14.523 -0.3556  0.2581  0.0280
  778MPD2     H11533   0.883   4.170  14.457  2.1784  0.8092 -2.0113
  778MPD2    H111534   0.901   4.579  14.343 -0.3818  1.5846  1.2204
  778MPD2    H211535   0.675   4.460  14.687 -3.7056  0.7754 -2.0702
  778MPD2    H311536   0.763   4.640  14.538 -0.4492  0.1617  0.6104
  778MPD2     N11537   0.960   4.338  14.262 -0.3812  0.5764  0.2811
  778MPD2    H511538   1.003   4.247  14.250  1.4375  1.7327 -1.8066
  778MPD2    N111539   0.724   4.192  14.653  0.0910  0.5344  0.0561
  778MPD2    H711540   0.751   4.101  14.617  1.2619  0.3476  1.4080
  779MPD2     C11541   0.007   2.591  13.891  0.2862  0.3311 -0.1765
  779MPD2    C111542   0.059   2.596  14.017 -0.7173  0.1221 -0.3346
  779MPD2    C211543   0.089   2.715  14.074 -0.0722 -0.3040 -0.1647
  779MPD2    C311544   0.089   2.826  13.995  0.3271  0.8684 -0.0472
  779MPD2    C411545   0.040   2.822  13.862 -0.3248  0.5149 -0.4972
  779MPD2    C511546   0.001   2.703  13.817 -0.0317  0.0119 -0.1096
  779MPD2     H11547   0.116   2.725  14.179 -2.1119  0.7613  0.2641
  779MPD2    H111548   0.021   2.909  13.800 -1.2264 -0.9423 -2.2747
  779MPD2    H211549   4.719   2.503  13.835  0.2263 -1.2116  2.2638
  779MPD2    H311550   4.712   2.708  13.712 -0.9293  2.9299  0.2564
  779MPD2     N11551   0.141   2.941  14.059 -0.8568 -0.1592  0.5966
  779MPD2    H511552   0.180   2.926  14.152 -0.6958  0.9366  0.7064
  779MPD2    N111553   0.076   2.477  14.098  0.3624 -0.0601 -0.4876
  779MPD2    H711554   0.129   2.487  14.184 -0.2364 -0.1788 -0.1090
  780MPD2     C11555   4.479   2.977   0.679 -0.9774  0.9971 -0.1356
  780MPD2    C111556   4.413   2.917   0.573  0.1849 -0.8334  0.0434
  780MPD2    C211557   4.461   2.946   0.447  0.6984  0.0652 -0.1654
  780MPD2    C311558   4.566   3.037   0.431 -0.3156 -0.0263 -0.6294
  780MPD2    C411559   4.625   3.095   0.545 -0.1249  0.6233 -0.1233
  780MPD2    C511560   4.579   3.063   0.673 -0.3185  0.1288 -0.4187
  780MPD2     H11561   4.404   2.908   0.363 -1.9519  1.0139  1.1816
  780MPD2    H111562   4.712   3.159   0.537 -0.5605  1.0877 -1.0983
  780MPD2    H211563   4.443   2.953   0.779 -0.9612 -0.1829 -0.4134
  780MPD2    H311564   4.612   3.107   0.766 -0.3915 -1.7491  0.4762
  780MPD2     N11565   4.608   3.074   0.303  0.8388 -1.1008 -0.1097
  780MPD2    H511566   4.559   3.032   0.224 -0.1392 -0.3234  0.0854
  780MPD2    N111567   4.312   2.826   0.605 -0.3353 -0.0640  0.3234
  780MPD2    H711568   4.308   2.805   0.704  0.4014 -1.0122  0.1472
  781MPD2     C11569   1.276   4.436  11.854 -0.2025  0.6336  0.2493
  781MPD2    C111570   1.355   4.360  11.938 -0.0473 -0.6015 -0.2932
  781MPD2    C211571   1.467   4.294  11.889 -0.3980  0.4976  0.5292
  781MPD2    C311572   1.499   4.305  11.762 -0.6101  0.1077  0.2453
  781MPD2    C411573   1.407   4.358  11.674  0.0175  0.2733  0.5209
  781MPD2    C511574   1.299   4.427  11.719  0.0914 -0.1657 -0.0778
  781MPD2     H11575   1.513   4.219  11.952  5.3616  2.6852 -1.0323
  781MPD2    H111576   1.419   4.356  11.566  0.0291  0.4331  0.5198
  781MPD2    H211577   1.185   4.489  11.877  0.2977  1.6605 -0.1255
  781MPD2    H311578   1.236   4.486  11.653 -0.4263 -0.5164  0.1073
  781MPD2     N11579   1.619   4.247  11.708  0.0207  0.0616 -0.2409
  781MPD2    H511580   1.632   4.243  11.608  1.0969 -0.2142 -0.1003
  781MPD2    N111581   1.330   4.347  12.072 -0.2569  0.3403  0.2823
  781MPD2    H711582   1.401   4.309  12.133  2.9142 -0.8453 -4.1666
  782MPD2     C11583   3.898   0.578  10.268 -0.7984  0.1153  1.0436
  782MPD2    C111584   4.026   0.536  10.237  0.6645 -0.3019 -0.3890
  782MPD2    C211585   4.135   0.605  10.291 -0.4901 -0.5513  0.3493
  782MPD2    C311586   4.103   0.690  10.396  0.1532 -0.0343 -0.0507
  782MPD2    C411587   3.976   0.730  10.424  0.1954 -0.9634  0.6579
  782MPD2    C511588   3.876   0.679  10.356  0.4597  0.0880 -0.0021
  782MPD2     H11589   4.237   0.579  10.266  0.4379  1.8361  1.6222
  782MPD2    H111590   3.945   0.802  10.500 -1.5149 -3.0105  1.8923
  782MPD2    H211591   3.807   0.531  10.233 -1.2972  0.1067  2.3723
  782MPD2    H311592   3.775   0.705  10.385  0.5314  0.7126 -0.3387
  782MPD2     N11593   4.214   0.729  10.479 -0.3275 -0.2265  0.3027
  782MPD2    H511594   4.306   0.703  10.445  1.6323  2.8598  3.2532
  782MPD2    N111595   4.034   0.424  10.153  0.4486  0.3899  0.2315
  782MPD2    H711596   3.947   0.374  10.134  0.1280  0.2395  2.0587
  783MPD2     C11597   3.698   4.639  10.717 -0.3910 -0.1394  0.2362
  783MPD2    C111598   3.797   4.731  10.741 -0.4791 -0.1150 -0.0485
  783MPD2    C211599   3.869   0.036  10.631  0.3675 -0.1313 -0.6345
  783MPD2    C311600   3.877   4.705  10.510  0.1488  0.8960  0.1451
  783MPD2    C411601   3.799   4.593  10.498  0.0092  0.5166 -0.6128
  783MPD2    C511602   3.703   4.575  10.597 -0.0169  0.2966 -0.1054
  783MPD2     H11603   3.924   0.129  10.638 -0.1187  0.0798  0.4708
  783MPD2    H111604   3.791   4.531  10.409  4.4108 -0.3361 -0.4240
  783MPD2    H211605   3.632   4.602  10.794  1.3816 -0.0701  1.7929
  783MPD2    H311606   3.646   4.483  10.588  2.5896 -1.2968 -0.3561
  783MPD2     N11607   3.974   0.007  10.413 -0.0765  0.1722 -0.2062
  783MPD2    H511608   4.025   0.093  10.425 -1.8698  1.3259 -0.9420
  783MPD2    N111609   3.796   0.048  10.869 -0.5900  0.0285  0.3530
  783MPD2    H711610   3.719   0.010  10.925 -0.2030 -1.2408  0.0254
  784MPD2     C11611   2.269   1.011   0.312  0.9215 -0.0448 -0.5438
  784MPD2    C111612   2.263   1.086   0.423 -0.4533 -0.2301  0.7047
  784MPD2    C211613   2.144   1.141   0.460 -0.3826  0.0050  0.0163
  784MPD2    C311614   2.034   1.131   0.387 -0.9992  0.6958  0.7026
  784MPD2    C411615   2.040   1.058   0.270  0.2345  0.1435 -0.2123
  784MPD2    C511616   2.159   1.005   0.232  0.9475  0.6331 -0.1487
  784MPD2     H11617   2.143   1.204   0.549  0.0516  0.8660 -0.5917
  784MPD2    H111618   1.963   1.063   0.193  0.5819 -0.8583 -0.6148
  784MPD2    H211619   2.360   0.967   0.273  1.0744 -0.2271  0.0189
  784MPD2    H311620   2.168   0.935   0.149  1.3370 -1.9465  2.0709
  784MPD2     N11621   1.920   1.201   0.430 -0.7829  0.1143  0.0696
  784MPD2    H511622   1.921   1.275   0.499  0.8381  1.3546 -1.2948
  784MPD2    N111623   2.380   1.113   0.494 -0.7088  0.3010 -0.1999
  784MPD2    H711624   2.374   1.174   0.575 -0.0954  2.7108 -1.9668
  785MPD2     C11625   2.194   4.016  11.297  0.6664  0.0703  0.4150
  785MPD2    C111626   2.114   4.114  11.353 -0.1344  0.0703  0.2619
  785MPD2    C211627   1.977   4.096  11.350  0.3813  0.1193  0.1800
  785MPD2    C311628   1.911   4.005  11.271 -0.3754 -0.0459  0.1949
  785MPD2    C411629   1.992   3.909  11.215 -0.1500  0.0962 -0.4069
  785MPD2    C511630   2.130   3.906  11.234 -0.2328  0.0180 -0.4417
  785MPD2     H11631   1.905   4.158  11.402 -1.1645 -0.4254 -1.3060
  785MPD2    H111632   1.956   3.833  11.147  1.6357 -1.1363  0.0207
  785MPD2    H211633   2.302   4.026  11.304  0.8334 -1.1718 -0.4921
  785MPD2    H311634   2.190   3.829  11.187  0.6571  0.3675  0.1356
  785MPD2     N11635   1.770   4.026  11.243  0.1966  0.2502 -0.3675
  785MPD2    H511636   1.723   4.098  11.297  0.1748  0.9325 -1.2976
  785MPD2    N111637   2.174   4.239  11.398  0.2501 -0.5656  0.1192
  785MPD2    H711638   2.275   4.245  11.398  0.3715 -2.7047  2.6765
  786MPD2     C11639   1.128   2.454  14.423 -0.6230  0.9109 -0.4465
  786MPD2    C111640   1.105   2.337  14.482 -0.2983  0.0558 -0.6400
  786MPD2    C211641   1.131   2.316  14.615 -0.1100 -0.2357  0.1695
  786MPD2    C311642   1.168   2.423  14.696 -0.5539 -0.8816 -0.4560
  786MPD2    C411643   1.173   2.545  14.641 -0.1373  0.3899 -0.2358
  786MPD2    C511644   1.170   2.561  14.502 -0.2082 -0.1392 -0.2244
  786MPD2     H11645   1.121   2.211  14.640  0.3923 -0.8828 -2.3365
  786MPD2    H111646   1.191   2.634  14.701 -2.3305  1.2416 -0.8261
  786MPD2    H211647   1.099   2.467  14.319 -3.0660  2.5391  0.4378
  786MPD2    H311648   1.182   2.660  14.460  1.3043 -0.3562 -0.3060
  786MPD2     N11649   1.184   2.409  14.833 -0.7217  0.1071 -0.1720
  786MPD2    H511650   1.201   2.494  14.885  0.3187  1.0456 -2.0333
  786MPD2    N111651   1.066   2.222  14.406 -0.1383  0.4086 -0.4969
  786MPD2    H711652   1.036   2.146  14.466 -0.5372  0.8220 -0.1797
  787MPD2     C11653   1.215   1.683  14.630  0.4790 -0.5956 -0.0202
  787MPD2    C111654   1.212   1.652  14.497 -0.1861 -0.1277 -0.0004
  787MPD2    C211655   1.260   1.528  14.457 -0.4498 -0.1250 -0.7369
  787MPD2    C311656   1.314   1.440  14.548  0.0778 -0.8953  1.0590
  787MPD2    C411657   1.330   1.480  14.680  1.2026  0.6442 -0.3062
  787MPD2    C511658   1.281   1.602  14.719  0.2750  1.2354  1.0052
  787MPD2     H11659   1.253   1.501  14.352 -1.8239  0.8051 -0.8851
  787MPD2    H111660   1.374   1.423  14.761  0.4979  2.4059  1.3174
  787MPD2    H211661   1.178   1.777  14.669 -0.0408  0.0268 -2.0097
  787MPD2    H311662   1.296   1.632  14.822  1.0678 -1.9540  1.8234
  787MPD2     N11663   1.367   1.317  14.494 -0.3458 -0.6477  0.1734
  787MPD2    H511664   1.357   1.296  14.395 -1.2557  1.7760 -0.2444
  787MPD2    N111665   1.141   1.744  14.414  0.3075 -0.1372  0.4364
  787MPD2    H711666   1.119   1.832  14.460 -3.3728 -0.3661 -0.8358
  788MPD2     C11667   3.339   0.801   0.636 -0.2438  0.1833 -0.4905
  788MPD2    C111668   3.235   0.760   0.544 -0.1736  0.3510 -0.4810
  788MPD2    C211669   3.217   0.825   0.423 -0.6676 -0.3435 -0.6025
  788MPD2    C311670   3.291   0.935   0.393 -0.0659 -0.1306  0.1037
  788MPD2    C411671   3.388   0.973   0.481  0.3711 -0.3025 -0.0628
  788MPD2    C511672   3.407   0.912   0.601 -0.3965 -0.5468  0.7422
  788MPD2     H11673   3.132   0.802   0.360 -0.0342  1.8635 -2.2490
  788MPD2    H111674   3.456   1.054   0.461  1.0011 -0.4297  1.5233
  788MPD2    H211675   3.359   0.749   0.729 -1.2074  2.4285  0.9864
  788MPD2    H311676   3.493   0.935   0.663  0.8526  0.6252 -1.4603
  788MPD2     N11677   3.256   1.002   0.275 -1.1215  0.1569  0.4271
  788MPD2    H511678   3.169   0.978   0.230 -2.0728  1.6964  1.4639
  788MPD2    N111679   3.160   0.641   0.568  0.3322  0.4106  0.3247
  788MPD2    H711680   3.092   0.625   0.494 -0.7636  1.5335  1.0846
  789MPD2     C11681   3.287   0.057  16.618  0.7617  1.0178 -0.1695
  789MPD2    C111682   3.182   0.003  16.536  0.1541 -0.2186 -0.0742
  789MPD2    C211683   3.059   0.068  16.537 -0.3548 -0.2867 -0.0732
  789MPD2    C311684   3.033   0.183  16.626  0.1622  0.2463 -0.5375
  789MPD2    C411685   3.143   0.232  16.703  0.3595 -0.2877 -0.0537
  789MPD2    C511686   3.267   0.171  16.698 -0.0727 -0.4453 -0.5960
  789MPD2     H11687   2.981   0.022  16.477 -0.1621  0.0609 -0.5913
  789MPD2    H111688   3.120   0.324  16.755  2.6815 -0.9546  2.1750
  789MPD2    H211689   3.390   0.024  16.612  0.7309  0.4409  2.4911
  789MPD2    H311690   3.348   0.229  16.741 -0.0854  0.2286 -1.4817
  789MPD2     N11691   2.912   0.256  16.627 -0.1326  0.2650  0.2685
  789MPD2    H511692   2.910   0.334  16.691 -3.6608  0.6264 -0.2857
  789MPD2    N111693   3.207   4.646  16.435  0.6398  0.0063 -0.8394
  789MPD2    H711694   3.128   4.610  16.382 -1.9367  1.8231  1.7468
  790MPD2     C11695   3.823   0.942  13.931  0.8917  0.0782 -0.3444
  790MPD2    C111696   3.928   1.018  13.895 -0.9167 -0.7876  0.2991
  790MPD2    C211697   3.917   1.095  13.782 -0.2053 -0.5351  0.5225
  790MPD2    C311698   3.801   1.114  13.713 -0.6059  0.0023  0.3087
  790MPD2    C411699   3.695   1.028  13.748  0.6223 -0.3601 -0.3148
  790MPD2    C511700   3.706   0.954  13.862 -0.5405 -0.2782  0.5169
  790MPD2     H11701   3.998   1.157  13.745 -1.8973  2.2454  1.4287
  790MPD2    H111702   3.600   1.035  13.695  0.1604  1.4486  0.7445
  790MPD2    H211703   3.826   0.887  14.024 -1.6090 -1.0659 -0.9418
  790MPD2    H311704   3.630   0.889  13.905  1.4793 -1.8178  1.7533
  790MPD2     N11705   3.801   1.190  13.595  0.2831  0.1280  0.7531
  790MPD2    H511706   3.890   1.226  13.563 -0.0483 -0.2373 -0.6045
  790MPD2    N111707   4.044   1.003  13.966 -1.0087  0.2581  0.6770
  790MPD2    H711708   4.041   0.964  14.060 -0.9608 -0.9423  0.1823
  791MPD2     C11709   3.365   1.757  13.070 -0.4416 -0.2029 -0.3513
  791MPD2    C111710   3.379   1.614  13.069 -0.0185  0.0988 -0.7888
  791MPD2    C211711   3.280   1.530  13.024  0.2044 -0.0874 -0.1540
  791MPD2    C311712   3.150   1.582  13.015  0.8702  0.0902  0.2222
  791MPD2    C411713   3.140   1.722  13.010  0.0113  0.0901  0.6207
  791MPD2    C511714   3.247   1.809  13.035 -0.2780  0.0878  0.2099
  791MPD2     H11715   3.298   1.423  13.025  2.3057  0.2344 -2.5810
  791MPD2    H111716   3.044   1.768  12.991 -0.3581 -1.6521 -1.6856
  791MPD2    H211717   3.445   1.829  13.083 -0.9241  0.2030  0.3394
  791MPD2    H311718   3.235   1.917  13.035  0.4117  0.1538 -2.2123
  791MPD2     N11719   3.040   1.493  12.988  0.0047  0.0771  0.2375
  791MPD2    H511720   3.057   1.393  12.975 -3.8010 -0.4998 -0.1463
  791MPD2    N111721   3.500   1.560  13.114  0.3428 -0.2581  0.1472
  791MPD2    H711722   3.553   1.633  13.159 -1.4278 -0.2007  2.1769
  792MPD2     C11723   4.120   1.318  11.604 -0.3234  0.0085  0.5727
  792MPD2    C111724   4.010   1.368  11.536  0.5110 -0.1110 -0.2629
  792MPD2    C211725   3.931   1.278  11.469  0.0105  0.1493 -0.3119
  792MPD2    C311726   3.976   1.148  11.447  0.2720  0.2327 -0.1925
  792MPD2    C411727   4.086   1.102  11.512  0.5676 -0.5892  0.3537
  792MPD2    C511728   4.158   1.188  11.593  0.0704 -0.6946  0.1609
  792MPD2     H11729   3.843   1.307  11.413  0.4959 -1.4325 -1.8839
  792MPD2    H111730   4.114   0.998  11.504  0.8762 -0.4117 -0.7835
  792MPD2    H211731   4.183   1.381  11.666  0.4226 -0.0218 -0.1490
  792MPD2    H311732   4.254   1.160  11.635  0.5690 -0.0029 -0.5113
  792MPD2     N11733   3.905   1.057  11.366  0.1843  0.1003  0.3708
  792MPD2    H511734   3.957   0.973  11.346  0.3344  0.3597 -0.3357
  792MPD2    N111735   3.977   1.499  11.547  0.1435  0.6286  0.3645
  792MPD2    H711736   4.049   1.559  11.585  1.3533  0.9436 -2.4346
  793MPD2     C11737   3.160   1.113  10.761 -0.4146 -0.4037  0.0006
  793MPD2    C111738   3.288   1.159  10.760 -0.0536 -0.2923 -0.2296
  793MPD2    C211739   3.372   1.102  10.848 -0.0337 -0.1502 -0.3389
  793MPD2    C311740   3.342   0.995  10.929 -0.2578 -0.1056  0.3963
  793MPD2    C411741   3.210   0.948  10.921 -0.3153 -0.1683 -0.1372
  793MPD2    C511742   3.123   1.011  10.831 -0.2625 -0.0854 -0.1805
  793MPD2     H11743   3.474   1.138  10.844 -0.6572  1.7536  0.7630
  793MPD2    H111744   3.168   0.871  10.985  0.3109 -0.1274  0.3253
  793MPD2    H211745   3.085   1.155  10.694 -0.2010  1.2646  0.7828
  793MPD2    H311746   3.022   0.972  10.818 -0.6639  0.6224  0.8538
  793MPD2     N11747   3.441   0.944  11.016 -0.7764 -0.3527 -0.1717
  793MPD2    H511748   3.531   0.991  11.021 -0.3623 -1.1384 -0.2061
  793MPD2    N111749   3.332   1.265  10.675  0.0765  0.2414 -0.6123
  793MPD2    H711750   3.427   1.297  10.694 -0.0429  0.4219 -0.3199
  794MPD2     C11751   3.920   0.969  17.111  0.7672 -0.4152  0.0398
  794MPD2    C111752   3.858   0.850  17.080  0.1362 -0.1538  0.6163
  794MPD2    C211753   3.785   0.840  16.959 -1.1281 -0.3451 -0.0142
  794MPD2    C311754   3.762   0.947  16.881 -0.3982 -0.3544 -0.3483
  794MPD2    C411755   3.811   1.065  16.916  0.5839 -0.0925  0.4549
  794MPD2    C511756   3.895   1.077  17.027 -0.2098 -0.5202  0.3456
  794MPD2     H11757   3.738   0.746  16.933  1.9544 -1.7026 -0.6163
  794MPD2    H111758   3.805   1.151  16.851 -1.5305 -0.7100 -0.1465
  794MPD2    H211759   3.975   0.987  17.203 -0.6586 -0.7499  0.9471
  794MPD2    H311760   3.949   1.167  17.054  0.2538 -0.2447 -1.4949
  794MPD2     N11761   3.679   0.945  16.766 -0.2923  0.5394 -0.2470
  794MPD2    H511762   3.672   1.036  16.723  3.7059  0.7250 -0.5603
  794MPD2    N111763   3.861   0.742  17.169 -0.0171 -0.3964  0.1512
  794MPD2    H711764   3.819   0.654  17.141  2.0955 -1.7087  1.1278
  795MPD2     C11765   1.324   3.007  13.761  0.0204 -0.4683 -0.5703
  795MPD2    C111766   1.353   2.981  13.632  0.6662  0.2291  0.1024
  795MPD2    C211767   1.456   2.894  13.597 -0.7592 -0.3029  0.1355
  795MPD2    C311768   1.547   2.858  13.695  0.4824  0.6774  0.1502
  795MPD2    C411769   1.529   2.906  13.822 -0.2963 -0.2247  0.3006
  795MPD2    C511770   1.416   2.973  13.860  0.4180 -0.5632  0.0123
  795MPD2     H11771   1.482   2.881  13.492  1.0022  0.6058  0.4508
  795MPD2    H111772   1.604   2.893  13.899 -1.5727 -1.0716  1.4102
  795MPD2    H211773   1.235   3.063  13.787  0.3462 -0.0004 -0.4525
  795MPD2    H311774   1.407   3.004  13.963  4.4590  0.3802  0.0717
  795MPD2     N11775   1.658   2.770  13.660 -0.0495  0.3290 -0.4681
  795MPD2    H511776   1.646   2.714  13.576  0.5664 -0.7910  0.1883
  795MPD2    N111777   1.249   3.010  13.535  0.4231  0.2034 -0.1116
  795MPD2    H711778   1.258   2.955  13.450 -2.5196  0.5888 -0.6832
  796MPD2     C11779   1.326   4.557  15.567  0.5400  0.4656 -0.3356
  796MPD2    C111780   1.392   4.651  15.646  0.3372 -0.4687 -0.2659
  796MPD2    C211781   1.350   0.047  15.649 -0.3398 -0.2466  0.5049
  796MPD2    C311782   1.243   0.084  15.568 -0.0530  0.4573 -0.0519
  796MPD2    C411783   1.189   4.727  15.485  0.1277 -0.0637 -0.3799
  796MPD2    C511784   1.225   4.596  15.490  0.0959 -0.8319 -0.3008
  796MPD2     H11785   1.402   0.123  15.706  1.0704 -0.6156 -0.3030
  796MPD2    H111786   1.105   0.010  15.419 -1.0796 -0.2373  1.0881
  796MPD2    H211787   1.352   4.452  15.560 -1.0993  0.0237 -0.0040
  796MPD2    H311788   1.166   4.523  15.437 -3.1094  1.6318 -0.1191
  796MPD2     N11789   1.211   0.219  15.563 -0.4046 -0.0845 -0.2856
  796MPD2    H511790   1.273   0.285  15.609 -0.4610 -0.2635  0.0512
  796MPD2    N111791   1.496   4.606  15.728  0.0759 -0.0544 -0.0462
  796MPD2    H711792   1.527   4.510  15.716 -2.7617 -0.9581  0.0005
  797MPD2     C11793   2.308   4.304  17.298  0.3756 -0.0585 -0.1336
  797MPD2    C111794   2.318   4.429  17.353  0.8558 -0.4114 -0.5805
  797MPD2    C211795   2.247   4.530  17.287  0.8663  0.2007 -0.5448
  797MPD2    C311796   2.184   4.515  17.159 -0.2563 -0.5369  0.3706
  797MPD2    C411797   2.191   4.387  17.103  0.4993 -0.4061 -0.0077
  797MPD2    C511798   2.249   4.283  17.176 -0.8858  0.5012  0.7075
  797MPD2     H11799   2.239   4.625  17.337 -1.8977 -1.1822  1.6438
  797MPD2    H111800   2.149   4.364  17.006 -2.1737  0.2727  0.9952
  797MPD2    H211801   2.354   4.216  17.343 -1.6607 -1.9814 -1.7914
  797MPD2    H311802   2.248   4.181  17.137 -2.2280  0.4224  0.9503
  797MPD2     N11803   2.123   4.631  17.107 -0.5515 -0.9292 -0.6454
  797MPD2    H511804   2.134   4.718  17.158  1.8687 -1.1216 -0.7986
  797MPD2    N111805   2.384   4.459  17.478  0.3963  0.1149 -0.2503
  797MPD2    H711806   2.374   4.558  17.499  0.6310  0.4250 -1.5969
  798MPD2     C11807   2.555   0.367  17.175  0.6786  0.2699  0.5057
  798MPD2    C111808   2.446   0.296  17.218  0.8700  0.1313  0.2976
  798MPD2    C211809   2.461   0.233  17.337  0.4943 -0.0738 -0.0791
  798MPD2    C311810   2.584   0.215  17.395 -0.3121  0.0597 -0.2212
  798MPD2    C411811   2.710   0.259  17.334  0.2231  0.4681  0.5218
  798MPD2    C511812   2.682   0.346  17.240 -0.2460 -0.1169  0.5419
  798MPD2     H11813   2.373   0.199  17.392 -0.4050  1.9635 -0.2821
  798MPD2    H111814   2.812   0.253  17.369  0.1368  0.0801  0.7095
  798MPD2    H211815   2.549   0.431  17.088  0.7495 -0.7246 -0.2205
  798MPD2    H311816   2.769   0.406  17.215 -0.8218  0.6060  0.2860
  798MPD2     N11817   2.584   0.126  17.503  0.1071  0.6618 -0.6374
  798MPD2    H511818   2.498   0.077  17.524 -0.2916  1.2459 -0.8866
  798MPD2    N111819   2.326   0.302  17.136 -0.2064  0.2814  0.5366
  798MPD2    H711820   2.327   0.349  17.046  2.4056  0.7238  0.8055
  799MPD2     C11821   1.155   0.982  14.247  0.5904  0.2314  0.1982
  799MPD2    C111822   1.141   0.917  14.124  0.2736 -0.1886 -0.1103
  799MPD2    C211823   1.125   0.998  14.012  0.4780  0.7733  0.6815
  799MPD2    C311824   1.110   1.135  14.026  0.4543  0.3415 -0.2338
  799MPD2    C411825   1.125   1.199  14.151 -0.0802  0.0870  0.5733
  799MPD2    C511826   1.150   1.121  14.257 -0.3168 -0.9453 -0.0103
  799MPD2     H11827   1.113   0.954  13.914 -0.2600  0.0432  1.0988
  799MPD2    H111828   1.121   1.306  14.169 -0.1571  0.2115 -0.1816
  799MPD2    H211829   1.168   0.929  14.340  0.4279  0.9316  0.6174
  799MPD2    H311830   1.174   1.169  14.351  0.4349 -2.0761  0.3696
  799MPD2     N11831   1.087   1.223  13.918 -0.4367 -0.2592 -0.7764
  799MPD2    H511832   1.086   1.320  13.947  1.4030 -0.8434  1.2346
  799MPD2    N111833   1.147   0.782  14.108 -0.0793 -0.1861 -0.0808
  799MPD2    H711834   1.126   0.746  14.015 -0.0067  0.1701 -0.2373
  800MPD2     C11835   1.164   2.174  13.813  0.0048  0.2096 -0.5741
  800MPD2    C111836   1.295   2.135  13.807  0.9306 -0.4027 -0.6659
  800MPD2    C211837   1.331   2.030  13.729 -0.1336  0.5758 -0.6373
  800MPD2    C311838   1.240   1.962  13.653 -0.3782 -0.7086 -0.2570
  800MPD2    C411839   1.113   2.006  13.650  0.5312 -0.0042  0.1457
  800MPD2    C511840   1.072   2.107  13.734 -0.5880 -0.4872  0.4803
  800MPD2     H11841   1.435   2.003  13.714  0.4817  2.3969  0.2419
  800MPD2    H111842   1.041   1.954  13.587 -0.9990  0.3454  1.5852
  800MPD2    H211843   1.134   2.247  13.887  0.6886 -0.1344  0.0408
  800MPD2    H311844   0.968   2.139  13.732  0.1238  1.7981  0.8667
  800MPD2     N11845   1.297   1.877  13.557 -0.6275 -0.0390 -0.2688
  800MPD2    H511846   1.394   1.856  13.578 -0.6918 -0.3500 -0.2928
  800MPD2    N111847   1.393   2.218  13.871  0.3757  0.1415  0.0612
  800MPD2    H711848   1.355   2.305  13.908 -0.8463 -0.7380  0.9105
  801MPD2     C11849   1.760   2.922  14.127  0.3496  0.8800 -0.2362
  801MPD2    C111850   1.655   2.835  14.151  0.2195  0.2790 -0.1966
  801MPD2    C211851   1.538   2.886  14.203  0.3785  0.1350  0.5063
  801MPD2    C311852   1.514   3.021  14.227 -0.0784 -0.5045 -0.3082
  801MPD2    C411853   1.617   3.112  14.194  0.1878 -0.3587 -0.0482
  801MPD2    C511854   1.742   3.056  14.154 -0.0499 -0.3713  0.3685
  801MPD2     H11855   1.463   2.811  14.225 -0.4637  0.6026 -0.7750
  801MPD2    H111856   1.611   3.220  14.208 -0.2368 -0.0498 -2.5318
  801MPD2    H211857   1.851   2.891  14.077  0.2336  2.1088 -1.2075
  801MPD2    H311858   1.826   3.123  14.159  0.1986 -0.7207  0.8538
  801MPD2     N11859   1.393   3.074  14.285 -1.2975  0.6017 -0.8531
  801MPD2    H511860   1.402   3.172  14.310  1.2867  0.4335 -1.1703
  801MPD2    N111861   1.667   2.700  14.132  0.1971 -0.1777  0.1424
  801MPD2    H711862   1.756   2.665  14.097  0.1038 -0.5190  0.2500
  802MPD2     C11863   1.347   3.374   0.024  0.4882 -1.1772  0.0003
  802MPD2    C111864   1.317   3.430  17.643  0.0289  0.2927 -0.3447
  802MPD2    C211865   1.408   3.400  17.539 -0.5380  0.1967 -0.3240
  802MPD2    C311866   1.510   3.310  17.553  0.3749 -0.0997 -0.4700
  802MPD2    C411867   1.526   3.252  17.672 -0.0742 -0.9612 -0.0012
  802MPD2    C511868   1.455   3.284   0.030 -0.3197 -0.0882 -0.0806
  802MPD2     H11869   1.393   3.447  17.442  0.8504  2.8548  0.7745
  802MPD2    H111870   1.589   3.165  17.689  0.1126 -0.7060  0.5896
  802MPD2    H211871   1.280   3.386   0.108  1.6851 -2.9029  1.1994
  802MPD2    H311872   1.484   3.240   0.125  0.7936 -1.0372 -0.8544
  802MPD2     N11873   1.564   3.266  17.429  0.5614 -0.2937 -0.6087
  802MPD2    H511874   1.523   3.313  17.348 -1.6028 -1.4138 -0.1784
  802MPD2    N111875   1.205   3.518  17.628 -0.0313  0.4516 -0.3265
  802MPD2    H711876   1.203   3.570  17.541 -0.1613  2.0378  0.6273
  803MPD2     C11877   1.440   2.144  12.033 -0.0205  0.1597 -0.6375
  803MPD2    C111878   1.541   2.105  11.952 -0.8529 -0.5660 -0.2438
  803MPD2    C211879   1.655   2.050  12.001  0.1778  0.0430 -0.4015
  803MPD2    C311880   1.660   2.013  12.136 -0.1013  0.3418  0.3283
  803MPD2    C411881   1.552   2.041  12.215  0.3396 -0.1668  0.1435
  803MPD2    C511882   1.451   2.115  12.170  0.5656 -0.5648  0.0652
  803MPD2     H11883   1.737   2.031  11.932  0.7516 -0.0973  0.3166
  803MPD2    H111884   1.555   2.022  12.322 -1.4525  0.1330  0.2617
  803MPD2    H211885   1.354   2.199  11.998 -0.0421  1.5675  1.6381
  803MPD2    H311886   1.369   2.154  12.229  0.6166  0.3154 -0.4378
  803MPD2     N11887   1.777   1.958  12.210  0.1516 -0.4326 -0.0802
  803MPD2    H511888   1.773   1.937  12.309 -0.6665 -0.8865 -0.2133
  803MPD2    N111889   1.540   2.122  11.812  0.5680  0.0751 -0.4433
  803MPD2    H711890   1.622   2.088  11.763  0.3684 -2.3511  0.9085
  804MPD2     C11891   1.965   3.034  17.095  0.4379 -0.2421  0.7183
  804MPD2    C111892   1.990   2.936  17.197 -0.4447  0.0418  0.7306
  804MPD2    C211893   2.029   2.989  17.315  0.0209 -0.1638 -0.6729
  804MPD2    C311894   2.058   3.123  17.332 -0.2360  0.3445 -0.3838
  804MPD2    C411895   2.031   3.213  17.232 -0.6328  0.6154 -0.5747
  804MPD2    C511896   1.979   3.169  17.116 -0.1988 -0.2178 -0.5304
  804MPD2     H11897   2.052   2.926  17.400  1.3743  1.9854  0.5622
  804MPD2    H111898   2.035   3.321  17.243  0.1968  0.5340 -0.1084
  804MPD2    H211899   1.921   3.008  16.999  0.6004 -0.5951  0.7410
  804MPD2    H311900   1.943   3.233  17.037 -0.4625 -1.0603 -1.0973
  804MPD2     N11901   2.116   3.170  17.455  0.2906 -0.1737 -0.1727
  804MPD2    H511902   2.117   3.105  17.533 -2.7903 -1.0510 -0.8908
  804MPD2    N111903   1.966   2.795  17.184  0.5165  0.1448  0.3796
  804MPD2    H711904   1.988   2.737  17.264 -0.4629 -1.9914 -0.8949
  805MPD2     C11905   0.774   0.856  14.882 -0.5702 -0.1876  0.1496
  805MPD2    C111906   0.808   0.982  14.848 -0.6224 -0.5824 -0.2511
  805MPD2    C211907   0.921   1.039  14.897  0.9005  0.4313 -1.0827
  805MPD2    C311908   0.995   0.978  14.999 -0.0730  0.2613  0.8089
  805MPD2    C411909   0.955   0.852  15.038 -0.5627 -0.0914 -0.2091
  805MPD2    C511910   0.848   0.792  14.982  0.1646 -0.6915 -0.2375
  805MPD2     H11911   0.955   1.134  14.857  1.9838  0.5856  0.2196
  805MPD2    H111912   1.023   0.793  15.099  0.9118 -1.3508 -3.0697
  805MPD2    H211913   0.694   0.802  14.834 -1.5511  0.1676  1.3667
  805MPD2    H311914   0.828   0.692  15.019 -0.2423 -0.8119 -0.7810
  805MPD2     N11915   1.102   1.051  15.053 -1.0707  0.0211 -0.6951
  805MPD2    H511916   1.124   1.129  14.993  2.2452 -0.3493  0.0397
  805MPD2    N111917   0.731   1.060  14.762 -0.1798 -0.5973 -0.1099
  805MPD2    H711918   0.770   1.147  14.728  2.1747 -1.2740  0.8641
  806MPD2     C11919   0.944   0.797   0.309  0.6378  0.2101  0.2626
  806MPD2    C111920   1.017   0.886   0.386  0.2915  0.4284 -1.1436
  806MPD2    C211921   1.094   0.979   0.328  0.2784  0.1112 -0.2677
  806MPD2    C311922   1.093   1.009   0.194  0.2697 -0.6493 -0.1962
  806MPD2    C411923   1.008   0.932   0.116 -0.3772 -0.0510 -0.2591
  806MPD2    C511924   0.951   0.818   0.175  0.6948 -0.3320  0.6391
  806MPD2     H11925   1.165   1.035   0.387  0.5674  0.9749 -1.4281
  806MPD2    H111926   0.997   0.941   0.009  2.5553  2.1319 -0.3531
  806MPD2    H211927   0.887   0.712   0.346 -1.0186  1.9709  1.7589
  806MPD2    H311928   0.894   0.742   0.122  3.5946 -2.4866  0.6262
  806MPD2     N11929   1.173   1.116   0.156  0.2531 -0.0366  0.0737
  806MPD2    H511930   1.224   1.159   0.232  1.7560  1.3159 -1.7300
  806MPD2    N111931   1.020   0.866   0.523  0.5144 -0.0588 -0.2361
  806MPD2    H711932   0.975   0.782   0.557  1.0553  0.3036  1.3729
  807MPD2     C11933   0.712   0.726   1.213 -1.0049  0.1862 -0.0260
  807MPD2    C111934   0.840   0.747   1.240  0.3850  0.3415  0.8701
  807MPD2    C211935   0.883   0.743   1.374 -0.5789  0.2088  0.6108
  807MPD2    C311936   0.806   0.706   1.479 -0.6277 -0.2051  0.2726
  807MPD2    C411937   0.670   0.681   1.445  0.1800  0.2032  1.0183
  807MPD2    C511938   0.626   0.699   1.316 -0.1700  0.9663 -0.1789
  807MPD2     H11939   0.986   0.764   1.398  0.3919 -2.3223 -1.3649
  807MPD2    H111940   0.594   0.648   1.515 -0.4125  1.2140  0.8497
  807MPD2    H211941   0.668   0.716   1.115 -3.7132  0.7887  1.1278
  807MPD2    H311942   0.524   0.664   1.301 -0.2468  2.1404 -2.4928
  807MPD2     N11943   0.862   0.689   1.605  0.6876 -0.2734  0.2506
  807MPD2    H511944   0.958   0.723   1.616  0.0484  1.4709  0.4481
  807MPD2    N111945   0.942   0.757   1.145  0.6804 -0.6359 -0.6792
  807MPD2    H711946   1.034   0.746   1.185 -0.2717  1.6875  2.2004
  808MPD2     C11947   1.388   1.828  10.103  0.0164  0.3126  0.4014
  808MPD2    C111948   1.292   1.832  10.001  0.4740 -0.2462 -0.0414
  808MPD2    C211949   1.239   1.958   9.968 -0.1303 -0.6223 -0.0528
  808MPD2    C311950   1.300   2.071  10.025  0.3656  0.8034 -0.6498
  808MPD2    C411951   1.402   2.060  10.117 -0.1662  0.6686  0.1463
  808MPD2    C511952   1.440   1.940  10.156  0.1318  0.1073 -1.2590
  808MPD2     H11953   1.156   1.964   9.899  0.6106 -1.6099 -1.0286
  808MPD2    H111954   1.442   2.146  10.171  1.1691  0.3261 -0.3174
  808MPD2    H211955   1.425   1.735  10.145 -1.3883  0.4225  1.8860
  808MPD2    H311956   1.506   1.935  10.242 -0.6295 -2.7954 -0.8563
  808MPD2     N11957   1.269   2.206   9.998  0.1978 -0.8349 -0.4354
  808MPD2    H511958   1.321   2.273  10.054 -1.1626  0.4532 -0.7120
  808MPD2    N111959   1.257   1.721   9.920  0.1645  0.2852  0.2221
  808MPD2    H711960   1.198   1.745   9.842  0.4326 -1.7939 -0.6088
  809MPD2     C11961   1.097   3.014   9.338  0.4303  1.1914 -0.7264
  809MPD2    C111962   1.193   3.026   9.440 -0.1220 -0.3890 -0.6271
  809MPD2    C211963   1.194   2.930   9.540  0.0088  0.5998 -0.2264
  809MPD2    C311964   1.112   2.823   9.536 -0.8187 -0.2939  0.3419
  809MPD2    C411965   1.029   2.799   9.425 -0.2811 -0.0021  0.4391
  809MPD2    C511966   1.024   2.898   9.328 -0.6920  0.0325  0.3465
  809MPD2     H11967   1.270   2.952   9.614  1.7360  0.7027 -2.0369
  809MPD2    H111968   0.949   2.728   9.412 -0.4693 -0.4514  3.9260
  809MPD2    H211969   1.094   3.081   9.253  0.4800  1.3419 -0.6092
  809MPD2    H311970   0.959   2.892   9.241 -0.3843  0.2466  0.1002
  809MPD2     N11971   1.110   2.735   9.646 -0.3692 -0.2131 -0.1146
  809MPD2    H511972   1.181   2.747   9.718  0.4934 -2.8144 -0.5140
  809MPD2    N111973   1.288   3.127   9.445 -0.1425 -0.2520  0.2143
  809MPD2    H711974   1.359   3.124   9.518  0.2581 -4.7816 -0.3313
  810MPD2     C11975   1.395   1.301  10.299  0.0003  0.0482  0.1512
  810MPD2    C111976   1.327   1.193  10.348 -0.5017 -0.4346 -0.9366
  810MPD2    C211977   1.288   1.205  10.481  0.3656  0.0698 -0.3558
  810MPD2    C311978   1.305   1.317  10.555 -0.2600 -0.1809  0.6204
  810MPD2    C411979   1.384   1.419  10.505 -0.5240 -0.0488 -0.5212
  810MPD2    C511980   1.438   1.404  10.376 -0.8103 -0.5374  0.5317
  810MPD2     H11981   1.219   1.126  10.507 -0.0257  0.6187  0.2641
  810MPD2    H111982   1.414   1.506  10.561  2.5110 -1.2559 -0.3072
  810MPD2    H211983   1.426   1.296  10.195  0.6580  0.0077  0.3508
  810MPD2    H311984   1.512   1.475  10.341  0.5026 -0.9319  2.4740
  810MPD2     N11985   1.233   1.342  10.673 -0.0835 -0.8343  0.1372
  810MPD2    H511986   1.253   1.429  10.722 -2.4140  0.0749 -0.5419
  810MPD2    N111987   1.298   1.080  10.267  0.6203 -0.1601 -0.1414
  810MPD2    H711988   1.291   1.084  10.166 -2.6281 -0.5652  0.0615
  811MPD2     C11989   0.610   0.968   9.807 -0.9538 -0.2312 -0.1391
  811MPD2    C111990   0.695   1.034   9.895 -0.4469  0.1208  0.9704
  811MPD2    C211991   0.678   1.165   9.926  0.6461  0.0696 -0.4255
  811MPD2    C311992   0.575   1.237   9.865  0.4818 -1.1153 -0.1905
  811MPD2    C411993   0.494   1.175   9.768 -0.2042  0.1132  0.3321
  811MPD2    C511994   0.518   1.038   9.744 -0.3295  0.5573 -0.4773
  811MPD2     H11995   0.745   1.208   9.999  0.0242 -0.7555  0.6247
  811MPD2    H111996   0.408   1.219   9.719 -0.7710 -0.6266  0.6644
  811MPD2    H211997   0.604   0.863   9.780 -0.2611 -0.6400  1.3048
  811MPD2    H311998   0.457   0.984   9.672  0.0883  0.4148 -0.7194
  811MPD2     N11999   0.565   1.374   9.891 -0.2305  0.6664 -0.5455
  811MPD2    H512000   0.650   1.414   9.928  1.0562 -2.6933  0.1435
  811MPD2    N112001   0.796   0.959   9.958 -0.2083  0.0742  1.3027
  811MPD2    H712002   0.793   0.859   9.944 -2.8107  0.4766 -0.9646
  812MPD2     C12003   4.561   1.619  12.093  0.3691  0.3372 -0.0811
  812MPD2    C112004   4.522   1.667  12.213  0.0683  0.0058 -0.3209
  812MPD2    C212005   4.548   1.575  12.316  0.2938  0.4737  0.2903
  812MPD2    C312006   4.593   1.442  12.304 -0.0261  0.3449  0.0763
  812MPD2    C412007   4.605   1.395  12.171  0.2458 -0.2524  0.4218
  812MPD2    C512008   4.593   1.491  12.068 -0.1199  0.0805 -0.2561
  812MPD2     H12009   4.536   1.614  12.416  0.7752  1.9438 -0.2268
  812MPD2    H112010   4.638   1.296  12.142  1.8385  0.6436 -0.8401
  812MPD2    H212011   4.557   1.674  11.999  1.7232  1.8099  0.7305
  812MPD2    H312012   4.602   1.453  11.967 -0.6726  2.2537 -1.1094
  812MPD2     N12013   4.620   1.366  12.419  0.2008  0.0163 -0.6472
  812MPD2    H512014   4.588   1.401  12.509 -3.0475 -1.8023 -1.0663
  812MPD2    N112015   4.472   1.796  12.225  0.4876 -0.1242 -0.3375
  812MPD2    H712016   4.489   1.858  12.147  0.8149  1.0677  0.6855
  813MPD2     C12017   3.414   3.338  12.701  0.4405 -0.1217 -0.2344
  813MPD2    C112018   3.503   3.391  12.787  0.3050 -0.3910 -0.1788
  813MPD2    C212019   3.476   3.391  12.918  0.2740  0.3103  0.2343
  813MPD2    C312020   3.363   3.329  12.964  0.5096 -0.2285 -0.7463
  813MPD2    C412021   3.267   3.277  12.876 -0.1326  0.2150 -0.2737
  813MPD2    C512022   3.288   3.287  12.741 -0.1730  0.4371 -0.3882
  813MPD2     H12023   3.557   3.410  12.987 -1.2584  0.1111  2.0811
  813MPD2    H112024   3.175   3.231  12.908 -0.1195 -0.4560 -1.1976
  813MPD2    H212025   3.437   3.332  12.596 -0.5121 -3.8104 -0.2378
  813MPD2    H312026   3.218   3.241  12.673 -0.2194  1.7071 -1.1871
  813MPD2     N12027   3.337   3.316  13.102 -0.2994 -0.1848 -0.1498
  813MPD2    H512028   3.398   3.369  13.163 -0.9464  0.7963 -0.3494
  813MPD2    N112029   3.625   3.439  12.746 -0.2316  0.2747  1.1153
  813MPD2    H712030   3.671   3.490  12.821 -0.9852  1.3348  0.8577
  814MPD2     C12031   4.186   0.061  12.347  0.1155 -0.3780  0.7620
  814MPD2    C112032   4.199   0.083  12.217  0.1544  0.1118 -0.7397
  814MPD2    C212033   4.269   0.189  12.180  0.2558  0.2102  0.2461
  814MPD2    C312034   4.346   0.264  12.268  1.0303  0.2391 -0.4335
  814MPD2    C412035   4.336   0.238  12.402 -0.0255 -0.4233  0.1097
  814MPD2    C512036   4.243   0.144  12.436 -0.1048  0.2942  1.0070
  814MPD2     H12037   4.277   0.214  12.075 -0.8492 -2.2197 -0.4304
  814MPD2    H112038   4.383   0.293  12.483  0.7317  0.4877 -0.9509
  814MPD2    H212039   4.126   4.717  12.386 -1.6309  0.9129  0.7786
  814MPD2    H312040   4.217   0.122  12.539 -0.1627 -1.1860  0.6740
  814MPD2     N12041   4.448   0.354  12.226 -0.2530 -0.3822 -0.3055
  814MPD2    H512042   4.508   0.393  12.298 -1.1010  1.7351 -0.7492
  814MPD2    N112043   4.134   0.011  12.109  0.2580 -0.5573  0.1816
  814MPD2    H712044   4.148   0.048  12.016 -1.7462 -2.1084 -0.7373
  815MPD2     C12045   0.133   3.308  11.713  0.0465 -0.4585  0.4586
  815MPD2    C112046   0.088   3.200  11.786 -0.4246  0.3033 -0.4186
  815MPD2    C212047   4.715   3.210  11.871 -0.3176  0.3977 -0.1157
  815MPD2    C312048   4.671   3.339  11.900  0.1768  0.2846 -0.0168
  815MPD2    C412049   4.718   3.445  11.825  0.7912 -0.3965 -0.2044
  815MPD2    C512050   0.077   3.428  11.726 -0.4038  0.1115  0.1534
  815MPD2     H12051   4.678   3.124  11.926  0.9337 -1.2167 -1.8066
  815MPD2    H112052   4.681   3.547  11.825  0.5645 -0.4676  2.1399
  815MPD2    H212053   0.201   3.290  11.630  0.8559  0.4134  0.9361
  815MPD2    H312054   0.096   3.496  11.644 -3.2350  0.8505  0.1067
  815MPD2     N12055   4.559   3.355  11.988  0.3397 -0.1251 -0.0149
  815MPD2    H512056   4.524   3.273  12.036  0.6275  1.3682  2.6989
  815MPD2    N112057   0.140   3.078  11.734 -0.6852 -0.2482 -0.1606
  815MPD2    H712058   0.197   3.090  11.651  0.6299  0.4574  0.8583
  816MPD2     C12059   4.727   2.330  16.970 -0.1756  0.2184 -0.2097
  816MPD2    C112060   0.064   2.447  16.970  0.6786 -0.4900  0.1365
  816MPD2    C212061   0.197   2.440  16.918 -0.0000 -0.1910  0.5767
  816MPD2    C312062   0.248   2.318  16.876  0.0552 -0.4736 -0.3503
  816MPD2    C412063   0.172   2.204  16.885 -0.6770  0.7458  0.2509
  816MPD2    C512064   0.044   2.210  16.931 -0.1382  0.3075  0.2868
  816MPD2     H12065   0.255   2.531  16.908  0.9737 -0.7623  1.0704
  816MPD2    H112066   0.219   2.108  16.865 -0.5009  0.8543  0.1454
  816MPD2    H212067   4.625   2.315  17.004  1.0436 -2.5723  2.1741
  816MPD2    H312068   4.722   2.120  16.936  0.0946  0.1466  0.1911
  816MPD2     N12069   0.372   2.325  16.805 -0.5620  0.1197 -0.5710
  816MPD2    H512070   0.407   2.419  16.792 -0.0098  0.2931  2.1337
  816MPD2    N112071   4.729   2.559  17.016  0.8746  0.1286  0.2814
  816MPD2    H712072   4.628   2.556  17.023  0.9307 -1.5249  0.3758
  817MPD2     C12073   3.944   3.662   9.796  0.3289 -0.7636  0.0102
  817MPD2    C112074   3.885   3.558   9.724  0.3626 -0.3452 -0.4733
  817MPD2    C212075   3.784   3.598   9.641  0.0836 -0.0622 -0.2584
  817MPD2    C312076   3.746   3.727   9.622  0.1206  0.1924  0.6426
  817MPD2    C412077   3.805   3.826   9.705 -0.6813 -0.2728 -0.3105
  817MPD2    C512078   3.898   3.792   9.797  0.0434  0.2670 -0.1073
  817MPD2     H12079   3.740   3.516   9.586 -0.7339  0.0606  0.2140
  817MPD2    H112080   3.783   3.932   9.698  0.1414 -0.0482  0.4550
  817MPD2    H212081   4.024   3.648   9.869  0.4862  0.4577  0.0649
  817MPD2    H312082   3.942   3.863   9.866  2.2384 -1.5935  0.4234
  817MPD2     N12083   3.650   3.751   9.526  0.1740 -0.4089 -0.0325
  817MPD2    H512084   3.606   3.668   9.489  0.5597 -0.3623 -0.6051
  817MPD2    N112085   3.926   3.424   9.727  0.4889 -0.3103  0.3200
  817MPD2    H712086   3.881   3.359   9.662  2.1813 -0.0490 -1.1013
  818MPD2     C12087   3.451   4.095  10.075 -0.4320  0.2173  0.7364
  818MPD2    C112088   3.341   4.016  10.036  0.7210 -0.5919  0.0449
  818MPD2    C212089   3.369   3.892   9.983  0.4396 -0.1277  0.3564
  818MPD2    C312090   3.502   3.847   9.965 -0.6779 -0.2862 -0.1432
  818MPD2    C412091   3.603   3.928   9.994 -0.5043 -0.1722  0.1033
  818MPD2    C512092   3.577   4.043  10.060  0.4412 -0.2751 -0.0144
  818MPD2     H12093   3.281   3.833   9.959  1.5069 -1.3871 -0.4269
  818MPD2    H112094   3.701   3.882   9.987 -1.1477 -1.6852  1.0514
  818MPD2    H212095   3.447   4.197  10.111  2.9642  1.2440 -1.8343
  818MPD2    H312096   3.656   4.108  10.095 -0.1084 -0.1523  0.9857
  818MPD2     N12097   3.532   3.716   9.921  0.2395 -0.0094  0.0995
  818MPD2    H512098   3.628   3.684   9.926 -0.3576 -2.1727 -2.2454
  818MPD2    N112099   3.213   4.062  10.035  0.5333 -0.3775  0.2073
  818MPD2    H712100   3.143   3.995  10.004 -0.0568 -0.1550  1.0626
  819MPD2     C12101   1.736   0.857  14.989  0.5358  0.3669  0.2417
  819MPD2    C112102   1.662   0.776  15.070 -0.0941  0.2546  0.2972
  819MPD2    C212103   1.711   0.739  15.198  0.3629  0.3345  0.6783
  819MPD2    C312104   1.842   0.766  15.228  0.5289 -0.0452 -0.0268
  819MPD2    C412105   1.922   0.829  15.142 -0.5799 -0.0109 -0.7310
  819MPD2    C512106   1.865   0.885  15.029 -0.1848 -0.5431  0.1585
  819MPD2     H12107   1.643   0.690  15.267  1.1612 -2.9122 -0.8528
  819MPD2    H112108   2.025   0.852  15.168 -0.4227 -2.0918  0.5011
  819MPD2    H212109   1.710   0.886  14.889 -3.9233  0.1290  1.3402
  819MPD2    H312110   1.929   0.950  14.971 -0.7255 -0.1269  0.0255
  819MPD2     N12111   1.889   0.707  15.346  1.0254  0.5966  0.1295
  819MPD2    H512112   1.827   0.647  15.398  1.6512 -0.9563 -0.9297
  819MPD2    N112113   1.534   0.731  15.026  0.2870  0.5179 -0.0095
  819MPD2    H712114   1.510   0.754  14.930 -1.8320 -0.6556  0.2473
  820MPD2     C12115   0.848   0.639  14.294  0.4426 -0.1125  0.4747
  820MPD2    C112116   0.876   0.753  14.371 -1.1111 -0.0202  0.2309
  820MPD2    C212117   0.951   0.745  14.488 -0.3465  0.3962 -0.2769
  820MPD2    C312118   0.982   0.622  14.541 -0.4941 -0.0529 -0.3112
  820MPD2    C412119   0.938   0.512  14.478 -0.8327 -0.8697 -0.1374
  820MPD2    C512120   0.879   0.519  14.352 -0.2754 -0.2304  0.2229
  820MPD2     H12121   0.983   0.825  14.554 -0.1925  0.0622  0.0537
  820MPD2    H112122   0.964   0.414  14.516 -0.4259 -1.0870 -0.9602
  820MPD2    H212123   0.786   0.636  14.205  1.9793 -1.6355 -0.5568
  820MPD2    H312124   0.836   0.432  14.301  1.4624 -0.9011 -0.0843
  820MPD2     N12125   1.035   0.600  14.669  0.0214  0.0755 -0.2321
  820MPD2    H512126   1.030   0.503  14.698 -2.8461 -0.6594 -3.2740
  820MPD2    N112127   0.818   0.877  14.322  0.0549  0.2463 -0.2605
  820MPD2    H712128   0.761   0.863  14.240  1.5740  0.7003 -1.3858
  821MPD2     C12129   1.381   2.003  12.743 -0.0355 -0.4007  0.0234
  821MPD2    C112130   1.484   1.987  12.833 -0.1590  0.7434  0.3653
  821MPD2    C212131   1.599   2.058  12.818  0.5596  0.4324  0.1686
  821MPD2    C312132   1.619   2.144  12.711  0.2059 -0.5786 -0.1735
  821MPD2    C412133   1.515   2.162  12.617  0.1256  0.1046  0.0246
  821MPD2    C512134   1.398   2.093  12.644 -0.3177  0.2779 -0.8136
  821MPD2     H12135   1.667   2.046  12.901  1.1948 -0.6103 -0.5077
  821MPD2    H112136   1.522   2.231  12.534  0.9567 -0.6946 -0.5701
  821MPD2    H212137   1.290   1.948  12.760 -0.3871 -0.2191 -1.3464
  821MPD2    H312138   1.314   2.099  12.576 -0.5548 -0.1267 -0.5582
  821MPD2     N12139   1.750   2.201  12.701  0.6196 -0.3832  0.5686
  821MPD2    H512140   1.767   2.244  12.610 -0.6003  0.9445  0.9781
  821MPD2    N112141   1.478   1.904  12.945 -0.1199  0.0718 -0.4169
  821MPD2    H712142   1.558   1.898  13.007 -0.6870  0.9053  0.3868
  822MPD2     C12143   2.434   2.310  15.588 -0.2861  0.1801 -0.0219
  822MPD2    C112144   2.362   2.262  15.694 -0.3593  0.2409  0.7294
  822MPD2    C212145   2.337   2.350  15.803  0.4937  0.0375  0.0267
  822MPD2    C312146   2.378   2.487  15.804 -0.1873 -0.7305  0.5143
  822MPD2    C412147   2.437   2.532  15.682 -0.0658  0.1146 -0.1288
  822MPD2    C512148   2.458   2.445  15.575 -0.1619  0.0573  0.6096
  822MPD2     H12149   2.294   2.311  15.895  0.0905 -0.1991 -0.2606
  822MPD2    H112150   2.452   2.637  15.658  1.6613 -0.4197 -1.4776
  822MPD2    H212151   2.451   2.244  15.504 -2.0645 -1.1714  0.6912
  822MPD2    H312152   2.505   2.485  15.486  0.3228 -1.8292  0.0202
  822MPD2     N12153   2.352   2.573  15.915 -0.2510 -0.1043  0.4578
  822MPD2    H512154   2.308   2.538  15.999 -0.2531  0.4487  0.6895
  822MPD2    N112155   2.335   2.124  15.714  0.1548  0.3961  0.4011
  822MPD2    H712156   2.293   2.101  15.804  0.3582  0.6758  0.5679
  823MPD2     C12157   2.220   2.566  16.739 -0.3443  0.6101  0.4475
  823MPD2    C112158   2.204   2.530  16.611 -0.1099  0.6580  0.7460
  823MPD2    C212159   2.152   2.398  16.597 -0.0330 -0.3196  0.6564
  823MPD2    C312160   2.113   2.310  16.704 -0.6057  0.0644  0.5078
  823MPD2    C412161   2.123   2.364  16.828 -0.7972 -0.7027  0.7481
  823MPD2    C512162   2.180   2.487  16.842  0.6699  1.2018  0.0709
  823MPD2     H12163   2.133   2.373  16.493  2.4931 -0.4227  0.2200
  823MPD2    H112164   2.087   2.310  16.914 -1.5843 -0.9767  0.2525
  823MPD2    H212165   2.256   2.667  16.756  0.9497  0.4854 -1.5335
  823MPD2    H312166   2.183   2.531  16.942  1.8932  0.8025  0.2050
  823MPD2     N12167   2.060   2.182  16.684  0.4211 -0.0600 -0.7426
  823MPD2    H512168   2.036   2.134  16.771 -0.1434  1.2976 -0.1589
  823MPD2    N112169   2.253   2.611  16.503 -0.2629  0.8549 -0.0815
  823MPD2    H712170   2.302   2.693  16.535  0.6833  0.8775 -1.5868
  824MPD2     C12171   2.278   1.280  15.559 -0.6478 -0.2386  0.2056
  824MPD2    C112172   2.383   1.350  15.608 -0.4182 -0.6830  0.5585
  824MPD2    C212173   2.515   1.302  15.591  0.4837  0.3551  0.2050
  824MPD2    C312174   2.531   1.190  15.515  0.1210  0.4887  1.1639
  824MPD2    C412175   2.423   1.124  15.460  0.3023 -0.6475  0.4729
  824MPD2    C512176   2.298   1.161  15.495  0.2551  0.5448 -0.3157
  824MPD2     H12177   2.602   1.353  15.631 -1.2196  1.0944  2.9872
  824MPD2    H112178   2.424   1.034  15.400  0.7472  0.2162 -0.8228
  824MPD2    H212179   2.175   1.302  15.582 -1.7444 -2.3257 -2.7437
  824MPD2    H312180   2.216   1.100  15.458  0.7811 -1.9512  2.6052
  824MPD2     N12181   2.666   1.152  15.495 -0.5462 -0.1395  0.3885
  824MPD2    H512182   2.745   1.207  15.527 -3.2280  3.3028  1.0930
  824MPD2    N112183   2.373   1.475  15.668  0.1484 -0.3456 -0.0500
  824MPD2    H712184   2.456   1.519  15.707  0.1003 -1.0677  0.8827
  825MPD2     C12185   3.139   1.412  14.978  0.9025  0.2107  0.5185
  825MPD2    C112186   3.131   1.412  15.119  0.3156 -0.0994  0.6856
  825MPD2    C212187   3.170   1.527  15.186  0.0233  0.6167 -0.6715
  825MPD2    C312188   3.192   1.650  15.114 -0.5788 -0.3625  0.8795
  825MPD2    C412189   3.183   1.645  14.975  0.2660  0.2867  0.3722
  825MPD2    C512190   3.161   1.520  14.905  0.6899  0.1530 -0.4782
  825MPD2     H12191   3.155   1.531  15.293 -2.5954  0.1487 -1.0241
  825MPD2    H112192   3.186   1.737  14.917 -2.3682  0.6304  0.7733
  825MPD2    H212193   3.121   1.326  14.915 -0.1934  0.2761  0.7442
  825MPD2    H312194   3.149   1.509  14.798  3.0959 -1.5121 -0.5750
  825MPD2     N12195   3.205   1.779  15.174  0.4004 -0.2555  0.0561
  825MPD2    H512196   3.186   1.857  15.112 -0.8452 -1.0978 -0.6094
  825MPD2    N112197   3.092   1.295  15.188 -0.2712  0.5427  0.4689
  825MPD2    H712198   3.055   1.225  15.125 -0.2967  2.3737 -1.5613
  826MPD2     C12199   3.395   0.919  13.221  0.2489 -0.1647 -0.1484
  826MPD2    C112200   3.276   0.866  13.189 -0.0336 -0.2277  0.1992
  826MPD2    C212201   3.158   0.934  13.210  0.1582 -0.3377  0.6859
  826MPD2    C312202   3.161   1.054  13.270  0.5598 -0.4270 -0.3820
  826MPD2    C412203   3.283   1.106  13.314  0.7748  0.1418 -0.2898
  826MPD2    C512204   3.400   1.041  13.286 -0.3441 -0.9752 -0.0458
  826MPD2     H12205   3.064   0.895  13.172 -0.7536  1.6433  0.9435
  826MPD2    H112206   3.297   1.205  13.356  0.7653  0.4055 -0.9099
  826MPD2    H212207   3.490   0.871  13.198  0.5565  0.4646 -0.1798
  826MPD2    H312208   3.496   1.084  13.311  0.6180 -3.9656  1.3415
  826MPD2     N12209   3.044   1.135  13.295  0.3458  0.9271  0.5533
  826MPD2    H512210   3.068   1.226  13.331 -1.3074  0.9529  1.6357
  826MPD2    N112211   3.283   0.734  13.133 -0.1303  0.3009 -0.1296
  826MPD2    H712212   3.373   0.688  13.133 -0.4045 -0.2373 -0.6455
  827MPD2     C12213   3.595   2.750  10.089  0.1023  0.0718 -0.2046
  827MPD2    C112214   3.487   2.692  10.159 -1.0942  0.1077  0.5518
  827MPD2    C212215   3.352   2.713  10.117 -0.2831  0.0416  0.2428
  827MPD2    C312216   3.333   2.768   9.994  0.5691  0.0738  0.1293
  827MPD2    C412217   3.439   2.822   9.925 -0.6428 -0.3661 -0.6244
  827MPD2    C512218   3.565   2.817   9.976 -0.1673  0.4437 -0.9681
  827MPD2     H12219   3.271   2.685  10.183  0.1148 -0.8045  0.3744
  827MPD2    H112220   3.440   2.877   9.831 -1.2815 -0.5510 -0.7404
  827MPD2    H212221   3.700   2.749  10.116 -0.2281  0.4801  1.0751
  827MPD2    H312222   3.647   2.866   9.925  0.9577 -0.4295  0.0085
  827MPD2     N12223   3.200   2.768   9.937  0.1349  0.2263  0.6071
  827MPD2    H512224   3.127   2.724   9.993  1.8048 -1.5565  1.4195
  827MPD2    N112225   3.523   2.642  10.287  0.1643 -0.3802  0.2082
  827MPD2    H712226   3.624   2.646  10.300  0.0570 -2.0344  1.5776
  828MPD2     C12227   2.229   2.559  11.991  0.0729 -0.2374  0.2255
  828MPD2    C112228   2.104   2.566  11.934  0.2401  0.3545  0.7044
  828MPD2    C212229   2.087   2.521  11.805  0.1206 -0.6025  0.2618
  828MPD2    C312230   2.197   2.486  11.723  0.3847 -0.4302  0.0761
  828MPD2    C412231   2.321   2.478  11.779 -0.3041  0.1835 -0.4416
  828MPD2    C512232   2.332   2.510  11.913 -0.2615 -1.0792  0.2468
  828MPD2     H12233   1.987   2.517  11.763  1.2579 -0.5740 -2.4231
  828MPD2    H112234   2.404   2.445  11.718  2.0619  1.2480  2.2178
  828MPD2    H212235   2.255   2.589  12.092  0.1268  1.7758 -0.3846
  828MPD2    H312236   2.426   2.506  11.966 -0.7980 -0.5009  1.2582
  828MPD2     N12237   2.187   2.473  11.585  0.5941 -0.0792 -0.2093
  828MPD2    H512238   2.273   2.465  11.532  1.0655  2.9205  0.0775
  828MPD2    N112239   1.985   2.609  12.002 -0.6009 -0.4218  0.4957
  828MPD2    H712240   1.897   2.600  11.951 -1.1703 -1.3743  1.6367
  829MPD2     C12241   1.356   3.027  11.557 -0.2020  0.2615  0.4354
  829MPD2    C112242   1.287   2.969  11.655 -0.1003  0.0301  0.2438
  829MPD2    C212243   1.353   2.907  11.757 -0.3820  0.5133  0.3358
  829MPD2    C312244   1.492   2.906  11.760 -0.3054  0.1157  0.0489
  829MPD2    C412245   1.562   2.965  11.653  0.4474 -0.1407  1.0104
  829MPD2    C512246   1.489   3.011  11.551  0.3686 -0.3059 -0.0769
  829MPD2     H12247   1.298   2.849  11.830 -1.4080  0.7652 -0.2298
  829MPD2    H112248   1.670   2.963  11.645  0.2104  0.6149 -2.3696
  829MPD2    H212249   1.296   3.076  11.481 -0.4121 -0.1309  0.3476
  829MPD2    H312250   1.531   3.055  11.462  0.4101  2.1190  1.1497
  829MPD2     N12251   1.576   2.868  11.877  0.2729  0.3861 -0.5408
  829MPD2    H512252   1.677   2.878  11.867  0.4826 -1.4667 -0.3780
  829MPD2    N112253   1.148   2.985  11.655 -0.3105  0.2501  0.1715
  829MPD2    H712254   1.103   3.022  11.573  1.0736  1.7216  0.0903
  830MPD2     C12255   2.457   0.354  15.622 -0.4188  0.5267  0.0348
  830MPD2    C112256   2.349   0.360  15.545 -0.2225  0.3329  0.2561
  830MPD2    C212257   2.347   0.437  15.432 -0.0951  1.1178 -0.6241
  830MPD2    C312258   2.468   0.492  15.391  0.3421 -0.2652  0.4252
  830MPD2    C412259   2.578   0.491  15.469 -0.0008 -0.7389 -0.9748
  830MPD2    C512260   2.570   0.425  15.585 -0.4664 -0.4262  0.1619
  830MPD2     H12261   2.255   0.459  15.379 -0.1797  1.3013 -0.4000
  830MPD2    H112262   2.655   0.564  15.447  1.2808 -0.6711  3.7848
  830MPD2    H212263   2.445   0.307  15.719  0.9016 -0.3379 -0.2119
  830MPD2    H312264   2.647   0.441  15.659 -1.4365 -0.2031  1.1253
  830MPD2     N12265   2.476   0.578  15.278  0.1463 -0.2694  0.5610
  830MPD2    H512266   2.569   0.615  15.262 -0.1610 -0.5361 -1.8546
  830MPD2    N112267   2.229   0.308  15.596  0.4905  0.4396  0.7270
  830MPD2    H712268   2.227   0.268  15.689  2.7170 -1.0704  0.1287
  831MPD2     C12269   2.600   2.363  16.225  0.3593  0.9164  0.1152
  831MPD2    C112270   2.582   2.272  16.122 -0.2355 -1.0471  0.2282
  831MPD2    C212271   2.465   2.199  16.124 -0.1139 -0.1122  0.4589
  831MPD2    C312272   2.367   2.220  16.219 -0.1141 -0.0972  0.4390
  831MPD2    C412273   2.398   2.307  16.326  0.8716  0.1595  0.7634
  831MPD2    C512274   2.512   2.376  16.324  0.0781 -0.1825  0.3883
  831MPD2     H12275   2.440   2.128  16.046  2.5323  0.3244 -0.7707
  831MPD2    H112276   2.332   2.336  16.407 -1.2060 -1.3194 -0.3951
  831MPD2    H212277   2.688   2.425  16.238  0.2987  0.8380  0.9335
  831MPD2    H312278   2.534   2.451  16.399 -1.7829  0.1997  0.5509
  831MPD2     N12279   2.237   2.167  16.209  0.2303  0.4637  0.4255
  831MPD2    H512280   2.172   2.173  16.287 -0.3918 -0.4060 -0.0333
  831MPD2    N112281   2.673   2.253  16.019 -0.1869 -0.5940 -0.1185
  831MPD2    H712282   2.661   2.172  15.958  0.2057 -0.6735 -0.0926
  832MPD2     C12283   0.949   3.409  17.017  0.2911 -0.4020 -0.8185
  832MPD2    C112284   0.932   3.540  16.975  0.3574  0.0295 -0.8661
  832MPD2    C212285   0.829   3.564  16.875 -0.1997  0.0713  0.1333
  832MPD2    C312286   0.737   3.465  16.850 -0.3334 -0.4095  0.0744
  832MPD2    C412287   0.751   3.339  16.896  0.6173  0.0880 -0.2253
  832MPD2    C512288   0.854   3.321  16.985  0.4600  0.1063 -0.0851
  832MPD2     H12289   0.806   3.665  16.845 -0.3919 -0.2378 -0.7696
  832MPD2    H112290   0.682   3.262  16.867  1.7613 -1.6194  1.5942
  832MPD2    H212291   1.022   3.377  17.091  0.2986 -1.3481 -1.2359
  832MPD2    H312292   0.873   3.223  17.028 -0.1275 -0.1031 -0.3022
  832MPD2     N12293   0.633   3.485  16.760 -0.0797  0.3429 -0.1602
  832MPD2    H512294   0.562   3.412  16.753 -0.1865  0.4315  0.0031
  832MPD2    N112295   1.014   3.642  17.027  0.3371  1.1409  0.2624
  832MPD2    H712296   1.098   3.614  17.077 -0.8333  0.5227  1.8958
  833MPD2     C12297   3.027   4.407  12.508  0.0542 -0.3893 -0.6853
  833MPD2    C112298   3.015   4.535  12.465  0.1985  0.3660  0.0256
  833MPD2    C212299   3.081   4.564  12.342  0.3308 -0.0685  0.3599
  833MPD2    C312300   3.158   4.469  12.276  0.1439 -0.2443 -0.5612
  833MPD2    C412301   3.179   4.348  12.332 -0.2383  0.6135 -0.1152
  833MPD2    C512302   3.113   4.316  12.449  1.2357 -0.9169 -0.3967
  833MPD2     H12303   3.071   4.662  12.297  1.5042 -0.1349 -0.0412
  833MPD2    H112304   3.240   4.277  12.276 -0.4827  0.5873 -0.3487
  833MPD2    H212305   2.977   4.370  12.597  1.2636  1.9101  0.9634
  833MPD2    H312306   3.140   4.228  12.506  1.1889 -0.0382  0.9793
  833MPD2     N12307   3.225   4.490  12.154 -0.2717 -0.0946 -0.4035
  833MPD2    H512308   3.269   4.409  12.111  1.9153  0.4569  0.7865
  833MPD2    N112309   2.948   4.632  12.525 -0.1630  0.1962  0.0129
  833MPD2    H712310   2.946   4.720  12.474 -2.0855  0.8826  1.2497
  834MPD2     C12311   2.936   3.970  11.619 -0.2436  1.1244 -0.2381
  834MPD2    C112312   2.898   4.083  11.552 -0.2165  0.1808 -0.0695
  834MPD2    C212313   2.953   4.204  11.594 -0.5610 -0.3231 -0.0605
  834MPD2    C312314   3.031   4.216  11.712  0.7986  0.1707 -0.0174
  834MPD2    C412315   3.070   4.097  11.771  0.0164 -0.6559 -0.0213
  834MPD2    C512316   3.020   3.979  11.726 -1.0667 -0.5292  0.0102
  834MPD2     H12317   2.937   4.295  11.536 -0.5869  0.1831  0.7486
  834MPD2    H112318   3.143   4.090  11.850  0.3970 -0.7030 -0.3770
  834MPD2    H212319   2.897   3.870  11.599  1.6041 -0.2557  3.0068
  834MPD2    H312320   3.054   3.886  11.769  3.4680  1.8952  1.6055
  834MPD2     N12321   3.103   4.332  11.751 -0.2862 -0.3366  0.0005
  834MPD2    H512322   3.156   4.319  11.837 -0.7846  1.2136  0.5364
  834MPD2    N112323   2.802   4.067  11.444 -0.1783  0.4970  0.4554
  834MPD2    H712324   2.754   3.978  11.449  0.4907  0.0906 -0.3290
  835MPD2     C12325   2.791   2.110  11.256 -0.1620 -0.3225 -0.3791
  835MPD2    C112326   2.789   2.249  11.259 -0.2007  0.0805 -0.9936
  835MPD2    C212327   2.852   2.312  11.361 -0.0063  0.2278  0.6701
  835MPD2    C312328   2.938   2.248  11.451  0.2804 -0.5334 -0.3922
  835MPD2    C412329   2.949   2.107  11.435 -0.3286  0.4519  0.5734
  835MPD2    C512330   2.878   2.042  11.340 -0.6606  1.1460 -0.7517
  835MPD2     H12331   2.855   2.421  11.364 -3.1322  0.4080 -2.3723
  835MPD2    H112332   3.009   2.045  11.500  1.0760  0.5131 -0.6666
  835MPD2    H212333   2.725   2.049  11.197 -0.2452 -1.5763  1.0149
  835MPD2    H312334   2.885   1.934  11.341 -0.5564  1.1835  1.2399
  835MPD2     N12335   3.017   2.317  11.552 -0.2425  0.5123  0.0616
  835MPD2    H512336   3.065   2.253  11.614  1.3466  1.1849 -0.4922
  835MPD2    N112337   2.704   2.328  11.173 -0.1976 -0.3143  0.5466
  835MPD2    H712338   2.718   2.428  11.173  0.4630 -0.4083  0.6992
  836MPD2     C12339   2.648   2.717  11.509  0.7038 -0.0085 -0.2379
  836MPD2    C112340   2.669   2.717  11.647 -0.4752 -0.1122  0.3303
  836MPD2    C212341   2.560   2.749  11.727  0.1139 -0.2571 -0.1222
  836MPD2    C312342   2.442   2.799  11.673  0.8517 -0.4783  0.4497
  836MPD2    C412343   2.427   2.790  11.535  0.3926 -0.4259 -0.0797
  836MPD2    C512344   2.528   2.752  11.455 -0.6283  0.3549  0.1426
  836MPD2     H12345   2.563   2.739  11.835 -2.0539  0.6101  0.0173
  836MPD2    H112346   2.334   2.821  11.490  0.7723  1.1604  0.2296
  836MPD2    H212347   2.728   2.681  11.445 -1.1480 -1.1591 -1.9173
  836MPD2    H312348   2.510   2.754  11.348  1.7844  1.5184 -0.2220
  836MPD2     N12349   2.330   2.836  11.746 -0.3714 -0.4252  0.6046
  836MPD2    H512350   2.246   2.854  11.691  1.9828  1.4203 -2.3395
  836MPD2    N112351   2.795   2.688  11.694 -0.6267  0.4483  0.1967
  836MPD2    H712352   2.861   2.654  11.624 -1.7505 -0.5054 -0.3845
  837MPD2     C12353   0.885   1.987  10.232 -0.0828  0.3989  0.6785
  837MPD2    C112354   0.745   2.006  10.239  0.0991 -0.4237 -0.5338
  837MPD2    C212355   0.699   2.132  10.258  0.4216 -0.0517  0.0676
  837MPD2    C312356   0.783   2.244  10.260 -0.4153  0.0467 -1.0005
  837MPD2    C412357   0.918   2.229  10.258 -0.5541 -0.2351 -0.2341
  837MPD2    C512358   0.964   2.100  10.246 -0.1422 -0.3548  0.0968
  837MPD2     H12359   0.592   2.148  10.271  0.9957  2.4895  1.7126
  837MPD2    H112360   0.981   2.316  10.245 -0.9999 -0.4136 -3.4733
  837MPD2    H212361   0.931   1.889  10.222 -1.8582 -0.2899 -0.5274
  837MPD2    H312362   1.070   2.080  10.239  0.0035  0.6931 -0.7925
  837MPD2     N12363   0.719   2.372  10.258 -0.1665  0.5472 -0.9187
  837MPD2    H512364   0.617   2.377  10.256 -0.1843 -0.6056 -2.5206
  837MPD2    N112365   0.640   1.909  10.215 -0.5477 -0.2642 -0.7980
  837MPD2    H712366   0.544   1.941  10.215 -0.2533  0.6298  0.8838
  838MPD2     C12367   3.971   0.861  12.137  0.0222  0.0285  0.1174
  838MPD2    C112368   3.941   0.726  12.115 -0.3642  0.7563  0.3992
  838MPD2    C212369   3.841   0.670  12.197 -0.0169  0.0837  0.2149
  838MPD2    C312370   3.762   0.742  12.288 -0.0379  0.1950  0.2845
  838MPD2    C412371   3.806   0.866  12.315  0.0026 -0.6300  0.1000
  838MPD2    C512372   3.904   0.925  12.244 -0.0623  0.0979  0.1819
  838MPD2     H12373   3.817   0.566  12.182  2.1838 -0.3294 -0.3828
  838MPD2    H112374   3.754   0.924  12.391 -0.7341 -0.1921 -0.7310
  838MPD2    H212375   4.048   0.915  12.084  0.3917 -0.6029  0.0161
  838MPD2    H312376   3.936   1.024  12.275  1.1626 -0.0713 -0.5512
  838MPD2     N12377   3.651   0.672  12.344 -0.3773  0.0710 -0.6862
  838MPD2    H512378   3.626   0.588  12.292 -3.2034 -0.0834  0.9221
  838MPD2    N112379   4.005   0.654  12.015  0.1512 -0.3582  1.2099
  838MPD2    H712380   3.980   0.555  12.021  0.0625 -0.4924 -1.5273
  839MPD2     C12381   3.646   4.701  11.862  0.5041 -0.3497 -0.3580
  839MPD2    C112382   3.703   4.704  11.732 -0.2076 -0.5865 -0.1872
  839MPD2    C212383   3.801   0.068  11.724 -0.1865  0.0988 -0.2074
  839MPD2    C312384   3.851   0.138  11.828  0.3610  0.1103  0.1666
  839MPD2    C412385   3.805   0.119  11.957  0.0018 -0.1969  0.3380
  839MPD2    C512386   3.692   0.041  11.967 -0.0866  0.8434  0.1869
  839MPD2     H12387   3.847   0.086  11.628  2.1145  1.7524  1.2112
  839MPD2    H112388   3.852   0.171  12.040  0.8794  0.6285 -0.6857
  839MPD2    H212389   3.567   4.632  11.887 -0.9182  0.7954 -1.6810
  839MPD2    H312390   3.645   0.040  12.064 -2.2526 -1.1839 -0.8771
  839MPD2     N12391   3.937   0.245  11.805 -0.7172 -0.4425  0.5696
  839MPD2    H512392   3.943   0.299  11.891  0.7748  0.7427 -0.2773
  839MPD2    N112393   3.668   4.623  11.623 -0.0982  0.3666 -0.0237
  839MPD2    H712394   3.717   4.645  11.537 -0.5668  1.6083  0.0197
  840MPD2     C12395   4.096   2.602  10.431  0.2505  0.4869 -0.0136
  840MPD2    C112396   4.046   2.617  10.557  0.0808  0.3905 -0.2986
  840MPD2    C212397   4.125   2.664  10.667  0.0136 -0.6041  0.2445
  840MPD2    C312398   4.259   2.690  10.636 -0.5733  0.0168 -0.1228
  840MPD2    C412399   4.307   2.676  10.509  0.5443 -0.1190 -0.2956
  840MPD2    C512400   4.224   2.633  10.404 -0.4141 -0.5528 -0.5265
  840MPD2     H12401   4.078   2.675  10.764  0.0786 -2.8096  0.5154
  840MPD2    H112402   4.414   2.690  10.493  0.4822  0.1766 -0.4516
  840MPD2    H212403   4.038   2.572  10.345 -0.8893 -0.0132  0.9262
  840MPD2    H312404   4.252   2.612  10.301 -1.3246 -0.8289 -0.7179
  840MPD2     N12405   4.355   2.740  10.728 -0.4354  0.0440  0.6001
  840MPD2    H512406   4.449   2.747  10.692  0.0039 -0.3083  1.6701
  840MPD2    N112407   3.910   2.575  10.565 -0.1040  0.0518  0.3461
  840MPD2    H712408   3.858   2.537  10.487  0.6170 -0.1449 -0.0343
  841MPD2     C12409   3.938   3.079  14.789 -0.7178 -0.0960  0.1269
  841MPD2    C112410   4.016   2.966  14.812  0.4210 -0.1294  0.1593
  841MPD2    C212411   4.134   2.988  14.881  0.1529 -0.6107 -0.4860
  841MPD2    C312412   4.171   3.110  14.925  0.7506  0.1854 -0.2686
  841MPD2    C412413   4.096   3.217  14.900  0.0448 -0.2783 -0.2306
  841MPD2    C512414   3.982   3.200  14.829 -0.1808 -0.5964  0.3131
  841MPD2     H12415   4.195   2.902  14.907  1.0780 -0.0028 -0.6642
  841MPD2    H112416   4.127   3.314  14.939  0.1717 -0.8984  1.2455
  841MPD2    H212417   3.849   3.077  14.726  0.3316  0.2968 -1.3790
  841MPD2    H312418   3.922   3.289  14.812 -1.2857 -1.1091  1.5358
  841MPD2     N12419   4.289   3.117  15.004  0.8054 -0.4677 -0.1396
  841MPD2    H512420   4.337   3.029  15.015  1.3781 -0.0707  0.5551
  841MPD2    N112421   3.994   2.837  14.779  0.0939  0.7913 -0.5626
  841MPD2    H712422   4.070   2.773  14.803 -0.9434 -0.4269 -0.5118
  842MPD2     C12423   0.089   3.675  16.456 -1.0983  0.1996  0.3377
  842MPD2    C112424   4.718   3.603  16.480 -0.3196  0.4559 -0.5439
  842MPD2    C212425   4.689   3.567  16.609 -0.4554 -0.0320 -0.3779
  842MPD2    C312426   0.042   3.595  16.713 -0.5093  0.8582  0.3733
  842MPD2    C412427   0.147   3.677  16.683 -0.3545 -0.6624  1.3584
  842MPD2    C512428   0.172   3.710  16.555  0.1463 -0.2423  0.5257
  842MPD2     H12429   4.607   3.499  16.631  1.4477 -1.8019  1.2033
  842MPD2    H112430   0.209   3.716  16.763  0.7248  2.1180 -0.8226
  842MPD2    H212431   0.114   3.695  16.353 -2.4263 -1.5916 -0.3271
  842MPD2    H312432   0.257   3.773  16.529  0.2908 -1.1424 -1.1647
  842MPD2     N12433   0.026   3.557  16.850  0.1695  0.2832  0.1515
  842MPD2    H512434   0.089   3.600  16.917  1.1891 -0.0793 -0.5727
  842MPD2    N112435   4.620   3.586  16.375  0.2045 -0.3065  0.1396
  842MPD2    H712436   4.650   3.631  16.289  0.2252 -0.7515 -0.0840
  843MPD2     C12437   1.809   0.188  17.397 -0.3728  0.4429  0.7656
  843MPD2    C112438   1.905   0.107  17.463 -0.3365  0.0549  0.2492
  843MPD2    C212439   1.994   0.168  17.548 -0.2334 -0.1080  0.3339
  843MPD2    C312440   1.987   0.314  17.563 -0.8577  0.0531 -0.4979
  843MPD2    C412441   1.874   0.384  17.509 -0.4907  0.3354  0.5120
  843MPD2    C512442   1.794   0.326  17.417  0.2812 -0.3247  0.0242
  843MPD2     H12443   2.072   0.117  17.603  0.7894  2.0477  0.8944
  843MPD2    H112444   1.855   0.490  17.523 -2.8122 -0.2568  1.9003
  843MPD2    H212445   1.735   0.149  17.329 -1.1711  0.3323  1.6940
  843MPD2    H312446   1.713   0.387  17.377  3.7516  3.7316 -0.8311
  843MPD2     N12447   2.082   0.392  17.634  0.9296  0.1736 -0.7297
  843MPD2    H512448   2.059   0.490  17.651 -0.1222 -0.8099  3.3059
  843MPD2    N112449   1.896   4.706  17.451 -0.4305 -0.0807 -0.2350
  843MPD2    H712450   1.817   4.669  17.399 -0.6500  1.0756 -0.7268
  844MPD2     C12451   0.392   2.864  16.250 -0.3086 -0.3731  0.5240
  844MPD2    C112452   0.483   2.913  16.157 -0.3852  0.8136  0.3391
  844MPD2    C212453   0.570   3.018  16.190 -0.0926  0.1424  0.2801
  844MPD2    C312454   0.554   3.081  16.314 -0.1170 -0.4720  0.7634
  844MPD2    C412455   0.462   3.036  16.408 -0.6038  0.6294 -0.5888
  844MPD2    C512456   0.381   2.928  16.373 -0.3105  0.1226  0.3984
  844MPD2     H12457   0.646   3.056  16.122 -1.8524  1.6566 -0.8670
  844MPD2    H112458   0.453   3.082  16.506 -1.0896 -0.8726  0.0615
  844MPD2    H212459   0.330   2.777  16.233 -0.3671 -0.2376  0.0495
  844MPD2    H312460   0.315   2.882  16.446 -1.2832 -1.4615 -1.4726
  844MPD2     N12461   0.649   3.189  16.339  0.0930  0.3035 -0.2897
  844MPD2    H512462   0.698   3.218  16.255 -0.1281 -1.3085 -0.9670
  844MPD2    N112463   0.519   2.835  16.040 -0.1883 -1.3779  0.3173
  844MPD2    H712464   0.585   2.876  15.974 -1.4016 -0.3595 -0.2584
  845MPD2     C12465   0.918   4.144  16.219 -0.2081  0.8312 -0.0120
  845MPD2    C112466   0.976   4.115  16.342  0.3102 -0.0788 -0.0194
  845MPD2    C212467   0.969   3.979  16.385 -0.5251 -0.3263  0.9656
  845MPD2    C312468   0.913   3.874  16.310  0.2418 -0.4262 -0.5169
  845MPD2    C412469   0.862   3.913  16.185  0.6277  0.0237 -0.6454
  845MPD2    C512470   0.870   4.045  16.147 -0.0640  0.4182 -0.3883
  845MPD2     H12471   1.028   3.945  16.470  0.9423  0.8422  0.4144
  845MPD2    H112472   0.818   3.843  16.115  1.9057 -2.1237  0.6909
  845MPD2    H212473   0.936   4.244  16.181  0.8456  0.2190 -1.0965
  845MPD2    H312474   0.836   4.065  16.046  0.3751  0.2177 -0.5776
  845MPD2     N12475   0.915   3.746  16.359 -0.2718 -0.0017 -0.3649
  845MPD2    H512476   0.963   3.734  16.448  0.3016  1.1487 -0.5230
  845MPD2    N112477   1.029   4.224  16.414  0.1710  0.1905 -0.5197
  845MPD2    H712478   1.023   4.314  16.369 -0.2279  0.7779  0.7257
  846MPD2     C12479   1.966   4.057  13.475  0.6946 -0.2611  0.0748
  846MPD2    C112480   1.927   4.189  13.483 -0.8437 -1.0071 -0.5674
  846MPD2    C212481   1.888   4.244  13.602  0.2096  0.1995 -0.4629
  846MPD2    C312482   1.899   4.166  13.718 -0.1491 -0.1542 -0.1866
  846MPD2    C412483   1.931   4.030  13.713 -0.2069 -0.0631 -0.3336
  846MPD2    C512484   1.971   3.978  13.586 -0.1706 -0.6796  0.6006
  846MPD2     H12485   1.853   4.347  13.602 -0.5364 -0.0496 -1.3748
  846MPD2    H112486   1.947   3.969  13.801  2.2181  1.6342  0.4151
  846MPD2    H212487   2.005   4.023  13.380  0.2134 -0.2963 -0.1081
  846MPD2    H312488   2.020   3.883  13.571 -0.3004 -0.7026  0.3337
  846MPD2     N12489   1.881   4.227  13.849 -0.4698 -0.1378 -0.0072
  846MPD2    H512490   1.836   4.318  13.839 -0.0953 -0.0919 -1.2816
  846MPD2    N112491   1.934   4.267  13.368 -0.1719 -0.0702  0.2533
  846MPD2    H712492   1.908   4.365  13.369 -0.2591 -0.0756 -1.0426
  847MPD2     C12493   2.167   0.414  13.775  0.9563 -0.5170 -0.1470
  847MPD2    C112494   2.239   0.518  13.833  0.0148  0.2463  0.6470
  847MPD2    C212495   2.317   0.494  13.947 -0.4454  0.2904  1.0368
  847MPD2    C312496   2.311   0.375  14.012  0.4808 -0.6132 -0.2052
  847MPD2    C412497   2.243   0.273  13.950 -0.7070  0.0103  0.6205
  847MPD2    C512498   2.175   0.291  13.834 -0.6551 -0.0195  0.6839
  847MPD2     H12499   2.389   0.563  13.988 -0.4439  0.7045  0.3423
  847MPD2    H112500   2.231   0.173  13.990 -1.6679  0.2608  0.9566
  847MPD2    H212501   2.119   0.429  13.679  0.0893  1.4891  0.5843
  847MPD2    H312502   2.114   0.213  13.789 -1.8894  0.2874  1.8267
  847MPD2     N12503   2.395   0.372  14.123 -0.3696 -0.7032  0.6221
  847MPD2    H512504   2.447   0.458  14.139  0.1124 -1.2977  2.2866
  847MPD2    N112505   2.241   0.650  13.772 -0.7659  0.4200  0.1134
  847MPD2    H712506   2.293   0.721  13.821  1.9832 -3.2758  2.5745
  848MPD2     C12507   0.443   3.765  15.967  0.4190  0.0030  0.0701
  848MPD2    C112508   0.452   3.816  16.094  0.7657  0.1060  0.7957
  848MPD2    C212509   0.453   3.955  16.103 -0.0407 -0.2313  0.2257
  848MPD2    C312510   0.453   4.043  15.995 -0.4712 -0.5907  0.3895
  848MPD2    C412511   0.447   3.987  15.871  0.1321 -0.1087 -1.0284
  848MPD2    C512512   0.442   3.848  15.856  0.9707 -0.2755  0.1755
  848MPD2     H12513   0.449   3.981  16.208  0.9768  0.3826  0.1095
  848MPD2    H112514   0.431   4.045  15.781 -1.2363  0.2133 -0.5780
  848MPD2    H212515   0.420   3.660  15.956 -2.4878  0.5010  1.3020
  848MPD2    H312516   0.437   3.807  15.755  3.1442 -0.3151  0.0887
  848MPD2     N12517   0.421   4.184  16.015 -0.3499 -0.5457 -0.1781
  848MPD2    H512518   0.388   4.232  15.931 -0.0549  0.3389  0.2088
  848MPD2    N112519   0.459   3.736  16.215  0.2539 -0.2678  0.2137
  848MPD2    H712520   0.484   3.785  16.299 -0.2782  0.3083  0.0354
  849MPD2     C12521   3.697   3.267  14.220  0.2093 -0.5958 -0.4773
  849MPD2    C112522   3.799   3.357  14.200 -0.2624  0.3652 -0.6359
  849MPD2    C212523   3.882   3.393  14.300  0.5479 -0.3233 -0.6932
  849MPD2    C312524   3.881   3.321  14.420  0.3768  0.2498 -0.1697
  849MPD2    C412525   3.778   3.235  14.446 -0.1741 -0.0594 -0.1586
  849MPD2    C512526   3.687   3.207  14.344  0.6427  0.1288 -0.2118
  849MPD2     H12527   3.971   3.455  14.292  0.7253 -0.7142 -1.8343
  849MPD2    H112528   3.764   3.177  14.537 -1.6466 -1.2649 -1.1575
  849MPD2    H212529   3.619   3.232  14.152 -2.1087  0.7964  1.4552
  849MPD2    H312530   3.600   3.147  14.371 -0.6622  2.2679  0.3960
  849MPD2     N12531   3.977   3.336  14.528 -0.3368  1.2064  0.1362
  849MPD2    H512532   3.980   3.257  14.592 -1.4561  0.7748 -0.3415
  849MPD2    N112533   3.809   3.422  14.072 -0.5827  0.7317  0.0708
  849MPD2    H712534   3.761   3.375  13.996 -0.3109 -3.0607  2.2057
  850MPD2     C12535   2.133   1.547  14.402 -0.7417 -0.5722 -0.0670
  850MPD2    C112536   2.129   1.644  14.508  0.2374 -0.1827 -0.0913
  850MPD2    C212537   2.252   1.684  14.563  0.2275  0.4869 -0.1820
  850MPD2    C312538   2.370   1.626  14.516  0.0723  0.3319  0.3415
  850MPD2    C412539   2.371   1.537  14.413 -0.2985  0.4655  0.4550
  850MPD2    C512540   2.253   1.501  14.353  0.1473  0.9401  0.0888
  850MPD2     H12541   2.251   1.756  14.644 -1.6119 -0.3485  0.5491
  850MPD2    H112542   2.462   1.483  14.391 -0.2192 -0.2361  2.5192
  850MPD2    H212543   2.040   1.519  14.355 -2.0230  2.1840  0.8476
  850MPD2    H312544   2.249   1.415  14.289  0.1083  2.4592 -1.9410
  850MPD2     N12545   2.494   1.650  14.578  0.2998  0.6598 -0.0942
  850MPD2    H512546   2.575   1.613  14.529  1.1569 -1.0437  2.5828
  850MPD2    N112547   1.999   1.700  14.550 -0.3706  0.2084  0.6862
  850MPD2    H712548   1.931   1.689  14.476  0.4871  0.4162 -0.1356
  851MPD2     C12549   2.526   1.477  15.196  0.5253 -0.7159  0.1897
  851MPD2    C112550   2.432   1.438  15.108  0.0191 -0.2479  0.5240
  851MPD2    C212551   2.426   1.308  15.068  0.2246  0.2397 -0.2677
  851MPD2    C312552   2.525   1.222  15.109  0.0360  0.3223  0.3446
  851MPD2    C412553   2.628   1.261  15.184 -0.4641  0.5293 -0.6593
  851MPD2    C512554   2.621   1.385  15.233 -0.1477 -0.5678 -0.4298
  851MPD2     H12555   2.335   1.279  15.018 -0.6091  2.5479 -0.0596
  851MPD2    H112556   2.698   1.192  15.229  0.7053  0.9924 -1.7845
  851MPD2    H212557   2.539   1.573  15.245 -0.7330  0.5116 -1.8957
  851MPD2    H312558   2.700   1.404  15.305 -0.2499  0.2091 -0.5286
  851MPD2     N12559   2.522   1.088  15.067  0.1819  0.1388  0.2304
  851MPD2    H512560   2.439   1.052  15.021  1.4162 -2.1328 -0.2516
  851MPD2    N112561   2.333   1.538  15.065  0.1207  0.0541  0.2954
  851MPD2    H712562   2.349   1.632  15.100 -0.5745  0.3724 -0.2354
  852MPD2     C12563   1.471   4.361  10.582 -0.2601 -0.7349 -0.0694
  852MPD2    C112564   1.575   4.300  10.652  0.3459 -0.2480 -0.6419
  852MPD2    C212565   1.702   4.299  10.606  0.3340  0.0082 -0.2945
  852MPD2    C312566   1.740   4.375  10.499  0.5568  0.1074  0.0997
  852MPD2    C412567   1.634   4.431  10.431 -0.4999 -0.4777 -0.9443
  852MPD2    C512568   1.503   4.415  10.466  0.0546  0.3448  0.5015
  852MPD2     H12569   1.783   4.271  10.673  0.2960  0.0535 -0.2295
  852MPD2    H112570   1.659   4.483  10.339  0.8329 -0.4068 -0.5414
  852MPD2    H212571   1.366   4.359  10.606 -0.6444 -2.5626 -1.9545
  852MPD2    H312572   1.433   4.463  10.399  1.6201 -1.0131 -2.1027
  852MPD2     N12573   1.876   4.377  10.465 -0.8109 -0.3103 -0.0972
  852MPD2    H512574   1.946   4.330  10.521  0.6011  0.1381 -1.4856
  852MPD2    N112575   1.551   4.235  10.782 -0.8548 -0.1699  0.1256
  852MPD2    H712576   1.628   4.184  10.825 -1.2850  1.6312  3.0057
  853MPD2     C12577   3.818   4.103  12.280  0.3284 -0.4954  0.3662
  853MPD2    C112578   3.745   3.994  12.314  0.0430 -0.5497  0.2598
  853MPD2    C212579   3.746   3.888  12.218 -0.1360 -0.3194 -0.5003
  853MPD2    C312580   3.817   3.891  12.103 -0.0295 -0.0270  0.1377
  853MPD2    C412581   3.895   4.004  12.078 -0.0776 -0.0223  0.9308
  853MPD2    C512582   3.887   4.111  12.164 -0.0190  0.3577 -0.0305
  853MPD2     H12583   3.693   3.797  12.244 -0.0169  0.4502  2.4444
  853MPD2    H112584   3.956   4.020  11.989 -1.4278  0.9473  0.1882
  853MPD2    H212585   3.821   4.195  12.337 -0.1120 -0.9605  1.1491
  853MPD2    H312586   3.949   4.199  12.153  0.7789 -0.2507 -0.3871
  853MPD2     N12587   3.810   3.788  12.005  0.1477  0.4517 -0.0206
  853MPD2    H512588   3.734   3.720  12.007 -0.5166  1.2666  2.4448
  853MPD2    N112589   3.689   3.996  12.445 -0.0164  0.5100 -0.6425
  853MPD2    H712590   3.716   4.075  12.503  2.2612  0.0705 -1.1247
  854MPD2     C12591   0.337   4.134  13.074 -0.7307  0.3552 -0.3710
  854MPD2    C112592   0.414   4.216  12.990  0.1246  0.1364  0.6069
  854MPD2    C212593   0.553   4.206  12.999  0.1967 -0.3733 -0.1896
  854MPD2    C312594   0.615   4.116  13.077 -0.5836 -0.2513  0.0117
  854MPD2    C412595   0.543   4.025  13.158  0.5916  0.3042 -0.3324
  854MPD2    C512596   0.405   4.034  13.146 -0.3659  0.6473 -0.2600
  854MPD2     H12597   0.612   4.274  12.938 -3.2274  1.5110 -1.3992
  854MPD2    H112598   0.583   3.949  13.224 -0.0264 -1.9875 -2.5575
  854MPD2    H212599   0.230   4.144  13.083 -0.6298 -0.9688  2.1664
  854MPD2    H312600   0.342   3.965  13.201  2.5618 -2.1175 -0.3937
  854MPD2     N12601   0.758   4.097  13.074  0.1158  0.0546  0.7354
  854MPD2    H512602   0.799   4.019  13.124  0.0785 -0.0770  0.5598
  854MPD2    N112603   0.353   4.306  12.911  0.2386 -0.5241 -0.0958
  854MPD2    H712604   0.252   4.308  12.914  0.1908 -2.1553 -0.4379
  855MPD2     C12605   1.252   3.998  13.752 -0.2504  0.3452 -0.3278
  855MPD2    C112606   1.226   3.884  13.679  0.3847 -0.1358  0.6313
  855MPD2    C212607   1.191   3.904  13.545 -0.2864 -0.4890 -0.3618
  855MPD2    C312608   1.186   4.032  13.488 -0.5397  0.4021 -0.0077
  855MPD2    C412609   1.189   4.148  13.570 -0.3444  0.1713  0.2849
  855MPD2    C512610   1.225   4.126  13.699 -0.7900 -0.5890  0.1995
  855MPD2     H12611   1.159   3.821  13.482 -0.1768 -0.3415 -0.6125
  855MPD2    H112612   1.190   4.253  13.540 -0.6471 -0.0791 -0.5835
  855MPD2    H212613   1.295   3.994  13.851 -1.4591  0.0962  0.1939
  855MPD2    H312614   1.252   4.218  13.750  0.1891 -1.1927  0.7584
  855MPD2     N12615   1.168   4.049  13.347 -0.4423 -0.0772 -0.3235
  855MPD2    H512616   1.156   4.144  13.312  1.6078  0.5407  0.6210
  855MPD2    N112617   1.238   3.754  13.743 -0.2462 -0.2064 -0.7331
  855MPD2    H712618   1.223   3.673  13.684  0.7987 -0.7091 -0.3146
  856MPD2     C12619   3.314   4.405  14.264 -0.0485 -0.1037  0.2446
  856MPD2    C112620   3.355   4.490  14.169  0.0182 -0.0527  0.5569
  856MPD2    C212621   3.269   4.542  14.076  0.3066  0.1524  0.0193
  856MPD2    C312622   3.133   4.518  14.080  0.0067  0.2442  0.5082
  856MPD2    C412623   3.085   4.430  14.175 -0.6138 -0.0109  0.3117
  856MPD2    C512624   3.183   4.378  14.265  0.3844 -0.9203 -0.3330
  856MPD2     H12625   3.309   4.601  13.994  0.9267  0.6682  0.7056
  856MPD2    H112626   2.981   4.401  14.184 -0.1837 -1.3961  0.8007
  856MPD2    H212627   3.389   4.356  14.325  0.1471  1.9515  1.6618
  856MPD2    H312628   3.155   4.296  14.330 -0.2523 -0.6032 -0.2073
  856MPD2     N12629   3.040   4.560  13.977  0.3619 -1.0374  0.2014
  856MPD2    H512630   2.940   4.549  13.992 -0.1350 -1.1718 -3.1397
  856MPD2    N112631   3.494   4.528  14.172  0.2834  0.1827 -0.6862
  856MPD2    H712632   3.517   4.594  14.099 -2.0320 -0.6858 -2.2031
  857MPD2     C12633   4.483   1.916  13.315  0.6776 -0.7998 -0.7154
  857MPD2    C112634   4.601   1.929  13.244 -0.2030  0.3359 -0.0530
  857MPD2    C212635   4.701   1.996  13.308 -0.2675 -0.0793  0.2287
  857MPD2    C312636   4.687   2.058  13.431  0.2258  0.2695  0.0609
  857MPD2    C412637   4.561   2.066  13.482  0.4886  0.0891  0.6568
  857MPD2    C512638   4.461   1.986  13.430 -0.0968 -0.7882  0.2583
  857MPD2     H12639   0.050   2.016  13.246  0.3254  0.0120  1.0856
  857MPD2    H112640   4.542   2.125  13.571  2.7596  0.4148  0.9303
  857MPD2    H212641   4.403   1.860  13.268 -1.4450  0.8468  0.9831
  857MPD2    H312642   4.361   1.981  13.471  0.1080 -2.1842  0.5816
  857MPD2     N12643   0.054   2.156  13.468  0.2224  0.5526  0.2430
  857MPD2    H512644   0.139   2.171  13.414  0.9076  1.0266  1.4592
  857MPD2    N112645   4.602   1.876  13.113  0.0652  0.2972  0.3631
  857MPD2    H712646   4.525   1.818  13.082  0.1344  1.3910 -1.8793
  858MPD2     C12647   0.856   1.759  16.075  0.2221  0.0409  0.4395
  858MPD2    C112648   0.834   1.626  16.101 -0.0551 -0.0598 -0.2428
  858MPD2    C212649   0.816   1.579  16.231 -0.1453 -0.5954  0.3398
  858MPD2    C312650   0.805   1.678  16.333 -0.1012 -0.2167 -0.5724
  858MPD2    C412651   0.810   1.814  16.304 -0.0964 -0.0643 -0.5060
  858MPD2    C512652   0.843   1.846  16.177 -0.4587 -0.6065  0.1088
  858MPD2     H12653   0.805   1.472  16.244 -0.5581 -0.2820  2.4546
  858MPD2    H112654   0.823   1.888  16.382  2.5125  0.1885 -1.1925
  858MPD2    H212655   0.886   1.795  15.978 -0.1776  1.0812  0.7050
  858MPD2    H312656   0.865   1.949  16.154 -1.4737 -0.8294 -1.8253
  858MPD2     N12657   0.778   1.653  16.474  0.1359  0.0844  0.3983
  858MPD2    H512658   0.734   1.733  16.519 -0.2879 -1.1073  2.0836
  858MPD2    N112659   0.856   1.544  15.990 -0.1849  0.5829  0.7421
  858MPD2    H712660   0.862   1.594  15.902 -0.4602 -0.1219  0.3276
  859MPD2     C12661   3.572   3.259  15.361 -0.4223  0.3509  0.1974
  859MPD2    C112662   3.708   3.253  15.384  0.1630 -0.1535  0.4741
  859MPD2    C212663   3.754   3.166  15.481  0.3054 -0.1155  0.1345
  859MPD2    C312664   3.670   3.087  15.549  0.3281 -0.8388  0.7685
  859MPD2    C412665   3.535   3.080  15.520 -0.3529 -0.2106  0.3188
  859MPD2    C512666   3.489   3.171  15.428 -0.0847  0.5975  0.7521
  859MPD2     H12667   3.861   3.165  15.502  0.4782  2.9850 -0.5233
  859MPD2    H112668   3.468   3.013  15.574  0.0858  0.0070  1.1343
  859MPD2    H212669   3.530   3.325  15.286 -2.9445 -0.6195  0.7603
  859MPD2    H312670   3.386   3.168  15.395  0.7536  2.4746 -2.0839
  859MPD2     N12671   3.733   3.002  15.639 -0.5437 -0.1848 -0.5667
  859MPD2    H512672   3.834   2.999  15.630 -0.3572  0.7417  1.1567
  859MPD2    N112673   3.787   3.343  15.297  0.8673 -0.1231  0.3480
  859MPD2    H712674   3.733   3.400  15.232 -0.0446 -0.3961  0.8580
  860MPD2     C12675   1.111   3.344  11.556  0.6154 -0.1220 -0.1748
  860MPD2    C112676   1.186   3.366  11.672 -0.3711 -0.9727 -0.5416
  860MPD2    C212677   1.119   3.376  11.794  0.9341  0.2736 -0.0140
  860MPD2    C312678   0.983   3.356  11.799 -0.0726  0.3361  0.6376
  860MPD2    C412679   0.915   3.313  11.692  0.2041 -0.2253 -0.7065
  860MPD2    C512680   0.979   3.312  11.570 -0.2348  0.4387 -0.3836
  860MPD2     H12681   1.188   3.399  11.874 -0.4037  0.7406  0.9923
  860MPD2    H112682   0.811   3.282  11.696  0.8116 -2.1272  0.6252
  860MPD2    H212683   1.154   3.347  11.457  1.2896  0.1482  0.1271
  860MPD2    H312684   0.915   3.292  11.485 -0.2621  1.9804 -0.7164
  860MPD2     N12685   0.920   3.337  11.924  0.2528  0.1774  0.6923
  860MPD2    H512686   0.819   3.342  11.918  0.3393  2.6529  1.3719
  860MPD2    N112687   1.319   3.406  11.673 -0.1143  0.1175  0.2089
  860MPD2    H712688   1.345   3.456  11.758 -1.7589 -0.7174  1.1992
  861MPD2     C12689   4.222   1.654  11.316 -0.0721 -0.0263  0.9216
  861MPD2    C112690   4.327   1.741  11.324 -0.2743 -0.0317 -0.1069
  861MPD2    C212691   4.345   1.834  11.226 -0.2278  0.3600 -0.2809
  861MPD2    C312692   4.257   1.856  11.123  0.3882  0.1024  0.4090
  861MPD2    C412693   4.153   1.766  11.112 -0.4444 -0.0742  0.2090
  861MPD2    C512694   4.140   1.668  11.207 -0.5224 -0.8496 -0.6160
  861MPD2     H12695   4.431   1.898  11.234 -0.0575 -0.2151  2.3624
  861MPD2    H112696   4.082   1.779  11.031  0.3236 -0.2446 -0.4888
  861MPD2    H212697   4.193   1.590  11.399  1.0940 -0.0573  1.3005
  861MPD2    H312698   4.062   1.593  11.192 -0.8022 -0.7680  0.4013
  861MPD2     N12699   4.261   1.964  11.036  0.1214 -0.2798 -0.5099
  861MPD2    H512700   4.176   1.977  10.982 -0.2607  1.1886  0.4370
  861MPD2    N112701   4.418   1.736  11.434  0.1708 -0.3729 -0.5360
  861MPD2    H712702   4.508   1.781  11.422  0.5518 -0.7478  0.8882
  862MPD2     C12703   4.257   2.177  10.348  0.3539 -0.6581 -0.0661
  862MPD2    C112704   4.311   2.092  10.442 -0.2567 -0.0872  0.0285
  862MPD2    C212705   4.329   1.960  10.410  0.0155 -0.2684 -0.6051
  862MPD2    C312706   4.312   1.914  10.285 -0.4078 -0.1453  0.7319
  862MPD2    C412707   4.264   2.001  10.191  0.0410 -0.8712 -0.1124
  862MPD2    C512708   4.241   2.129  10.222 -0.3752  0.2684  0.1331
  862MPD2     H12709   4.375   1.894  10.484 -0.6559  0.1237  0.1658
  862MPD2    H112710   4.245   1.974  10.088 -0.9093  0.5787 -0.3100
  862MPD2    H212711   4.233   2.283  10.358  1.4773 -0.5216  1.3002
  862MPD2    H312712   4.211   2.197  10.144 -1.9753 -1.4037 -0.7219
  862MPD2     N12713   4.342   1.787  10.234  0.0490  0.5407  0.3954
  862MPD2    H512714   4.319   1.766  10.137  0.1182  4.3934 -0.4462
  862MPD2    N112715   4.332   2.133  10.577  0.8676 -0.0361  0.1017
  862MPD2    H712716   4.356   2.054  10.637 -0.5646  1.1233  2.2013
  863MPD2     C12717   3.727   0.050  16.144  0.2563  0.5578  0.2145
  863MPD2    C112718   3.659   0.120  16.245 -0.2303  0.5773 -0.5272
  863MPD2    C212719   3.726   0.154  16.364  0.2715  0.0875 -0.1422
  863MPD2    C312720   3.864   0.143  16.363 -0.0529  0.2883 -0.1382
  863MPD2    C412721   3.936   0.101  16.250 -0.3872  0.6733  0.3706
  863MPD2    C512722   3.861   0.051  16.148  0.5887 -0.7262  0.5107
  863MPD2     H12723   3.672   0.196  16.448  1.7619 -2.1397  1.9296
  863MPD2    H112724   4.044   0.099  16.239 -0.6281 -0.3169 -1.8788
  863MPD2    H212725   3.671   0.019  16.056 -0.1160 -2.7082  1.6056
  863MPD2    H312726   3.909   0.012  16.059  0.5318  0.4410 -0.0264
  863MPD2     N12727   3.948   0.179  16.474  0.4931 -0.8182  0.6999
  863MPD2    H512728   4.049   0.174  16.465  0.1104  0.6737 -4.1997
  863MPD2    N112729   3.520   0.139  16.226  0.0152 -0.0735 -0.0593
  863MPD2    H712730   3.485   0.086  16.146  0.6590  0.7449 -0.8835
  864MPD2     C12731   4.298   1.560  16.689 -0.6199  0.5332 -0.1944
  864MPD2    C112732   4.314   1.492  16.573  0.8528 -0.4138  0.5239
  864MPD2    C212733   4.370   1.562  16.466 -0.4640  0.0048 -0.2038
  864MPD2    C312734   4.422   1.688  16.482  0.5960  0.3028  0.3398
  864MPD2    C412735   4.416   1.745  16.608  0.2461 -0.5218 -0.3374
  864MPD2    C512736   4.347   1.686  16.707  0.1476 -0.0384 -0.0454
  864MPD2     H12737   4.379   1.512  16.370  1.1103  1.3217 -0.7291
  864MPD2    H112738   4.465   1.841  16.621 -0.3735 -0.6846  3.1296
  864MPD2    H212739   4.243   1.516  16.772 -0.1978 -0.5548 -0.4900
  864MPD2    H312740   4.337   1.740  16.801 -0.5270  0.2774 -0.3061
  864MPD2     N12741   4.485   1.768  16.385 -0.3135 -0.1472  0.0263
  864MPD2    H512742   4.528   1.852  16.422 -1.0077 -0.7972  2.3528
  864MPD2    N112743   4.250   1.365  16.572  0.2721 -0.0136 -0.2592
  864MPD2    H712744   4.193   1.339  16.653 -1.1006  0.6206 -1.0182
  865MPD2     C12745   4.399   1.590  15.379 -0.2549 -0.3062 -0.0660
  865MPD2    C112746   4.467   1.531  15.484 -0.2382 -0.6171 -0.0812
  865MPD2    C212747   4.499   1.606  15.595 -0.1418  0.3371 -0.9104
  865MPD2    C312748   4.487   1.744  15.606  0.2960 -0.0261  0.6394
  865MPD2    C412749   4.424   1.804  15.500  0.0555  0.3979  0.2813
  865MPD2    C512750   4.381   1.726  15.389 -0.3019  0.4380  0.1835
  865MPD2     H12751   4.551   1.552  15.673 -1.7185  1.5159  0.9528
  865MPD2    H112752   4.412   1.911  15.493  1.3743  0.5480  0.2722
  865MPD2    H212753   4.346   1.529  15.307  0.4671  0.3959 -1.1824
  865MPD2    H312754   4.325   1.783  15.315 -0.0568  0.2814 -0.1213
  865MPD2     N12755   4.536   1.814  15.719  0.3040 -0.4125  0.3964
  865MPD2    H512756   4.502   1.909  15.728  0.2498 -0.4953  1.0527
  865MPD2    N112757   4.488   1.390  15.479  0.5037  0.5247  0.0727
  865MPD2    H712758   4.459   1.363  15.385  1.7255 -0.0164 -0.1420
  866MPD2     C12759   0.869   1.936  11.005  0.6046 -0.0145  0.0222
  866MPD2    C112760   0.827   2.016  10.904 -0.6638  0.3456  0.0838
  866MPD2    C212761   0.704   2.077  10.919 -0.1060 -0.3817 -0.9403
  866MPD2    C312762   0.626   2.051  11.025 -0.0236  0.3850 -0.8879
  866MPD2    C412763   0.670   1.963  11.124  0.0387 -0.0056 -0.1526
  866MPD2    C512764   0.793   1.911  11.116  0.0034  0.0555 -0.6005
  866MPD2     H12765   0.665   2.133  10.835  1.1247 -0.4215 -1.5401
  866MPD2    H112766   0.607   1.922  11.202 -1.4223  0.4437 -1.0922
  866MPD2    H212767   0.971   1.901  11.015  0.2782 -1.0900 -0.3187
  866MPD2    H312768   0.827   1.841  11.192 -3.5858 -1.3635 -0.2490
  866MPD2     N12769   0.493   2.101  11.023  0.5115 -0.1458  0.4065
  866MPD2    H512770   0.471   2.161  10.944  0.2191 -1.1554 -0.2805
  866MPD2    N112771   0.911   2.035  10.797 -0.4480 -0.2945  0.4122
  866MPD2    H712772   0.982   1.964  10.780 -0.0868  0.0629  0.4313
  867MPD2     C12773   3.062   1.415  16.420 -0.5664  0.5318  0.8371
  867MPD2    C112774   3.190   1.373  16.451  0.1776  0.3535  0.5481
  867MPD2    C212775   3.294   1.469  16.445 -0.0107  0.0033 -0.8451
  867MPD2    C312776   3.266   1.604  16.423  0.1579  0.0688  0.1816
  867MPD2    C412777   3.141   1.638  16.390  0.1583  0.2583 -0.6374
  867MPD2    C512778   3.045   1.542  16.387 -0.2927  0.4976 -0.5281
  867MPD2     H12779   3.394   1.429  16.459 -0.4218 -0.6132  0.3463
  867MPD2    H112780   3.120   1.737  16.353  0.4613  0.8150  0.7053
  867MPD2    H212781   2.984   1.339  16.428  1.3195 -1.4800  0.1554
  867MPD2    H312782   2.952   1.577  16.344 -1.0563 -1.9648 -0.8380
  867MPD2     N12783   3.363   1.699  16.406 -0.7126  0.0043 -0.1459
  867MPD2    H512784   3.330   1.786  16.365  0.4627  0.4622 -0.1118
  867MPD2    N112785   3.212   1.245  16.501  0.1930  0.7584  0.5585
  867MPD2    H712786   3.140   1.175  16.483  0.5642  0.7917 -1.0529
  868MPD2     C12787   0.480   0.494  12.894  0.3550 -0.0780  0.0756
  868MPD2    C112788   0.487   0.358  12.875 -1.0354 -0.6083 -0.2517
  868MPD2    C212789   0.416   0.286  12.973  0.4517  0.5816  0.4524
  868MPD2    C312790   0.335   0.340  13.064  0.0763 -0.0120 -0.0474
  868MPD2    C412791   0.327   0.476  13.073  0.3714  0.0397 -0.3269
  868MPD2    C512792   0.398   0.555  12.991  0.0587 -0.2139 -0.2613
  868MPD2     H12793   0.401   0.181  12.953 -1.4027  1.0569 -0.7163
  868MPD2    H112794   0.265   0.531  13.143 -1.4250 -2.3885 -0.0324
  868MPD2    H212795   0.532   0.568  12.835 -0.5714  1.0348  0.6493
  868MPD2    H312796   0.391   0.662  13.004 -0.8785  0.0108 -2.6306
  868MPD2     N12797   0.251   0.255  13.129 -0.4364  0.3097 -0.3509
  868MPD2    H512798   0.264   0.155  13.125 -1.3924  0.1706 -0.1170
  868MPD2    N112799   0.571   0.310  12.772 -0.2224  0.1792 -0.4306
  868MPD2    H712800   0.611   0.381  12.712 -0.7875 -0.8932 -2.0896
  869MPD2     C12801   1.613   2.993   0.229  0.4458  0.0990 -0.1815
  869MPD2    C112802   1.545   3.055   0.335  0.0434  0.1647 -0.5583
  869MPD2    C212803   1.589   3.193   0.365 -0.3835 -0.3342  0.4502
  869MPD2    C312804   1.693   3.257   0.301  0.5776 -0.4267  0.3790
  869MPD2    C412805   1.758   3.184   0.200  0.3541 -0.7767  0.9906
  869MPD2    C512806   1.715   3.060   0.163 -0.3729 -0.3020  0.2546
  869MPD2     H12807   1.530   3.250   0.435 -1.0115  0.1815 -0.4963
  869MPD2    H112808   1.848   3.226   0.157 -1.3030 -0.3829 -2.0266
  869MPD2    H212809   1.579   2.898   0.189  0.1721 -1.0696  2.8388
  869MPD2    H312810   1.779   2.998   0.101 -0.8074 -2.1766  1.6878
  869MPD2     N12811   1.745   3.384   0.334 -0.6374  0.4214 -0.8181
  869MPD2    H512812   1.821   3.417   0.275  0.9198 -0.8231  0.4758
  869MPD2    N112813   1.434   2.993   0.385  0.0655 -0.9740 -0.2669
  869MPD2    H712814   1.418   2.899   0.350 -1.8840 -0.2509 -1.3688
  870MPD2     C12815   1.519   2.370   1.326 -0.2927 -0.2655 -0.1716
  870MPD2    C112816   1.459   2.285   1.236  0.3794  0.3566 -0.6147
  870MPD2    C212817   1.333   2.312   1.183  0.9194  0.3531  0.6396
  870MPD2    C312818   1.264   2.421   1.226 -1.0779  0.6344 -0.2410
  870MPD2    C412819   1.324   2.501   1.319  0.2633 -0.6603  0.5485
  870MPD2    C512820   1.450   2.487   1.371 -0.0714 -0.3424  0.6800
  870MPD2     H12821   1.280   2.254   1.108  2.5448 -0.2459 -0.0425
  870MPD2    H112822   1.277   2.589   1.361  0.6161  0.4260 -1.3220
  870MPD2    H212823   1.616   2.348   1.367  0.6795  1.4022 -1.5903
  870MPD2    H312824   1.495   2.562   1.435  0.2994 -1.1838  1.3988
  870MPD2     N12825   1.128   2.430   1.186  0.4622  0.3143  0.2841
  870MPD2    H512826   1.088   2.368   1.116  0.0365 -0.1435  0.9285
  870MPD2    N112827   1.541   2.180   1.201  0.4392 -0.6868  0.0272
  870MPD2    H712828   1.632   2.176   1.246  0.3744 -1.7993  0.0475
  871MPD2     C12829   1.603   1.480  16.277  0.1390 -0.1918  0.3079
  871MPD2    C112830   1.731   1.535  16.278  0.2696 -0.6163  0.9833
  871MPD2    C212831   1.834   1.470  16.212  0.3550  1.1690 -0.1426
  871MPD2    C312832   1.811   1.351  16.148 -0.2267  0.1337  0.3372
  871MPD2    C412833   1.676   1.315  16.121 -0.0735  0.2012  0.9447
  871MPD2    C512834   1.575   1.385  16.184  0.5705 -0.6023 -0.3148
  871MPD2     H12835   1.936   1.505  16.218 -0.2178  2.2698  2.7821
  871MPD2    H112836   1.661   1.228  16.059 -0.4854  0.8971  0.0708
  871MPD2    H212837   1.529   1.514  16.349 -1.5375 -2.0711 -0.5326
  871MPD2    H312838   1.483   1.329  16.192 -0.8033  1.3809 -2.2108
  871MPD2     N12839   1.920   1.288  16.089 -0.4636 -0.0665  0.0386
  871MPD2    H512840   2.009   1.336  16.099 -0.6616  0.5661 -1.2046
  871MPD2    N112841   1.752   1.634  16.372  0.0796 -0.3464 -0.3724
  871MPD2    H712842   1.672   1.666  16.426 -0.7760  1.1535 -2.5265
  872MPD2     C12843   3.119   3.782  14.085 -0.7743 -0.0814  0.0213
  872MPD2    C112844   3.043   3.893  14.051 -0.4681 -0.1992 -0.2354
  872MPD2    C212845   2.906   3.894  14.084  0.4704 -0.0780 -0.2345
  872MPD2    C312846   2.859   3.792  14.168 -0.2122  0.0556 -0.1133
  872MPD2    C412847   2.935   3.687  14.205 -0.1937 -0.0366  0.2743
  872MPD2    C512848   3.056   3.681  14.155 -0.6999  0.4168  0.5671
  872MPD2     H12849   2.849   3.986  14.070  1.4537  0.3235 -1.5874
  872MPD2    H112850   2.892   3.606  14.263  0.3573 -1.0129 -0.6800
  872MPD2    H212851   3.224   3.762  14.072 -0.5765 -0.8669  2.8931
  872MPD2    H312852   3.115   3.596  14.190  2.0633  1.0656 -2.5928
  872MPD2     N12853   2.729   3.791  14.221  0.1226  0.5014  0.2941
  872MPD2    H512854   2.706   3.713  14.282 -0.6690  0.4184 -0.1099
  872MPD2    N112855   3.104   4.008  14.000  0.5591  0.6285 -0.0480
  872MPD2    H712856   3.041   4.086  13.988  0.8695  1.0680  1.1976
  873MPD2     C12857   0.773   4.081   0.688  0.3197  0.7650 -0.5746
  873MPD2    C112858   0.648   4.123   0.666 -0.8699 -0.7236  0.1442
  873MPD2    C212859   0.546   4.026   0.652 -0.6084 -0.8328  0.8970
  873MPD2    C312860   0.580   3.890   0.672  0.9829 -0.6540  0.0823
  873MPD2    C412861   0.713   3.857   0.710 -0.4017  0.5554 -0.5550
  873MPD2    C512862   0.800   3.956   0.720  0.5728  0.1482 -0.2603
  873MPD2     H12863   0.445   4.056   0.629  0.5462  0.5644 -2.3588
  873MPD2    H112864   0.745   3.754   0.716 -1.6262  0.0664 -2.4583
  873MPD2    H212865   0.851   4.155   0.704 -0.3400  1.2352  0.3851
  873MPD2    H312866   0.900   3.927   0.752  1.4033  0.7083 -2.3957
  873MPD2     N12867   0.491   3.780   0.669 -0.3409 -0.4549 -0.3824
  873MPD2    H512868   0.537   3.690   0.678  1.6616  0.6084  0.0149
  873MPD2    N112869   0.631   4.262   0.668 -0.7985 -0.4643  0.5218
  873MPD2    H712870   0.716   4.314   0.691  0.3789 -1.4736 -1.5370
  874MPD2     C12871   4.296   4.228  15.980 -0.4825 -0.1792 -0.2232
  874MPD2    C112872   4.390   4.155  16.055  0.0655 -0.5448  0.3289
  874MPD2    C212873   4.523   4.198  16.060 -0.2985  0.2282 -0.2844
  874MPD2    C312874   4.562   4.321  16.022 -0.2418 -0.1177  0.6629
  874MPD2    C412875   4.460   4.404  15.959 -0.6149  0.1549  0.1152
  874MPD2    C512876   4.329   4.356  15.942 -0.4397 -0.4670 -0.5103
  874MPD2     H12877   4.602   4.140  16.107  1.0286  0.9275 -1.6526
  874MPD2    H112878   4.487   4.496  15.910 -0.3990  0.2844  0.4694
  874MPD2    H212879   4.197   4.187  15.967 -0.9557  0.6890  0.5704
  874MPD2    H312880   4.246   4.414  15.905  0.0688  0.8878  0.4953
  874MPD2     N12881   4.695   4.358  16.043 -0.4003  0.1933  0.2286
  874MPD2    H512882   0.023   4.289  16.077 -1.9300 -0.4177  1.8982
  874MPD2    N112883   4.354   4.024  16.107  0.1911 -0.0580 -0.2738
  874MPD2    H712884   4.256   3.997  16.104 -0.0670  1.2147 -3.3277
  875MPD2     C12885   0.647   2.081  14.367  0.1437  0.1002  0.4256
  875MPD2    C112886   0.551   2.172  14.391  0.5966  0.4571 -0.1905
  875MPD2    C212887   0.557   2.241  14.511  0.1034  0.0467 -0.0121
  875MPD2    C312888   0.656   2.221  14.607 -0.1288 -0.0626 -0.1023
  875MPD2    C412889   0.747   2.124  14.584  0.1355 -0.1663  0.0961
  875MPD2    C512890   0.746   2.062  14.462 -0.0020  0.2102 -1.0142
  875MPD2     H12891   0.476   2.313  14.518  0.7773  1.2179 -4.0088
  875MPD2    H112892   0.832   2.104  14.648 -0.3089 -0.7168  0.5206
  875MPD2    H212893   0.660   2.028  14.273  0.2540 -0.6396  0.8542
  875MPD2    H312894   0.818   1.981  14.450 -0.4255 -0.6843  2.7699
  875MPD2     N12895   0.663   2.302  14.725  0.1775  0.2449  0.0433
  875MPD2    H512896   0.724   2.264  14.797  0.3076  0.3074 -0.0333
  875MPD2    N112897   0.447   2.191  14.293 -0.0642  1.1824 -0.4793
  875MPD2    H712898   0.363   2.241  14.320 -0.5843  0.6410 -1.0913
  876MPD2     C12899   4.282   3.491  15.842  0.2710 -0.5221  0.4747
  876MPD2    C112900   4.399   3.553  15.869 -0.0770  0.3978  0.0568
  876MPD2    C212901   4.487   3.492  15.956  0.5184 -0.6482 -0.0100
  876MPD2    C312902   4.463   3.361  15.994  0.1570  0.1198  0.5502
  876MPD2    C412903   4.347   3.299  15.950 -0.4423  0.0061  0.0263
  876MPD2    C512904   4.255   3.362  15.876  0.6331  0.5620 -0.4946
  876MPD2     H12905   4.576   3.545  15.988  0.6532 -0.1303 -1.2243
  876MPD2    H112906   4.321   3.197  15.972 -2.6317  0.5226 -0.1840
  876MPD2    H212907   4.208   3.544  15.783 -0.5034 -0.9943  1.0325
  876MPD2    H312908   4.163   3.319  15.836 -0.5005  0.6759  2.0137
  876MPD2     N12909   4.557   3.287  16.073 -0.0218  0.6889  0.1936
  876MPD2    H512910   4.655   3.314  16.069 -0.0646  0.6692 -0.9909
  876MPD2    N112911   4.412   3.684  15.826 -0.0467 -0.1924 -0.2194
  876MPD2    H712912   4.342   3.711  15.757  0.3681 -0.7726 -0.8645
  877MPD2     C12913   4.187   3.939  15.275 -0.1849 -0.3884 -0.0851
  877MPD2    C112914   4.290   4.031  15.296  0.0944  0.4872 -0.4729
  877MPD2    C212915   4.347   4.098  15.188  0.5795 -0.4335 -0.5121
  877MPD2    C312916   4.312   4.067  15.059  0.5242 -0.6176 -0.0567
  877MPD2    C412917   4.213   3.971  15.043  0.3932 -0.1234  0.3286
  877MPD2    C512918   4.157   3.908  15.149  0.0172  0.0043  0.4479
  877MPD2     H12919   4.419   4.178  15.204 -3.5156  3.2011 -0.2139
  877MPD2    H112920   4.195   3.944  14.940  0.2299 -0.7169  0.5114
  877MPD2    H212921   4.153   3.873  15.354 -0.2852 -1.1974 -0.8035
  877MPD2    H312922   4.080   3.835  15.127  0.8796 -0.8009  0.0626
  877MPD2     N12923   4.368   4.133  14.943 -0.5587 -0.5044 -0.0737
  877MPD2    H512924   4.347   4.088  14.855 -0.0340 -1.3872  0.2551
  877MPD2    N112925   4.324   4.076  15.428  0.7910  0.3759 -0.2883
  877MPD2    H712926   4.399   4.143  15.437  1.5888 -0.2160 -2.4290
  878MPD2     C12927   3.703   3.150  13.147  0.0717 -0.2197  0.0339
  878MPD2    C112928   3.810   3.233  13.134  0.3078 -0.1885 -1.0121
  878MPD2    C212929   3.862   3.279  13.253 -0.0132 -0.1151  0.0756
  878MPD2    C312930   3.824   3.235  13.378  0.5217  0.4411 -0.5167
  878MPD2    C412931   3.729   3.136  13.387  0.2359  0.3262  1.1804
  878MPD2    C512932   3.673   3.093  13.267 -0.5170  0.1210  0.6319
  878MPD2     H12933   3.938   3.355  13.246 -1.2229  0.9890 -1.0762
  878MPD2    H112934   3.703   3.095  13.484 -2.3580  1.0270  0.7794
  878MPD2    H212935   3.649   3.110  13.062  2.6740 -0.0225 -1.7197
  878MPD2    H312936   3.601   3.012  13.263 -0.8677  0.4071  1.1553
  878MPD2     N12937   3.892   3.292  13.489  0.0311  0.1536  0.0685
  878MPD2    H512938   3.968   3.355  13.467 -0.1442  0.1399 -0.5949
  878MPD2    N112939   3.849   3.269  13.006  0.4705 -0.0999 -0.3318
  878MPD2    H712940   3.780   3.271  12.931 -0.1265 -1.9497  0.1863
  879MPD2     C12941   0.337   4.322  16.580  0.4744 -1.2847 -0.2662
  879MPD2    C112942   0.298   4.449  16.560 -0.3189 -0.5950 -0.1655
  879MPD2    C212943   0.175   4.474  16.500 -0.5949 -0.2872 -0.6600
  879MPD2    C312944   0.095   4.364  16.462  0.9568  0.1552 -0.2252
  879MPD2    C412945   0.141   4.238  16.490  0.5615  0.6916 -0.3580
  879MPD2    C512946   0.265   4.219  16.540 -0.0943 -0.3615  0.2166
  879MPD2     H12947   0.137   4.575  16.489  0.3757  0.1049 -0.4628
  879MPD2    H112948   0.074   4.153  16.493  2.5411 -0.9149 -1.1285
  879MPD2    H212949   0.435   4.309  16.626  0.3532 -2.4175 -0.3434
  879MPD2    H312950   0.307   4.120  16.553  0.6866 -0.1115 -0.4040
  879MPD2     N12951   4.701   4.379  16.416 -0.1186  0.2148 -0.5368
  879MPD2    H512952   4.650   4.294  16.396  0.3780  0.4321 -2.7377
  879MPD2    N112953   0.388   4.551  16.596 -0.0870 -0.8619 -0.0575
  879MPD2    H712954   0.482   4.526  16.625 -0.5211 -2.9656 -0.4761
  880MPD2     C12955   1.011   1.613   0.207 -0.0057  0.0041 -0.0222
  880MPD2    C112956   1.108   1.685   0.261  0.2199 -0.5913 -1.0555
  880MPD2    C212957   1.205   1.629   0.339 -0.5282 -0.2281 -0.0921
  880MPD2    C312958   1.204   1.490   0.359 -0.0315  0.2629 -0.0529
  880MPD2    C412959   1.100   1.416   0.310 -0.1337 -0.1167  0.3657
  880MPD2    C512960   1.006   1.479   0.231 -0.3485 -0.2690  0.6136
  880MPD2     H12961   1.267   1.693   0.401 -0.6472  0.0158 -0.2275
  880MPD2    H112962   1.092   1.308   0.314  2.5668 -0.2787  1.4975
  880MPD2    H212963   0.936   1.655   0.139  0.8441 -0.4076 -1.2174
  880MPD2    H312964   0.926   1.425   0.183  0.0253 -0.4897  0.2397
  880MPD2     N12965   1.306   1.431   0.432 -0.7795 -0.1433 -0.3952
  880MPD2    H512966   1.378   1.496   0.460  0.7826 -2.3298  0.6559
  880MPD2    N112967   1.111   1.820   0.228  0.1365 -0.3890 -0.2218
  880MPD2    H712968   1.038   1.856   0.166  0.0686 -0.2453 -0.0594
  881MPD2     C12969   1.565   2.745  17.589  0.1712 -0.6665 -0.2110
  881MPD2    C112970   1.571   2.613  17.556 -0.0471 -0.2400 -0.7122
  881MPD2    C212971   1.494   2.523  17.621 -0.5718  0.9472 -0.3323
  881MPD2    C312972   1.415   2.558  17.733  0.2699  0.3772 -0.2568
  881MPD2    C412973   1.413   2.691   0.022 -0.0808 -0.4108  0.3268
  881MPD2    C512974   1.479   2.785  17.697 -0.4273 -0.8618  0.3797
  881MPD2     H12975   1.489   2.418  17.594  2.4438  0.1857  2.1354
  881MPD2    H112976   1.352   2.743   0.094 -0.7144  0.1642 -0.6241
  881MPD2    H212977   1.606   2.820  17.523 -0.1156 -0.0086  0.3546
  881MPD2    H312978   1.470   2.890  17.721 -0.5108 -0.5998 -0.8219
  881MPD2     N12979   1.340   2.464   0.063  0.4616  0.0847  0.0210
  881MPD2    H512980   1.271   2.506   0.124 -0.1900 -2.4828  1.0321
  881MPD2    N112981   1.637   2.584  17.433 -0.8612  0.4415  0.2358
  881MPD2    H712982   1.667   2.663  17.377  1.0414  0.5630  1.4361
  882MPD2     C12983   4.391   3.949  14.183 -0.3037  0.4874  0.1121
  882MPD2    C112984   4.315   4.015  14.274 -0.1442  0.0852  0.1921
  882MPD2    C212985   4.180   4.024  14.260  0.0272  0.0726  1.0134
  882MPD2    C312986   4.114   3.956  14.154 -0.2343  0.0450  0.6332
  882MPD2    C412987   4.194   3.887  14.067 -0.7490 -0.7242 -0.3077
  882MPD2    C512988   4.332   3.890  14.077  0.2713 -0.2780  0.4464
  882MPD2     H12989   4.123   4.084  14.330 -2.8013 -2.3574  0.7530
  882MPD2    H112990   4.150   3.832  13.985 -0.2213 -0.5360 -0.7172
  882MPD2    H212991   4.497   3.946  14.204 -0.0317 -0.0491 -1.3679
  882MPD2    H312992   4.390   3.834  14.004  0.3459  0.7077 -0.2477
  882MPD2     N12993   3.976   3.946  14.146  0.0614 -0.4723 -0.5677
  882MPD2    H512994   3.939   3.867  14.093 -0.0486  0.3710 -1.7371
  882MPD2    N112995   4.390   4.081  14.375  0.4764  0.3332 -0.2718
  882MPD2    H712996   4.491   4.067  14.373  0.8338  2.6221  1.3034
  883MPD2     C12997   1.771   3.819  16.087  0.3536  0.2458  0.8667
  883MPD2    C112998   1.789   3.894  15.975  0.3981  0.1059 -0.5145
  883MPD2    C212999   1.850   4.012  15.977  0.0565  0.2878 -0.4305
  883MPD2    C313000   1.905   4.062  16.091  0.4538 -0.8865 -0.0464
  883MPD2    C413001   1.899   3.990  16.201 -0.2523  0.5396 -0.6690
  883MPD2    C513002   1.820   3.873  16.200  0.9611  0.2519 -0.0192
  883MPD2     H13003   1.865   4.074  15.889 -0.9849  0.8835 -0.1875
  883MPD2    H113004   1.934   4.012  16.301 -0.1267 -0.4551 -0.4864
  883MPD2    H213005   1.721   3.723  16.084  0.2668  0.3026  0.4501
  883MPD2    H313006   1.817   3.808  16.286  2.2566 -0.3297 -0.4200
  883MPD2     N13007   1.976   4.187  16.085  0.4709 -0.5701 -0.0349
  883MPD2    H513008   1.979   4.230  15.992  0.2562  0.7754  0.5753
  883MPD2    N113009   1.756   3.839  15.850  0.4292 -0.2105  0.8369
  883MPD2    H713010   1.762   3.902  15.770  1.4018 -2.2967 -0.7105
  884MPD2     C13011   3.206   4.464  15.005  0.0386 -0.6915  0.0712
  884MPD2    C113012   3.212   4.582  14.942  0.1431  0.5052  0.7721
  884MPD2    C213013   3.129   4.690  14.963  1.3968  0.6460 -0.1237
  884MPD2    C313014   3.038   4.677  15.066  0.0826 -0.2016  0.1096
  884MPD2    C413015   3.037   4.558  15.143  0.3474 -0.4480 -0.0428
  884MPD2    C513016   3.104   4.453  15.094  0.0580  0.7507 -0.6846
  884MPD2     H13017   3.139   0.034  14.892  3.1137 -0.0967 -0.7311
  884MPD2    H113018   2.964   4.528  15.217  1.8020  1.3278  2.1268
  884MPD2    H213019   3.254   4.376  14.964 -2.3886 -0.8362 -2.4340
  884MPD2    H313020   3.082   4.354  15.132 -0.5789  0.6145 -1.3959
  884MPD2     N13021   2.940   0.042  15.082  0.0311  0.5056 -0.1269
  884MPD2    H513022   2.923   0.109  15.008  4.5174  1.5719 -0.2033
  884MPD2    N113023   3.300   4.598  14.834  0.4876  0.1207  0.2158
  884MPD2    H713024   3.290   4.681  14.776 -0.5026  0.0872  0.3395
  885MPD2     C13025   1.619   0.865   0.079  0.6348  0.0148  0.8587
  885MPD2    C113026   1.731   0.792   0.047  0.4403  0.0942  0.4622
  885MPD2    C213027   1.759   0.769  17.660 -0.4069  0.0063  1.0039
  885MPD2    C313028   1.691   0.835  17.562  0.0457  0.0369 -0.3805
  885MPD2    C413029   1.579   0.908  17.596  0.2803 -0.3407 -0.2172
  885MPD2    C513030   1.549   0.922  17.728 -0.0277  0.9894  0.7104
  885MPD2     H13031   1.845   0.709  17.633 -1.3451 -1.8817  2.2124
  885MPD2    H113032   1.508   0.951  17.527 -2.5467 -1.1373  2.1536
  885MPD2    H213033   1.591   0.868   0.183 -1.1888 -0.2692  0.3795
  885MPD2    H313034   1.454   0.962   0.014  0.1591  3.2795 -1.3772
  885MPD2     N13035   1.718   0.817  17.426  0.3712  0.2252 -0.2286
  885MPD2    H513036   1.801   0.761  17.407 -0.6110 -0.5362 -2.2635
  885MPD2    N113037   1.811   0.755   0.153 -0.7237  0.2449  0.1334
  885MPD2    H713038   1.775   0.772   0.247 -2.6024 -0.2971 -0.4840
  886MPD2     C13039   3.056   3.161  15.377 -0.3444  0.2431  0.7310
  886MPD2    C113040   3.102   3.274  15.441  0.4850 -0.5120 -0.0593
  886MPD2    C213041   3.081   3.391  15.380 -0.0505 -0.1662  0.5730
  886MPD2    C313042   3.011   3.415  15.260  1.3128  0.5010  0.7467
  886MPD2    C413043   2.968   3.303  15.199  0.7279  0.4143 -0.7095
  886MPD2    C513044   2.995   3.179  15.254  0.4498 -0.0012  0.0279
  886MPD2     H13045   3.119   3.482  15.424  0.2835 -1.1909  2.3821
  886MPD2    H113046   2.910   3.296  15.108 -0.5745 -0.5606  0.2085
  886MPD2    H213047   3.076   3.062  15.414 -0.6262 -0.1111 -0.0552
  886MPD2    H313048   2.951   3.094  15.204 -2.6557  1.4581  0.2860
  886MPD2     N13049   2.993   3.550  15.208  0.2415 -0.2906  0.3527
  886MPD2    H513050   3.044   3.620  15.261  1.5912 -1.0857  0.1166
  886MPD2    N113051   3.175   3.255  15.558  0.1209 -0.1568  0.0653
  886MPD2    H713052   3.215   3.342  15.593 -0.7153 -0.5905  2.0772
  887MPD2     C13053   3.802   3.469  15.676  0.8117 -0.1404  0.0659
  887MPD2    C113054   3.668   3.495  15.652  0.1713  0.1211  0.9260
  887MPD2    C213055   3.629   3.572  15.549  0.2948  0.5230 -0.0160
  887MPD2    C313056   3.719   3.637  15.469  0.2937  0.2217 -0.0684
  887MPD2    C413057   3.848   3.615  15.499  0.5610  0.3337  0.4190
  887MPD2    C513058   3.888   3.532  15.599 -0.1583 -0.0464 -0.0192
  887MPD2     H13059   3.529   3.586  15.509 -0.1576 -0.3326  0.8264
  887MPD2    H113060   3.928   3.658  15.441  0.6089  1.7860  1.5623
  887MPD2    H213061   3.829   3.402  15.757 -0.0416 -0.0099  0.4663
  887MPD2    H313062   3.994   3.520  15.615 -0.0436  0.9792  0.0019
  887MPD2     N13063   3.672   3.716  15.362 -0.0621  0.7838 -0.0556
  887MPD2    H513064   3.574   3.740  15.356 -0.2845  0.3627  1.8362
  887MPD2    N113065   3.565   3.430  15.715  0.6105 -0.4192  0.3209
  887MPD2    H713066   3.471   3.450  15.681  0.9218  1.3445  0.4586
  888MPD2     C13067   0.689   3.435  14.800  0.4486  0.4828  0.1439
  888MPD2    C113068   0.682   3.475  14.930 -0.0629 -0.2969  0.2325
  888MPD2    C213069   0.758   3.581  14.962 -0.0953  0.1536 -0.5526
  888MPD2    C313070   0.841   3.650  14.879 -0.4625 -0.1224  0.1049
  888MPD2    C413071   0.845   3.610  14.748 -0.0093  0.3655  0.1731
  888MPD2    C513072   0.768   3.503  14.712 -0.7641 -1.3369 -0.4928
  888MPD2     H13073   0.744   3.622  15.061 -1.7919 -1.2499 -0.2119
  888MPD2    H113074   0.892   3.657  14.662  0.4706 -1.4965 -0.5591
  888MPD2    H213075   0.630   3.364  14.745  0.7684  1.3181 -1.2783
  888MPD2    H313076   0.755   3.479  14.607  1.3914 -1.0905 -0.8250
  888MPD2     N13077   0.901   3.765  14.929  0.7922 -0.2560  0.2267
  888MPD2    H513078   0.876   3.797  15.022  1.4177 -2.0496  1.0180
  888MPD2    N113079   0.601   3.410  15.027 -0.1091  0.3894 -0.3856
  888MPD2    H713080   0.578   3.474  15.102 -1.1311  0.1184 -0.4767
  889MPD2     C13081   0.493   2.672  14.036 -0.4032  0.1141 -0.3220
  889MPD2    C113082   0.414   2.723  13.938  0.2888  0.7667  0.1707
  889MPD2    C213083   0.426   2.857  13.910 -0.0280 -0.3643 -0.2568
  889MPD2    C313084   0.504   2.939  13.989  0.1978  0.7745  0.0696
  889MPD2    C413085   0.566   2.891  14.101 -0.1923  0.4153  0.3775
  889MPD2    C513086   0.557   2.754  14.122  0.0846  0.5355 -0.5211
  889MPD2     H13087   0.372   2.904  13.829  2.3382  0.1859 -1.5030
  889MPD2    H113088   0.643   2.945  14.156  0.6042 -0.4659  0.1320
  889MPD2    H213089   0.491   2.570  14.075 -1.6008  0.8463  1.5167
  889MPD2    H313090   0.604   2.707  14.207 -0.4934  0.8031 -0.0547
  889MPD2     N13091   0.516   3.071  13.950  0.1100 -0.3538  0.4984
  889MPD2    H513092   0.451   3.091  13.875  1.3589 -0.8266 -0.7025
  889MPD2    N113093   0.363   2.655  13.822 -0.0597 -0.1964  0.2486
  889MPD2    H713094   0.330   2.713  13.745 -1.8960 -1.1550  0.3227
  890MPD2     C13095   4.466   4.562  14.482  0.1300 -0.4617  0.3445
  890MPD2    C113096   4.587   4.606  14.526 -0.5533  0.5099 -0.3488
  890MPD2    C213097   4.609   4.616  14.658  0.1828 -0.1471  0.1590
  890MPD2    C313098   4.510   4.604  14.752  0.2372 -0.5442 -0.7238
  890MPD2    C413099   4.379   4.575  14.700  0.3081 -0.0363  0.8247
  890MPD2    C513100   4.360   4.550  14.565 -0.3630  0.2871  0.2755
  890MPD2     H13101   4.705   4.651  14.693  0.8261 -0.4029 -1.3391
  890MPD2    H113102   4.298   4.565  14.771 -0.3560 -0.6424 -0.0173
  890MPD2    H213103   4.436   4.550  14.379  2.2902 -1.2284 -0.1815
  890MPD2    H313104   4.264   4.526  14.520 -0.8601  1.8997  0.4634
  890MPD2     N13105   4.537   4.632  14.892 -0.0894  0.2257 -0.3042
  890MPD2    H513106   4.637   4.630  14.909 -0.3780  0.7883  1.4424
  890MPD2    N113107   4.684   4.649  14.432 -0.4887  0.3253 -0.3024
  890MPD2    H713108   4.653   4.645  14.336  0.3505 -0.0028 -0.5559
  891MPD2     C13109   2.967   3.927  16.833 -0.3330  0.4661  0.6212
  891MPD2    C113110   2.876   3.847  16.898  0.9535  0.8955 -0.0862
  891MPD2    C213111   2.918   3.756  16.996 -0.6301 -0.3440 -0.5545
  891MPD2    C313112   3.049   3.766  17.037 -0.0795 -0.4812  0.1387
  891MPD2    C413113   3.141   3.852  16.979 -0.7795  0.1583 -0.1048
  891MPD2    C513114   3.098   3.926  16.873  0.1524  0.2119 -0.0249
  891MPD2     H13115   2.859   3.683  17.051  0.7668  0.1776  1.5942
  891MPD2    H113116   3.239   3.875  17.019 -0.9511  1.5389 -0.4859
  891MPD2    H213117   2.943   3.978  16.740 -1.4659 -2.3622 -0.6153
  891MPD2    H313118   3.175   3.990  16.832 -0.4533  1.5227  0.8774
  891MPD2     N13119   3.082   3.671  17.142  0.4570  0.2954  1.0204
  891MPD2    H513120   3.012   3.611  17.186  2.1289 -0.7294  2.2888
  891MPD2    N113121   2.750   3.844  16.837 -0.5897  0.5619 -0.2712
  891MPD2    H713122   2.732   3.908  16.761 -1.1433 -1.1161 -1.5355
  892MPD2     C13123   3.271   4.137  14.851 -0.0015  0.6754 -0.0243
  892MPD2    C113124   3.213   4.173  14.727  0.3102 -0.2585  0.0695
  892MPD2    C213125   3.290   4.153  14.610  0.6693  1.0496 -0.7290
  892MPD2    C313126   3.419   4.105  14.622  0.0080 -0.0826  0.9599
  892MPD2    C413127   3.479   4.088  14.739 -0.8546 -0.1842  0.7515
  892MPD2    C513128   3.401   4.098  14.853  0.3501 -1.1128 -0.0148
  892MPD2     H13129   3.254   4.169  14.508  1.3695 -0.0239 -1.1499
  892MPD2    H113130   3.583   4.056  14.741 -1.3304 -1.7648  0.0176
  892MPD2    H213131   3.219   4.143  14.945  0.5911  2.7359  0.1651
  892MPD2    H313132   3.443   4.073  14.950  0.1547  1.1026  0.6407
  892MPD2     N13133   3.493   4.073  14.511 -0.6628 -0.6945  0.3039
  892MPD2    H513134   3.592   4.072  14.533 -0.7720  0.2142  0.8001
  892MPD2    N113135   3.078   4.223  14.714 -0.5487  0.4572 -0.2713
  892MPD2    H713136   3.046   4.252  14.622 -0.3680 -0.1554 -0.5229
  893MPD2     C13137   0.803   3.939   1.663 -0.1405 -0.2094 -0.5461
  893MPD2    C113138   0.738   3.868   1.561 -0.4408 -0.7217 -0.9089
  893MPD2    C213139   0.600   3.870   1.556  0.0397  0.0869  0.4607
  893MPD2    C313140   0.523   3.932   1.649  0.3347 -0.3684 -0.9130
  893MPD2    C413141   0.589   4.002   1.746 -0.8374  0.3799  0.0914
  893MPD2    C513142   0.723   3.999   1.756  0.3368 -1.2575 -0.1943
  893MPD2     H13143   0.551   3.819   1.474  0.2717  0.8488 -0.1515
  893MPD2    H113144   0.541   4.064   1.821 -2.0333 -1.2881  0.6782
  893MPD2    H213145   0.911   3.945   1.671 -0.2589 -0.6329  1.3397
  893MPD2    H313146   0.776   4.043   1.840 -4.3988  2.1180  1.0359
  893MPD2     N13147   0.383   3.934   1.654  0.2527  0.5569 -0.2994
  893MPD2    H513148   0.336   3.975   1.734  1.1548  0.2236  0.4074
  893MPD2    N113149   0.823   3.808   1.463  0.0640 -0.2228 -0.1265
  893MPD2    H713150   0.923   3.806   1.483  0.1744 -0.8048 -0.7358
  894MPD2     C13151   3.512   0.386   0.520  0.4021  0.0437 -0.0686
  894MPD2    C113152   3.529   0.451   0.636 -0.2012  0.2812  0.0555
  894MPD2    C213153   3.588   0.578   0.641  0.2349  0.1454  0.7286
  894MPD2    C313154   3.638   0.636   0.527  0.2782 -0.7635  0.3920
  894MPD2    C413155   3.613   0.573   0.408  0.3181  0.1111  0.1557
  894MPD2    C513156   3.558   0.449   0.404  0.1387  0.1306 -0.3314
  894MPD2     H13157   3.600   0.630   0.736 -0.2238  1.4114  0.0939
  894MPD2    H113158   3.660   0.605   0.316  1.6300  0.9053  1.0922
  894MPD2    H213159   3.469   0.287   0.515  1.1893 -0.3564  1.1218
  894MPD2    H313160   3.549   0.386   0.317 -1.2556 -0.8760  0.5357
  894MPD2     N13161   3.708   0.761   0.543  0.0012  1.3804 -0.5377
  894MPD2    H513162   3.705   0.798   0.637 -3.1322 -2.8590  0.9784
  894MPD2    N113163   3.480   0.404   0.757 -0.4620 -0.7476  0.8983
  894MPD2    H713164   3.481   0.474   0.830  2.8725 -1.7567  1.8396
  895MPD2     C13165   3.157   3.674  13.476 -0.6645 -0.2727  0.5533
  895MPD2    C113166   3.070   3.664  13.369 -0.3079  0.0469  0.6323
  895MPD2    C213167   2.996   3.546  13.354 -0.7088  0.3148 -0.3841
  895MPD2    C313168   3.007   3.444  13.451 -0.6328  0.0557  0.0688
  895MPD2    C413169   3.087   3.464  13.564 -0.1818 -0.4395  0.7612
  895MPD2    C513170   3.170   3.575  13.577 -0.3585 -0.4596 -0.4786
  895MPD2     H13171   2.950   3.532  13.257  0.9860 -0.5132 -1.0621
  895MPD2    H113172   3.085   3.382  13.635  1.6365 -0.9963  0.1677
  895MPD2    H213173   3.226   3.758  13.473  2.0046 -2.4662  1.1028
  895MPD2    H313174   3.234   3.587  13.664  0.7402 -2.0079 -1.0944
  895MPD2     N13175   2.919   3.331  13.461 -0.5690 -0.2351 -0.3453
  895MPD2    H513176   2.929   3.262  13.535 -1.4109 -0.4187 -0.3969
  895MPD2    N113177   3.045   3.768  13.277  0.0857  0.2245 -0.3313
  895MPD2    H713178   2.997   3.738  13.193 -1.7807  1.4676  0.2826
  896MPD2     C13179   0.508   1.481   1.062 -0.4686  0.1944 -0.4363
  896MPD2    C113180   0.479   1.436   0.933  0.9817  0.3000  0.2635
  896MPD2    C213181   0.364   1.362   0.921  0.4412  0.3057 -0.8113
  896MPD2    C313182   0.273   1.335   1.026  0.3152  0.4703  0.2276
  896MPD2    C413183   0.311   1.377   1.152 -0.6332 -0.5181 -0.4701
  896MPD2    C513184   0.432   1.443   1.172 -0.2094 -0.2207  0.1635
  896MPD2     H13185   0.337   1.317   0.826  1.8323  1.4065 -1.7256
  896MPD2    H113186   0.247   1.366   1.239  0.4658  1.7158  0.6085
  896MPD2    H213187   0.591   1.547   1.086  0.5194 -1.0599 -0.4505
  896MPD2    H313188   0.450   1.478   1.273  3.1882 -0.9317 -0.2045
  896MPD2     N13189   0.154   1.266   1.000 -0.0762  0.3878  0.0733
  896MPD2    H513190   0.140   1.258   0.900 -0.2267 -0.8828  0.2026
  896MPD2    N113191   0.566   1.474   0.821 -0.0257  0.0556 -0.4674
  896MPD2    H713192   0.649   1.526   0.844  0.8333 -1.4270 -0.1996
  897MPD2     C13193   1.371   2.946  10.543 -0.0122 -0.9092 -0.3565
  897MPD2    C113194   1.265   3.027  10.561 -0.3113 -0.4078 -0.1295
  897MPD2    C213195   1.155   2.971  10.620 -0.7891 -0.0246 -0.0711
  897MPD2    C313196   1.143   2.835  10.647  0.2906  0.0517 -0.3939
  897MPD2    C413197   1.255   2.754  10.622 -0.1100 -0.1932 -0.8040
  897MPD2    C513198   1.364   2.815  10.572 -0.2151 -0.2492  0.3898
  897MPD2     H13199   1.060   3.022  10.616 -0.9217 -0.2647 -0.0181
  897MPD2    H113200   1.246   2.646  10.632 -1.7436  0.2735  3.0211
  897MPD2    H213201   1.464   2.983  10.500 -0.3427  0.8561  0.4198
  897MPD2    H313202   1.450   2.759  10.538  0.6860  0.2507  1.8599
  897MPD2     N13203   1.016   2.791  10.688 -0.4802  0.4016 -0.4582
  897MPD2    H513204   0.944   2.860  10.708 -0.3819  0.8555 -1.7278
  897MPD2    N113205   1.271   3.161  10.525  0.5062  0.3542  0.5249
  897MPD2    H713206   1.346   3.189  10.463  0.4145 -0.7412 -0.0704
  898MPD2     C13207   3.299   4.078   0.065 -0.7774  0.4492 -0.2662
  898MPD2    C113208   3.369   4.148  17.723 -0.6314 -0.3735  0.1375
  898MPD2    C213209   3.319   4.242  17.638  0.0206  0.0870 -0.0931
  898MPD2    C313210   3.183   4.253  17.634  0.0695  0.4272  0.5017
  898MPD2    C413211   3.109   4.182  17.722 -0.2340 -0.0262 -0.4884
  898MPD2    C513212   3.165   4.095   0.060  0.3979 -0.1887  0.4680
  898MPD2     H13213   3.381   4.299  17.569  0.6029 -0.2211  0.1769
  898MPD2    H113214   3.001   4.182  17.728 -0.2643 -0.6271 -1.0934
  898MPD2    H213215   3.332   4.003   0.135 -1.3529 -0.0686 -0.5525
  898MPD2    H313216   3.100   4.032   0.119  0.2165 -1.6872 -1.3474
  898MPD2     N13217   3.120   4.356  17.550 -0.1911 -0.0134  1.2308
  898MPD2    H513218   3.193   4.419  17.518  1.1706 -0.5943  3.2044
  898MPD2    N113219   3.512   4.114  17.699 -0.4975 -0.0660  0.4537
  898MPD2    H713220   3.552   4.158  17.617  0.8730 -1.5719  0.3072
  899MPD2     C13221   4.128   4.434  16.859 -0.0480 -0.3243  0.2874
  899MPD2    C113222   4.149   4.544  16.943  1.0384 -0.3370  0.0934
  899MPD2    C213223   4.186   4.519  17.081 -0.0980  0.1852 -0.1927
  899MPD2    C313224   4.213   4.388  17.122  0.8768 -0.5201 -0.4961
  899MPD2    C413225   4.186   4.287  17.033 -0.2027 -0.7344 -0.5878
  899MPD2    C513226   4.146   4.314  16.908  0.5755  0.1621  0.8096
  899MPD2     H13227   4.201   4.594  17.157 -0.6011  2.2498 -2.1131
  899MPD2    H113228   4.198   4.183  17.064 -0.2889 -0.1931  1.2584
  899MPD2    H213229   4.123   4.449  16.751  0.5687  0.8683  0.4205
  899MPD2    H313230   4.130   4.220  16.855 -0.5474  0.9590 -0.2540
  899MPD2     N13231   4.256   4.347  17.255  0.0782 -0.2590  0.3885
  899MPD2    H513232   4.273   4.249  17.276  1.3409  0.0353  0.7342
  899MPD2    N113233   4.133   4.676  16.892  0.0700  0.0224 -0.6623
  899MPD2    H713234   4.097   4.681  16.798  1.3029 -0.9621 -1.1723
  900MPD2     C13235   3.834   1.499  12.780 -0.0805 -0.2886  0.2853
  900MPD2    C113236   3.742   1.390  12.775  0.2961 -0.2525  0.5995
  900MPD2    C213237   3.609   1.419  12.763 -0.3701  0.5776  0.3622
  900MPD2    C313238   3.573   1.554  12.772 -0.4162 -0.3863 -0.3845
  900MPD2    C413239   3.662   1.654  12.795  0.0803  0.0113  0.2990
  900MPD2    C513240   3.794   1.629  12.795 -0.0584 -0.1316  0.5843
  900MPD2     H13241   3.531   1.348  12.739  0.2229  0.0854 -0.1066
  900MPD2    H113242   3.620   1.752  12.816  0.4625  0.1896  0.2226
  900MPD2    H213243   3.940   1.482  12.792  0.3635  1.8646 -0.6078
  900MPD2    H313244   3.865   1.710  12.807 -0.9801  0.5832  1.2233
  900MPD2     N13245   3.434   1.586  12.754  0.5587 -0.6933  0.6945
  900MPD2    H513246   3.375   1.504  12.741  2.1504 -1.6962 -0.2289
  900MPD2    N113247   3.789   1.259  12.783  0.3213  0.8957  0.1477
  900MPD2    H713248   3.891   1.252  12.783  0.3574  1.4336 -1.2803
  901MPD2     C13249   3.643   0.159  12.696  1.0981 -0.1299  0.3946
  901MPD2    C113250   3.774   0.179  12.690  0.2376 -0.4342  0.4417
  901MPD2    C213251   3.826   0.304  12.717  0.1201 -0.3379  0.4683
  901MPD2    C313252   3.741   0.413  12.731  0.2897 -0.6723 -0.0348
  901MPD2    C413253   3.605   0.397  12.737  0.4505  0.0975  1.1313
  901MPD2    C513254   3.560   0.266  12.704  0.3377 -0.0721  0.9831
  901MPD2     H13255   3.932   0.324  12.707  0.3212 -0.9541  1.4504
  901MPD2    H113256   3.530   0.476  12.735  1.1914  0.8186  1.8956
  901MPD2    H213257   3.598   0.061  12.680 -0.7559  0.3907  2.2846
  901MPD2    H313258   3.453   0.253  12.711 -0.1174  2.8931 -0.3858
  901MPD2     N13259   3.797   0.546  12.741 -0.0704 -0.2880 -0.1731
  901MPD2    H513260   3.894   0.563  12.714 -0.0104  1.1992  0.9945
  901MPD2    N113261   3.852   0.067  12.665  0.3181 -0.5012 -0.3941
  901MPD2    H713262   3.797   4.721  12.650 -1.2009  0.2280  1.0911
  902MPD2     C13263   3.154   3.347  12.380 -0.0447 -0.0496  0.1509
  902MPD2    C113264   3.058   3.427  12.324  0.5122 -0.0653 -0.0332
  902MPD2    C213265   2.961   3.372  12.238  0.4056 -0.2554 -0.4485
  902MPD2    C313266   2.963   3.238  12.204 -0.0306 -0.3961  0.3685
  902MPD2    C413267   3.054   3.156  12.266  0.2906  0.2854 -0.0908
  902MPD2    C513268   3.143   3.213  12.357  0.6793  0.3275  0.2260
  902MPD2     H13269   2.890   3.444  12.197  1.1011  0.5811 -0.1942
  902MPD2    H113270   3.063   3.054  12.231 -1.7377 -0.4579  1.5686
  902MPD2    H213271   3.233   3.385  12.445 -1.0849  2.5139 -0.0806
  902MPD2    H313272   3.208   3.145  12.410  0.8938 -0.0226 -0.4784
  902MPD2     N13273   2.875   3.181  12.113 -0.4162  0.1631  0.1187
  902MPD2    H513274   2.877   3.079  12.105  2.8930  0.2834 -0.7875
  902MPD2    N113275   3.043   3.566  12.350  0.5100 -0.0647 -0.3582
  902MPD2    H713276   2.965   3.610  12.301 -0.3704  0.6675  1.7125
  903MPD2     C13277   2.314   3.098  11.380 -0.0994  0.2754  0.1015
  903MPD2    C113278   2.316   3.153  11.504 -0.5425 -0.0283 -0.1035
  903MPD2    C213279   2.213   3.226  11.557 -0.3643  0.3436 -0.1986
  903MPD2    C313280   2.104   3.247  11.468 -0.1214 -0.1269 -0.9832
  903MPD2    C413281   2.097   3.196  11.341  0.4146  0.2997 -0.3901
  903MPD2    C513282   2.205   3.118  11.296  0.0976  0.5000 -0.0551
  903MPD2     H13283   2.211   3.280  11.651 -4.7619 -3.3316  1.8215
  903MPD2    H113284   2.023   3.208  11.264 -0.2932 -1.9357 -0.0516
  903MPD2    H213285   2.392   3.037  11.335 -0.6599  0.1530 -0.6925
  903MPD2    H313286   2.206   3.065  11.201 -0.9247 -0.0942  0.2551
  903MPD2     N13287   2.000   3.330  11.517  0.3617  0.4495  0.1973
  903MPD2    H513288   2.026   3.398  11.588 -1.1514  0.7691  0.4477
  903MPD2    N113289   2.426   3.114  11.588  0.1068 -0.1607 -0.8522
  903MPD2    H713290   2.501   3.056  11.552  2.9770  1.9624  1.6877
  904MPD2     C13291   2.471   2.349  14.066  0.7557  0.6133  0.3737
  904MPD2    C113292   2.497   2.484  14.049  0.1344  0.2249  0.3948
  904MPD2    C213293   2.627   2.536  14.062 -0.5285 -0.2380  0.2046
  904MPD2    C313294   2.735   2.450  14.082 -0.3966  0.2083 -0.7986
  904MPD2    C413295   2.710   2.311  14.093  0.3842 -0.4956  0.9630
  904MPD2    C513296   2.578   2.261  14.081  0.1255  0.2230 -0.3212
  904MPD2     H13297   2.627   2.644  14.054 -1.4932 -0.1547  1.3531
  904MPD2    H113298   2.791   2.240  14.106  0.9136 -0.0881 -0.1735
  904MPD2    H213299   2.382   2.290  14.048  0.3231  2.0114 -2.0480
  904MPD2    H313300   2.567   2.154  14.071  3.6905 -0.4082  2.2084
  904MPD2     N13301   2.863   2.495  14.121  0.1955 -0.2129  0.3636
  904MPD2    H513302   2.928   2.431  14.164  0.7105  1.2211  1.7425
  904MPD2    N113303   2.393   2.577  14.034 -0.1732  0.0513  0.0278
  904MPD2    H713304   2.418   2.675  14.038  0.3395 -0.2444  4.2448
  905MPD2     C13305   2.117   3.140  13.614  0.2701  0.0173  0.3906
  905MPD2    C113306   2.208   3.036  13.623  0.5009  0.7444  0.1047
  905MPD2    C213307   2.298   3.025  13.515 -0.5779 -0.4172  0.4053
  905MPD2    C313308   2.295   3.116  13.406 -0.3319  0.7995  0.0843
  905MPD2    C413309   2.201   3.215  13.392  0.4980  0.0100 -0.1760
  905MPD2    C513310   2.118   3.222  13.501 -0.4496 -0.3537 -0.4008
  905MPD2     H13311   2.373   2.948  13.525 -0.3172 -0.2854 -0.6305
  905MPD2    H113312   2.201   3.284  13.309  1.9299 -0.3024 -0.4406
  905MPD2    H213313   2.044   3.163  13.691 -0.0709 -1.7489  0.5775
  905MPD2    H313314   2.055   3.310  13.503  1.2784  0.8792 -0.3535
  905MPD2     N13315   2.399   3.119  13.314  0.7466  0.1523 -0.4324
  905MPD2    H513316   2.412   3.205  13.261  0.8185  0.4821  0.1204
  905MPD2    N113317   2.222   2.968  13.745  0.3461  0.0911  0.1391
  905MPD2    H713318   2.293   2.896  13.737 -0.6591 -1.1520  2.5385
  906MPD2     C13319   4.502   2.920  11.569 -1.0388  0.8388 -0.6404
  906MPD2    C113320   4.420   2.862  11.474  0.1062  0.4845  0.2646
  906MPD2    C213321   4.297   2.813  11.516  0.0267 -0.1075 -0.0368
  906MPD2    C313322   4.265   2.798  11.650 -0.3927  0.7583  0.1876
  906MPD2    C413323   4.351   2.854  11.744 -0.0621 -0.6883  0.3448
  906MPD2    C513324   4.469   2.924  11.698 -0.4301  0.4263  0.7461
  906MPD2     H13325   4.232   2.775  11.438 -0.6688 -1.3838  1.1547
  906MPD2    H113326   4.323   2.854  11.849 -1.6679 -2.2844 -0.0789
  906MPD2    H213327   4.599   2.965  11.549 -0.2374  0.2826  1.9724
  906MPD2    H313328   4.529   2.964  11.779 -0.8703  0.2768  1.1450
  906MPD2     N13329   4.137   2.756  11.694  0.2274  0.5125 -1.0643
  906MPD2    H513330   4.118   2.787  11.789 -0.0880 -0.9063 -0.6677
  906MPD2    N113331   4.448   2.848  11.334 -0.0526 -0.5325 -0.3951
  906MPD2    H713332   4.386   2.794  11.275 -2.7135  0.0262  1.8882
  907MPD2     C13333   3.842   2.122  15.535  0.1815 -1.2442  0.6079
  907MPD2    C113334   3.773   2.001  15.553 -0.1216  0.3295  0.1431
  907MPD2    C213335   3.844   1.892  15.601 -0.3694 -0.1664 -0.0619
  907MPD2    C313336   3.979   1.901  15.629 -0.1609  0.6134 -0.2758
  907MPD2    C413337   4.044   2.015  15.600  0.2765  0.3481 -0.9025
  907MPD2    C513338   3.977   2.126  15.558 -0.1510  0.7791  0.3138
  907MPD2     H13339   3.798   1.796  15.619  2.1931 -1.1168  1.5630
  907MPD2    H113340   4.150   2.029  15.620 -0.1327  2.7860 -0.4629
  907MPD2    H213341   3.794   2.205  15.485  0.0475 -2.0117 -0.5361
  907MPD2    H313342   4.033   2.219  15.559  0.4589  0.3833  2.5783
  907MPD2     N13343   4.041   1.796  15.699  0.3159  0.6735 -0.1190
  907MPD2    H513344   3.993   1.707  15.689  2.5556 -0.0679 -4.0826
  907MPD2    N113345   3.635   1.984  15.528  0.0532  0.6687  0.2185
  907MPD2    H713346   3.601   1.891  15.552  1.4947 -0.0282 -0.4022
  908MPD2     C13347   1.016   3.189   9.680 -0.1424 -0.1583 -1.4345
  908MPD2    C113348   0.958   3.111   9.782  0.2095  0.0487  0.3764
  908MPD2    C213349   0.991   3.145   9.911  0.6969 -0.6397 -0.7740
  908MPD2    C313350   1.069   3.260   9.939 -0.1301 -0.0215  0.4756
  908MPD2    C413351   1.130   3.330   9.831 -0.2884  0.1084 -0.3381
  908MPD2    C513352   1.112   3.288   9.704  0.2862 -0.7946  0.6994
  908MPD2     H13353   0.956   3.079   9.989  0.3515  2.1312  1.4394
  908MPD2    H113354   1.186   3.423   9.834 -1.7689  0.9700  0.7448
  908MPD2    H213355   1.007   3.157   9.576 -0.8397 -0.6855 -1.2137
  908MPD2    H313356   1.149   3.343   9.618 -0.4871 -2.4773 -0.6999
  908MPD2     N13357   1.081   3.302  10.075  0.3994  0.4718 -0.3522
  908MPD2    H513358   1.052   3.226  10.136  3.2758 -0.2682  0.1160
  908MPD2    N113359   0.866   3.007   9.750  0.5367  0.0055  0.2962
  908MPD2    H713360   0.862   2.983   9.652 -0.0579  1.8730 -0.1319
  909MPD2     C13361   1.135   1.070  12.191  0.3049 -0.3330 -1.1921
  909MPD2    C113362   1.150   1.194  12.129  0.0440 -0.0641 -0.5814
  909MPD2    C213363   1.039   1.278  12.137 -0.0292 -0.1133 -0.2290
  909MPD2    C313364   0.922   1.234  12.208 -0.4312  0.3567 -0.1866
  909MPD2    C413365   0.920   1.104  12.257  0.1184  0.4261 -0.7678
  909MPD2    C513366   1.023   1.016  12.241  0.2524  0.0527  0.0573
  909MPD2     H13367   1.034   1.374  12.088 -1.0256 -0.2260 -0.3378
  909MPD2    H113368   0.836   1.047  12.295  0.3488 -1.0994 -2.5338
  909MPD2    H213369   1.210   0.993  12.179 -2.5014 -3.0099 -1.5538
  909MPD2    H313370   1.033   0.918  12.286 -0.3593 -0.8480 -1.7451
  909MPD2     N13371   0.809   1.323  12.217 -0.1016 -0.7297 -0.5162
  909MPD2    H513372   0.831   1.416  12.183  1.2317 -2.1057 -3.4112
  909MPD2    N113373   1.262   1.251  12.068  0.4674 -0.4071 -0.2191
  909MPD2    H713374   1.241   1.344  12.034 -3.6819 -0.5049  2.0624
  910MPD2     C13375   3.995   2.466  15.710  0.2968 -0.0260 -0.2578
  910MPD2    C113376   3.875   2.400  15.739 -0.4951  0.9948  0.3021
  910MPD2    C213377   3.756   2.438  15.687  0.6176  0.5720  0.1113
  910MPD2    C313378   3.750   2.552  15.616  0.4309 -0.2454 -0.3890
  910MPD2    C413379   3.869   2.613  15.588 -0.1577  0.8098 -0.3938
  910MPD2    C513380   3.988   2.571  15.627  0.8364 -0.4254  0.0655
  910MPD2     H13381   3.664   2.391  15.720  0.8948 -0.2827 -0.3331
  910MPD2    H113382   3.869   2.710  15.539 -1.8245  0.7093 -0.5984
  910MPD2    H213383   4.097   2.437  15.732  0.2898 -0.8223 -1.2409
  910MPD2    H313384   4.073   2.634  15.603 -0.0606  1.2285  1.3135
  910MPD2     N13385   3.629   2.612  15.579 -0.3858 -0.4019  0.5444
  910MPD2    H513386   3.618   2.681  15.505 -1.3024  0.9591  1.9471
  910MPD2    N113387   3.881   2.285  15.827  0.3131  0.4860  0.2448
  910MPD2    H713388   3.796   2.231  15.836 -0.7985  1.9123 -1.6774
  911MPD2     C13389   1.156   3.125  16.215 -0.3991 -0.0023 -0.1644
  911MPD2    C113390   1.199   3.251  16.258 -0.2266  0.0765  0.7388
  911MPD2    C213391   1.141   3.370  16.212 -0.1636  0.4023 -0.2592
  911MPD2    C313392   1.051   3.360  16.105  0.2042 -0.6076  0.5113
  911MPD2    C413393   1.008   3.231  16.068 -0.1623 -0.1856 -0.0645
  911MPD2    C513394   1.066   3.118  16.122 -0.8603 -0.3080  0.4563
  911MPD2     H13395   1.175   3.466  16.249  1.3141 -0.0297 -0.4605
  911MPD2    H113396   0.932   3.218  15.992  0.9009 -3.0365 -0.6295
  911MPD2    H213397   1.195   3.027  16.242 -0.6321  0.7509  2.9418
  911MPD2    H313398   1.038   3.021  16.084  0.6917  0.4201 -2.5528
  911MPD2     N13399   0.994   3.465  16.033 -0.1655 -0.4179 -0.2430
  911MPD2    H513400   0.920   3.442  15.967  1.1173 -0.5912 -1.6058
  911MPD2    N113401   1.300   3.242  16.355  0.1383 -0.1443 -0.1792
  911MPD2    H713402   1.341   3.150  16.371  0.8057 -0.0143 -1.1435
  912MPD2     C13403   0.961   3.231  15.465  0.1108 -0.1566 -0.2019
  912MPD2    C113404   0.889   3.254  15.584 -0.6292 -0.7066  0.2124
  912MPD2    C213405   0.826   3.150  15.642 -0.2360  0.4142 -0.3767
  912MPD2    C313406   0.835   3.020  15.593  0.1339 -0.2965  0.9274
  912MPD2    C413407   0.922   2.998  15.488 -0.0004 -0.0452 -0.0392
  912MPD2    C513408   0.976   3.101  15.425  0.1976  0.0936  0.1325
  912MPD2     H13409   0.761   3.168  15.726  0.1726 -2.8859  0.6686
  912MPD2    H113410   0.950   2.900  15.448  2.9144  0.4162  0.8535
  912MPD2    H213411   0.993   3.312  15.400  0.8652  0.2130  0.6443
  912MPD2    H313412   1.018   3.081  15.327  1.4049  0.5202  0.5521
  912MPD2     N13413   0.760   2.917  15.657 -0.2223 -1.1359  0.5439
  912MPD2    H513414   0.704   2.947  15.736 -1.1458 -2.1182  0.2581
  912MPD2    N113415   0.868   3.393  15.619 -0.1956 -0.2895 -0.2474
  912MPD2    H713416   0.894   3.464  15.550 -0.3978  0.6465  0.6369
  913MPD2     C13417   1.537   0.744  11.047  0.0506  0.1678  0.7212
  913MPD2    C113418   1.564   0.627  11.119 -0.4016  0.1863  0.0996
  913MPD2    C213419   1.620   0.519  11.054 -0.0940 -0.0574  0.0567
  913MPD2    C313420   1.649   0.528  10.922  0.0212 -0.9196  0.1478
  913MPD2    C413421   1.622   0.645  10.854 -0.5388  0.3277 -0.1691
  913MPD2    C513422   1.571   0.750  10.920  0.2202  0.3077 -0.0098
  913MPD2     H13423   1.645   0.434  11.117 -0.8685  0.1037  0.5871
  913MPD2    H113424   1.640   0.641  10.747 -2.7162 -0.7044 -0.5038
  913MPD2    H213425   1.476   0.824  11.088 -0.1744 -0.1028  0.9176
  913MPD2    H313426   1.545   0.837  10.861  0.8345 -0.8239 -1.9581
  913MPD2     N13427   1.685   0.414  10.844 -0.2087 -0.1232  0.6531
  913MPD2    H513428   1.698   0.443  10.747  1.8690 -0.2443  0.8903
  913MPD2    N113429   1.544   0.627  11.260 -0.3487 -0.0026 -0.2809
  913MPD2    H713430   1.499   0.716  11.282  0.8737  0.5511  0.0308
  914MPD2     C13431   3.332   4.657  12.552  0.4192  0.4030  0.9101
  914MPD2    C113432   3.405   0.009  12.467 -0.7188 -0.2477 -0.6397
  914MPD2    C213433   3.519   4.691  12.401  0.1480  0.0772 -0.2976
  914MPD2    C313434   3.571   4.564  12.441 -0.5234 -0.3456  0.6039
  914MPD2    C413435   3.489   4.481  12.518 -0.1091  0.7481  0.2396
  914MPD2    C513436   3.373   4.523  12.569 -0.1384 -0.0427 -0.2439
  914MPD2     H13437   3.577   0.017  12.335  1.3226  1.4997  2.1322
  914MPD2    H113438   3.520   4.380  12.541  0.8815  1.0140  0.0772
  914MPD2    H213439   3.250   4.684  12.617  1.2925  1.0140  1.7551
  914MPD2    H313440   3.308   4.465  12.634  0.3716  1.0998  1.3044
  914MPD2     N13441   3.709   4.541  12.430  0.3697 -0.3806 -0.3775
  914MPD2    H513442   3.778   4.601  12.386 -0.2346 -0.4625 -1.4304
  914MPD2    N113443   3.370   0.143  12.457  0.5558 -0.3254 -0.3998
  914MPD2    H713444   3.283   0.175  12.497 -0.1321 -1.0896 -1.2808
  915MPD2     C13445   2.018   4.617  15.354 -0.5463  0.2343  0.1880
  915MPD2    C113446   1.887   4.662  15.335  0.8323  0.1611  0.8517
  915MPD2    C213447   1.831   4.735  15.425 -0.0571 -0.2377 -0.6344
  915MPD2    C313448   1.894   0.024  15.544 -0.4607 -0.3078  0.1639
  915MPD2    C413449   2.024   4.723  15.570  0.2149  0.3275 -1.1196
  915MPD2    C513450   2.080   4.654  15.469 -0.6304 -0.1176  0.3452
  915MPD2     H13451   1.731   0.037  15.406  0.1789 -0.1838 -1.7678
  915MPD2    H113452   2.085   0.026  15.651  0.0887 -2.8873  0.6040
  915MPD2    H213453   2.069   4.559  15.278 -1.8475  1.9121 -1.9578
  915MPD2    H313454   2.185   4.630  15.481 -0.5600  0.7268  1.4005
  915MPD2     N13455   1.833   0.120  15.624 -0.0367 -0.1000  0.2137
  915MPD2    H513456   1.751   0.160  15.582  0.4994  0.6688 -0.1024
  915MPD2    N113457   1.806   4.625  15.219  0.1181 -0.4479  0.4221
  915MPD2    H713458   1.716   4.669  15.206  0.5939 -0.1303 -1.6836
  916MPD2     C13459   0.391   3.081  15.777 -0.0134 -0.4003 -0.2766
  916MPD2    C113460   0.299   2.987  15.816  0.5148 -0.6177 -0.2104
  916MPD2    C213461   0.278   2.877  15.734 -0.1032  0.2614 -0.0754
  916MPD2    C313462   0.344   2.862  15.616  0.4513  0.1867 -0.1501
  916MPD2    C413463   0.435   2.959  15.583  0.3109 -0.7101 -0.2087
  916MPD2    C513464   0.453   3.067  15.664 -0.4177 -0.0431  0.7623
  916MPD2     H13465   0.197   2.807  15.749  0.2880 -0.4513 -1.3076
  916MPD2    H113466   0.487   2.958  15.488  0.3515 -3.1027 -0.1804
  916MPD2    H213467   0.401   3.173  15.833 -0.1633 -0.9063  0.5861
  916MPD2    H313468   0.519   3.145  15.629 -0.0827  0.1110  1.7424
  916MPD2     N13469   0.297   2.763  15.525  0.2562 -0.2954  0.4352
  916MPD2    H513470   0.224   2.701  15.558  0.0234 -0.2745 -0.0312
  916MPD2    N113471   0.229   3.016  15.936 -0.2285  0.2114 -0.2973
  916MPD2    H713472   0.252   3.101  15.988 -0.3553  0.6444 -0.9570
  917MPD2     C13473   4.655   0.430  10.898  0.2469  0.0539  0.1505
  917MPD2    C113474   0.009   0.483  10.991  0.4327  0.1689 -0.1880
  917MPD2    C213475   0.112   0.564  10.944  0.3592 -0.2364  0.4629
  917MPD2    C313476   0.135   0.583  10.813 -0.4192  0.6894 -0.0825
  917MPD2    C413477   0.044   0.529  10.722  0.9062  0.2467  0.3268
  917MPD2    C513478   4.673   0.455  10.767 -0.2895 -0.1727 -0.8081
  917MPD2     H13479   0.188   0.595  11.014  0.4258 -2.0378  1.1822
  917MPD2    H113480   0.058   0.551  10.617 -0.2251  0.8989  0.3035
  917MPD2    H213481   4.574   0.373  10.942 -0.1260 -1.1664 -2.1225
  917MPD2    H313482   4.602   0.420  10.693 -0.0982  0.5488 -1.3334
  917MPD2     N13483   0.243   0.661  10.766 -0.5223 -0.7015  0.4062
  917MPD2    H513484   0.250   0.677  10.666 -1.0745  0.4716  0.5530
  917MPD2    N113485   4.718   0.470  11.130  0.4254 -0.3058  0.1943
  917MPD2    H713486   4.633   0.422  11.158  0.1738 -1.0310 -1.7330
  918MPD2     C13487   0.331   0.981  11.889  0.7412 -0.0153 -0.2181
  918MPD2    C113488   0.414   0.884  11.840  0.2320 -0.0695  0.2048
  918MPD2    C213489   0.353   0.781  11.769 -0.0448  0.2801  0.5202
  918MPD2    C313490   0.214   0.762  11.759 -0.8184 -0.8944 -0.2836
  918MPD2    C413491   0.135   0.862  11.809 -0.3946  0.8333 -0.5560
  918MPD2    C513492   0.196   0.970  11.875 -0.7912  0.0745 -0.0026
  918MPD2     H13493   0.424   0.707  11.735  0.3127  0.7019  0.3354
  918MPD2    H113494   0.027   0.852  11.812 -0.3407  0.3070 -0.4507
  918MPD2    H213495   0.377   1.060  11.948 -0.1508  0.7959 -0.6225
  918MPD2    H313496   0.129   1.034  11.932  0.2098  1.0761  0.0449
  918MPD2     N13497   0.169   0.643  11.702 -0.1753 -0.0019  0.4005
  918MPD2    H513498   0.241   0.591  11.652  0.2250 -0.0899  1.0790
  918MPD2    N113499   0.551   0.872  11.876 -0.5604  0.3735 -0.0249
  918MPD2    H713500   0.602   0.798  11.830 -1.6447 -0.0662 -0.5251
  919MPD2     C13501   0.743   4.427  12.244  1.2015 -0.3305  0.6273
  919MPD2    C113502   0.736   4.299  12.191 -0.0017 -0.6596  0.5323
  919MPD2    C213503   0.790   4.280  12.064  0.1388  0.0517 -0.7920
  919MPD2    C313504   0.846   4.389  12.001  0.2434 -0.7779  0.1404
  919MPD2    C413505   0.841   4.513  12.055 -0.6648 -0.2739  0.1861
  919MPD2    C513506   0.797   4.530  12.178 -0.2269  0.0783 -0.4098
  919MPD2     H13507   0.785   4.183  12.016  0.6484 -0.3606 -0.0067
  919MPD2    H113508   0.882   4.594  11.996  0.3046  0.7503  2.2698
  919MPD2    H213509   0.692   4.451  12.336 -0.7706 -0.1320 -0.5106
  919MPD2    H313510   0.803   4.630  12.219 -2.9269  0.1769 -0.2579
  919MPD2     N13511   0.898   4.381  11.871 -0.1774 -0.3192  0.2261
  919MPD2    H513512   0.901   4.472  11.825 -1.1577 -0.4138 -0.0267
  919MPD2    N113513   0.665   4.195  12.259 -0.4733  0.0531  0.2926
  919MPD2    H713514   0.636   4.118  12.199 -0.9210  1.5241 -1.3733
  920MPD2     C13515   0.222   4.553  11.164 -0.4085 -0.0358  0.3892
  920MPD2    C113516   0.266   4.429  11.136  0.3207  0.9804  0.6500
  920MPD2    C213517   0.385   4.385  11.188 -0.6115 -0.0235 -0.4214
  920MPD2    C313518   0.467   4.466  11.261 -0.8106 -0.0618 -0.5303
  920MPD2    C413519   0.424   4.596  11.289  0.2626 -0.3845 -0.7900
  920MPD2    C513520   0.300   4.635  11.243  0.9062  0.0121 -0.4039
  920MPD2     H13521   0.425   4.286  11.172  0.2425  0.1297  0.7991
  920MPD2    H113522   0.467   4.665  11.361  0.8867 -1.3522 -0.2348
  920MPD2    H213523   0.124   4.588  11.133 -0.2036 -1.7519 -2.2201
  920MPD2    H313524   0.267   4.737  11.260  3.5521  0.1248  4.0290
  920MPD2     N13525   0.584   4.407  11.314 -0.3241 -0.7189 -0.1467
  920MPD2    H513526   0.615   4.317  11.279  0.6780  0.2751 -1.8205
  920MPD2    N113527   0.193   4.338  11.059  0.3826 -0.1429  0.5811
  920MPD2    H713528   0.229   4.243  11.052 -0.3816 -0.3324 -0.6282
  921MPD2     C13529   1.869   3.972  16.695 -0.1988 -0.3047 -0.4648
  921MPD2    C113530   1.938   3.857  16.726 -0.0630  0.8020  0.1393
  921MPD2    C213531   1.871   3.737  16.734 -0.3213 -0.3725  0.2172
  921MPD2    C313532   1.738   3.729  16.693  0.2631 -0.3159 -0.6469
  921MPD2    C413533   1.670   3.854  16.690 -0.2275  0.0229  0.1177
  921MPD2    C513534   1.731   3.974  16.685  0.6769 -0.4581  0.2071
  921MPD2     H13535   1.926   3.643  16.737 -2.3528 -1.5507  0.2131
  921MPD2    H113536   1.563   3.862  16.672  0.0792  2.2818 -0.6860
  921MPD2    H213537   1.914   4.068  16.678  0.1202 -0.6434 -1.5288
  921MPD2    H313538   1.676   4.061  16.652  0.8750 -0.0384  0.9964
  921MPD2     N13539   1.663   3.611  16.669  0.8652 -0.2773  0.9801
  921MPD2    H513540   1.572   3.624  16.626  1.0030  0.8622  1.0400
  921MPD2    N113541   2.077   3.867  16.739 -0.2865  0.6547 -0.1854
  921MPD2    H713542   2.120   3.951  16.702  1.2805 -0.1491 -0.1891
  922MPD2     C13543   2.460   1.579  16.704 -0.2813  0.2486 -0.3015
  922MPD2    C113544   2.465   1.557  16.838  0.2522 -0.3484 -0.3403
  922MPD2    C213545   2.435   1.430  16.886 -0.3548 -0.2161 -0.2549
  922MPD2    C313546   2.410   1.321  16.809  0.0670  0.0541  0.4479
  922MPD2    C413547   2.403   1.352  16.677  0.1915  0.2383  0.2635
  922MPD2    C513548   2.437   1.473  16.628  0.2175  0.7149  0.6518
  922MPD2     H13549   2.443   1.420  16.994 -1.1628 -1.7812 -0.3407
  922MPD2    H113550   2.389   1.274  16.603 -1.2036  1.0679 -0.3350
  922MPD2    H213551   2.475   1.677  16.659  0.4959 -0.2003 -1.0126
  922MPD2    H313552   2.429   1.478  16.520 -2.4527  1.6278  0.9118
  922MPD2     N13553   2.364   1.193  16.856  0.1401 -0.7011 -0.9793
  922MPD2    H513554   2.309   1.138  16.790  1.1648  0.2033 -2.5955
  922MPD2    N113555   2.504   1.655  16.933  0.0072 -0.0869  0.9200
  922MPD2    H713556   2.489   1.630  17.030  2.7238 -0.7793  1.1523
  923MPD2     C13557   2.808   2.973   8.473  0.3140 -0.3799  0.0246
  923MPD2    C113558   2.799   3.082   8.563  0.3140 -0.0154  0.4019
  923MPD2    C213559   2.894   3.092   8.669  1.1091 -0.0790 -0.2387
  923MPD2    C313560   2.999   2.998   8.676 -0.5377  0.5426  0.3191
  923MPD2    C413561   3.006   2.903   8.575 -0.1019  0.2996  0.2958
  923MPD2    C513562   2.920   2.893   8.469 -0.3067 -0.1005 -0.0749
  923MPD2     H13563   2.875   3.167   8.744  1.1753 -0.7538  0.4482
  923MPD2    H113564   3.093   2.838   8.575 -0.6447 -0.4277  0.1160
  923MPD2    H213565   2.732   2.957   8.398  2.4913 -1.4691 -1.9777
  923MPD2    H313566   2.924   2.813   8.397  0.7950 -0.1876  0.0889
  923MPD2     N13567   3.102   3.004   8.778  0.0591  0.2579  0.2245
  923MPD2    H513568   3.187   2.952   8.759  1.2319  2.8099 -1.4952
  923MPD2    N113569   2.688   3.162   8.559  0.5547  0.7248  0.2433
  923MPD2    H713570   2.615   3.128   8.497  0.4304 -0.3375  0.9641
  924MPD2     C13571   3.845   0.942  15.761 -0.0480  0.4480  0.2122
  924MPD2    C113572   3.864   1.013  15.880 -0.1916 -0.3183 -0.1238
  924MPD2    C213573   3.967   1.106  15.892  0.1348  0.3974  0.5130
  924MPD2    C313574   4.028   1.156  15.783 -0.2358 -0.4800  0.3205
  924MPD2    C413575   3.992   1.104  15.656 -0.5744 -0.2105 -0.1971
  924MPD2    C513576   3.919   0.986  15.647  0.2861  0.1985 -0.3119
  924MPD2     H13577   3.993   1.142  15.991  1.6118  0.6865  0.0121
  924MPD2    H113578   4.040   1.139  15.565  1.4026  0.5114  1.1133
  924MPD2    H213579   3.767   0.868  15.754 -1.5955  1.8522  2.5428
  924MPD2    H313580   3.895   0.937  15.553 -0.0444 -0.6250  0.2059
  924MPD2     N13581   4.117   1.262  15.806  0.2772 -0.2971  0.1233
  924MPD2    H513582   4.114   1.298  15.901 -1.2293  1.0517 -0.4287
  924MPD2    N113583   3.784   0.996  15.998 -0.2595 -0.2163 -0.2415
  924MPD2    H713584   3.829   1.023  16.085  1.3219  0.6605 -1.3403
  925MPD2     C13585   2.486   3.669  14.863 -0.1287 -0.4116 -0.0765
  925MPD2    C113586   2.464   3.787  14.803 -0.1129  0.5632  0.2129
  925MPD2    C213587   2.455   3.900  14.881 -0.1371  1.1054  0.2659
  925MPD2    C313588   2.460   3.901  15.019  0.4453  0.0606  0.4602
  925MPD2    C413589   2.471   3.771  15.076 -0.2783 -0.8698 -0.3685
  925MPD2    C513590   2.494   3.661  14.995 -0.4360 -0.3471 -0.4893
  925MPD2     H13591   2.441   3.991  14.823 -1.9144  1.4033  1.1675
  925MPD2    H113592   2.469   3.764  15.184  0.5500 -0.1020 -0.2992
  925MPD2    H213593   2.496   3.568  14.825 -0.9711 -0.2630 -0.6903
  925MPD2    H313594   2.497   3.568  15.050  0.1328 -0.6911 -1.1035
  925MPD2     N13595   2.446   4.004  15.108 -0.2881 -0.0756 -0.1190
  925MPD2    H513596   2.460   3.987  15.208  1.5709 -0.3933 -0.4417
  925MPD2    N113597   2.456   3.798  14.664  0.1474  0.7943 -0.5133
  925MPD2    H713598   2.457   3.894  14.630  2.5095  1.2529  0.8362
  926MPD2     C13599   1.332   2.591  13.396 -0.7794 -0.8541  0.2013
  926MPD2    C113600   1.199   2.585  13.342  0.2692 -0.2498  0.3593
  926MPD2    C213601   1.173   2.620  13.214 -0.7043 -0.0410 -1.1984
  926MPD2    C313602   1.281   2.656  13.128  0.0439 -0.1206  0.8385
  926MPD2    C413603   1.404   2.652  13.181 -0.5322 -0.1922  0.6151
  926MPD2    C513604   1.430   2.627  13.314  0.8125 -0.0635  0.1978
  926MPD2     H13605   1.071   2.618  13.178 -1.1652  1.3756  0.0575
  926MPD2    H113606   1.490   2.661  13.115 -0.5214  1.8815  0.9108
  926MPD2    H213607   1.354   2.568  13.500 -1.4747  0.2658  0.5976
  926MPD2    H313608   1.537   2.615  13.326  0.7489 -1.9649 -1.1495
  926MPD2     N13609   1.258   2.701  12.999 -0.2268 -1.2753  0.4077
  926MPD2    H513610   1.163   2.698  12.965 -0.0709  1.8412 -0.3149
  926MPD2    N113611   1.093   2.574  13.437  0.5675  0.3353  0.0219
  926MPD2    H713612   1.007   2.601  13.391 -0.7645 -1.8946  1.1623
  927MPD2     C13613   0.863   0.401  17.192 -0.2580 -1.0976 -0.4582
  927MPD2    C113614   0.986   0.369  17.240 -0.0503  0.0229  0.3854
  927MPD2    C213615   1.075   0.312  17.144  0.3745 -0.3440 -0.0767
  927MPD2    C313616   1.042   0.283  17.013 -0.6727 -0.3401  0.1987
  927MPD2    C413617   0.914   0.320  16.971 -0.1882 -0.6729  0.3357
  927MPD2    C513618   0.822   0.371  17.063 -0.5977 -0.7333 -0.4249
  927MPD2     H13619   1.176   0.293  17.180  0.1349 -0.2382  0.6552
  927MPD2    H113620   0.895   0.316  16.864 -0.1617 -1.2873  0.3507
  927MPD2    H213621   0.779   0.430  17.254  3.3130  1.2059  3.2702
  927MPD2    H313622   0.721   0.396  17.035  0.0189  2.9914  0.5811
  927MPD2     N13623   1.144   0.247  16.921 -0.0931  0.7947  0.2516
  927MPD2    H513624   1.237   0.251  16.961  0.6505  2.2124 -1.6046
  927MPD2    N113625   0.999   0.377  17.377  0.0543 -0.0051 -0.3777
  927MPD2    H713626   0.910   0.403  17.420  0.2053 -0.5566  0.2705
  928MPD2     C13627   3.921   3.475   0.943 -0.2921  0.1300  0.0576
  928MPD2    C113628   4.048   3.526   0.954 -0.1081 -1.0515  0.5663
  928MPD2    C213629   4.116   3.575   0.841 -0.5754 -0.1219 -0.3414
  928MPD2    C313630   4.060   3.556   0.714 -0.2627  0.1369 -1.0035
  928MPD2    C413631   3.944   3.487   0.707  0.0809  0.2103  0.1001
  928MPD2    C513632   3.873   3.458   0.815 -0.5220  0.5633 -0.3863
  928MPD2     H13633   4.211   3.626   0.848  0.0143 -0.9552 -2.1627
  928MPD2    H113634   3.887   3.470   0.617 -0.9197 -1.0476  0.9664
  928MPD2    H213635   3.871   3.445   1.034 -0.0178 -2.1182 -0.5445
  928MPD2    H313636   3.775   3.415   0.796  0.0954 -0.7411 -0.6134
  928MPD2     N13637   4.126   3.586   0.590 -0.0674 -0.4635  0.3403
  928MPD2    H513638   4.071   3.563   0.508  0.9579 -0.1610 -0.4288
  928MPD2    N113639   4.102   3.556   1.078  0.3190 -0.3256  0.3269
  928MPD2    H713640   4.038   3.532   1.153 -0.5568  0.9304 -0.0262
  929MPD2     C13641   3.852   2.901  10.348 -0.4466 -0.0490 -0.1695
  929MPD2    C113642   3.726   2.959  10.357 -0.6638 -0.2823 -0.5249
  929MPD2    C213643   3.689   3.052  10.259 -0.3213  0.5312 -0.1795
  929MPD2    C313644   3.773   3.070  10.148  0.2917  0.6896  0.4609
  929MPD2    C413645   3.891   2.996  10.134 -0.2138 -0.0020  0.5917
  929MPD2    C513646   3.928   2.915  10.238 -0.8886  1.3574  0.4262
  929MPD2     H13647   3.602   3.113  10.276  0.6543  1.6041  1.0159
  929MPD2    H113648   3.955   2.996  10.046 -0.2648 -1.0918  0.5551
  929MPD2    H213649   3.886   2.841  10.431 -0.9947 -0.6938 -0.4136
  929MPD2    H313650   4.024   2.867  10.222 -1.3926 -0.0500  1.5536
  929MPD2     N13651   3.742   3.151  10.037 -0.0935 -0.3775  0.1090
  929MPD2    H513652   3.806   3.147   9.958 -2.7330  3.0466 -2.1956
  929MPD2    N113653   3.644   2.923  10.463  0.8074 -0.0333 -0.1830
  929MPD2    H713654   3.687   2.877  10.543 -0.9081  1.0389  1.3731
  930MPD2     C13655   0.715   0.890  13.659  0.4177 -0.3012  0.0796
  930MPD2    C113656   0.815   0.824  13.582 -0.1277 -0.6112 -0.6259
  930MPD2    C213657   0.780   0.714  13.504 -0.6763 -0.1221  0.1348
  930MPD2    C313658   0.654   0.649  13.509 -0.0119  0.0640 -0.8018
  930MPD2    C413659   0.559   0.708  13.590 -0.0428 -0.1635 -0.3385
  930MPD2    C513660   0.594   0.821  13.668  0.7473  0.3694  0.5097
  930MPD2     H13661   0.859   0.669  13.445 -0.3714 -1.4869  1.5836
  930MPD2    H113662   0.458   0.670  13.602 -0.4512  1.7227  2.0116
  930MPD2    H213663   0.710   0.984  13.712 -2.2546 -0.1327 -0.4671
  930MPD2    H313664   0.514   0.873  13.718 -0.9003 -0.3895 -1.3395
  930MPD2     N13665   0.611   0.528  13.441  0.6214 -0.0057 -0.5108
  930MPD2    H513666   0.526   0.485  13.477  2.3193 -1.5893  1.6302
  930MPD2    N113667   0.939   0.887  13.559  0.6977 -0.6570 -0.0085
  930MPD2    H713668   0.983   0.946  13.629  0.5949 -0.5126 -0.0658
  931MPD2     C13669   1.565   0.106   0.052  0.4662  0.4333  0.0501
  931MPD2    C113670   1.467   0.140   0.141 -0.0747  0.6667 -0.1380
  931MPD2    C213671   1.492   0.121   0.278  0.1675 -0.3488 -0.0078
  931MPD2    C313672   1.601   0.050   0.317 -0.7455  0.7834  0.1169
  931MPD2    C413673   1.694   0.016   0.227  0.2289 -0.3558 -0.2769
  931MPD2    C513674   1.674   0.041   0.095  0.2158  0.1591  0.3065
  931MPD2     H13675   1.421   0.154   0.352  0.9475  0.8229  0.2192
  931MPD2    H113676   1.783   4.700   0.259  1.3989  0.2025 -2.6299
  931MPD2    H213677   1.534   0.114  17.698 -0.2441 -0.9815  0.1569
  931MPD2    H313678   1.743   0.003   0.020  0.9182  1.5953  0.2252
  931MPD2     N13679   1.616   0.011   0.452  0.7025 -0.4541  0.6855
  931MPD2    H513680   1.707   4.707   0.470  0.5636 -0.7397  0.7187
  931MPD2    N113681   1.354   0.203   0.090 -0.0531 -0.2903 -0.3238
  931MPD2    H713682   1.346   0.204  17.739  1.5667 -0.0571 -0.4474
  932MPD2     C13683   2.346   3.548  11.123 -0.6187  0.0404  0.9123
  932MPD2    C113684   2.468   3.581  11.049 -0.4186 -0.3778 -0.1240
  932MPD2    C213685   2.521   3.478  10.967 -0.4101  0.0944 -0.1764
  932MPD2    C313686   2.472   3.351  10.967  0.7138 -0.0977 -0.2698
  932MPD2    C413687   2.356   3.324  11.037 -0.0447  1.1175 -0.0345
  932MPD2    C513688   2.297   3.417  11.111  0.4169  0.1866  0.1482
  932MPD2     H13689   2.611   3.503  10.912 -0.2796 -0.5902 -0.2721
  932MPD2    H113690   2.318   3.223  11.024  0.7488  0.6081  1.6008
  932MPD2    H213691   2.290   3.623  11.177  0.6534 -0.1908  2.5437
  932MPD2    H313692   2.196   3.400  11.149  0.0165 -1.4244 -1.6291
  932MPD2     N13693   2.547   3.246  10.901 -0.1856  0.1980  0.5030
  932MPD2    H513694   2.521   3.151  10.927  4.1511 -1.1553 -0.1741
  932MPD2    N113695   2.539   3.706  11.063  0.1531 -0.0643 -0.5145
  932MPD2    H713696   2.625   3.716  11.010  0.7407  0.2856  0.5140
  933MPD2     C13697   4.056   3.863   1.880 -0.3206  0.4329  0.9756
  933MPD2    C113698   4.018   3.861   1.741 -0.6239  0.0344  0.3825
  933MPD2    C213699   3.921   3.954   1.710 -0.6211  0.6700  0.3604
  933MPD2    C313700   3.853   4.031   1.805 -0.7315 -0.2269 -0.9636
  933MPD2    C413701   3.883   4.016   1.938 -0.0415  0.3746 -0.3807
  933MPD2    C513702   3.983   3.934   1.974  0.1534 -0.0022 -0.5066
  933MPD2     H13703   3.896   3.980   1.607 -3.1904 -2.1592  0.2485
  933MPD2    H113704   3.834   4.083   2.008 -0.5289 -0.5980  0.2063
  933MPD2    H213705   4.135   3.797   1.915 -0.4865 -0.0873  0.3653
  933MPD2    H313706   4.020   3.929   2.076 -1.3421  1.2538  0.1009
  933MPD2     N13707   3.758   4.125   1.748  0.2512 -0.6283  0.2695
  933MPD2    H513708   3.740   4.117   1.648  1.5761  0.0824 -0.0251
  933MPD2    N113709   4.090   3.781   1.654  0.1576  0.9150  0.3976
  933MPD2    H713710   4.150   3.711   1.696 -1.6244 -0.9523 -0.1677
  934MPD2     C13711   0.243   0.816   1.665  0.7492  0.1831 -0.4306
  934MPD2    C113712   0.346   0.834   1.567 -0.4281  0.2445  0.9621
  934MPD2    C213713   0.323   0.803   1.432  0.5823  0.4164 -0.5267
  934MPD2    C313714   0.199   0.763   1.390  0.0585 -0.1395  0.8774
  934MPD2    C413715   0.096   0.763   1.485 -0.2106  0.3822  0.0755
  934MPD2    C513716   0.123   0.783   1.620 -0.0003 -0.1679 -0.4914
  934MPD2     H13717   0.401   0.820   1.359  1.9042  2.1413  1.3195
  934MPD2    H113718   4.733   0.746   1.451  0.0041 -0.0048 -0.3648
  934MPD2    H213719   0.262   0.838   1.770 -0.9984  1.1907 -0.3242
  934MPD2    H313720   0.036   0.798   1.684  0.4737  1.0058 -0.1211
  934MPD2     N13721   0.161   0.739   1.253 -0.0016 -0.5757 -0.2005
  934MPD2    H513722   0.061   0.729   1.247 -0.3971  2.4865  1.2212
  934MPD2    N113723   0.472   0.886   1.596  0.0301  0.6799 -0.2365
  934MPD2    H713724   0.531   0.898   1.515 -1.9979  1.4056 -1.6093
  935MPD2     C13725   0.643   0.253   0.517  0.1642 -0.4586  0.1172
  935MPD2    C113726   0.510   0.205   0.509 -0.3214  0.4352 -0.3693
  935MPD2    C213727   0.415   0.283   0.574 -0.4109  0.3948  0.2268
  935MPD2    C313728   0.450   0.398   0.653 -0.7045 -0.3039 -0.4217
  935MPD2    C413729   0.583   0.432   0.653 -0.4131  0.3465  0.6064
  935MPD2    C513730   0.671   0.360   0.587  0.3702 -0.0557 -0.3585
  935MPD2     H13731   0.310   0.259   0.563 -0.7642  0.9178  2.4887
  935MPD2    H113732   0.617   0.518   0.711 -0.3040 -0.3702  1.6042
  935MPD2    H213733   0.716   0.200   0.458 -0.8308  0.2099 -1.7050
  935MPD2    H313734   0.773   0.395   0.582  0.0797  0.8838  0.2333
  935MPD2     N13735   0.367   0.472   0.734  0.5196 -0.0457  0.3759
  935MPD2    H513736   0.413   0.546   0.787  0.8290 -1.0968  1.5577
  935MPD2    N113737   0.476   0.093   0.430 -0.2522 -0.1460  0.5913
  935MPD2    H713738   0.377   0.073   0.415 -0.0900 -1.0386  0.7581
  936MPD2     C13739   3.469   2.099  13.005 -0.1265 -0.4461  0.3082
  936MPD2    C113740   3.430   2.232  12.969  0.3098  0.1110 -0.1868
  936MPD2    C213741   3.485   2.277  12.848 -0.0884  0.1125  0.2807
  936MPD2    C313742   3.567   2.204  12.767 -0.2319  0.1879 -0.8512
  936MPD2    C413743   3.599   2.073  12.803 -0.0197 -0.5351 -0.3140
  936MPD2    C513744   3.557   2.027  12.923 -0.0140  0.2449  0.3449
  936MPD2     H13745   3.466   2.379  12.818  1.8164  0.6531  0.9381
  936MPD2    H113746   3.672   2.017  12.745 -0.4232 -1.5768  0.1844
  936MPD2    H213747   3.443   2.048  13.096 -1.3153  2.2683  1.5016
  936MPD2    H313748   3.577   1.922  12.940  1.3166  0.6172  1.1398
  936MPD2     N13749   3.614   2.249  12.636 -0.3452  0.0734  0.4261
  936MPD2    H513750   3.660   2.185  12.572  2.3091  1.4798  0.9313
  936MPD2    N113751   3.337   2.308  13.045 -0.3716 -0.3095  0.1571
  936MPD2    H713752   3.324   2.402  13.009  1.0592 -0.3910 -0.5402
  937MPD2     C13753   0.494   3.530  12.077  0.4180  0.0891  0.5266
  937MPD2    C113754   0.530   3.665  12.068 -0.0270 -0.0026 -0.4942
  937MPD2    C213755   0.612   3.699  11.964 -0.6585  0.3938 -0.5738
  937MPD2    C313756   0.635   3.609  11.860 -0.2888  0.1118 -0.1490
  937MPD2    C413757   0.587   3.478  11.861  0.2985 -0.5063 -0.0957
  937MPD2    C513758   0.518   3.444  11.972  0.0716 -0.0571  0.2875
  937MPD2     H13759   0.631   3.805  11.962  1.0900  0.0844  0.1234
  937MPD2    H113760   0.604   3.405  11.783  1.9795 -0.1286 -0.1044
  937MPD2    H213761   0.444   3.500  12.168  1.9473  1.1265  1.7036
  937MPD2    H313762   0.477   3.344  11.977 -0.8547  0.3398  0.6466
  937MPD2     N13763   0.714   3.660  11.752  0.0832  0.1748  0.2800
  937MPD2    H513764   0.761   3.749  11.764 -2.1833  1.5427 -1.0690
  937MPD2    N113765   0.501   3.764  12.176  0.1798  0.4383  0.0256
  937MPD2    H713766   0.530   3.857  12.150  0.6378  0.3776  0.3210
  938MPD2     C13767   3.820   0.370   0.146  0.1034  0.0607 -0.2820
  938MPD2    C113768   3.884   0.465   0.223 -0.7820 -0.7486 -0.0433
  938MPD2    C213769   3.917   0.442   0.361  0.2990 -0.4004 -0.6665
  938MPD2    C313770   3.855   0.331   0.418  0.1149  0.4399 -0.0436
  938MPD2    C413771   3.786   0.239   0.343  0.3631 -0.1762 -0.2546
  938MPD2    C513772   3.788   0.253   0.209 -0.4092  0.1110 -0.4218
  938MPD2     H13773   3.980   0.514   0.413 -2.1870  2.1839 -1.2180
  938MPD2    H113774   3.760   0.143   0.385 -1.0970 -0.5652 -2.0794
  938MPD2    H213775   3.810   0.375   0.039  0.6179  3.0524 -0.1909
  938MPD2    H313776   3.747   0.170   0.152 -0.4537  0.1031 -0.3784
  938MPD2     N13777   3.866   0.304   0.553  0.0812 -0.3702  0.3770
  938MPD2    H513778   3.794   0.250   0.599 -0.7737  1.3418  1.0824
  938MPD2    N113779   3.942   0.583   0.163  0.2625  0.0538 -0.2253
  938MPD2    H713780   4.018   0.632   0.210  0.8390 -1.3104  0.2522
  939MPD2     C13781   0.216   1.528   0.400  0.3906  0.7425 -0.1286
  939MPD2    C113782   0.078   1.540   0.397 -0.1178 -0.1129  0.4219
  939MPD2    C213783   0.007   1.528   0.280 -0.1138 -0.0421 -0.1128
  939MPD2    C313784   0.072   1.489   0.161  0.2170  0.8613  0.5401
  939MPD2    C413785   0.211   1.486   0.164 -0.2087  0.0909  0.2104
  939MPD2    C513786   0.280   1.504   0.283  0.3871  0.2856  0.7330
  939MPD2     H13787   4.637   1.543   0.280 -0.1566 -0.3417  0.3341
  939MPD2    H113788   0.276   1.473   0.079 -2.3572  1.2538 -1.6035
  939MPD2    H213789   0.283   1.543   0.484 -0.4523 -0.0296  0.6809
  939MPD2    H313790   0.388   1.500   0.286  0.4949  1.2746 -1.7575
  939MPD2     N13791   4.732   1.460   0.044  0.0308 -0.2034  0.8721
  939MPD2    H513792   4.633   1.460   0.063 -0.2103 -2.3996 -0.4157
  939MPD2    N113793   0.019   1.564   0.523 -0.1634 -0.2337  0.7213
  939MPD2    H713794   0.085   1.575   0.600  0.3351 -1.8984  0.5270
  940MPD2     C13795   4.117   2.429  13.507  0.4320  0.1646 -1.0038
  940MPD2    C113796   4.007   2.387  13.437 -1.1269 -0.3057  0.5570
  940MPD2    C213797   4.031   2.342  13.306 -0.5768 -0.7202  0.2473
  940MPD2    C313798   4.155   2.345  13.258 -0.0376  0.3851 -0.6740
  940MPD2    C413799   4.266   2.374  13.336 -0.2921 -0.4617  0.2062
  940MPD2    C513800   4.241   2.418  13.464 -0.6631 -0.3858  0.4527
  940MPD2     H13801   3.947   2.292  13.258 -1.9820  2.0504 -0.1947
  940MPD2    H113802   4.367   2.353  13.305 -0.0903  1.1110 -0.2015
  940MPD2    H213803   4.101   2.470  13.606 -0.8837  0.4468 -1.3276
  940MPD2    H313804   4.328   2.448  13.522  0.2804 -0.4064 -0.9493
  940MPD2     N13805   4.183   2.290  13.127 -0.3984  0.5743  0.4972
  940MPD2    H513806   4.282   2.281  13.106 -1.1896 -2.4324 -1.9206
  940MPD2    N113807   3.870   2.393  13.483 -0.4003  0.7311 -0.3013
  940MPD2    H713808   3.809   2.359  13.409  0.2235 -1.1075  0.0432
  941MPD2     C13809   2.376   1.566  10.533  0.6205 -0.1147 -0.1451
  941MPD2    C113810   2.502   1.517  10.551 -0.6897 -0.8798  0.1290
  941MPD2    C213811   2.519   1.381  10.565  1.1916  0.4869  0.5887
  941MPD2    C313812   2.412   1.293  10.557 -0.1770 -0.2268  0.2815
  941MPD2    C413813   2.288   1.348  10.553 -0.4156 -0.8117  0.2437
  941MPD2    C513814   2.268   1.478  10.538 -1.1857 -0.9607  0.2261
  941MPD2     H13815   2.625   1.358  10.572  0.7975 -1.3113  0.6063
  941MPD2    H113816   2.203   1.281  10.551 -1.1087  0.1184 -1.0435
  941MPD2    H213817   2.354   1.670  10.512 -0.3839 -0.6353 -1.6786
  941MPD2    H313818   2.168   1.520  10.535 -0.9761 -0.4130  0.9631
  941MPD2     N13819   2.421   1.151  10.551 -0.3895 -0.2285  0.0194
  941MPD2    H513820   2.329   1.108  10.552 -0.0643 -0.9156 -0.2970
  941MPD2    N113821   2.612   1.604  10.534  0.0512 -0.4957 -0.1276
  941MPD2    H713822   2.701   1.555  10.531  0.9514  1.1650 -0.5657
  942MPD2     C13823   2.738   3.467   9.355 -0.4260  0.2008  0.4144
  942MPD2    C113824   2.620   3.429   9.302  0.2389  0.1066 -0.4153
  942MPD2    C213825   2.618   3.342   9.193 -0.3428 -0.3278  0.2636
  942MPD2    C313826   2.734   3.286   9.138  0.0541 -0.5813  0.3506
  942MPD2    C413827   2.855   3.313   9.202 -0.2696  0.0164  0.1266
  942MPD2    C513828   2.854   3.398   9.310 -0.3431  0.0769  0.1366
  942MPD2     H13829   2.519   3.327   9.152 -0.1660 -2.5613  0.6303
  942MPD2    H113830   2.946   3.257   9.184  0.0763 -0.0521  1.9943
  942MPD2    H213831   2.759   3.538   9.434  0.2403 -0.1435  0.5469
  942MPD2    H313832   2.954   3.423   9.344 -0.2602  0.8107 -0.6449
  942MPD2     N13833   2.735   3.189   9.038  0.1412  0.3291  0.5380
  942MPD2    H513834   2.825   3.145   9.021 -0.1904 -0.8325  1.7888
  942MPD2    N113835   2.490   3.469   9.340 -0.0916  0.2571 -0.5857
  942MPD2    H713836   2.416   3.439   9.278  0.1627 -0.7424 -0.4096
  943MPD2     C13837   1.450   1.019   9.396  0.2196 -0.6796  0.3984
  943MPD2    C113838   1.494   0.984   9.525  0.1607 -0.5105 -0.4433
  943MPD2    C213839   1.523   1.087   9.620 -0.3434 -0.2098 -0.3983
  943MPD2    C313840   1.515   1.220   9.584 -0.4652 -0.0560  0.0209
  943MPD2    C413841   1.495   1.249   9.452 -0.4024  0.3649 -0.3322
  943MPD2    C513842   1.468   1.147   9.365 -0.7857  0.2115 -0.2915
  943MPD2     H13843   1.561   1.073   9.721 -1.6511 -2.0224 -0.1367
  943MPD2    H113844   1.506   1.351   9.416 -0.2663  0.2871 -0.5118
  943MPD2    H213845   1.418   0.947   9.321  0.7024  1.4395 -1.8475
  943MPD2    H313846   1.449   1.176   9.262  1.8005  1.0371 -0.5387
  943MPD2     N13847   1.546   1.320   9.683 -0.1361  0.0190 -0.4238
  943MPD2    H513848   1.567   1.282   9.774  0.4770 -1.3317 -1.1311
  943MPD2    N113849   1.510   0.845   9.562 -0.1372 -0.4921 -0.1196
  943MPD2    H713850   1.469   0.777   9.498  0.3129  0.8419 -1.8284
  944MPD2     C13851   1.751   1.232  10.764  0.1151 -0.3146 -0.3640
  944MPD2    C113852   1.705   1.170  10.883 -0.3371  0.3341 -0.1827
  944MPD2    C213853   1.584   1.199  10.940  0.2164 -0.8696  0.1709
  944MPD2    C313854   1.522   1.320  10.903 -1.4745 -0.2878 -0.0287
  944MPD2    C413855   1.576   1.396  10.795  0.7855  0.4486  0.5845
  944MPD2    C513856   1.682   1.343  10.721 -0.0271  0.7518  0.5507
  944MPD2     H13857   1.542   1.153  11.029 -2.3034 -1.6584 -1.4305
  944MPD2    H113858   1.539   1.493  10.766  2.1432  0.7953  0.0194
  944MPD2    H213859   1.840   1.197  10.715  0.1892  0.1028 -0.5310
  944MPD2    H313860   1.718   1.400  10.636  0.8488 -2.2838 -1.0841
  944MPD2     N13861   1.422   1.376  10.988 -0.2031 -0.1319 -0.3999
  944MPD2    H513862   1.399   1.327  11.074 -0.6055 -2.6757 -1.9851
  944MPD2    N113863   1.783   1.067  10.939 -0.1870  0.4645 -0.4364
  944MPD2    H713864   1.868   1.058  10.885 -1.4054 -0.0381 -2.2745
    1TMC1    C113865   4.712   0.794  14.344 -0.6360 -0.4030  0.2047
    1TMC1    C213866   4.631   0.811  14.240 -0.5435  0.0203  0.4129
    1TMC1    C313867   4.592   0.700  14.174 -0.3122 -0.4352 -0.0484
    1TMC1    C413868   0.008   0.672  14.393  0.6817 -0.1236  0.3280
    1TMC1    C513869   4.704   0.559  14.327 -0.3232  0.1077  0.2243
    1TMC1    C613870   4.633   0.574  14.210  0.3319 -0.2806 -0.5126
    1TMC1     C13871   0.043   0.913  14.388  0.5798 -0.2549 -0.2008
    1TMC1     O13872   0.150   0.885  14.435  0.3655 -0.2707 -0.2366
    1TMC1     H13873   4.596   0.905  14.199 -0.6889 -0.4743 -0.5869
    1TMC1    H113874   0.074   0.657  14.477 -2.1719  2.7554  3.0578
    1TMC1    H213875   4.615   0.486  14.148 -1.2387 -0.8149  0.7044
    1TMC1    C713876   0.030   0.428  14.341 -0.0432 -0.0679  0.1061
    1TMC1    C813877   4.548   0.723  14.042  0.0835  0.1118  0.2521
    1TMC1    O113878   0.042   0.371  14.447  0.1649  0.8609 -0.7622
    1TMC1    O213879   4.568   0.828  13.984  0.1727 -0.2311  0.0232
    1TMC1    O313880   0.137   0.452  14.260 -0.2386 -0.2682  0.0652
    1TMC1    H313881   0.115   0.502  14.178  2.7456 -0.2913 -0.7560
    1TMC1    O513882   4.471   0.619  14.011  0.8488  0.0777  0.2981
    1TMC1    H513883   4.434   0.549  14.069  1.5284 -0.6744 -0.1660
    2MPD2     C13884   0.084   1.411  14.506  0.0983 -0.2411 -0.4746
    2MPD2    C113885   4.687   1.368  14.511 -0.7020  0.0640 -0.4592
    2MPD2    C213886   4.657   1.235  14.494  0.2379 -0.1694 -0.7210
    2MPD2    C313887   0.014   1.150  14.455  0.2450  0.2860 -0.4336
    2MPD2    C413888   0.150   1.189  14.450 -0.2540  0.4048  0.2369
    2MPD2    C513889   0.184   1.321  14.471  0.7083  0.6344  0.3093
    2MPD2     H13890   4.551   1.214  14.486 -0.3036  1.5222  1.8957
    2MPD2    H113891   0.227   1.134  14.396  0.7356 -0.1647  2.2013
    2MPD2    H213892   0.110   1.515  14.521 -0.1287 -0.1083 -1.0036
    2MPD2    H313893   0.290   1.338  14.455  0.6358 -0.9023 -1.8796
    2MPD2     N13894   4.706   1.027  14.400  0.5270 -0.3773 -0.2522
    2MPD2    H513895   4.605   1.015  14.403  0.5170 -0.0695  0.5458
    2MPD2    N113896   4.587   1.456  14.555  0.1415  0.0866 -0.4711
    2MPD2    H713897   4.594   1.554  14.532  0.8842  0.0295 -0.4754
    3TMC2    C113898   4.386   1.544  14.634  0.4199  0.1978  0.6058
    3TMC2    C213899   4.261   1.521  14.681 -0.1209  0.2340  0.0881
    3TMC2    C313900   4.193   1.626  14.723 -1.1232 -0.0365 -0.3796
    3TMC2    C413901   4.448   1.664  14.623  0.8926  0.4433  0.1616
    3TMC2    C513902   4.374   1.769  14.672 -0.0597  0.7424  0.3951
    3TMC2    C613903   4.244   1.754  14.713 -0.0781  0.0689  0.9003
    3TMC2     C13904   4.469   1.429  14.620  0.4414  0.3075 -0.2172
    3TMC2     O13905   4.432   1.329  14.673  0.6359 -0.0930  0.2538
    3TMC2     H13906   4.217   1.425  14.659  0.1562  0.7322 -2.5910
    3TMC2    H113907   4.547   1.686  14.585  1.9422 -2.6624  1.0438
    3TMC2    H213908   4.189   1.835  14.760 -0.5613  0.2491  0.0309
    3TMC2    C713909   4.442   1.894  14.698  0.1258 -0.5012  0.2207
    3TMC2    C813910   4.061   1.608  14.775 -0.1484  0.2285 -0.3718
    3TMC2    O113911   4.567   1.892  14.702  0.8184  0.3023 -0.4357
    3TMC2    O213912   3.987   1.698  14.800  0.0096 -0.5213  0.4151
    3TMC2    O513913   4.051   1.486  14.834 -0.5421  0.3737 -0.3148
    3TMC2    H513914   4.135   1.438  14.851  0.4683  2.0376 -0.6288
    4TMC2    C113915   4.046   2.673  14.228 -0.1089  0.6075 -0.2124
    4TMC2    C213916   4.105   2.791  14.266  0.2857 -0.5742 -0.5426
    4TMC2    C313917   4.158   2.799  14.394 -0.2386 -0.3645  0.1329
    4TMC2    C413918   4.040   2.571  14.314 -0.5452  0.1790 -0.5625
    4TMC2    C513919   4.101   2.578  14.439 -0.3850  0.4695 -0.2262
    4TMC2    C613920   4.162   2.693  14.480  0.6540 -0.2393 -0.7120
    4TMC2     C13921   3.964   2.671  14.106 -0.1508 -0.8306 -0.1566
    4TMC2     O13922   4.005   2.743  14.015  0.0031 -0.1596 -0.0268
    4TMC2     H13923   4.121   2.869  14.193 -2.7287  0.8231  0.2779
    4TMC2    H113924   3.997   2.479  14.276  1.1463 -1.0429  0.4530
    4TMC2    H213925   4.182   2.711  14.585 -2.0366 -0.4728 -0.1671
    4TMC2    C713926   4.169   2.456  14.487  0.1785 -0.4243 -0.4943
    4TMC2    C813927   4.191   2.920  14.457  0.2969 -0.0678  0.3471
    4TMC2    O113928   4.131   2.351  14.436  0.3692 -0.2421 -0.0081
    4TMC2    O213929   4.240   2.929  14.571 -0.4249 -0.1088 -0.2847
    4TMC2    O513930   4.117   3.015  14.398  0.3894  0.0039 -0.5271
    4TMC2    H513931   4.068   2.994  14.315 -1.5842  1.5515  0.2496
    5MPD2     C13932   3.516   2.641  13.859  0.9758  0.0280 -0.0770
    5MPD2    C113933   3.640   2.690  13.821 -0.3302 -0.6948  0.2805
    5MPD2    C213934   3.741   2.681  13.913  0.6588  0.2612  1.0186
    5MPD2    C313935   3.729   2.625  14.037  0.1830 -0.0629 -0.5342
    5MPD2    C413936   3.605   2.577  14.074  0.2387 -0.3646  0.8273
    5MPD2    C513937   3.499   2.586  13.987 -0.1319 -0.0991 -0.5095
    5MPD2     H13938   3.840   2.710  13.882 -0.6145  2.0019 -1.4345
    5MPD2    H113939   3.575   2.539  14.171  1.2756  0.2898  1.3985
    5MPD2    H213940   3.429   2.649  13.795  0.6683 -0.4998  0.2680
    5MPD2    H313941   3.399   2.554  14.012  0.0197 -0.8443 -0.8695
    5MPD2     N13942   3.835   2.625  14.130  0.5049 -0.0284 -0.6978
    5MPD2    H513943   3.822   2.578  14.219 -0.7953  1.7239  0.0337
    5MPD2    N113944   3.656   2.736  13.690  0.6915  0.2009 -0.0194
    5MPD2    H713945   3.574   2.724  13.632 -0.9029  0.2346  2.2394
    6MPD1     C13946   3.589   2.959  11.739 -0.3395 -0.1566  0.2026
    6MPD1    C113947   3.458   2.970  11.788 -0.7123 -0.1766 -1.0810
    6MPD1    C213948   3.446   2.949  11.926  0.5002  0.3865 -0.2454
    6MPD1    C313949   3.562   2.935  12.004 -0.0201 -0.1570 -0.0072
    6MPD1    C413950   3.684   2.932  11.957 -0.7725 -0.4602 -0.4375
    6MPD1    C513951   3.698   2.951  11.822  0.4301  0.3688  0.0124
    6MPD1     H13952   3.343   2.959  11.960  0.3924 -1.6050  0.0314
    6MPD1    H113953   3.771   2.918  12.020  0.6699  1.6446 -1.9374
    6MPD1    H213954   3.611   2.989  11.637 -0.9461  2.6325  0.8705
    6MPD1    H313955   3.795   2.941  11.773 -0.0408 -3.2944 -0.1664
    6MPD1     N13956   3.563   2.928  12.148  0.1607  0.3519 -0.1493
    6MPD1    H513957   3.654   2.911  12.189 -0.1473 -1.1871 -0.1082
    6MPD1    N113958   3.346   2.972  11.707  0.0482 -0.0500 -0.8060
    6MPD1    H613959   3.364   3.021  11.620 -1.2263  1.7352 -0.0765
    6MPD1    H713960   3.269   3.019  11.754  2.4189  0.4796  2.5869
    7MPD2     C13961   3.240   2.899  12.965  0.4293 -0.4328  0.3001
    7MPD2    C113962   3.373   2.870  12.925  0.6623  0.2186  0.1392
    7MPD2    C213963   3.468   2.814  13.001  0.0863  0.2902  0.3240
    7MPD2    C313964   3.437   2.785  13.136 -1.1307 -0.7212 -0.0668
    7MPD2    C413965   3.310   2.826  13.184 -0.6227  0.1079  0.5413
    7MPD2    C513966   3.220   2.888  13.101 -0.0339  0.1965  0.2368
    7MPD2     H13967   3.567   2.796  12.961 -0.5729  0.1207 -1.2186
    7MPD2    H113968   3.278   2.803  13.286 -1.6372 -0.0460  0.1863
    7MPD2    H213969   3.172   2.952  12.899  0.2916  1.5830  2.0616
    7MPD2    H313970   3.121   2.911  13.140 -0.9009  0.3254 -2.0183
    7MPD2     N13971   3.528   2.715  13.219  0.0458 -0.3703 -0.3226
    7MPD2    H513972   3.497   2.702  13.315 -0.2488 -0.9211 -0.4954
    7MPD2    N113973   3.420   2.900  12.801 -0.3452 -0.1796  0.3271
    7MPD2    H713974   3.518   2.875  12.793  0.3735  2.0914  2.0963
    8TMC3    C113975   3.743   2.655  13.304 -0.2462  0.2688  0.0660
    8TMC3    C213976   3.697   2.693  13.429 -0.3274 -0.3848 -0.1217
    8TMC3    C313977   3.784   2.775  13.498 -0.5736  0.0929  0.0296
    8TMC3    C413978   3.868   2.674  13.266 -0.6144  0.0672 -0.3242
    8TMC3    C513979   3.942   2.775  13.326 -0.3743 -0.5127  0.0718
    8TMC3    C613980   3.909   2.819  13.451 -0.4681 -0.2651 -0.3914
    8TMC3     C13981   3.659   2.673  13.193 -0.3431 -0.4240  0.0828
    8TMC3     O13982   3.710   2.686  13.082  0.0917  0.2537 -0.1598
    8TMC3     H13983   3.599   2.663  13.464 -0.9549  0.4149 -1.1891
    8TMC3    H113984   3.909   2.613  13.186  0.7570  2.0594 -1.1437
    8TMC3    H213985   3.969   2.886  13.511  0.4294 -1.1039 -0.3362
    8TMC3    C713986   4.003   2.866  13.233 -0.1762 -0.7174 -0.0583
    8TMC3    C813987   3.773   2.787  13.644 -0.2201 -0.2068 -0.3478
    8TMC3    O113988   4.074   2.957  13.267  0.0686 -0.5133 -1.0355
    8TMC3    O213989   3.880   2.827  13.698  0.0842  0.0755  0.3787
    9TMC3    C113990   3.494   2.986  12.360 -0.5521  0.1334 -0.1417
    9TMC3    C213991   3.624   3.016  12.384 -0.1899 -0.3257 -0.2981
    9TMC3    C313992   3.668   3.014  12.511 -0.3235  0.9962 -0.2564
    9TMC3    C413993   3.403   2.969  12.464  0.2936 -0.3389 -0.4350
    9TMC3    C513994   3.451   2.977  12.589  0.4218 -0.3001  0.4520
    9TMC3    C613995   3.586   2.989  12.616  0.6498 -0.7323  0.1004
    9TMC3     C13996   3.455   2.955  12.226  0.4794 -0.2756 -0.2176
    9TMC3     O13997   3.337   2.961  12.194  0.0223 -0.4749  0.4137
    9TMC3     H13998   3.676   3.063  12.301  0.4389 -1.6915 -0.6705
    9TMC3    H113999   3.298   2.957  12.444  0.1981 -1.6468  0.8979
    9TMC3    H214000   3.610   3.013  12.719 -0.6023 -2.3405  0.7628
    9TMC3    C714001   3.359   2.956  12.694  0.3703  0.2707  0.4977
    9TMC3    C814002   3.807   3.019  12.542  0.6475  0.0086 -0.1110
    9TMC3    O114003   3.241   2.954  12.669 -0.3666  0.0504 -0.0213
    9TMC3    O214004   3.878   3.101  12.495 -0.5718 -0.2452 -0.7097
   10MPD2     C14005   4.103   2.981  12.966  0.2418 -0.0035 -0.9298
   10MPD2    C114006   3.995   2.901  12.984 -0.0479 -0.3227 -0.0879
   10MPD2    C214007   3.906   2.890  12.881 -0.7499  0.8743 -0.4525
   10MPD2    C314008   3.928   2.957  12.760  0.4311 -0.7811 -0.8361
   10MPD2    C414009   4.040   3.034  12.741  0.4859  0.1663  0.6055
   10MPD2    C514010   4.127   3.044  12.847  0.1634  0.0532  0.2466
   10MPD2     H14011   3.816   2.832  12.901 -0.8757  1.7594  1.5522
   10MPD2    H114012   4.056   3.091  12.651  3.0027  0.2114  1.0601
   10MPD2    H214013   4.180   2.982  13.042  1.7116 -0.9224 -2.3907
   10MPD2    H314014   4.213   3.110  12.844  0.2435 -0.0679 -0.1171
   10MPD2     N14015   3.823   2.944  12.662  0.2935  0.2479  0.5644
   10MPD2    H514016   3.748   2.877  12.678  0.1843  0.8136  2.3558
   10MPD2    N114017   3.956   2.837  13.108  0.0322 -0.1679  0.0781
   10MPD2    H714018   3.874   2.777  13.107 -0.3935  0.3952  1.7310
   11MPD2     C14019   4.499   2.181  14.768  0.1769  0.2193 -0.4136
   11MPD2    C114020   4.388   2.137  14.693 -0.5180 -0.1642 -0.2989
   11MPD2    C214021   4.316   2.237  14.630 -0.5209 -0.0309 -0.1377
   11MPD2    C314022   4.350   2.370  14.635  0.2797  0.5520 -0.6421
   11MPD2    C414023   4.458   2.406  14.711  0.1434  0.4366 -0.0918
   11MPD2    C514024   4.538   2.312  14.775  0.1046  0.2650 -0.3507
   11MPD2     H14025   4.221   2.224  14.580 -1.0742 -0.1381  0.9489
   11MPD2    H114026   4.474   2.511  14.732  2.2129  0.1480 -0.2492
   11MPD2    H214027   4.561   2.112  14.822 -1.0699  0.3797  1.2168
   11MPD2    H314028   4.618   2.339  14.842  0.7988  0.0002 -1.0742
   11MPD2     N14029   4.269   2.475  14.579 -0.0007 -0.1320 -0.5310
   11MPD2    H514030   4.303   2.570  14.588  0.4340 -0.3458  0.0586
   11MPD2    N114031   4.359   2.001  14.676 -0.2709  0.9090  0.1297
   11MPD2    H714032   4.264   1.988  14.643 -1.1460  1.5021  2.4234
    1MPD1     C14033   2.952   4.458  16.912  0.4747  0.5567 -0.0910
    1MPD1    C114034   3.069   4.482  16.979  0.1671  0.1492 -0.7164
    1MPD1    C214035   3.120   4.389  17.063 -0.4343  0.2041 -0.1296
    1MPD1    C314036   3.045   4.273  17.092 -0.4055  0.1716  0.6518
    1MPD1    C414037   2.924   4.253  17.030 -0.6001  0.1592  0.4624
    1MPD1    C514038   2.877   4.346  16.949 -0.1984  0.3501  0.3770
    1MPD1     H14039   3.207   4.406  17.125 -1.8679 -1.8548  2.4781
    1MPD1    H114040   2.862   4.165  17.046  1.3923 -1.1447  1.0367
    1MPD1    H214041   2.912   4.530  16.842 -0.6381  1.3365  1.3569
    1MPD1    H314042   2.784   4.327  16.896  1.0033 -1.5353 -1.0338
    1MPD1     N14043   3.080   4.174  17.186 -0.2998  0.3728 -0.2739
    1MPD1    H514044   3.015   4.097  17.201  0.6541 -0.4809 -0.5471
    1MPD1    N114045   3.135   4.604  16.951  0.3896  0.1557  0.5523
    1MPD1    H614046   3.203   4.632  17.021  2.2936  0.5381 -1.4525
    1MPD1    H714047   3.088   4.684  16.909 -0.0730  0.3581  1.4763
    2MPD1     C14048   2.590   3.832   0.008 -0.5648  0.3892  0.2789
    2MPD1    C114049   2.591   3.923  17.660  0.4685 -0.3584 -0.8277
    2MPD1    C214050   2.705   3.940  17.592  0.1383  0.0464  0.3714
    2MPD1    C314051   2.827   3.868  17.628  0.4222 -0.2293 -1.2180
    2MPD1    C414052   2.825   3.797  17.747 -0.3080 -0.1034 -0.1709
    2MPD1    C514053   2.705   3.786   0.054 -0.1442  0.1539 -0.0195
    2MPD1     H14054   2.707   4.019  17.518 -0.9035  1.9253  2.3235
    2MPD1    H114055   2.911   3.742   0.035  1.0157  2.7812  1.0347
    2MPD1    H214056   2.501   3.812   0.066 -0.9818 -2.7232 -1.4490
    2MPD1    H314057   2.698   3.726   0.143 -0.0025  1.4691  0.8785
    2MPD1     N14058   2.940   3.897  17.555  0.7271 -0.0609 -0.2320
    2MPD1    H514059   2.930   3.965  17.481 -2.3315  0.6704  0.8561
    2MPD1    N114060   2.470   3.989  17.629  0.1245 -0.4257  0.3391
    2MPD1    H614061   2.483   4.069  17.567 -1.4013  1.7566  2.8368
    2MPD1    H714062   2.409   4.015  17.706  0.0397  2.6466 -0.7767
    3TMC3    C114063   3.159   3.913  17.504 -0.2761  0.1463  0.2054
    3TMC3    C214064   3.279   3.847  17.505  0.2122 -0.0102 -0.2237
    3TMC3    C314065   3.364   3.865  17.402 -0.3505 -0.3572  0.0172
    3TMC3    C414066   3.123   4.004  17.401  0.0379  0.1783 -0.5107
    3TMC3    C514067   3.223   4.030  17.310 -0.0215 -0.4359  0.1066
    3TMC3    C614068   3.345   3.967  17.311  0.3712 -0.2477 -0.2193
    3TMC3     C14069   3.070   3.867  17.589  0.6505 -0.0116  0.0832
    3TMC3     O14070   3.111   3.810  17.693 -0.2296 -0.2863  0.2492
    3TMC3     H14071   3.296   3.776  17.586  0.7187  0.2178 -0.1271
    3TMC3    H114072   3.033   4.063  17.414 -0.3624 -0.4732 -0.3535
    3TMC3    H214073   3.427   4.014  17.258  0.0949 -0.9422 -1.2513
    3TMC3    C714074   3.210   4.139  17.223 -1.0605  0.5515  0.0361
    3TMC3    C814075   3.496   3.811  17.421  0.3198 -0.1857  0.4201
    3TMC3    O114076   3.313   4.196  17.189  0.0719 -0.5323  0.1524
    3TMC3    O214077   3.524   3.757  17.526  0.0794  0.3722  0.0556
    4MPD1     C14078   3.916   3.626  17.179 -0.9343 -1.6081  0.4369
    4MPD1    C114079   3.820   3.656  17.090  0.3334 -0.1440 -0.1875
    4MPD1    C214080   3.710   3.716  17.134  0.1159 -0.3411  1.3623
    4MPD1    C314081   3.680   3.747  17.264 -0.7129 -0.9020  0.0874
    4MPD1    C414082   3.777   3.708  17.355 -0.1189  0.1978 -0.2063
    4MPD1    C514083   3.895   3.643  17.317 -0.2603 -0.7147 -0.7249
    4MPD1     H14084   3.636   3.737  17.057  0.5087 -0.1483  1.0395
    4MPD1    H114085   3.779   3.747  17.456  0.7434  0.8226 -0.4643
    4MPD1    H214086   4.004   3.567  17.153  1.3822  2.7575 -1.5221
    4MPD1    H314087   3.969   3.610  17.389  0.7809 -1.5096 -2.1485
    4MPD1     N14088   3.558   3.801  17.294 -0.0928 -0.1854  0.1145
    4MPD1    H514089   3.492   3.809  17.217 -1.8849  2.4745  1.9169
    4MPD1    N114090   3.835   3.608  16.957 -0.2009  0.5822  0.9687
    4MPD1    H614091   3.932   3.605  16.925 -0.6513 -1.5548 -0.1896
    4MPD1    H714092   3.782   3.661  16.887 -0.1348  1.6384  1.7108
    1TCq1    O114093   3.514   3.212  11.320  0.2749 -0.1628  0.5233
    1TCq1    C114094   3.381   3.234  11.376 -0.3733  0.1378 -0.8233
    1TCq1    O214095   3.355   3.238  11.495  0.3662  0.1082 -0.0373
    1TCq1    C214096   3.275   3.217  11.272  0.0903  0.3387 -0.1214
    1TCq1    C314097   3.304   3.164  11.150 -0.1593 -0.7727  0.0760
    1TCq1    C414098   3.205   3.166  11.063 -0.1456  0.2153  0.3970
    1TCq1    C514099   3.074   3.196  11.094  0.7729  0.8364 -0.3454
    1TCq1    C614100   3.045   3.240  11.216  0.1605 -0.1074 -0.9332
    1TCq1    C714101   3.148   3.267  11.299  0.6642 -0.0932 -0.2285
    1TCq1    C814102   2.907   3.254  11.266  0.1542 -0.1952  0.3103
    1TCq1    O414103   2.823   3.212  11.188 -0.7090 -0.7589 -0.1006
    1TCq1    C914104   3.217   3.091  10.946  0.7872  0.4386 -0.2312
    1TCq1    O514105   3.115   3.027  10.905 -0.0791  0.2312  0.2194
    1TCq1    O614106   3.337   3.082  10.903 -0.1932  0.3112 -0.4957
    1TCq1    H114107   3.517   3.220  11.222 -3.4762 -0.3048  0.3786
    1TCq1    H214108   3.406   3.154  11.113 -0.4126 -0.9584 -0.5649
    1TCq1    H314109   2.995   3.175  11.022  1.5429  0.6922 -1.1473
    1TCq1    H414110   3.140   3.324  11.390  0.2523 -0.2338 -0.1758
    2MPD1     C14111   2.536   3.462  11.557 -0.2247  0.1138  0.1704
    2MPD1    C114112   2.646   3.441  11.639 -0.3347 -0.5586 -0.2445
    2MPD1    C214113   2.767   3.387  11.586  0.4541 -0.7002 -0.4129
    2MPD1    C314114   2.774   3.352  11.451 -0.1059  0.1171  0.3929
    2MPD1    C414115   2.662   3.383  11.369 -0.4054 -0.8617  0.5610
    2MPD1    C514116   2.552   3.440  11.427 -0.5169 -0.2104 -1.0023
    2MPD1     H14117   2.853   3.367  11.649  2.0822 -2.2671 -3.0707
    2MPD1    H114118   2.665   3.382  11.261 -0.5076 -2.5867  0.5710
    2MPD1    H214119   2.447   3.513  11.591  0.7316  0.6004  1.9459
    2MPD1    H314120   2.475   3.478  11.361 -0.0051 -2.9138 -3.1637
    2MPD1     N14121   2.891   3.291  11.399 -0.5912 -0.1465 -0.0743
    2MPD1    H514122   2.965   3.280  11.467  0.4001  2.2149 -0.7713
    2MPD1    N114123   2.635   3.481  11.774 -0.0497  0.4246  0.7928
    2MPD1    H614124   2.681   3.418  11.838 -0.8599 -1.2258 -0.2452
    2MPD1    H714125   2.539   3.500  11.803 -0.3343  0.5930 -0.2353
    1TMC1    C114126   1.317   0.654  17.325  0.0236  0.3593  0.2899
    1TMC1    C214127   1.372   0.630  17.205 -0.8352 -0.1254  0.3416
    1TMC1    C314128   1.300   0.669  17.094  1.0093  0.0765  0.6703
    1TMC1    C414129   1.197   0.732  17.332 -0.0309 -1.2848 -0.3604
    1TMC1    C514130   1.137   0.770  17.216  0.4479 -0.0105 -0.3269
    1TMC1    C614131   1.177   0.729  17.093 -0.1016  0.6970 -0.7058
    1TMC1     C14132   1.389   0.618  17.444 -0.8494  0.2818 -0.3122
    1TMC1     O14133   1.505   0.577  17.432 -0.2744  0.6108  0.0899
    1TMC1     H14134   1.462   0.570  17.194  0.0560  1.4321 -0.7745
    1TMC1    H114135   1.146   0.759  17.424  0.2729  1.9133 -1.1048
    1TMC1    H214136   1.130   0.759  17.000 -0.1505 -0.4071 -1.0387
    1TMC1    C714137   0.992   0.781  17.230 -0.0279  0.6738 -0.8255
    1TMC1    C814138   1.343   0.593  16.982 -0.1323  0.3723  0.2863
    1TMC1    O114139   0.930   0.719  17.147 -0.5743  0.4035  0.5628
    1TMC1    O214140   1.454   0.556  16.956  0.4530  0.8562  0.0364
    1TMC1    O314141   0.965   0.899  17.286 -0.2246  0.0201  0.4826
    1TMC1    H314142   1.039   0.933  17.340 -1.1098 -0.5737  2.0717
    1TMC1    O514143   1.232   0.582  16.914 -0.0634 -0.1699  0.0417
    1TMC1    H514144   1.149   0.606  16.961  1.7141  2.5945  1.8186
    2MPD1     C14145   1.427   0.542   0.197  0.1941  0.0391 -0.2391
    2MPD1    C114146   1.306   0.600   0.173 -0.3146 -0.6657  0.3139
    2MPD1    C214147   1.279   0.630   0.044  0.0712  0.1140  0.3225
    2MPD1    C314148   1.366   0.601  17.696  0.1268 -0.7604 -0.1169
    2MPD1    C414149   1.485   0.536  17.720 -0.2404  0.8831  0.0303
    2MPD1    C514150   1.512   0.499   0.099 -0.1161  0.2982 -0.3658
    2MPD1     H14151   1.191   0.687   0.018 -1.0554 -2.2136 -0.9707
    2MPD1    H114152   1.554   0.516  17.639  0.1027 -0.4016  0.6468
    2MPD1    H214153   1.453   0.508   0.296 -3.8853 -1.0937  0.4780
    2MPD1    H314154   1.600   0.438   0.113  0.9600  1.3640 -2.4439
    2MPD1     N14155   1.319   0.628  17.562  0.4143 -0.6750  0.5694
    2MPD1    H514156   1.225   0.666  17.559  1.2875  1.2349 -2.5757
    2MPD1    N114157   1.236   0.652   0.280 -0.6909  0.2232  0.1517
    2MPD1    H614158   1.144   0.681   0.249 -0.4705 -1.0510 -1.7310
    2MPD1    H714159   1.233   0.615   0.375  1.5027  1.4210  0.6984
    1MPD1     C14160   4.334   3.421  12.591  0.0614 -0.1462  0.0244
    1MPD1    C114161   4.466   3.434  12.622  0.5412 -0.2098 -0.3349
    1MPD1    C214162   4.537   3.543  12.570  0.0853  0.1091 -0.0949
    1MPD1    C314163   4.471   3.637  12.497 -0.1583 -0.2390  0.6032
    1MPD1    C414164   4.346   3.611  12.452 -0.7595 -0.3534 -0.8447
    1MPD1    C514165   4.271   3.511  12.504 -0.3165 -0.7236  1.1082
    1MPD1     H14166   4.639   3.554  12.605 -0.6895  2.9870  1.2146
    1MPD1    H114167   4.295   3.686  12.392 -3.1332 -1.0331  0.3095
    1MPD1    H214168   4.278   3.334  12.624 -1.2272  1.0649  0.9715
    1MPD1    H314169   4.167   3.496  12.475  0.1081  0.7769 -1.1884
    1MPD1     N14170   4.544   3.744  12.448 -0.1073  0.3327  0.5412
    1MPD1    H514171   4.644   3.733  12.462 -0.1100 -2.1129 -1.3318
    1MPD1    N114172   4.534   3.338  12.697  0.1823 -0.4711  0.5315
    1MPD1    H614173   4.481   3.301  12.776  0.4748  0.3378  1.0999
    1MPD1    H714174   4.626   3.371  12.726  0.8597 -0.0592 -2.0971
    2MPD1     C14175   0.859   3.394  10.857  0.0345 -0.0487 -0.5739
    2MPD1    C114176   0.795   3.347  10.743  0.0604 -1.4054  0.6276
    2MPD1    C214177   0.661   3.377  10.730 -0.5925  0.2348  0.5881
    2MPD1    C314178   0.583   3.452  10.815  0.6632  0.0025 -0.5490
    2MPD1    C414179   0.647   3.501  10.929 -0.1363 -0.5598  1.4969
    2MPD1    C514180   0.781   3.475  10.943 -0.2714  0.4895  0.6024
    2MPD1     H14181   0.607   3.332  10.648  0.0759 -1.5771  1.1482
    2MPD1    H114182   0.593   3.545  11.012  0.0805  1.5673  0.5011
    2MPD1    H214183   0.960   3.366  10.883  0.1133  0.5423 -0.2440
    2MPD1    H314184   0.832   3.497  11.036  0.5334 -0.6814  0.4422
    2MPD1     N14185   0.440   3.467  10.799  0.4885 -0.2214 -0.0693
    2MPD1    H514186   0.390   3.533  10.858  0.7765 -0.3091  0.2730
    2MPD1    N114187   0.850   3.238  10.675 -0.3055 -0.1672 -0.4899
    2MPD1    H614188   0.951   3.251  10.678 -0.1347 -1.4373 -0.6202
    2MPD1    H714189   0.818   3.219  10.580  1.9270 -0.9841 -1.0744
    3MPD1     C14190   4.200   3.026  10.591 -0.2389 -0.4822 -0.2773
    3MPD1    C114191   4.221   3.064  10.724  0.8598 -0.1304 -0.4859
    3MPD1    C214192   4.331   3.142  10.756 -0.1203 -0.0250 -0.6778
    3MPD1    C314193   4.430   3.155  10.667 -0.1332  0.7863 -0.1251
    3MPD1    C414194   4.415   3.114  10.532 -0.3678  0.2586  0.1598
    3MPD1    C514195   4.295   3.047  10.497  0.3106  0.6229  0.1069
    3MPD1     H14196   4.343   3.173  10.860  0.0841 -0.4382 -0.5793
    3MPD1    H114197   4.487   3.141  10.456 -1.8670 -0.0417 -1.3760
    3MPD1    H214198   4.117   2.966  10.554 -0.5454 -0.1668 -0.1043
    3MPD1    H314199   4.279   3.001  10.400  0.8973  0.1857  0.2229
    3MPD1     N14200   4.541   3.228  10.705  0.0261 -0.3891 -0.2557
    3MPD1    H514201   4.530   3.271  10.796 -1.3408  1.3695 -1.2572
    3MPD1    N114202   4.117   3.056  10.817 -0.5093 -0.5246  0.6793
    3MPD1    H614203   4.066   2.968  10.815 -2.4817  0.6454  0.5884
    3MPD1    H714204   4.159   3.059  10.910  0.2550  0.3911  0.3067
    4MPD2     C14205   0.040   4.528  12.156 -0.0361  0.2864  0.0860
    4MPD2    C114206   4.732   4.414  12.095 -1.0962 -0.1841 -0.4262
    4MPD2    C214207   0.019   4.389  11.962  0.6632 -0.3490 -0.0882
    4MPD2    C314208   0.102   4.475  11.896  0.6738  0.1977 -0.4023
    4MPD2    C414209   0.155   4.589  11.952  0.3471  0.4061  0.5800
    4MPD2    C514210   0.126   4.603  12.087 -0.0631 -0.2053 -0.1285
    4MPD2     H14211   4.736   4.290  11.923 -0.7089 -0.3025  0.5076
    4MPD2    H114212   0.217   4.663  11.904  0.0162  1.5812  1.9394
    4MPD2    H214213   0.032   4.563  12.258  0.3836  0.1576  0.1651
    4MPD2    H314214   0.168   4.677  12.154  1.9685 -0.3085 -1.2915
    4MPD2     N14215   0.152   4.444  11.764 -0.1277  0.1031 -0.2095
    4MPD2    H514216   0.226   4.508  11.736  0.2373  0.4645  1.5942
    4MPD2    N114217   4.665   4.309  12.166  0.1900 -0.2731  0.4024
    4MPD2    H714218   4.618   4.234  12.115  0.1063  0.3082 -0.3734
    5TMC3    C114219   4.674   4.156  12.334  0.2065 -0.0947 -0.3847
    5TMC3    C214220   4.565   4.076  12.347  0.1282  0.2293 -0.5570
    5TMC3    C314221   4.591   3.946  12.327 -0.2142  0.6810  0.8423
    5TMC3    C414222   0.052   4.118  12.284  0.0466  0.4570  0.5878
    5TMC3    C514223   0.075   3.985  12.254 -0.0696  0.5141  0.3274
    5TMC3    C614224   4.711   3.896  12.285  0.0172 -0.4367  0.8466
    5TMC3     C14225   4.662   4.295  12.300 -0.0658  0.5866  0.1790
    5TMC3     O14226   4.698   4.373  12.388 -0.1139 -0.2406 -0.6485
    5TMC3     H14227   4.477   4.119  12.393 -0.5069 -2.3795  0.6538
    5TMC3    H114228   0.132   4.187  12.260  0.3089  0.9024  2.7459
    5TMC3    H214229   4.721   3.791  12.260  0.0681 -0.2178 -0.0635
    5TMC3    C714230   0.184   3.948  12.159  0.3857  0.1901  1.3636
    5TMC3    C814231   4.491   3.860  12.389  0.1413  0.7256  0.1062
    5TMC3    O114232   0.283   4.022  12.150  0.4761  0.2399  0.2156
    5TMC3    O214233   4.375   3.900  12.390  0.1487  0.9550 -0.0677
    6TMC3    C114234   0.219   3.426  10.718 -0.0636  0.1320 -0.5943
    6TMC3    C214235   0.144   3.322  10.677 -0.4194 -0.7925  0.3984
    6TMC3    C314236   0.007   3.332  10.687  0.4965  0.8760 -0.7318
    6TMC3    C414237   0.167   3.537  10.781 -0.1028 -0.2792 -0.2856
    6TMC3    C514238   0.037   3.535  10.819  0.0211  1.0590  0.0177
    6TMC3    C614239   4.693   3.437  10.761  0.1247 -0.8082  0.6110
    6TMC3     C14240   0.361   3.398  10.706 -0.0688 -0.2894 -0.5928
    6TMC3     O14241   0.399   3.313  10.625 -0.0958 -0.4798  0.4708
    6TMC3     H14242   0.181   3.238  10.618  1.3999  0.3681 -0.1023
    6TMC3    H114243   0.231   3.616  10.818  0.0588 -0.3041 -0.5087
    6TMC3    H214244   4.587   3.456  10.756  0.4308  0.5399 -0.6922
    6TMC3    C714245   4.705   3.652  10.858 -0.4166 -0.9246  0.8374
    6TMC3    C814246   4.655   3.239  10.628 -0.0079 -0.0022  0.5798
    6TMC3    O114247   4.594   3.671  10.811 -0.2115 -0.6827 -0.0208
    6TMC3    O214248   4.705   3.165  10.546  0.1815 -0.0503 -0.5767
    7MPD2     C14249   0.337   3.738  11.723 -0.0697  0.7444 -0.1022
    7MPD2    C114250   0.344   3.871  11.756 -0.1192  0.3931  0.9289
    7MPD2    C214251   0.292   3.900  11.878 -0.4463  0.6666 -0.1881
    7MPD2    C314252   0.224   3.805  11.963 -0.6540 -0.4957  0.3111
    7MPD2    C414253   0.227   3.675  11.931 -0.2267  0.6264 -0.0991
    7MPD2    C514254   0.289   3.640  11.814  0.3156 -0.2712  0.8007
    7MPD2     H14255   0.286   4.000  11.917  0.5554  0.6025  0.1245
    7MPD2    H114256   0.204   3.599  12.005 -3.1844  0.6051 -1.0315
    7MPD2    H214257   0.378   3.714  11.625  0.2022 -0.5516  0.3332
    7MPD2    H314258   0.306   3.535  11.795  1.2030 -0.1438  0.8807
    7MPD2     N14259   0.164   3.831  12.086  0.4814 -0.0820 -0.2294
    7MPD2    H514260   0.096   3.759  12.110  0.4641 -1.1806 -3.5607
    7MPD2    N114261   0.395   3.962  11.661  0.7437  0.0182  0.5358
    7MPD2    H714262   0.396   3.936  11.563  2.3787 -1.0572  0.8498
    8TMC3    C114263   0.394   4.185  11.586  0.0262  0.0046 -0.2990
    8TMC3    C214264   0.368   4.128  11.467 -0.0011 -0.5523  0.1775
    8TMC3    C314265   0.250   4.166  11.410 -0.3772  0.0609 -0.1824
    8TMC3    C414266   0.324   4.287  11.633  0.1993 -0.4501  0.4343
    8TMC3    C514267   0.203   4.307  11.582  0.9050  0.0977 -0.4146
    8TMC3    C614268   0.155   4.248  11.470 -0.7055 -0.0451  0.2865
    8TMC3     C14269   0.430   4.094  11.694  0.9534  1.0671  0.3997
    8TMC3     O14270   0.445   4.144  11.802  0.6945 -0.0350 -0.1393
    8TMC3     H14271   0.429   4.052  11.419 -0.5660 -1.2499  0.5653
    8TMC3    H114272   0.354   4.334  11.726  1.1658 -2.6243  1.2392
    8TMC3    H214273   0.060   4.266  11.421  1.2632  0.4539 -3.3043
    8TMC3    C714274   0.108   4.346  11.684 -0.1417  0.2737 -0.1466
    8TMC3    C814275   0.206   4.071  11.307 -0.4081 -0.4180  0.6116
    8TMC3    O114276   0.001   4.284  11.690  0.4213 -0.2459 -0.0243
    8TMC3    O214277   0.283   4.054  11.212 -0.1519  0.3691  0.3625
    9MPD2     C14278   4.607   4.006  11.224 -0.9948 -0.1429  0.5221
    9MPD2    C114279   4.736   3.973  11.234 -0.5058  0.4097  0.6977
    9MPD2    C214280   0.052   3.879  11.152 -0.3002 -0.5890  0.0979
    9MPD2    C314281   4.709   3.816  11.051 -0.1311  0.1434 -0.6603
    9MPD2    C414282   4.579   3.860  11.036 -1.0038 -0.5189  0.6607
    9MPD2    C514283   4.537   3.959  11.117 -0.4266 -1.0314  0.4805
    9MPD2     H14284   0.157   3.852  11.146 -0.3027  0.0397 -3.0548
    9MPD2    H114285   4.500   3.816  10.976 -1.8732  2.0025 -0.0352
    9MPD2    H214286   4.558   4.083  11.282 -1.0219  1.6273 -1.8423
    9MPD2    H314287   4.433   3.989  11.111  0.0731  0.5809 -0.0810
    9MPD2     N14288   0.030   3.715  10.967 -0.1456  0.4263  0.0953
    9MPD2    H514289   0.124   3.682  10.990 -0.6243 -1.2769 -0.3969
    9MPD2    N114290   0.071   4.042  11.331 -0.1406  0.5531  0.3015
    9MPD2    H714291   0.024   4.086  11.409 -1.6502  1.3431 -1.0572
    1MPD1     C14292   1.025   2.888  17.161 -0.2266 -0.3642 -0.2759
    1MPD1    C114293   1.068   2.778  17.091  0.5054  1.1500  0.5461
    1MPD1    C214294   1.016   2.752  16.965  0.0249 -0.7083 -0.8270
    1MPD1    C314295   0.915   2.830  16.912 -0.4404  1.0122 -0.1019
    1MPD1    C414296   0.868   2.937  16.993  0.2200  0.0854 -0.1863
    1MPD1    C514297   0.923   2.959  17.111 -0.1588  0.3461 -0.4900
    1MPD1     H14298   1.071   2.676  16.910 -0.7007 -1.2623 -0.7870
    1MPD1    H114299   0.780   2.995  16.971  0.0854  0.6719  1.8742
    1MPD1    H214300   1.067   2.920  17.256  0.8989 -0.5733 -0.7018
    1MPD1    H314301   0.897   3.054  17.157 -4.0673 -0.3349 -1.2606
    1MPD1     N14302   0.862   2.808  16.780  0.4261  0.4802  0.0907
    1MPD1    H514303   0.779   2.863  16.760 -0.3877 -0.5869  0.5742
    1MPD1    N114304   1.183   2.713  17.130  0.0164  0.3716  0.0352
    1MPD1    H614305   1.198   2.618  17.096  0.3045  0.7224 -0.8086
    1MPD1    H714306   1.192   2.712  17.231 -2.7586 -2.6287  0.2778
    2TMC2    C114307   0.633   2.665  16.475  0.2547 -0.3302 -0.3920
    2TMC2    C214308   0.676   2.662  16.347  0.3082 -0.1375  0.0651
    2TMC2    C314309   0.814   2.694  16.334  0.2675  0.1818  0.5858
    2TMC2    C414310   0.709   2.693  16.583  0.4730  0.0301 -0.1309
    2TMC2    C514311   0.836   2.727  16.565  0.5780  0.1816  0.4313
    2TMC2    C614312   0.890   2.726  16.440  0.0470 -0.5172  0.1766
    2TMC2     C14313   0.498   2.602  16.506 -0.1961  0.2340  0.2095
    2TMC2     O14314   0.453   2.614  16.617  0.1021  0.7240 -0.4188
    2TMC2     H14315   0.619   2.636  16.258 -0.2161  2.4166 -0.3505
    2TMC2    H114316   0.651   2.694  16.675 -0.7694  0.3514 -0.9093
    2TMC2    H214317   0.996   2.735  16.422  0.1685 -0.2940  1.0136
    2TMC2    C714318   0.926   2.742  16.676 -0.4173  0.4206  0.2972
    2TMC2    C814319   0.845   2.743  16.201 -0.3893  0.0153 -0.9638
    2TMC2    O114320   1.037   2.681  16.676 -0.1640  0.0331  0.0865
    2TMC2    O214321   0.819   2.693  16.096  0.1088  0.3703  0.0802
    2TMC2    O514322   0.870   2.876  16.211  0.0993  0.0646  0.1329
    2TMC2    H514323   0.897   2.905  16.300 -0.0507  1.0828 -0.1566
    3MPD1     C14324   0.130   2.270  16.383  0.7030 -0.0036  0.2785
    3MPD1    C114325   0.220   2.271  16.278  0.8011 -0.0895  0.1418
    3MPD1    C214326   0.332   2.350  16.292  0.1815 -0.0159  0.3554
    3MPD1    C314327   0.345   2.431  16.403  0.5403  0.0812  0.3094
    3MPD1    C414328   0.244   2.446  16.493  0.4293 -0.3314 -0.3272
    3MPD1    C514329   0.139   2.356  16.493  0.8361 -0.3597  0.0381
    3MPD1     H14330   0.414   2.345  16.221  1.5634 -1.8460  2.0888
    3MPD1    H114331   0.248   2.514  16.577 -0.0460 -0.8253  0.0931
    3MPD1    H214332   0.049   2.199  16.378  2.0108 -1.3243 -1.8576
    3MPD1    H314333   0.063   2.359  16.570 -2.3475 -1.1643 -3.0504
    3MPD1     N14334   0.465   2.505  16.413 -0.2408 -0.7863  0.2076
    3MPD1    H514335   0.524   2.485  16.333 -0.5269  2.4631 -0.7857
    3MPD1    N114336   0.228   2.173  16.185 -0.1285 -0.9797  0.1252
    3MPD1    H614337   0.134   2.147  16.157 -1.1972  3.3668 -0.2774
    3MPD1    H714338   0.276   2.200  16.099 -1.1416 -0.3229 -0.2303
    1TMC1    C114339   3.321   1.818  13.440  0.0689 -0.2587  0.0667
    1TMC1    C214340   3.318   1.680  13.459  0.1296  0.3185 -0.2284
    1TMC1    C314341   3.207   1.616  13.414  0.0098 -0.0378 -0.2946
    1TMC1    C414342   3.220   1.887  13.378 -0.2797  0.2660  0.3692
    1TMC1    C514343   3.114   1.806  13.332 -0.4953 -0.7845  0.0209
    1TMC1    C614344   3.099   1.673  13.358 -0.2233  0.1089 -0.0360
    1TMC1     C14345   3.425   1.899  13.491  0.0816  0.3506 -0.8921
    1TMC1     O14346   3.431   2.019  13.466 -0.1327  0.1989  0.5113
    1TMC1     H14347   3.402   1.628  13.505  0.8542  2.6654  1.1213
    1TMC1    H114348   3.215   1.995  13.384  4.3775  0.4358  0.8030
    1TMC1    H214349   3.014   1.613  13.327  1.0009 -1.0849 -1.1124
    1TMC1    C714350   2.994   1.878  13.287 -0.0813 -0.5732 -0.4678
    1TMC1    C814351   3.201   1.474  13.438  0.6059  0.0881  0.4214
    1TMC1    O114352   2.881   1.828  13.276 -0.0796 -0.0729  0.5020
    1TMC1    O214353   3.139   1.400  13.370 -0.3008  0.4481 -0.0753
    1TMC1    O314354   3.025   1.996  13.233  0.2199  0.1459  0.2418
    1TMC1    H314355   3.118   2.025  13.239  0.6027 -1.0650  0.2361
    1TMC1    O514356   3.253   1.452  13.561  0.4806  0.2562 -0.1533
    1TMC1    H514357   3.260   1.537  13.609 -0.3967  1.0941 -1.5059
    2MPD2     C14358   3.710   1.980  13.558  0.2863  0.4054  0.1125
    2MPD2    C114359   3.626   1.891  13.629  0.9727  0.8053  0.0799
    2MPD2    C214360   3.648   1.855  13.759  0.0138  0.1731  0.9478
    2MPD2    C314361   3.755   1.916  13.831 -0.3250 -0.1684 -0.3848
    2MPD2    C414362   3.840   1.998  13.758  0.7829  0.0499 -0.3523
    2MPD2    C514363   3.817   2.026  13.624 -1.2105  0.6792 -0.4815
    2MPD2     H14364   3.577   1.800  13.819  0.2363 -1.4031 -0.2382
    2MPD2    H114365   3.935   2.036  13.795  1.6631  0.3162 -2.8724
    2MPD2    H214366   3.698   2.002  13.453  1.0275 -0.4603 -0.1583
    2MPD2    H314367   3.886   2.088  13.569 -2.1267  1.9175 -0.2145
    2MPD2     N14368   3.767   1.897  13.974 -0.2432  0.3123  0.5734
    2MPD2    H514369   3.703   1.830  14.016 -0.0053 -0.6832 -0.6546
    2MPD2    N114370   3.505   1.838  13.580  0.4085  0.5603 -0.1559
    2MPD2    H714371   3.456   1.755  13.614 -0.6728  1.2794  0.0455
    3TCq1    O114372   4.144   1.974  14.423  0.0579 -0.5265  0.2177
    3TCq1    C114373   4.038   2.029  14.488  0.2469  0.2860  0.5705
    3TCq1    O214374   4.043   2.032  14.611  0.2050  0.5096  0.1551
    3TCq1    C214375   3.924   1.986  14.410  0.0544 -0.3515  0.1322
    3TCq1    C314376   3.818   1.915  14.466 -0.2622  0.2869 -0.0182
    3TCq1    C414377   3.729   1.848  14.380  0.0068  0.1689  0.4408
    3TCq1    C514378   3.737   1.873  14.247 -0.5028  0.5565  0.1861
    3TCq1    C614379   3.840   1.955  14.202  0.2422 -0.3541  0.0386
    3TCq1    C714380   3.941   2.007  14.278  0.1581  0.0248 -0.0567
    3TCq1    C814381   3.852   1.979  14.059 -0.3063  0.0573  0.5384
    3TCq1    O414382   3.944   2.055  14.035 -0.7067  0.5974  0.0645
    3TCq1    C914383   3.613   1.785  14.434 -0.9560 -0.2670  0.2574
    3TCq1    O514384   3.619   1.747  14.549  0.7236 -0.3830 -0.1836
    3TCq1    O614385   3.540   1.723  14.352 -0.1010  0.5520  0.1417
    3TCq1    H114386   4.142   1.950  14.328 -1.6302  1.3499 -0.2428
    3TCq1    H214387   3.799   1.903  14.572 -1.7064  0.9046 -0.2060
    3TCq1    H314388   3.685   1.805  14.181 -0.1852  1.3772 -0.9131
    3TCq1    H414389   4.014   2.081  14.245  0.0717  0.3752  0.5299
    1MPD2     C14390   2.501   2.680  15.071  0.3609  0.7984  0.0806
    1MPD2    C114391   2.435   2.585  15.158  0.6468 -1.1544  0.2477
    1MPD2    C214392   2.510   2.485  15.224 -0.3555  0.1966 -0.1795
    1MPD2    C314393   2.647   2.484  15.200  0.0566 -0.4579  0.0043
    1MPD2    C414394   2.715   2.585  15.128 -0.3639 -0.2918  0.2924
    1MPD2    C514395   2.636   2.682  15.069 -0.3392  0.1169  0.0876
    1MPD2     H14396   2.466   2.406  15.284  0.4961 -1.1300 -1.3112
    1MPD2    H114397   2.823   2.576  15.126 -0.4879 -1.7247  0.1306
    1MPD2    H214398   2.455   2.767  15.024 -1.7026  0.7175  1.9469
    1MPD2    H314399   2.686   2.750  15.001  1.0407  0.0586  1.0414
    1MPD2     N14400   2.727   2.388  15.264 -0.6088  0.6978  0.2287
    1MPD2    H514401   2.816   2.426  15.293  0.2165  0.5514 -2.1319
    1MPD2    N114402   2.296   2.582  15.160  0.1636  0.3294 -0.9863
    1MPD2    H714403   2.254   2.654  15.103  0.6678 -1.0440 -3.0825
    2TMC3    C114404   2.076   2.531  15.189  0.7897 -0.2493 -0.2578
    2TMC3    C214405   2.004   2.420  15.148  0.0210  0.0888 -0.1209
    2TMC3    C314406   1.895   2.438  15.059  0.5291 -0.4874  0.0862
    2TMC3    C414407   2.042   2.653  15.146  0.2372 -0.5390 -0.0445
    2TMC3    C514408   1.919   2.670  15.088  0.5867 -0.2480 -0.1087
    2TMC3    C614409   1.847   2.563  15.047 -0.0387  0.6729 -0.1150
    2TMC3     C14410   2.210   2.504  15.232 -0.4305 -0.6225 -0.4266
    2TMC3     O14411   2.223   2.404  15.300  0.5201  0.3083 -0.1661
    2TMC3     H14412   2.016   2.322  15.194 -1.6893 -0.4591 -0.8466
    2TMC3    H114413   2.084   2.750  15.171  0.5565 -0.7800  0.3541
    2TMC3    H214414   1.761   2.584  14.984  0.5513  0.9214 -0.8466
    2TMC3    C714415   1.879   2.802  15.040  0.1111 -0.3859 -0.5933
    2TMC3    C814416   1.899   2.364  14.943  0.1726 -1.3077  1.0208
    2TMC3    O114417   1.758   2.822  15.046 -0.5529 -0.3274 -0.2484
    2TMC3    O214418   1.815   2.373  14.858  0.3870 -0.5833  0.4530
    3TCq1    O114419   2.439   3.351  14.117  0.2937  0.1200  0.3864
    3TCq1    C114420   2.540   3.312  14.200  0.3371  0.3688 -0.1797
    3TCq1    O214421   2.654   3.279  14.172  0.0410  0.1156  0.4211
    3TCq1    C214422   2.498   3.295  14.332  0.1797  0.0104 -0.7894
    3TCq1    C314423   2.590   3.293  14.433  0.2197 -0.0001  0.4037
    3TCq1    C414424   2.545   3.288  14.560 -0.0383 -0.3835  0.1625
    3TCq1    C514425   2.415   3.269  14.588  0.7620 -0.0240  0.3477
    3TCq1    C614426   2.326   3.272  14.479  0.7911  1.1690 -0.5611
    3TCq1    C714427   2.362   3.279  14.351  0.2630  0.1728  0.4403
    3TCq1    C814428   2.194   3.219  14.503 -0.2089  0.4672 -0.1407
    3TCq1    O414429   2.112   3.217  14.408 -0.0700  0.0578 -0.3806
    3TCq1    C914430   2.639   3.310  14.669  0.3207  0.3351 -0.4847
    3TCq1    O514431   2.609   3.259  14.777 -0.0260  0.2135 -0.1363
    3TCq1    O614432   2.743   3.375  14.645 -0.5696  0.2953  0.0690
    3TCq1    H114433   2.362   3.385  14.167 -1.5165 -0.1489 -2.1962
    3TCq1    H214434   2.696   3.297  14.412  0.2444 -3.6106 -0.2274
    3TCq1    H314435   2.381   3.278  14.690  0.8505 -0.6664  0.4344
    3TCq1    H414436   2.300   3.265  14.263  1.9975  0.6956 -0.8708
    4MPD2     C14437   1.941   3.112  14.618 -0.1326 -0.2890  0.1948
    4MPD2    C114438   2.070   3.095  14.677  0.0025  0.4832  0.3196
    4MPD2    C214439   2.083   3.008  14.788  0.4252 -0.1630 -0.1004
    4MPD2    C314440   1.972   2.953  14.854 -1.0948  0.1542 -0.6345
    4MPD2    C414441   1.839   2.969  14.799  0.1175 -0.4652  0.3398
    4MPD2    C514442   1.831   3.044  14.685 -0.1438 -0.0901 -0.0436
    4MPD2     H14443   2.185   2.999  14.823 -0.6362 -1.0448  2.7533
    4MPD2    H114444   1.746   2.929  14.836 -0.5338  1.4461  0.7556
    4MPD2    H214445   1.924   3.175  14.532 -0.5179  0.4009  0.7786
    4MPD2    H314446   1.735   3.056  14.637 -0.3081 -0.1402  0.2777
    4MPD2     N14447   1.985   2.864  14.969 -0.4907 -0.2606 -0.1607
    4MPD2    H514448   2.079   2.827  14.980 -0.0414  0.7837 -0.4736
    4MPD2    N114449   2.184   3.151  14.623 -0.2687 -0.6946  0.3571
    4MPD2    H714450   2.264   3.146  14.685  0.7312 -0.0310 -0.8706
    5TMC2    C114451   2.540   2.123  14.977  0.6643 -0.4773  0.4833
    5TMC2    C214452   2.467   2.023  15.041 -0.0748  0.0610  0.3117
    5TMC2    C314453   2.478   1.992  15.175 -0.8259 -0.0320 -0.0883
    5TMC2    C414454   2.601   2.207  15.067 -0.3104 -0.1656 -0.3474
    5TMC2    C514455   2.592   2.191  15.204  0.2688 -0.2287 -0.0100
    5TMC2    C614456   2.545   2.074  15.259  0.5003  0.0863  0.0062
    5TMC2     C14457   2.499   2.184  14.848  0.3645 -1.5852  0.0642
    5TMC2     O14458   2.506   2.309  14.838  0.3967 -0.2556  0.3428
    5TMC2     H14459   2.402   1.963  14.979 -0.2278 -0.5505  1.0780
    5TMC2    H114460   2.650   2.298  15.035  0.4683 -1.0635 -1.6990
    5TMC2    H214461   2.562   2.054  15.364  0.6797 -1.5829 -0.3520
    5TMC2    C714462   2.694   2.253  15.287 -0.4416 -0.5553 -0.0428
    5TMC2    C814463   2.454   1.851  15.207  0.6641 -0.2481  0.5456
    5TMC2    O114464   2.757   2.184  15.368 -0.0949 -0.0689 -0.2722
    5TMC2    O214465   2.458   1.763  15.120  0.0594 -0.6453  0.1658
    5TMC2    O514466   2.434   1.829  15.338  0.3294  0.1387  0.3018
    5TMC2    H514467   2.412   1.909  15.390 -2.6608 -0.0446 -0.7102
    6MPD2     C14468   2.021   2.193  14.714 -0.2999 -0.9447 -0.8117
    6MPD2    C114469   2.086   2.239  14.827 -0.0974  1.1473 -0.0042
    6MPD2    C214470   2.224   2.219  14.836 -0.0346  0.0906  0.1126
    6MPD2    C314471   2.285   2.130  14.748 -0.1441  0.9640 -0.3203
    6MPD2    C414472   2.216   2.066  14.641 -0.8311 -0.7977  0.0362
    6MPD2    C514473   2.089   2.102  14.623  0.6324 -0.4453 -0.5845
    6MPD2     H14474   2.271   2.263  14.924 -0.4960  1.1495 -0.1669
    6MPD2    H114475   2.271   1.989  14.588  2.0444  1.7772 -0.7966
    6MPD2    H214476   1.918   2.224  14.700  0.2861  0.8388 -1.2558
    6MPD2    H314477   2.031   2.067  14.539  0.4304  1.0272 -1.0585
    6MPD2     N14478   2.416   2.090  14.777  0.2250  1.1092  0.0273
    6MPD2    H514479   2.447   1.998  14.748 -1.8918  0.2242  0.6366
    6MPD2    N114480   2.032   2.322  14.925  0.2639 -0.4758 -0.2449
    6MPD2    H714481   2.097   2.333  15.002  0.1576  0.9652 -0.3744
  945NH4     N114482   3.860   4.202   0.466 -0.3929  0.6753  0.3281
  945NH4     H214483   3.946   4.222   0.411 -3.3915  1.3474 -4.1509
  945NH4     H314484   3.862   4.099   0.476  0.2571  0.6354 -0.1971
  945NH4     H414485   3.775   4.225   0.411  0.0518 -0.6799 -0.9365
  945NH4     H514486   3.871   4.243   0.561  3.4209  0.9832 -0.2353
  946SOD     NA14487   2.531   2.422  12.562  0.0555  0.3031 -0.4320
  947SOD     NA14488   1.011   2.308  15.897 -0.2266 -0.2728 -0.1373
  948SOD     NA14489   0.741   4.326  12.694  0.2786  0.2174 -0.1960
  949SOD     NA14490   3.774   4.355  16.126 -0.2548 -0.1584 -0.2297
  950SOD     NA14491   0.185   0.762   8.521 -0.6917 -0.1019 -0.3222
  951SOD     NA14492   3.482   4.139  10.591 -0.0075 -0.1038  0.0764
  952SOD     NA14493   3.000   3.410  10.108 -0.2104 -0.0290 -0.1656
  953SOL     OW14494   2.239   3.865   5.036 -0.0776 -0.1571 -0.0763
  953SOL    HW114495   2.294   3.858   4.959 -0.8415  0.5102 -0.6846
  953SOL    HW214496   2.284   3.943   5.071  0.0082  0.1573 -0.8808
  954SOL     OW14497   1.284   0.015   3.169  0.4395 -0.0765  0.4976
  954SOL    HW114498   1.243   4.729   3.086 -1.7805 -1.1245  1.8879
  954SOL    HW214499   1.242   0.099   3.190  1.1946  0.8845 -1.7619
  955SOL     OW14500   0.687   4.385   9.882 -0.2370 -0.6863  0.1336
  955SOL    HW114501   0.699   4.368   9.976 -0.3253  1.0005  0.4390
  955SOL    HW214502   0.761   4.439   9.858 -0.7480 -0.7622 -1.6375
  956SOL     OW14503   1.706   0.157   8.447  0.4186 -0.3647  0.0783
  956SOL    HW114504   1.767   0.131   8.377 -1.2291  0.1566 -1.5479
  956SOL    HW214505   1.659   0.073   8.453 -1.3564  0.5719 -0.7612
  957SOL     OW14506   1.480   0.325  17.339 -0.0763  0.6891 -0.5960
  957SOL    HW114507   1.517   0.407  17.370  0.7977  0.3478 -0.7250
  957SOL    HW214508   1.392   0.324  17.378  0.9166 -0.5638  1.6158
  958SOL     OW14509   2.477   3.759   4.143  0.0522 -0.3244  0.0774
  958SOL    HW114510   2.469   3.741   4.049  0.4128 -0.3655  0.0553
  958SOL    HW214511   2.452   3.851   4.147 -1.7174 -0.8472  1.2337
  959SOL     OW14512   4.006   1.669   7.244  0.4007 -0.0923  0.2056
  959SOL    HW114513   3.955   1.744   7.213  1.1959  1.0316  1.6714
  959SOL    HW214514   3.934   1.616   7.279 -1.6795  2.4011 -0.2923
  960SOL     OW14515   2.824   2.799   2.775 -0.1507 -0.0193 -0.1816
  960SOL    HW114516   2.743   2.820   2.820 -0.3287 -0.6491 -0.2077
  960SOL    HW214517   2.896   2.824   2.834  1.1995 -2.0270 -0.9592
  961SOL     OW14518   1.835   4.712  16.584  0.2562 -0.3941  0.7302
  961SOL    HW114519   1.766   4.710  16.651 -1.4038 -2.2202 -0.9944
  961SOL    HW214520   1.791   0.038  16.527  1.8074 -2.4913 -2.8462
  962SOL     OW14521   1.000   2.219   1.027  0.0302 -0.3156 -0.3241
  962SOL    HW114522   0.922   2.168   1.047 -0.5087 -0.0444 -1.7089
  962SOL    HW214523   1.038   2.156   0.965 -0.3924 -1.9205  1.0565
  963SOL     OW14524   3.365   1.455   2.651  0.0409  0.1943  0.2015
  963SOL    HW114525   3.419   1.405   2.713 -0.5426 -1.0815 -0.3323
  963SOL    HW214526   3.291   1.455   2.712  0.3261  1.0315  0.5563
  964SOL     OW14527   3.594   2.134  17.259 -0.3377 -0.4228  0.2453
  964SOL    HW114528   3.663   2.152  17.194 -1.9902 -0.0382 -1.4118
  964SOL    HW214529   3.652   2.098  17.326  0.2376  0.4248  0.2189
  965SOL     OW14530   3.841   4.653   0.087 -0.2901 -0.3953 -0.6047
  965SOL    HW114531   3.870   4.602   0.011 -0.5893  0.2022 -1.1216
  965SOL    HW214532   3.821   4.584   0.150  0.7898  0.0684  0.2493
  966SOL     OW14533   1.355   2.941   7.710 -0.7354 -0.2515  0.6985
  966SOL    HW114534   1.347   3.022   7.660  1.2224  0.1052  0.9596
  966SOL    HW214535   1.428   2.913   7.655  0.9387  1.8618  1.8408
  967SOL     OW14536   4.346   2.282   8.635 -0.3066  0.1953 -0.2252
  967SOL    HW114537   4.306   2.221   8.573 -1.2744  1.8731 -1.2541
  967SOL    HW214538   4.272   2.340   8.655 -1.0887 -0.8821 -0.0040
  968SOL     OW14539   4.099   0.191   8.393  0.3741  0.2823 -0.0384
  968SOL    HW114540   4.174   0.201   8.452 -0.3030  1.6499  0.5744
  968SOL    HW214541   4.032   0.244   8.436 -0.1244  0.2407 -0.7668
  969SOL     OW14542   4.418   1.034   7.553  0.2966  0.6003 -0.6640
  969SOL    HW114543   4.439   1.071   7.467  3.4799  2.0463  0.7494
  969SOL    HW214544   4.479   1.084   7.607  0.1509 -1.5650  1.5095
  970SOL     OW14545   1.052   0.577   7.590 -0.3258 -0.3291 -0.2309
  970SOL    HW114546   1.029   0.655   7.640 -1.1590  0.4458 -1.8521
  970SOL    HW214547   1.095   0.633   7.525  0.6383 -3.0792 -1.9674
  971SOL     OW14548   4.028   4.721   9.810 -0.5979 -0.2542  0.0660
  971SOL    HW114549   4.014   4.666   9.732 -2.2483  1.6079 -0.9577
  971SOL    HW214550   3.940   0.021   9.815  0.8205  3.0241  0.1204
  972SOL     OW14551   4.323   0.559   7.724  0.7372 -0.7367  0.3249
  972SOL    HW114552   4.294   0.636   7.773  0.0221  1.6811 -3.8964
  972SOL    HW214553   4.387   0.522   7.784  0.9171 -1.1177 -0.0974
  973SOL     OW14554   1.362   2.799   0.981 -0.1955  0.1791 -0.1410
  973SOL    HW114555   1.419   2.860   0.934 -0.8529  0.1327 -0.9876
  973SOL    HW214556   1.409   2.791   1.065  0.1434  1.5770 -0.1911
  974SOL     OW14557   1.903   1.799   1.883  0.2110 -0.0811 -0.2644
  974SOL    HW114558   1.835   1.845   1.932  0.4897 -2.4271  2.2812
  974SOL    HW214559   1.954   1.771   1.959 -0.9750 -2.1479 -0.2285
  975SOL     OW14560   2.014   3.503   3.390 -0.0802  0.7148  0.7435
  975SOL    HW114561   2.104   3.471   3.379  0.0771  0.7164  1.9964
  975SOL    HW214562   2.011   3.578   3.330  0.8434  0.9222  0.9554
  976SOL     OW14563   0.838   0.561   2.570  0.1442 -0.1998 -0.3945
  976SOL    HW114564   0.831   0.468   2.589  0.4909 -0.0362  0.5608
  976SOL    HW214565   0.914   0.562   2.512  1.1019  1.6180  0.8806
  977SOL     OW14566   4.412   3.381   3.070 -0.0327 -0.0968 -0.3334
  977SOL    HW114567   4.483   3.342   3.019  0.3637 -0.8862  0.8293
  977SOL    HW214568   4.398   3.309   3.131  0.0662  0.2975  0.1595
  978SOL     OW14569   3.416   3.552  11.847  0.3439 -0.4058 -0.0533
  978SOL    HW114570   3.359   3.560  11.923  1.8360  0.9814  0.9234
  978SOL    HW214571   3.503   3.563  11.886  0.2292  0.7208 -0.1134
  979SOL     OW14572   1.770   1.439   8.516 -0.2268  0.6524  0.0489
  979SOL    HW114573   1.773   1.489   8.434 -1.6770  2.5906  1.1894
  979SOL    HW214574   1.782   1.501   8.588 -0.5441 -0.2777  0.8980
  980SOL     OW14575   2.428   4.652   3.320  0.2137 -0.6305  0.1663
  980SOL    HW114576   2.420   4.725   3.382  1.4814 -0.5562  0.2524
  980SOL    HW214577   2.492   4.607   3.375  1.2728  1.4871  0.6518
  981SOL     OW14578   1.399   2.177  14.656  0.8838  0.1389 -0.8347
  981SOL    HW114579   1.477   2.207  14.702  1.2122 -0.1020 -1.2341
  981SOL    HW214580   1.394   2.238  14.582 -0.2097  0.2196 -0.6949
  982SOL     OW14581   3.896   4.708  11.391  0.4268 -0.3073 -0.4229
  982SOL    HW114582   3.953   4.637  11.362  0.5660  0.4078 -1.8885
  982SOL    HW214583   3.932   0.037  11.333 -1.6642  1.2547  0.0652
  983SOL     OW14584   3.152   3.742  15.350 -0.9345  0.2404 -0.0734
  983SOL    HW114585   3.177   3.814  15.293 -0.0511 -1.5817 -1.9779
  983SOL    HW214586   3.216   3.738  15.421 -0.8235 -2.1771 -0.3057
  984SOL     OW14587   1.352   1.154   8.622  0.0984 -0.1570  0.0693
  984SOL    HW114588   1.393   1.125   8.541 -0.8944  2.7675 -1.5108
  984SOL    HW214589   1.425   1.199   8.665 -0.3239  0.0589  0.5628
  985SOL     OW14590   0.196   4.104   5.874 -0.6145 -0.1211  0.1349
  985SOL    HW114591   0.214   4.024   5.923 -3.0424 -0.8078 -0.0983
  985SOL    HW214592   0.151   4.060   5.802 -0.7629 -0.3636  0.3756
  986SOL     OW14593   0.445   0.813   4.352  0.6062  0.4927  0.0301
  986SOL    HW114594   0.380   0.846   4.290  0.1033 -0.7677 -0.1183
  986SOL    HW214595   0.414   0.866   4.425  1.0396  2.1409 -0.9900
  987SOL     OW14596   3.547   3.744   4.388 -0.4662  0.1897 -0.1035
  987SOL    HW114597   3.596   3.758   4.307  1.2165  1.7055  1.1667
  987SOL    HW214598   3.578   3.819   4.438 -0.5045  0.5549 -0.6235
  988SOL     OW14599   0.890   2.102   4.582  0.5306  0.3206 -0.6667
  988SOL    HW114600   0.855   2.164   4.646  0.9716  1.7408 -1.7870
  988SOL    HW214601   0.831   2.118   4.508 -1.3324 -0.7893  0.5797
  989SOL     OW14602   3.207   3.867   1.747  0.2212  0.6713 -0.9324
  989SOL    HW114603   3.262   3.869   1.669  2.4435 -0.2630  0.6460
  989SOL    HW214604   3.126   3.913   1.723 -1.0250 -0.8292  0.4040
  990SOL     OW14605   3.656   2.611  16.869 -0.3574  0.5268 -0.1652
  990SOL    HW114606   3.608   2.529  16.855 -1.0852  1.1938 -1.5943
  990SOL    HW214607   3.580   2.659  16.836  1.2041  1.1811 -2.8771
  991SOL     OW14608   1.073   3.614   7.833 -0.0619 -0.2951 -0.0744
  991SOL    HW114609   1.124   3.600   7.912 -0.4686  1.1020  0.4275
  991SOL    HW214610   1.039   3.526   7.819  0.3088 -0.5838  0.8539
  992SOL     OW14611   3.528   3.533   0.958  0.2455 -0.6320 -0.1894
  992SOL    HW114612   3.469   3.519   0.884 -0.8586  5.0376 -0.3949
  992SOL    HW214613   3.580   3.453   0.953  1.0967  0.0143 -1.4276
  993SOL     OW14614   0.334   4.190  17.432 -0.2813 -0.0571 -0.2263
  993SOL    HW114615   0.378   4.110  17.403  0.8370  0.5074 -0.1257
  993SOL    HW214616   0.356   4.239  17.352  2.2007 -2.6857 -1.1764
  994SOL     OW14617   2.017   2.006  15.673  0.2254 -0.4944  0.2962
  994SOL    HW114618   2.007   1.937  15.738 -1.6258  1.0212  1.6085
  994SOL    HW214619   1.945   1.976  15.618  0.4150 -0.4632  0.0297
  995SOL     OW14620   4.473   3.865  12.015  0.3575  0.0769 -0.4076
  995SOL    HW114621   4.382   3.893  12.017  0.3342  0.0014 -0.4442
  995SOL    HW214622   4.482   3.778  11.979 -0.2890  0.3142 -1.1191
  996SOL     OW14623   3.597   1.691   4.314 -0.0222  0.2593  0.4589
  996SOL    HW114624   3.649   1.713   4.236 -1.4710  0.8248 -0.3508
  996SOL    HW214625   3.624   1.600   4.324 -0.3629  0.1165  0.0626
  997SOL     OW14626   1.358   3.107   6.415  0.7395 -0.5521  0.1714
  997SOL    HW114627   1.280   3.096   6.359  1.0636 -3.6322  0.3407
  997SOL    HW214628   1.324   3.047   6.481 -0.4051 -0.0162  0.0715
  998SOL     OW14629   3.872   1.551   9.939  0.1367 -0.1633 -0.8416
  998SOL    HW114630   3.888   1.460   9.964  0.0681  0.3919  1.2066
  998SOL    HW214631   3.907   1.541   9.851  1.1308 -1.2567 -0.3113
  999SOL     OW14632   0.281   2.553   7.787  0.5551  0.3743 -0.6461
  999SOL    HW114633   0.198   2.521   7.752 -0.1593 -0.1096  1.5401
  999SOL    HW214634   0.259   2.628   7.843  2.0130  1.5225 -1.5993
 1000SOL     OW14635   0.278   3.865   9.175 -0.3966  0.1615  0.4483
 1000SOL    HW114636   0.368   3.849   9.204 -0.7028  1.1961  2.0061
 1000SOL    HW214637   0.235   3.842   9.258  1.6824  0.4033  1.6040
 1001SOL     OW14638   4.265   1.333  13.718 -0.0986  0.5117 -0.4869
 1001SOL    HW114639   4.232   1.256  13.764  2.1877  1.1742  2.2445
 1001SOL    HW214640   4.359   1.316  13.722 -0.4292 -0.7908  1.7785
 1002SOL     OW14641   4.231   0.194  16.419 -0.7560 -0.0020 -0.1198
 1002SOL    HW114642   4.256   0.179  16.327 -1.4363  1.2006 -0.4963
 1002SOL    HW214643   4.312   0.171  16.464 -1.5482 -3.1697 -0.3401
 1003SOL     OW14644   1.857   1.387   5.498 -0.0467  0.3083  0.3781
 1003SOL    HW114645   1.814   1.336   5.566 -1.5778  1.8338  0.5410
 1003SOL    HW214646   1.793   1.413   5.432  2.1370 -0.9111 -2.2278
 1004SOL     OW14647   0.248   4.032  13.795 -0.0695  0.1219 -0.2705
 1004SOL    HW114648   0.212   4.004  13.879 -2.4145  2.5771 -0.4386
 1004SOL    HW214649   0.179   4.093  13.768 -1.8036 -1.3766  0.7712
 1005SOL     OW14650   0.685   0.586   5.886  0.1077  0.0933  0.0400
 1005SOL    HW114651   0.595   0.568   5.911  0.0103 -1.9052 -1.7484
 1005SOL    HW214652   0.702   0.663   5.941  1.5670  0.7193 -1.2572
 1006SOL     OW14653   2.686   1.281   6.121 -0.4950  0.4409  0.2649
 1006SOL    HW114654   2.699   1.251   6.031  1.2012 -1.2666  1.0808
 1006SOL    HW214655   2.593   1.306   6.124 -0.5072  0.6699 -2.3838
 1007SOL     OW14656   0.394   0.922   4.628  0.7727 -0.1304  0.0314
 1007SOL    HW114657   0.478   0.960   4.604  0.7033 -0.3289 -0.5169
 1007SOL    HW214658   0.417   0.856   4.694  0.5702 -1.2636 -1.0307
 1008SOL     OW14659   0.293   3.871   8.208 -0.1054  0.1321 -0.1699
 1008SOL    HW114660   0.326   3.833   8.289 -0.8848 -1.7483 -0.7201
 1008SOL    HW214661   0.254   3.793   8.167  1.4401  0.0214 -1.4424
 1009SOL     OW14662   4.720   3.052   3.342 -0.0352  0.0583  0.4724
 1009SOL    HW114663   4.681   2.985   3.399  0.8031  0.3344  1.3635
 1009SOL    HW214664   0.018   3.003   3.269  1.4851 -0.2946  1.4565
 1010SOL     OW14665   1.337   2.331  16.353 -0.6190  0.4020  0.1217
 1010SOL    HW114666   1.279   2.383  16.408 -0.0543  1.6692 -0.4978
 1010SOL    HW214667   1.337   2.377  16.269  1.5317  0.0293 -0.1010
 1011SOL     OW14668   1.738   4.650   4.062  0.7219 -0.5128 -0.0161
 1011SOL    HW114669   1.672   4.592   4.025 -0.0125 -1.3215  2.5193
 1011SOL    HW214670   1.688   4.727   4.089 -1.3768 -1.5448 -0.8858
 1012SOL     OW14671   3.754   4.058   3.599 -0.0125  0.0652  1.0133
 1012SOL    HW114672   3.766   4.121   3.528 -0.8923 -2.2208 -1.1558
 1012SOL    HW214673   3.805   3.981   3.574  0.0346 -0.1203  1.6643
 1013SOL     OW14674   4.500   2.917  13.737  0.1439 -0.3955  0.8045
 1013SOL    HW114675   4.425   2.976  13.748 -0.0718 -0.5258  0.0348
 1013SOL    HW214676   4.564   2.973  13.693 -1.8919  1.1145 -0.2534
 1014SOL     OW14677   2.960   0.337   2.147  0.3165 -0.0901 -0.0119
 1014SOL    HW114678   2.897   0.266   2.155 -1.6925  1.5097 -1.8211
 1014SOL    HW214679   3.004   0.340   2.233 -1.4559  0.8745  0.8547
 1015SOL     OW14680   3.270   4.720   3.158 -0.0252  0.2678 -0.5900
 1015SOL    HW114681   3.340   4.731   3.223 -1.5449  2.7387  0.6090
 1015SOL    HW214682   3.314   4.715   3.073 -1.3052  3.1262 -1.3890
 1016SOL     OW14683   0.691   0.376   2.293 -0.5458 -0.0954 -0.4994
 1016SOL    HW114684   0.669   0.347   2.382  0.4129  0.4920 -0.0748
 1016SOL    HW214685   0.656   0.465   2.294 -1.9368 -0.6463 -0.1508
 1017SOL     OW14686   2.670   4.284  16.413  0.1901 -0.4232 -0.4368
 1017SOL    HW114687   2.742   4.238  16.456  2.9045  1.9726 -2.4319
 1017SOL    HW214688   2.654   4.229  16.336  0.2020 -0.0510 -0.7068
 1018SOL     OW14689   2.223   2.810   7.463  0.5111 -0.0368 -0.1083
 1018SOL    HW114690   2.247   2.717   7.457 -2.4079 -0.6469 -2.2539
 1018SOL    HW214691   2.271   2.844   7.387  0.3811  1.8356  0.6517
 1019SOL     OW14692   0.524   2.071   5.195 -0.0446 -0.1934  0.0288
 1019SOL    HW114693   0.469   2.019   5.253 -4.8256  4.5384 -0.2533
 1019SOL    HW214694   0.610   2.067   5.237  0.0754  0.4540 -0.1448
 1020SOL     OW14695   0.015   3.657   4.392  0.3305  0.0819  0.3572
 1020SOL    HW114696   4.707   3.726   4.440 -0.5610 -0.4800  0.3201
 1020SOL    HW214697   0.096   3.647   4.442  2.1207 -0.0507 -2.5742
 1021SOL     OW14698   3.077   0.842   1.592 -0.2270 -0.0227 -0.4979
 1021SOL    HW114699   3.096   0.806   1.678  1.7039  0.6291 -0.6476
 1021SOL    HW214700   2.991   0.880   1.605 -0.1276 -0.6394  1.8545
 1022SOL     OW14701   1.520   0.049   7.015  0.1815  0.5696 -0.7381
 1022SOL    HW114702   1.586   0.046   7.084  2.0504 -0.8082 -2.5891
 1022SOL    HW214703   1.442   0.009   7.053  0.3184 -0.0583 -1.1154
 1023SOL     OW14704   0.290   1.927   1.438 -0.2317  0.1665  0.2706
 1023SOL    HW114705   0.224   1.876   1.392  0.2883 -0.3846  0.1428
 1023SOL    HW214706   0.368   1.872   1.432 -0.5510 -0.2930  0.3680
 1024SOL     OW14707   0.494   2.754   8.841 -0.0114 -0.0176  0.1495
 1024SOL    HW114708   0.567   2.696   8.862  0.3735  0.7342  0.8783
 1024SOL    HW214709   0.475   2.783   8.930  1.9053 -0.1823  0.6035
 1025SOL     OW14710   2.023   3.275  16.810 -0.4739 -0.3769  0.5308
 1025SOL    HW114711   1.960   3.347  16.812  0.4269  0.4140  0.4505
 1025SOL    HW214712   2.101   3.297  16.861  0.4492 -2.4391  0.0194
 1026SOL     OW14713   0.971   1.808   0.942  0.0261 -0.1351  0.5643
 1026SOL    HW114714   1.033   1.876   0.969  0.5095  0.7451 -2.8797
 1026SOL    HW214715   0.903   1.862   0.902  1.3873  0.8704 -0.3955
 1027SOL     OW14716   1.607   2.152   2.875  0.6182  0.0076  0.0035
 1027SOL    HW114717   1.575   2.066   2.848  1.0896 -0.0581 -0.3492
 1027SOL    HW214718   1.665   2.177   2.802  0.3046  0.1318 -0.2046
 1028SOL     OW14719   3.464   4.340  10.723 -0.2890  0.0164 -0.0800
 1028SOL    HW114720   3.426   4.428  10.727  1.9549  0.9009  1.7837
 1028SOL    HW214721   3.524   4.362  10.795  0.1299 -0.5323 -0.2648
 1029SOL     OW14722   4.395   4.530   4.932  0.2208  0.7283  0.4639
 1029SOL    HW114723   4.425   4.581   4.857 -0.0918  0.7384  0.3453
 1029SOL    HW214724   4.301   4.548   4.935 -0.1259 -1.3011  2.0826
 1030SOL     OW14725   1.224   2.365   3.978 -0.8189 -0.2080  0.1190
 1030SOL    HW114726   1.277   2.398   4.050  1.3000 -1.7897 -0.7028
 1030SOL    HW214727   1.136   2.362   4.014 -0.7281 -1.8650  0.1881
 1031SOL     OW14728   0.526   3.996   7.995  0.0373 -0.6054 -0.3279
 1031SOL    HW114729   0.447   3.944   8.008  0.4811 -0.9323  1.0875
 1031SOL    HW214730   0.518   4.054   8.071  0.2886  0.6068 -1.2226
 1032SOL     OW14731   0.557   3.357   0.515 -0.4952  0.3704 -0.0893
 1032SOL    HW114732   0.489   3.304   0.473 -0.5961 -0.1613  0.7337
 1032SOL    HW214733   0.604   3.382   0.436  2.1719 -0.7539  1.1550
 1033SOL     OW14734   0.570   4.360   6.688  0.0464 -0.2840 -0.0962
 1033SOL    HW114735   0.491   4.307   6.680  1.5203 -2.6747  1.2288
 1033SOL    HW214736   0.593   4.341   6.779 -0.2663 -3.5919 -0.7304
 1034SOL     OW14737   3.705   1.059   4.012 -0.2330 -0.0644 -0.3795
 1034SOL    HW114738   3.678   1.127   3.951  0.2334 -0.3146 -0.8656
 1034SOL    HW214739   3.801   1.056   4.022 -0.5957 -0.8482  2.7112
 1035SOL     OW14740   2.346   0.941   0.893  0.0439 -0.6647  0.4436
 1035SOL    HW114741   2.269   0.890   0.866 -0.9146  1.5967 -1.1198
 1035SOL    HW214742   2.324   1.029   0.863  2.2967 -0.0090  0.7273
 1036SOL     OW14743   2.031   0.140   2.946  0.3449 -0.6984 -0.5141
 1036SOL    HW114744   1.942   0.118   2.918  0.8889 -2.2999 -0.9477
 1036SOL    HW214745   2.025   0.235   2.935  2.0089 -0.0584  3.9312
 1037SOL     OW14746   3.844   1.125   5.879  0.3296 -0.7312  0.2564
 1037SOL    HW114747   3.868   1.034   5.866 -0.6750 -0.9416 -0.1176
 1037SOL    HW214748   3.750   1.118   5.864  0.0479  1.2775  1.0297
 1038SOL     OW14749   1.599   3.033  16.102  0.0933 -0.1420 -0.5052
 1038SOL    HW114750   1.682   3.053  16.145 -0.3055 -1.3498  0.8319
 1038SOL    HW214751   1.586   3.113  16.051 -3.1543  0.1711  0.7900
 1039SOL     OW14752   3.698   1.781  14.946  0.1660  0.5846 -0.2149
 1039SOL    HW114753   3.754   1.848  14.907  2.5727 -0.0046  2.2041
 1039SOL    HW214754   3.764   1.713  14.954 -0.7334 -0.4408 -1.4259
 1040SOL     OW14755   2.378   1.102   4.274 -0.3553 -0.2682 -0.3923
 1040SOL    HW114756   2.400   1.049   4.198 -1.0655  0.0031 -0.7815
 1040SOL    HW214757   2.321   1.171   4.241 -0.3028  0.1966  0.4899
 1041SOL     OW14758   0.932   0.227  16.078  0.7504  0.0888  0.7611
 1041SOL    HW114759   1.026   0.210  16.092  0.3823 -0.7300  2.2224
 1041SOL    HW214760   0.933   0.257  15.987  4.1125  0.5034  0.9321
 1042SOL     OW14761   4.699   2.399   5.881  0.0930  0.2133  0.3081
 1042SOL    HW114762   0.055   2.383   5.871  0.1056  0.5832 -0.1370
 1042SOL    HW214763   4.662   2.319   5.843 -1.3053 -0.3524  2.8501
 1043SOL     OW14764   0.663   3.295   8.931  0.4922  0.1405 -0.2234
 1043SOL    HW114765   0.588   3.327   8.981  0.6414 -2.4251  1.6412
 1043SOL    HW214766   0.621   3.275   8.847  0.0044  0.6803 -0.1106
 1044SOL     OW14767   4.557   2.150   1.398 -0.5672 -0.1103 -0.2973
 1044SOL    HW114768   4.601   2.185   1.321 -2.0529 -0.4234 -1.2731
 1044SOL    HW214769   4.580   2.059   1.381  0.4403  0.3171 -1.2380
 1045SOL     OW14770   3.316   4.352   3.723  0.3212 -0.8644 -0.3374
 1045SOL    HW114771   3.348   4.434   3.759  1.6205 -1.9202  0.9209
 1045SOL    HW214772   3.222   4.368   3.728  0.4361 -1.3228  3.2137
 1046SOL     OW14773   0.457   2.776  17.424  0.3122 -0.5591  0.2010
 1046SOL    HW114774   0.410   2.814  17.350  0.6418  0.0236  0.2961
 1046SOL    HW214775   0.546   2.808  17.413  1.0074 -2.5922 -0.1904
 1047SOL     OW14776   4.280   0.372   2.170 -0.0993  0.3594  0.5455
 1047SOL    HW114777   4.192   0.362   2.205  1.0103 -2.6775  2.5135
 1047SOL    HW214778   4.314   0.433   2.235  3.4834 -0.1799 -0.8089
 1048SOL     OW14779   3.993   1.957  10.494  0.1811 -0.5183 -0.4716
 1048SOL    HW114780   4.078   1.922  10.466  1.2450  2.2097 -0.6530
 1048SOL    HW214781   3.933   1.921  10.429 -0.7899  1.7002 -0.8116
 1049SOL     OW14782   1.519   1.892   3.547  0.3625  0.4969  0.2332
 1049SOL    HW114783   1.551   1.893   3.638  1.8399  2.5831 -0.3196
 1049SOL    HW214784   1.586   1.953   3.515 -0.6041  0.8532 -1.0845
 1050SOL     OW14785   3.836   1.399   6.988 -0.6584  0.4329 -0.4266
 1050SOL    HW114786   3.743   1.420   6.975 -1.2616 -1.6861  0.5063
 1050SOL    HW214787   3.846   1.304   6.991 -2.1045  0.2323 -1.9423
 1051SOL     OW14788   0.461   1.683   8.326 -0.2369 -0.2990  0.9381
 1051SOL    HW114789   0.520   1.721   8.261  1.1645 -0.7416  1.9480
 1051SOL    HW214790   0.384   1.663   8.272  0.0736 -1.6152  0.9669
 1052SOL     OW14791   0.858   2.019   6.687  0.3047  0.6309 -0.9011
 1052SOL    HW114792   0.797   1.946   6.674  0.8244 -0.0836  0.6435
 1052SOL    HW214793   0.863   2.061   6.601  2.4447  0.4712 -0.8429
 1053SOL     OW14794   3.618   4.232   9.768  0.0991  0.0663  0.2746
 1053SOL    HW114795   3.698   4.185   9.791  0.6522 -0.0631 -1.9062
 1053SOL    HW214796   3.631   4.321   9.802  1.4544  0.1051 -0.3349
 1054SOL     OW14797   0.536   3.780   0.338  0.6655  0.1768  0.3120
 1054SOL    HW114798   0.623   3.741   0.336 -0.3185 -2.1636  2.3948
 1054SOL    HW214799   0.544   3.844   0.409 -2.0908 -0.0546  0.8480
 1055SOL     OW14800   1.781   0.932   3.594  0.1782  0.0624 -0.1681
 1055SOL    HW114801   1.800   0.856   3.648  1.1652 -1.0996 -2.1450
 1055SOL    HW214802   1.773   0.999   3.662  0.6157 -0.0597  0.0027
 1056SOL     OW14803   3.714   3.296   5.348 -0.0240  0.0888  0.1725
 1056SOL    HW114804   3.781   3.334   5.293  0.4774 -2.4562 -0.9701
 1056SOL    HW214805   3.765   3.293   5.429  0.4907  4.0547 -0.0201
 1057SOL     OW14806   3.502   2.715   2.455 -0.4591  0.3998 -0.1066
 1057SOL    HW114807   3.424   2.702   2.400  0.3614 -0.7995 -1.0063
 1057SOL    HW214808   3.563   2.660   2.406  1.0657  0.2656  1.9655
 1058SOL     OW14809   4.491   2.809   8.972 -0.1307  0.0969  0.4077
 1058SOL    HW114810   4.562   2.807   8.908  0.5859 -0.4300  1.2250
 1058SOL    HW214811   4.485   2.714   8.982 -1.9599  0.1537 -0.0381
 1059SOL     OW14812   0.629   0.237   7.740 -0.4914  0.1487  1.0208
 1059SOL    HW114813   0.552   0.220   7.794 -0.7116 -3.3866 -0.3540
 1059SOL    HW214814   0.597   0.172   7.677 -0.6383  2.0042 -0.8003
 1060SOL     OW14815   3.961   2.659   6.178  0.0156 -0.3495  0.2061
 1060SOL    HW114816   3.958   2.750   6.209  1.5608 -0.1965 -0.1272
 1060SOL    HW214817   3.972   2.617   6.263  1.0402 -1.2097 -0.3541
 1061SOL     OW14818   4.260   0.752   9.378  0.3582 -0.0275  0.0268
 1061SOL    HW114819   4.342   0.709   9.355  1.0644  0.5999  1.3706
 1061SOL    HW214820   4.284   0.843   9.361  1.0667 -0.7427 -2.8593
 1062SOL     OW14821   0.220   1.434   7.849 -0.0976 -0.3432 -0.9306
 1062SOL    HW114822   0.255   1.399   7.931  1.7903  1.1848 -1.1006
 1062SOL    HW214823   0.126   1.437   7.869  0.0980  0.3901 -0.0725
 1063SOL     OW14824   3.953   3.937   4.257  0.1664  0.1131 -0.8042
 1063SOL    HW114825   3.916   3.956   4.170  2.0313  2.4990 -1.0663
 1063SOL    HW214826   3.905   3.857   4.278  1.7681 -0.9846 -1.2968
 1064SOL     OW14827   1.706   2.226   5.950  0.5652 -0.3183  0.7568
 1064SOL    HW114828   1.698   2.131   5.961 -0.6694 -0.5457 -2.1525
 1064SOL    HW214829   1.664   2.259   6.029  3.0877  0.4385  1.8068
 1065SOL     OW14830   2.673   0.814   4.271 -0.2320  0.2513  0.1880
 1065SOL    HW114831   2.715   0.760   4.338  2.1812  0.0928 -1.4434
 1065SOL    HW214832   2.746   0.830   4.211  0.1002 -1.2367  0.1943
 1066SOL     OW14833   2.632   2.096   7.169  0.1350  0.1128 -0.6569
 1066SOL    HW114834   2.643   2.010   7.128  1.7876 -0.6041  1.2879
 1066SOL    HW214835   2.724   2.108   7.193  0.0201  0.1231 -0.2260
 1067SOL     OW14836   2.165   2.693   6.189  0.1793  0.2374 -0.6185
 1067SOL    HW114837   2.243   2.642   6.168 -1.4376 -2.1179 -0.9034
 1067SOL    HW214838   2.157   2.721   6.098  2.8916  3.3991  0.1083
 1068SOL     OW14839   2.167   1.581  16.965 -0.0173 -0.1070 -0.3249
 1068SOL    HW114840   2.187   1.497  16.922  0.9116  1.1010 -2.2723
 1068SOL    HW214841   2.165   1.626  16.880  0.5741 -1.8422 -1.2754
 1069SOL     OW14842   0.485   4.572  15.628 -0.5870 -0.1744  1.0562
 1069SOL    HW114843   0.515   4.658  15.658  0.5939  0.4467 -1.9278
 1069SOL    HW214844   0.412   4.587  15.568 -0.1772  2.6744  1.2762
 1070SOL     OW14845   2.103   2.723   1.873  0.5880  0.4329 -0.0666
 1070SOL    HW114846   2.170   2.673   1.918  0.3036  0.2974  0.2047
 1070SOL    HW214847   2.099   2.813   1.906  0.2255  1.3076 -2.4576
 1071SOL     OW14848   2.145   1.372   9.002 -0.5448  0.0595 -0.3924
 1071SOL    HW114849   2.069   1.351   9.056  0.4172  1.3439  1.4821
 1071SOL    HW214850   2.214   1.351   9.066  1.8455 -1.7502 -3.5771
 1072SOL     OW14851   0.726   0.163   6.777  0.0908  0.1563  0.1997
 1072SOL    HW114852   0.743   0.243   6.725 -1.7366 -1.1715 -2.4534
 1072SOL    HW214853   0.635   0.143   6.757 -0.6165  1.3960  2.2719
 1073SOL     OW14854   2.142   2.241   3.437  0.3835 -0.6340 -0.0794
 1073SOL    HW114855   2.072   2.182   3.464 -1.1210  0.2563 -1.9752
 1073SOL    HW214856   2.133   2.312   3.500 -1.0676  0.1282 -1.1457
 1074SOL     OW14857   4.594   3.321   6.133  0.0489 -0.1576 -0.2981
 1074SOL    HW114858   4.519   3.284   6.086  0.6342 -2.3635  0.5192
 1074SOL    HW214859   4.585   3.416   6.125  0.9202  0.1738  2.5137
 1075SOL     OW14860   3.249   1.077   4.315 -0.9735 -0.0819  0.2690
 1075SOL    HW114861   3.237   1.079   4.409 -2.0294  1.9262  0.0966
 1075SOL    HW214862   3.337   1.042   4.308 -0.2479  1.5349  1.2002
 1076SOL     OW14863   1.968   1.032   1.440  0.3575  0.0639 -0.0067
 1076SOL    HW114864   1.948   0.957   1.385 -4.4749  1.6500 -0.4249
 1076SOL    HW214865   2.034   1.068   1.380 -0.5315 -0.7312 -1.4632
 1077SOL     OW14866   2.676   1.152   6.785  0.1426 -0.3438  0.0277
 1077SOL    HW114867   2.703   1.162   6.876 -0.6069 -2.1892  0.4611
 1077SOL    HW214868   2.584   1.177   6.794  0.4885  0.7565  0.4718
 1078SOL     OW14869   3.024   3.239   5.838 -0.5175  0.4456  0.3509
 1078SOL    HW114870   2.937   3.266   5.867 -0.3781  0.1913  0.9960
 1078SOL    HW214871   3.080   3.314   5.858 -1.3922  1.0642  0.4850
 1079SOL     OW14872   2.821   2.560   7.079 -0.2026  0.2297  0.1607
 1079SOL    HW114873   2.759   2.520   7.141  1.0737 -1.3985  0.4002
 1079SOL    HW214874   2.900   2.507   7.092  0.1847  1.8120  4.3374
 1080SOL     OW14875   1.508   0.246   9.222 -0.0576  0.5980 -0.0114
 1080SOL    HW114876   1.431   0.290   9.259 -0.4475  0.1961 -0.3412
 1080SOL    HW214877   1.561   0.311   9.176 -0.4539  0.7455 -0.2550
 1081SOL     OW14878   0.203   2.279   4.637 -0.0753 -0.6914  0.0030
 1081SOL    HW114879   0.219   2.328   4.717  2.0622 -0.5927 -0.4590
 1081SOL    HW214880   0.140   2.340   4.600  1.6918  0.1573 -1.6583
 1082SOL     OW14881   1.206   3.976   4.392  0.0618 -0.3433 -0.1653
 1082SOL    HW114882   1.119   3.994   4.357  0.3845  0.8599 -0.3472
 1082SOL    HW214883   1.230   4.068   4.394 -0.4868 -0.2436  1.4782
 1083SOL     OW14884   2.148   1.803   3.042 -0.4163 -0.2144  0.2535
 1083SOL    HW114885   2.099   1.861   3.101 -1.1302  0.7714 -1.2709
 1083SOL    HW214886   2.104   1.719   3.054 -0.6016 -0.3545 -1.3172
 1084SOL     OW14887   1.759   1.320  11.497 -0.2939  0.1337 -0.1051
 1084SOL    HW114888   1.818   1.385  11.457  0.0698 -0.2242 -0.1508
 1084SOL    HW214889   1.712   1.286  11.421  2.1127  0.2853 -1.6669
 1085SOL     OW14890   2.877   1.347  12.053 -0.4189 -0.4901 -0.9756
 1085SOL    HW114891   2.787   1.357  12.085  0.2915 -0.6280  1.0341
 1085SOL    HW214892   2.875   1.367  11.960 -1.7815  1.7681 -0.4639
 1086SOL     OW14893   2.403   2.823   4.414  0.0095 -0.4220 -0.3405
 1086SOL    HW114894   2.310   2.800   4.412 -0.1426  0.1583  0.3226
 1086SOL    HW214895   2.438   2.778   4.491  1.0740 -0.4050 -0.8132
 1087SOL     OW14896   0.676   1.618   8.124 -0.0870  0.7174  0.6709
 1087SOL    HW114897   0.630   1.539   8.155 -0.4142 -0.3338 -2.4956
 1087SOL    HW214898   0.747   1.618   8.188  1.8913  3.5201 -1.5526
 1088SOL     OW14899   1.192   4.437   3.582 -0.2405 -0.3643 -0.0706
 1088SOL    HW114900   1.158   4.516   3.540 -1.4847 -0.0311  1.5825
 1088SOL    HW214901   1.157   4.362   3.534 -2.2190  1.0706 -0.8710
 1089SOL     OW14902   4.042   4.347   8.341  0.1190  0.3268 -0.8613
 1089SOL    HW114903   4.055   4.253   8.351  1.0813  0.5924  0.3149
 1089SOL    HW214904   4.045   4.379   8.431  0.2316  0.9519 -1.0822
 1090SOL     OW14905   3.851   4.207   5.984  0.2350 -0.4316 -0.5994
 1090SOL    HW114906   3.922   4.170   5.931 -0.6285 -0.2334 -1.8901
 1090SOL    HW214907   3.905   4.235   6.058  0.3537 -2.3467  0.0294
 1091SOL     OW14908   2.734   2.447   0.538 -0.2702 -0.2720  0.1146
 1091SOL    HW114909   2.688   2.397   0.470 -0.8890  0.9213 -0.3361
 1091SOL    HW214910   2.823   2.453   0.505  0.7099  0.0919  2.8959
 1092SOL     OW14911   2.036   1.411   9.969 -0.0020  0.0095  0.3122
 1092SOL    HW114912   2.038   1.411  10.065 -1.1098 -0.3461  0.3398
 1092SOL    HW214913   1.968   1.343   9.971 -0.2439  0.1948 -1.1965
 1093SOL     OW14914   4.607   1.188  11.858 -0.6731  0.3978 -0.1912
 1093SOL    HW114915   4.615   1.110  11.804 -1.8595  0.9442 -1.1375
 1093SOL    HW214916   4.626   1.148  11.943  1.8045 -1.3062 -1.5388
 1094SOL     OW14917   4.419   4.033   8.598 -0.2738 -0.3530 -0.7231
 1094SOL    HW114918   4.418   3.966   8.666 -1.5042 -1.0055 -1.3982
 1094SOL    HW214919   4.449   3.985   8.521 -2.4324 -3.3166  0.2963
 1095SOL     OW14920   2.454   4.586   5.750  0.0912 -0.5252 -0.5272
 1095SOL    HW114921   2.457   4.663   5.693  2.8800 -0.7065 -0.6138
 1095SOL    HW214922   2.361   4.592   5.770  0.4218 -0.7626  1.0629
 1096SOL     OW14923   2.181   4.093  16.505  0.0002  0.0167 -0.1022
 1096SOL    HW114924   2.129   4.153  16.452 -0.5406  0.0155  0.4371
 1096SOL    HW214925   2.269   4.121  16.479  0.9879 -0.1427  3.0424
 1097SOL     OW14926   2.139   2.893  16.478 -0.4597 -0.1765  0.4302
 1097SOL    HW114927   2.102   2.979  16.500 -0.4846  0.0875 -0.6454
 1097SOL    HW214928   2.222   2.902  16.524 -1.1642  1.5020  1.3853
 1098SOL     OW14929   1.963   1.202  15.377 -0.0538  0.0561 -0.3800
 1098SOL    HW114930   1.987   1.289  15.411  0.1613  0.4953 -1.6741
 1098SOL    HW214931   1.874   1.218  15.346 -0.3944  1.8285  1.4778
 1099SOL     OW14932   3.598   0.478   9.635 -0.1055  0.2447 -0.1837
 1099SOL    HW114933   3.585   0.383   9.637 -1.0050  0.3719  0.1664
 1099SOL    HW214934   3.557   0.501   9.551 -2.7471 -2.5546  0.3356
 1100SOL     OW14935   2.061   4.074   3.224 -0.3583 -0.0804  0.0757
 1100SOL    HW114936   1.995   4.011   3.253  0.2355 -1.2592 -1.1331
 1100SOL    HW214937   1.994   4.138   3.199 -2.8997 -1.5158  3.3548
 1101SOL     OW14938   0.097   4.060  10.155  0.2450 -0.0295  0.0105
 1101SOL    HW114939   0.185   4.092  10.134  0.9570 -1.4687  0.8344
 1101SOL    HW214940   0.106   4.087  10.247 -0.2148  0.4869 -0.0939
 1102SOL     OW14941   0.260   1.861  13.348 -0.0498  0.3807  0.2852
 1102SOL    HW114942   0.223   1.858  13.436 -1.6013 -0.9761 -0.4211
 1102SOL    HW214943   0.242   1.952  13.325 -0.0224  0.5297  0.8507
 1103SOL     OW14944   3.211   3.154   4.534 -0.3218 -0.1168  0.3685
 1103SOL    HW114945   3.197   3.245   4.562  1.7166  0.8373 -1.6966
 1103SOL    HW214946   3.252   3.171   4.449  0.2210 -3.2548  0.0072
 1104SOL     OW14947   4.642   3.909  14.407 -0.0732  0.0623 -0.0645
 1104SOL    HW114948   4.633   3.828  14.356 -1.2647 -0.0712  0.3512
 1104SOL    HW214949   4.733   3.914  14.436 -0.3426  1.8816  0.4762
 1105SOL     OW14950   3.388   2.456   3.530 -0.0901 -0.0635 -0.0913
 1105SOL    HW114951   3.334   2.475   3.606  1.6266 -1.7894  1.5404
 1105SOL    HW214952   3.334   2.478   3.453 -0.1946 -1.5115 -0.4366
 1106SOL     OW14953   3.329   0.633  12.796  0.6256  0.0890  0.3544
 1106SOL    HW114954   3.296   0.723  12.802 -0.0920 -0.2519  1.3608
 1106SOL    HW214955   3.423   0.650  12.784  0.2621  2.1574  0.4260
 1107SOL     OW14956   0.573   3.276  11.550  0.0336 -0.1369 -0.2074
 1107SOL    HW114957   0.639   3.226  11.501  2.1253  1.6105  0.8637
 1107SOL    HW214958   0.603   3.366  11.542  0.7656 -0.3852 -0.2364
 1108SOL     OW14959   0.767   3.773   2.383 -0.5028  0.7871  0.1099
 1108SOL    HW114960   0.811   3.768   2.468 -1.7039  1.1307  0.7507
 1108SOL    HW214961   0.830   3.824   2.331  0.5768 -0.7215 -0.0667
 1109SOL     OW14962   4.336   3.061   7.289 -0.2198  0.2729  0.2033
 1109SOL    HW114963   4.273   3.131   7.304 -0.9540 -0.2268 -0.4989
 1109SOL    HW214964   4.405   3.080   7.352  0.6823 -2.7027  0.0928
 1110SOL     OW14965   2.966   3.900   8.199  0.2718  0.2817 -0.1712
 1110SOL    HW114966   3.049   3.891   8.154 -0.4635  1.4472 -1.7618
 1110SOL    HW214967   2.972   3.994   8.216 -1.1791  0.5386 -1.0470
 1111SOL     OW14968   3.280   1.163  15.698 -1.4021 -0.1695 -0.2566
 1111SOL    HW114969   3.244   1.248  15.672  1.1276  0.6352 -1.1858
 1111SOL    HW214970   3.238   1.153  15.783  2.6649 -1.4674  1.6263
 1112SOL     OW14971   1.515   0.508   9.144  0.2706  0.0171  0.1098
 1112SOL    HW114972   1.567   0.514   9.224  0.7058  0.0529 -0.1718
 1112SOL    HW214973   1.426   0.530   9.171  0.2149  1.0076 -0.8770
 1113SOL     OW14974   1.802   3.511   3.838 -0.4955  0.2403 -0.9227
 1113SOL    HW114975   1.721   3.460   3.846 -0.6993  0.5799 -0.8251
 1113SOL    HW214976   1.848   3.476   3.914  0.1472 -0.1640 -1.4990
 1114SOL     OW14977   0.808   1.426   1.544  0.3266 -0.0880 -0.2439
 1114SOL    HW114978   0.892   1.401   1.507  0.2147 -0.1431 -0.4630
 1114SOL    HW214979   0.830   1.410   1.636 -1.2671 -1.6282 -0.1187
 1115SOL     OW14980   4.474   4.319   7.252  0.2445 -0.6183 -0.1383
 1115SOL    HW114981   4.565   4.321   7.281  0.5542  0.3653 -1.1583
 1115SOL    HW214982   4.447   4.411   7.247  1.3551 -0.3382 -0.9140
 1116SOL     OW14983   2.471   0.350   3.160  0.4255  0.0797 -0.3391
 1116SOL    HW114984   2.484   0.399   3.241  1.5117  0.4234 -0.7183
 1116SOL    HW214985   2.563   0.329   3.145  1.1799  4.4975 -1.9862
 1117SOL     OW14986   4.670   3.465   5.839  0.9051 -0.2429 -0.4266
 1117SOL    HW114987   0.026   3.453   5.822  0.6515 -0.3456 -1.7578
 1117SOL    HW214988   4.639   3.377   5.816 -0.4883  0.0877  0.1952
 1118SOL     OW14989   0.716   4.539   7.031  1.0729  0.1193 -0.1958
 1118SOL    HW114990   0.774   4.507   7.101  1.1078 -0.7046 -0.6030
 1118SOL    HW214991   0.773   4.599   6.984 -1.9647  0.4496 -3.4946
 1119SOL     OW14992   3.403   2.591  14.868  0.0548  0.6341  0.3309
 1119SOL    HW114993   3.388   2.652  14.940  0.6266 -0.7978  1.6882
 1119SOL    HW214994   3.337   2.622  14.807  1.1843  0.6276 -0.8805
 1120SOL     OW14995   1.335   0.317   0.527  0.2229  0.3244  0.3296
 1120SOL    HW114996   1.305   0.315   0.436 -0.5484  0.5308  0.5838
 1120SOL    HW214997   1.339   0.225   0.554  0.4320  0.3972  0.5544
 1121SOL     OW14998   3.084   2.908   3.355  0.1917 -0.0345 -0.9895
 1121SOL    HW114999   3.045   2.949   3.278  0.3377  1.5964 -0.1897
 1121SOL    HW215000   3.005   2.886   3.406 -1.5395  1.4955 -3.0082
 1122SOL     OW15001   2.469   2.867  14.078  0.1209  0.2387 -0.0461
 1122SOL    HW115002   2.561   2.887  14.098  0.6880 -0.4450 -1.8841
 1122SOL    HW215003   2.485   2.853  13.984 -2.4852 -2.8304 -0.0066
 1123SOL     OW15004   0.380   1.307   8.470 -0.0457 -0.0148 -0.2141
 1123SOL    HW115005   0.395   1.244   8.399 -3.0762  1.1875 -1.9098
 1123SOL    HW215006   0.468   1.345   8.473  0.5817 -1.5724  1.1742
 1124SOL     OW15007   0.583   0.886  11.202 -0.2933 -0.7131 -0.4951
 1124SOL    HW115008   0.632   0.899  11.120  0.4450  1.2952  0.2656
 1124SOL    HW215009   0.563   0.973  11.236  0.2032 -1.2120  1.0300
 1125SOL     OW15010   3.105   1.290   6.173 -0.8042 -0.0499  0.2107
 1125SOL    HW115011   3.137   1.231   6.105  1.3511  0.7806  0.5132
 1125SOL    HW215012   3.039   1.228   6.204 -1.0164  0.2763  0.4196
 1126SOL     OW15013   1.819   3.098  13.814 -0.5606  0.3830 -0.2339
 1126SOL    HW115014   1.909   3.113  13.842  0.5165 -0.9656 -2.9222
 1126SOL    HW215015   1.825   3.005  13.837 -0.7994  0.4161 -0.0450
 1127SOL     OW15016   1.742   2.346   4.202  0.1440  0.0331  0.3010
 1127SOL    HW115017   1.822   2.299   4.176 -2.0017 -2.2697 -2.2010
 1127SOL    HW215018   1.675   2.286   4.170 -0.8079  1.9041 -1.2374
 1128SOL     OW15019   4.168   4.451   4.338 -0.3915 -0.9678 -0.0043
 1128SOL    HW115020   4.178   4.442   4.433 -0.3216 -0.3471  0.0489
 1128SOL    HW215021   4.226   4.381   4.307  0.6063 -0.8456  1.6024
 1129SOL     OW15022   0.321   1.052   3.904  0.2169  0.2836  0.5272
 1129SOL    HW115023   0.235   1.062   3.863  0.9509 -2.5740 -1.7149
 1129SOL    HW215024   0.375   1.113   3.853  0.9385 -0.1666  0.7521
 1130SOL     OW15025   0.767   2.628   1.577  0.0944  0.0089 -0.2782
 1130SOL    HW115026   0.849   2.670   1.600 -0.4458  0.0992  1.4923
 1130SOL    HW215027   0.809   2.550   1.540 -0.2599  0.9734 -2.6800
 1131SOL     OW15028   2.071   2.525   7.037  0.6968 -0.1544  0.3165
 1131SOL    HW115029   2.040   2.437   7.061 -2.7110  0.6365 -1.2235
 1131SOL    HW215030   1.992   2.575   7.017  0.7561  0.2506  1.1181
 1132SOL     OW15031   3.003   1.951   4.649  0.0824 -0.1649 -0.1791
 1132SOL    HW115032   2.989   2.045   4.659  1.6485 -0.1987  2.2032
 1132SOL    HW215033   2.957   1.935   4.566  2.4595 -4.0451 -0.7337
 1133SOL     OW15034   4.294   3.776   5.775 -0.8001 -0.0189 -0.3440
 1133SOL    HW115035   4.283   3.741   5.687 -0.4863 -1.8298  0.3347
 1133SOL    HW215036   4.367   3.838   5.770  0.5380 -1.5024  0.8766
 1134SOL     OW15037   3.551   2.674   2.740  0.4366  0.1425 -0.0178
 1134SOL    HW115038   3.522   2.724   2.664  2.1095  2.1314  0.6695
 1134SOL    HW215039   3.556   2.585   2.705  0.5077  0.0235  0.3005
 1135SOL     OW15040   4.494   1.222   5.165 -0.5765  0.0305  0.0756
 1135SOL    HW115041   4.448   1.234   5.248 -2.1121  1.5333 -0.9868
 1135SOL    HW215042   4.427   1.181   5.111 -0.2658  0.9765 -1.0394
 1136SOL     OW15043   0.758   2.089  11.913  0.1559  0.0129 -0.2150
 1136SOL    HW115044   0.708   2.105  11.833 -0.2118  1.5017  0.3170
 1136SOL    HW215045   0.841   2.125  11.881  0.5356 -0.9347 -0.3012
 1137SOL     OW15046   3.635   2.953   7.148  0.2312 -0.1133  0.2696
 1137SOL    HW115047   3.584   2.881   7.111 -1.1731  0.5390  0.8934
 1137SOL    HW215048   3.567   3.021   7.147 -0.1962 -0.5033  1.9478
 1138SOL     OW15049   2.550   2.464   3.837  0.1267  0.5067 -0.2965
 1138SOL    HW115050   2.581   2.553   3.823 -0.1898  0.6448 -0.1253
 1138SOL    HW215051   2.621   2.408   3.805  0.6120  1.7488 -1.3955
 1139SOL     OW15052   0.272   0.403   6.183 -0.2781 -0.2722 -0.1653
 1139SOL    HW115053   0.232   0.335   6.238 -0.8358 -0.8079 -1.2370
 1139SOL    HW215054   0.232   0.481   6.221  1.1711 -0.3595  1.5301
 1140SOL     OW15055   4.257   0.107  14.505 -0.5303  0.2893 -0.3513
 1140SOL    HW115056   4.170   0.070  14.514  0.7364 -2.0469  2.4405
 1140SOL    HW215057   4.282   0.116  14.597  0.6504  1.0217 -0.7400
 1141SOL     OW15058   3.196   4.105   5.126  0.1959 -0.7203 -0.4499
 1141SOL    HW115059   3.213   4.197   5.109 -0.1519 -0.4558  0.6412
 1141SOL    HW215060   3.211   4.070   5.038 -0.4813 -2.6305  0.2073
 1142SOL     OW15061   1.545   2.701   8.525 -0.5316  0.4577  0.0086
 1142SOL    HW115062   1.533   2.745   8.609  2.4667  3.0473 -0.8918
 1142SOL    HW215063   1.585   2.622   8.560 -0.2755  1.0026  0.9478
 1143SOL     OW15064   1.702   0.615   2.023 -0.1636 -0.4032  0.1573
 1143SOL    HW115065   1.630   0.587   1.967 -1.8930  1.3223  1.5059
 1143SOL    HW215066   1.741   0.534   2.056 -0.0445 -0.0360  0.9287
 1144SOL     OW15067   2.266   1.936   7.702  0.1717  0.4817 -0.0634
 1144SOL    HW115068   2.178   1.960   7.672 -0.3506  1.0839  1.9211
 1144SOL    HW215069   2.308   1.880   7.637  0.6849  0.7443  0.0466
 1145SOL     OW15070   1.443   0.706   2.871  0.6887 -0.0959  0.1676
 1145SOL    HW115071   1.468   0.706   2.778  0.3361 -1.9320  0.0726
 1145SOL    HW215072   1.422   0.613   2.869  1.0585 -0.1651 -0.6484
 1146SOL     OW15073   4.280   0.007   9.472 -0.2218 -0.0846  0.5432
 1146SOL    HW115074   4.210   4.683   9.455  1.6252 -1.8588 -0.5816
 1146SOL    HW215075   4.232   0.087   9.451 -1.5390 -1.0497 -0.0479
 1147SOL     OW15076   3.857   3.159   5.552  0.5984  0.2809 -0.3268
 1147SOL    HW115077   3.935   3.143   5.605 -0.4651  0.3033  1.2438
 1147SOL    HW215078   3.814   3.212   5.619  1.6461 -0.4476  0.9269
 1148SOL     OW15079   0.324   4.358   6.966 -0.3414  0.6927  0.2751
 1148SOL    HW115080   0.263   4.300   6.921 -0.2672  1.3867 -0.7220
 1148SOL    HW215081   0.406   4.311   6.978 -0.4307  0.9558  2.0237
 1149SOL     OW15082   0.440   0.213   6.368 -0.0296  0.6529 -0.6423
 1149SOL    HW115083   0.399   0.245   6.288  1.9367  2.3260 -0.9753
 1149SOL    HW215084   0.514   0.161   6.335  0.7347  1.4936 -0.2441
 1150SOL     OW15085   4.442   1.355   3.349 -0.0038 -0.4270  0.4541
 1150SOL    HW115086   4.525   1.383   3.388  1.1212 -0.9136 -1.6050
 1150SOL    HW215087   4.479   1.272   3.320  0.4558  0.0110 -0.2234
 1151SOL     OW15088   2.762   2.071   1.004 -0.4896  0.4144 -0.0419
 1151SOL    HW115089   2.755   2.110   1.092  0.4676 -2.0677  1.1485
 1151SOL    HW215090   2.687   2.115   0.965 -0.2850  1.4759  0.7505
 1152SOL     OW15091   3.229   2.554   0.672  0.2439  0.4667  0.3658
 1152SOL    HW115092   3.279   2.496   0.615 -0.2384 -0.6193  1.0470
 1152SOL    HW215093   3.154   2.498   0.692 -0.2485  0.5252 -1.2829
 1153SOL     OW15094   1.223   3.359  13.111  0.1212  0.8908  0.0456
 1153SOL    HW115095   1.248   3.278  13.065  1.3403  2.1694 -1.5327
 1153SOL    HW215096   1.262   3.346  13.197 -2.0567  0.2201  0.9301
 1154SOL     OW15097   0.007   2.509  16.219 -0.1452  0.0586  0.0207
 1154SOL    HW115098   0.091   2.462  16.223  1.3719  2.5351 -2.5694
 1154SOL    HW215099   0.010   2.560  16.300 -1.1507  0.0212  0.0728
 1155SOL     OW15100   0.028   1.543   1.411 -0.0389  0.6392  0.4915
 1155SOL    HW115101   0.000   1.557   1.320 -0.2611 -0.5664  0.3603
 1155SOL    HW215102   4.690   1.580   1.455  0.0561  0.8949  0.4402
 1156SOL     OW15103   3.943   1.354   1.119  0.1124  0.2783  0.2422
 1156SOL    HW115104   3.870   1.412   1.142 -0.8895 -0.7656 -0.2867
 1156SOL    HW215105   3.938   1.363   1.024  0.3087 -3.0774 -0.0558
 1157SOL     OW15106   4.314   1.552   4.126  0.1523  0.1008  0.5997
 1157SOL    HW115107   4.351   1.471   4.091 -3.0079 -0.1057 -2.2170
 1157SOL    HW215108   4.319   1.542   4.222  0.8088  0.6199  0.6188
 1158SOL     OW15109   4.626   2.601   4.849  0.0820 -0.2445  0.1965
 1158SOL    HW115110   4.657   2.532   4.908 -1.6520 -0.4148  0.9127
 1158SOL    HW215111   4.695   2.663   4.874 -0.2224  0.0980  0.1807
 1159SOL     OW15112   0.266   1.639   1.512  0.3511 -0.5970 -0.6722
 1159SOL    HW115113   0.315   1.673   1.437 -1.0644  1.8037 -0.5009
 1159SOL    HW215114   0.178   1.611   1.486  1.0302 -3.3717  0.0300
 1160SOL     OW15115   4.400   4.659   9.703 -0.0458 -0.1466 -0.2827
 1160SOL    HW115116   4.348   4.681   9.625 -0.2190 -0.1960 -0.1831
 1160SOL    HW215117   4.392   4.564   9.709  0.5548 -0.0221  2.2673
 1161SOL     OW15118   0.579   1.053   8.568  0.4811  0.5757 -0.3171
 1161SOL    HW115119   0.576   0.964   8.533 -1.2992  1.3833 -2.2419
 1161SOL    HW215120   0.639   1.101   8.511  1.2280 -0.1118 -0.1243
 1162SOL     OW15121   0.396   4.096   7.336  0.3999 -0.2650 -0.5369
 1162SOL    HW115122   0.436   4.172   7.293  1.0168 -0.2472  0.0748
 1162SOL    HW215123   0.320   4.081   7.279  0.3368 -4.4529  0.6748
 1163SOL     OW15124   3.360   1.029   4.616 -0.5059  0.2109 -0.3421
 1163SOL    HW115125   3.449   0.996   4.609 -0.9572 -1.3153  1.2836
 1163SOL    HW215126   3.304   0.956   4.641 -0.8109  0.9043  0.9792
 1164SOL     OW15127   3.571   4.520   0.762  0.4053 -0.2778 -0.0417
 1164SOL    HW115128   3.591   4.479   0.847 -1.3632  0.9040  0.9534
 1164SOL    HW215129   3.485   4.560   0.774  0.3933 -0.5456  0.7831
 1165SOL     OW15130   4.393   0.987   5.370 -0.4922  0.3565 -0.4551
 1165SOL    HW115131   4.457   0.972   5.439  0.8866  1.2512 -1.5378
 1165SOL    HW215132   4.327   1.047   5.406 -0.2714  0.7906 -0.7700
 1166SOL     OW15133   2.478   1.615   8.227  0.1223 -0.0176  0.4238
 1166SOL    HW115134   2.453   1.628   8.318  1.6869 -0.7836  0.9670
 1166SOL    HW215135   2.461   1.699   8.184  0.2789 -0.8841 -1.3379
 1167SOL     OW15136   2.462   3.527   2.684  0.3637  0.6401  0.3311
 1167SOL    HW115137   2.512   3.517   2.765  0.7993  0.4569  0.0391
 1167SOL    HW215138   2.372   3.535   2.715  1.1542  4.8314  1.6236
 1168SOL     OW15139   0.925   4.410   6.199 -0.3924  0.3081 -0.1962
 1168SOL    HW115140   0.987   4.455   6.141 -0.1909  1.4408  0.8831
 1168SOL    HW215141   0.918   4.468   6.275 -1.7445 -0.1795  0.0454
 1169SOL     OW15142   4.573   1.552   4.952 -0.6982 -0.2209 -0.4976
 1169SOL    HW115143   4.605   1.618   4.890 -1.8951  1.5423  0.7268
 1169SOL    HW215144   4.630   1.477   4.936  0.3099  0.8195 -1.7963
 1170SOL     OW15145   4.507   2.788   4.493 -0.1502 -0.1884 -0.3267
 1170SOL    HW115146   4.489   2.747   4.578  0.0697 -0.9463 -0.6555
 1170SOL    HW215147   4.435   2.756   4.440 -0.8361  0.6899  0.0803
 1171SOL     OW15148   3.074   4.547   5.347  0.1319  0.2373  0.6496
 1171SOL    HW115149   3.150   4.544   5.405  0.4541 -1.6118  0.1236
 1171SOL    HW215150   3.093   4.625   5.296  2.1350  1.5012  3.3191
 1172SOL     OW15151   2.776   0.185   3.318  0.1942  0.5539  0.4839
 1172SOL    HW115152   2.856   0.162   3.271  0.1160  0.5618  0.3463
 1172SOL    HW215153   2.710   0.171   3.249  1.1936 -0.4453 -0.2723
 1173SOL     OW15154   0.361   0.287  12.540  0.1056  0.2696 -0.4536
 1173SOL    HW115155   0.406   0.208  12.511  1.6253  0.2147  2.0627
 1173SOL    HW215156   0.423   0.358  12.530  0.3660  0.3445  1.7922
 1174SOL     OW15157   0.446   3.429  17.012  0.1771 -0.5672  0.1100
 1174SOL    HW115158   0.472   3.340  16.986  1.3293 -0.8344  2.1427
 1174SOL    HW215159   0.399   3.403  17.092 -0.7976 -0.3369 -0.3847
 1175SOL     OW15160   2.052   3.722   5.481 -0.2788  0.0972 -0.3737
 1175SOL    HW115161   2.107   3.656   5.522  0.6849  1.0177 -0.1934
 1175SOL    HW215162   2.091   3.710   5.394  0.4329  1.5185 -0.2516
 1176SOL     OW15163   0.823   3.094  12.931  0.3460 -0.0044 -0.5356
 1176SOL    HW115164   0.818   3.043  12.850 -2.9887 -0.2844 -0.1461
 1176SOL    HW215165   0.859   3.173  12.890  0.0309 -0.2835 -1.3441
 1177SOL     OW15166   3.499   4.516   4.500  0.3050  0.3645  0.2834
 1177SOL    HW115167   3.556   4.593   4.497 -0.8759  1.2499  0.4337
 1177SOL    HW215168   3.540   4.458   4.435 -1.9524 -1.5312  0.5308
 1178SOL     OW15169   3.555   2.936  14.613  0.3146 -0.4088  0.3885
 1178SOL    HW115170   3.517   2.850  14.627 -0.7353  0.0915  0.5819
 1178SOL    HW215171   3.647   2.915  14.630 -0.0337 -1.6100  0.7571
 1179SOL     OW15172   2.370   2.343   4.606 -0.2899 -0.6653  0.1715
 1179SOL    HW115173   2.435   2.286   4.566  0.4247 -1.7172  2.8996
 1179SOL    HW215174   2.407   2.363   4.692 -0.5855 -1.7625  0.5539
 1180SOL     OW15175   3.364   3.759   5.894 -0.1208  0.6445  0.1353
 1180SOL    HW115176   3.406   3.735   5.811 -0.5139  0.0403  0.1095
 1180SOL    HW215177   3.436   3.747   5.956  0.5688  0.8932 -0.6138
 1181SOL     OW15178   0.872   3.373   4.682  0.1545  0.4213  0.4994
 1181SOL    HW115179   0.870   3.450   4.738  0.1916  0.3410  0.6129
 1181SOL    HW215180   0.966   3.370   4.666  0.0912  0.0035  0.2179
 1182SOL     OW15181   2.563   4.371  16.690  0.2890  0.2937 -0.4231
 1182SOL    HW115182   2.484   4.416  16.721 -0.2383 -1.3542  0.6317
 1182SOL    HW215183   2.603   4.450  16.651 -0.3864  1.0914  0.4993
 1183SOL     OW15184   2.813   2.487   4.172 -0.2532 -0.2684 -0.1919
 1183SOL    HW115185   2.767   2.542   4.109 -1.7022 -0.0024  1.1033
 1183SOL    HW215186   2.850   2.423   4.111  0.7060 -0.3400  0.4488
 1184SOL     OW15187   2.338   3.497   7.057  0.4262 -0.0015  0.4068
 1184SOL    HW115188   2.383   3.414   7.069  1.7059  0.5979 -0.2166
 1184SOL    HW215189   2.415   3.554   7.054  0.3853  0.1107  1.3780
 1185SOL     OW15190   0.771   0.414  11.659  0.8225  0.4580  0.0763
 1185SOL    HW115191   0.766   0.328  11.617  0.3928  0.8258 -0.6034
 1185SOL    HW215192   0.863   0.435  11.640  0.9808  0.5017  0.8729
 1186SOL     OW15193   4.675   4.448  16.763  0.1281 -0.2814 -0.0118
 1186SOL    HW115194   4.665   4.543  16.770 -1.2403 -0.3510 -1.1480
 1186SOL    HW215195   0.026   4.449  16.727 -0.1691  1.2007 -0.7201
 1187SOL     OW15196   0.939   2.767   6.016 -0.0452  0.0479  0.4630
 1187SOL    HW115197   0.950   2.768   5.921 -1.8024 -1.0333  0.2537
 1187SOL    HW215198   1.002   2.698   6.036 -0.3347 -0.3864 -0.1172
 1188SOL     OW15199   1.657   1.597   3.944  0.5771  0.0491 -0.6272
 1188SOL    HW115200   1.625   1.679   3.907  1.9664  1.0717  0.4395
 1188SOL    HW215201   1.681   1.633   4.030 -0.8514 -0.4558 -0.0161
 1189SOL     OW15202   4.113   0.621   7.288 -0.2684  0.6383  0.7155
 1189SOL    HW115203   4.123   0.581   7.375  0.1328 -0.3717  0.2103
 1189SOL    HW215204   4.207   0.628   7.268 -0.8794  0.4007 -2.2525
 1190SOL     OW15205   2.888   1.631   8.011 -0.0837 -0.1580  0.1369
 1190SOL    HW115206   2.808   1.665   7.971 -0.6512 -1.7751 -0.1191
 1190SOL    HW215207   2.853   1.564   8.070  0.7753  0.8712  1.7860
 1191SOL     OW15208   2.646   0.475   2.529 -0.8597  0.4461 -0.0027
 1191SOL    HW115209   2.616   0.397   2.576  0.6141  0.1152  0.3651
 1191SOL    HW215210   2.734   0.438   2.523 -0.5482  1.0910  0.6140
 1192SOL     OW15211   3.379   2.213  17.131 -0.2388 -0.0620 -0.3087
 1192SOL    HW115212   3.405   2.295  17.090  1.5186 -1.8958 -2.8743
 1192SOL    HW215213   3.454   2.200  17.189 -0.1049 -2.6672 -1.0440
 1193SOL     OW15214   2.751   0.318   3.069  0.6701  0.2781  0.6324
 1193SOL    HW115215   2.813   0.384   3.099  0.7038  0.6541 -0.2774
 1193SOL    HW215216   2.811   0.249   3.041  1.9188  1.2091  1.0234
 1194SOL     OW15217   4.043   1.229  12.080 -0.0019 -0.4784 -0.0814
 1194SOL    HW115218   3.990   1.306  12.103  0.8515 -0.1862  0.9108
 1194SOL    HW215219   4.036   1.172  12.157 -0.8270  0.2298  0.3864
 1195SOL     OW15220   1.127   4.334   0.772 -0.0112  0.1534  0.2735
 1195SOL    HW115221   1.198   4.349   0.835  0.2321  1.5324 -0.3457
 1195SOL    HW215222   1.158   4.367   0.688  1.2955 -2.3987 -0.2507
 1196SOL     OW15223   2.809   1.913   0.087 -0.7614  0.2270 -0.4203
 1196SOL    HW115224   2.902   1.902   0.068 -0.0722  0.2126  2.9455
 1196SOL    HW215225   2.796   1.842   0.149  0.7860  0.3029 -0.0198
 1197SOL     OW15226   3.345   1.843  13.952 -0.5498  0.1403 -0.0201
 1197SOL    HW115227   3.355   1.816  14.043  2.3193  2.2585  0.2978
 1197SOL    HW215228   3.366   1.937  13.951  0.9686 -0.1704  1.5582
 1198SOL     OW15229   4.472   3.620  13.974 -0.4569 -0.4589  0.3288
 1198SOL    HW115230   4.499   3.658  13.891 -1.0643 -0.5435  0.0874
 1198SOL    HW215231   4.558   3.595  14.007 -0.1829  1.2142  0.8853
 1199SOL     OW15232   0.704   1.359   6.973 -0.8001 -0.8052 -0.2706
 1199SOL    HW115233   0.663   1.357   6.886 -1.1271  0.6901 -0.1436
 1199SOL    HW215234   0.704   1.453   6.990 -0.4667 -0.7661 -0.4811
 1200SOL     OW15235   2.266   4.585  12.506  0.5380  0.1626  0.1216
 1200SOL    HW115236   2.287   4.645  12.578  0.6120 -0.3898  0.5607
 1200SOL    HW215237   2.348   4.603  12.461  0.1405  0.8922 -0.3061
 1201SOL     OW15238   3.805   0.109  12.318  0.0819  0.1646  0.3794
 1201SOL    HW115239   3.877   0.172  12.321 -0.1881  0.5585 -1.1620
 1201SOL    HW215240   3.727   0.161  12.338  0.0735  0.4306 -0.3628
 1202SOL     OW15241   2.478   3.734  11.979  0.0734 -0.2058  0.4620
 1202SOL    HW115242   2.400   3.776  12.013 -0.9191 -1.6036 -0.0886
 1202SOL    HW215243   2.442   3.678  11.910  1.5234 -0.8934  0.2477
 1203SOL     OW15244   0.760   3.308   2.682  0.1158  0.0322 -0.1890
 1203SOL    HW115245   0.676   3.265   2.667  0.2439 -0.2147 -0.1941
 1203SOL    HW215246   0.802   3.315   2.596 -1.0544 -0.5724 -0.8076
 1204SOL     OW15247   2.463   1.434  11.310 -0.1863 -0.1767  0.1323
 1204SOL    HW115248   2.542   1.474  11.345  0.9617  0.3718 -3.1141
 1204SOL    HW215249   2.502   1.350  11.285  2.3100  0.8431  0.6281
 1205SOL     OW15250   0.026   2.766   1.196 -0.0539 -0.5630 -0.3878
 1205SOL    HW115251   0.039   2.677   1.229  2.2675 -0.1356 -0.1297
 1205SOL    HW215252   0.082   2.810   1.260 -1.4891  2.2281 -1.0724
 1206SOL     OW15253   3.150   0.306  11.217  0.6366 -0.9021  0.5720
 1206SOL    HW115254   3.120   0.380  11.269  0.9656  0.4828 -1.2135
 1206SOL    HW215255   3.225   0.346  11.173 -1.4557 -0.4592 -2.6122
 1207SOL     OW15256   0.030   1.675   9.101 -0.3564 -0.2454  0.1957
 1207SOL    HW115257   0.096   1.688   9.169  1.1893 -2.2928 -0.9225
 1207SOL    HW215258   0.066   1.720   9.025  0.9607  0.7197  1.4100
 1208SOL     OW15259   0.851   4.187   5.369  0.5999  0.3488 -0.3308
 1208SOL    HW115260   0.928   4.171   5.424  1.5342  2.0730 -1.1269
 1208SOL    HW215261   0.790   4.160   5.437  0.0867 -1.2795 -1.4487
 1209SOL     OW15262   3.832   0.984   2.550  0.3136 -0.1809 -0.1586
 1209SOL    HW115263   3.806   1.070   2.584  0.0558 -0.5355  0.5276
 1209SOL    HW215264   3.924   1.002   2.532  1.0046 -0.8605  2.8033
 1210SOL     OW15265   2.238   1.458   0.487 -0.1010  0.5876  0.3338
 1210SOL    HW115266   2.156   1.439   0.534 -0.0708  1.2150  0.6354
 1210SOL    HW215267   2.243   1.552   0.504  1.3373  0.4504  0.6750
 1211SOL     OW15268   3.062   1.855   1.218 -0.1495  0.1185 -0.3077
 1211SOL    HW115269   3.072   1.760   1.217 -2.1538 -0.0824 -2.8271
 1211SOL    HW215270   2.989   1.856   1.280 -0.5472  0.2763 -0.7717
 1212SOL     OW15271   3.994   3.540   3.128  0.5915  0.0546 -0.2978
 1212SOL    HW115272   3.958   3.617   3.083 -1.2317 -0.8691 -0.4260
 1212SOL    HW215273   3.914   3.488   3.118  1.0692 -0.9517  1.1950
 1213SOL     OW15274   2.200   1.545   4.348 -0.1440  0.3092 -0.1018
 1213SOL    HW115275   2.163   1.592   4.422  3.2808 -0.8957  2.3626
 1213SOL    HW215276   2.262   1.611   4.317  2.5566 -0.4707  3.6699
 1214SOL     OW15277   4.296   2.996   6.570 -0.4814  0.4647 -0.7558
 1214SOL    HW115278   4.271   3.057   6.501  1.9352  0.3859 -1.6916
 1214SOL    HW215279   4.347   3.063   6.615 -1.9464  1.3188 -0.3715
 1215SOL     OW15280   0.600   0.973   8.991  0.8077  0.0799 -0.5804
 1215SOL    HW115281   0.695   0.965   8.990  1.0368  2.8315  0.1872
 1215SOL    HW215282   0.576   0.881   9.004  1.6482 -0.0268  0.2673
 1216SOL     OW15283   0.769   4.209  10.309  0.0828  0.2092 -0.1788
 1216SOL    HW115284   0.718   4.181  10.385  0.8031  2.0935  0.9910
 1216SOL    HW215285   0.764   4.125  10.262  1.2153 -0.1499  0.3261
 1217SOL     OW15286   2.836   4.456   5.040  0.3548 -0.2285 -0.2517
 1217SOL    HW115287   2.847   4.367   5.008  2.5267 -0.6524  1.6297
 1217SOL    HW215288   2.922   4.490   5.014  0.1247 -0.1628 -0.9316
 1218SOL     OW15289   2.129   1.915   8.414  0.5949  0.1177  0.4396
 1218SOL    HW115290   2.084   1.993   8.381  0.0728 -1.1139 -1.7706
 1218SOL    HW215291   2.155   1.953   8.498 -1.2451 -0.5040  1.2747
 1219SOL     OW15292   1.785   0.645   3.590 -0.1862  0.4410  0.2616
 1219SOL    HW115293   1.728   0.691   3.529 -0.4243  0.8763  0.8190
 1219SOL    HW215294   1.732   0.641   3.669  0.8952 -1.6375  0.8898
 1220SOL     OW15295   0.100   4.499   2.119  0.2843 -0.2687  0.1137
 1220SOL    HW115296   0.149   4.559   2.175  0.6588 -0.8428  0.3926
 1220SOL    HW215297   0.021   4.553   2.111  0.2873 -0.3877 -0.7593
 1221SOL     OW15298   0.713   3.053   4.854 -0.1551 -0.3410 -0.1276
 1221SOL    HW115299   0.793   3.091   4.891  1.6414 -1.3055 -3.0460
 1221SOL    HW215300   0.660   3.133   4.851 -0.2166 -0.2661  2.4110
 1222SOL     OW15301   2.860   3.578   7.783 -0.0034 -0.3111  0.6262
 1222SOL    HW115302   2.805   3.640   7.832 -0.0129 -0.2173  0.4955
 1222SOL    HW215303   2.801   3.515   7.742 -0.0947  0.3797 -0.2927
 1223SOL     OW15304   3.215   2.026   7.178 -0.3091  0.0021  0.5657
 1223SOL    HW115305   3.151   1.957   7.191  0.7109 -1.0405  0.1152
 1223SOL    HW215306   3.184   2.077   7.103 -1.7071 -1.5177  0.1345
 1224SOL     OW15307   1.847   3.691   7.120 -0.0983  0.4956 -0.0965
 1224SOL    HW115308   1.834   3.686   7.215  3.0556 -0.6943  0.2635
 1224SOL    HW215309   1.941   3.677   7.117 -0.2120 -0.1711 -0.5964
 1225SOL     OW15310   0.213   0.533   8.047  0.0460  0.1586 -0.1260
 1225SOL    HW115311   0.278   0.508   8.113 -0.4213 -1.2931 -0.2260
 1225SOL    HW215312   0.136   0.515   8.101 -0.2715  0.8685 -0.3344
 1226SOL     OW15313   1.989   0.683   4.158 -0.1121  0.5492  0.1648
 1226SOL    HW115314   1.945   0.705   4.075  1.2276  2.5448 -0.0300
 1226SOL    HW215315   1.912   0.645   4.200  1.5079 -1.9219  0.9125
 1227SOL     OW15316   4.335   1.300   5.366 -0.3294 -0.0688 -0.6548
 1227SOL    HW115317   4.366   1.280   5.454  0.9725 -0.1519 -1.1293
 1227SOL    HW215318   4.242   1.318   5.380 -0.0084  0.5637  0.5875
 1228SOL     OW15319   1.061   0.263   2.501 -0.1354 -0.6359  0.2608
 1228SOL    HW115320   1.110   0.181   2.507  0.1411 -0.3386  1.9935
 1228SOL    HW215321   1.001   0.265   2.575 -0.2046  2.0225  0.1455
 1229SOL     OW15322   1.202   3.155   5.067  0.0686  0.6380  0.2289
 1229SOL    HW115323   1.247   3.218   5.123 -1.2221  2.4669 -0.7821
 1229SOL    HW215324   1.224   3.076   5.116 -1.9307  0.0099  0.1080
 1230SOL     OW15325   1.229   2.063   9.195 -0.0685  0.2758 -0.3462
 1230SOL    HW115326   1.189   1.977   9.206 -1.9981  1.1229 -0.7542
 1230SOL    HW215327   1.189   2.127   9.254 -2.9321 -0.3694 -1.5655
 1231SOL     OW15328   3.615   3.763   6.036 -0.8279  0.6253 -0.1980
 1231SOL    HW115329   3.693   3.765   5.980 -0.9698  0.3410 -0.4067
 1231SOL    HW215330   3.604   3.670   6.056  2.3779  0.2107 -0.4237
 1232SOL     OW15331   1.008   2.529  11.643  0.0100  0.4705 -0.0934
 1232SOL    HW115332   0.977   2.455  11.591  0.4953  0.6236 -0.6121
 1232SOL    HW215333   1.043   2.591  11.579 -0.8048  0.2825 -0.7140
 1233SOL     OW15334   3.664   4.657   5.635 -0.1907 -0.3091 -0.2614
 1233SOL    HW115335   3.593   4.716   5.611 -0.4555  0.3469  2.1481
 1233SOL    HW215336   3.720   4.654   5.558 -1.1021 -0.5463 -0.9040
 1234SOL     OW15337   0.440   2.563  17.173  0.2719 -0.2238 -0.4064
 1234SOL    HW115338   0.358   2.600  17.140  1.6801  1.8525 -1.5406
 1234SOL    HW215339   0.411   2.475  17.197  2.6853 -1.3324 -1.4579
 1235SOL     OW15340   4.688   3.942   0.755  0.2544 -0.1236  0.2594
 1235SOL    HW115341   4.604   3.942   0.708  0.1371 -0.4159  0.4678
 1235SOL    HW215342   4.670   4.021   0.806 -0.4190 -0.6052  0.7756
 1236SOL     OW15343   3.959   4.427   9.998 -0.2500 -0.0073  0.1922
 1236SOL    HW115344   4.049   4.423   9.965 -0.1981  1.2095  0.1655
 1236SOL    HW215345   3.982   4.463  10.084 -0.9141  0.8570  0.0043
 1237SOL     OW15346   3.031   0.815   5.446  0.3571  0.0074 -0.3061
 1237SOL    HW115347   3.037   0.879   5.376  2.9405  0.8811  0.6857
 1237SOL    HW215348   2.972   0.747   5.414 -0.7297  1.0622 -0.5393
 1238SOL     OW15349   1.824   3.206   8.393 -0.0961 -0.2192  0.2973
 1238SOL    HW115350   1.841   3.264   8.467 -1.0410  1.4337 -0.7892
 1238SOL    HW215351   1.810   3.124   8.441  0.8130  0.3951  1.6525
 1239SOL     OW15352   4.594   4.133   4.223 -0.2798  0.3005  0.4575
 1239SOL    HW115353   4.683   4.169   4.223 -0.5733  1.0941  3.6949
 1239SOL    HW215354   4.573   4.144   4.130 -1.4788 -2.5092  0.4042
 1240SOL     OW15355   0.124   1.989   2.255 -0.2615  0.7388  0.5631
 1240SOL    HW115356   0.115   2.078   2.290 -0.6734  0.5919  0.8397
 1240SOL    HW215357   0.155   2.000   2.166 -2.1973  0.1600 -0.1854
 1241SOL     OW15358   0.452   4.428   3.287  0.4138  0.1076 -0.5697
 1241SOL    HW115359   0.469   4.334   3.288  0.7462  0.1822  0.6387
 1241SOL    HW215360   0.428   4.448   3.196  0.5751  2.9287 -0.0053
 1242SOL     OW15361   2.544   1.907   2.773  0.2905  0.2167 -0.1562
 1242SOL    HW115362   2.454   1.938   2.764  0.2506  0.1843  0.1400
 1242SOL    HW215363   2.542   1.817   2.740 -0.1479  0.1667 -0.0005
 1243SOL     OW15364   1.790   2.818  16.067  0.3256 -0.3447  0.6176
 1243SOL    HW115365   1.713   2.875  16.058  0.1765 -0.8254 -1.1915
 1243SOL    HW215366   1.807   2.837  16.159 -0.3824 -2.0100  1.0845
 1244SOL     OW15367   3.995   4.112  12.545 -0.0373 -0.0054 -0.1310
 1244SOL    HW115368   4.022   4.118  12.453  1.1613  0.1727  0.2367
 1244SOL    HW215369   4.007   4.018  12.556 -0.0897  0.1753  1.5178
 1245SOL     OW15370   0.865   1.268  17.562 -0.5806  0.2422 -0.2739
 1245SOL    HW115371   0.792   1.329  17.555 -1.1521  0.1172  4.5333
 1245SOL    HW215372   0.895   1.276  17.471 -1.7662  0.6909 -0.6285
 1246SOL     OW15373   3.837   0.355   4.341  0.4660 -0.0451  0.0263
 1246SOL    HW115374   3.930   0.378   4.337  0.3374  0.6126  0.6268
 1246SOL    HW215375   3.811   0.381   4.253 -0.4248  2.1010  0.9020
 1247SOL     OW15376   1.340   3.873  14.229  0.3701  0.5065  0.1531
 1247SOL    HW115377   1.350   3.968  14.234  1.1822  0.5468 -2.3396
 1247SOL    HW215378   1.315   3.868  14.137 -0.6510 -1.6731  0.5451
 1248SOL     OW15379   0.944   0.320   3.302  0.2431 -0.4128  0.2220
 1248SOL    HW115380   0.947   0.360   3.389 -1.3306 -1.2768  0.6603
 1248SOL    HW215381   1.013   0.255   3.290 -1.1568 -2.1007  1.4241
 1249SOL     OW15382   1.248   4.616   2.286  0.3649  0.6268  0.5486
 1249SOL    HW115383   1.202   4.632   2.204  0.0116  0.6388  0.7462
 1249SOL    HW215384   1.337   4.594   2.260  0.5939  1.4682  0.5963
 1250SOL     OW15385   1.817   0.767   4.873  0.3607  0.6497  0.3866
 1250SOL    HW115386   1.786   0.737   4.787  0.9517  1.7053 -0.2073
 1250SOL    HW215387   1.887   0.828   4.848 -0.9386  1.9338 -0.0733
 1251SOL     OW15388   0.980   1.612  12.194  0.1340 -0.1428 -0.2071
 1251SOL    HW115389   1.074   1.610  12.173  0.2572 -1.5820  0.4722
 1251SOL    HW215390   0.950   1.608  12.103 -0.7148  1.6598 -0.0004
 1252SOL     OW15391   0.680   0.168   3.284 -0.2807 -0.3147  0.0791
 1252SOL    HW115392   0.758   0.180   3.339  1.6852 -1.5860 -2.3918
 1252SOL    HW215393   0.668   0.250   3.236 -0.0843  1.4253  3.0247
 1253SOL     OW15394   3.275   2.852   2.743 -0.2054  0.4001 -0.1893
 1253SOL    HW115395   3.256   2.772   2.694 -0.5536  1.3509 -1.5995
 1253SOL    HW215396   3.357   2.822   2.782 -0.3033 -0.8278 -0.9465
 1254SOL     OW15397   4.496   2.600  15.674 -0.2753  0.4521  0.2675
 1254SOL    HW115398   4.439   2.627  15.601 -0.6774 -1.7062 -0.2185
 1254SOL    HW215399   4.495   2.684  15.718  0.8782  1.0666 -0.8769
 1255SOL     OW15400   2.622   0.620  11.890 -0.0851  0.3750  0.0598
 1255SOL    HW115401   2.579   0.703  11.871  3.4168  2.0798 -0.5317
 1255SOL    HW215402   2.561   0.586  11.956  1.3671 -3.6111 -0.6352
 1256SOL     OW15403   4.263   2.470   6.496 -0.1594  0.1843 -0.4925
 1256SOL    HW115404   4.272   2.563   6.475 -2.0985  0.5363  0.2119
 1256SOL    HW215405   4.350   2.438   6.470 -0.8716 -1.1950 -1.1483
 1257SOL     OW15406   4.247   4.030   4.860  0.0890  0.1038  0.1554
 1257SOL    HW115407   4.295   4.108   4.833  1.0104 -0.0836  1.2729
 1257SOL    HW215408   4.279   3.970   4.793  1.5321  0.2993  0.6834
 1258SOL     OW15409   4.146   1.048   7.536 -0.1795  0.5319  0.2404
 1258SOL    HW115410   4.219   1.021   7.591  0.2888  0.7868 -0.2583
 1258SOL    HW215411   4.193   1.083   7.460 -1.4640  1.1507 -0.2667
 1259SOL     OW15412   2.147   2.082   2.340 -0.4278 -0.1619 -0.6893
 1259SOL    HW115413   2.187   2.005   2.298  0.1394 -0.6739  0.7739
 1259SOL    HW215414   2.205   2.087   2.417  0.1650 -0.4183 -1.1184
 1260SOL     OW15415   1.628   2.629   3.259  0.6108 -0.0865  0.2601
 1260SOL    HW115416   1.557   2.691   3.240 -0.2510 -0.9771  0.6271
 1260SOL    HW215417   1.626   2.577   3.179 -2.3149 -2.2850  1.7721
 1261SOL     OW15418   1.687   1.866   4.600  0.0528 -0.1416  0.7340
 1261SOL    HW115419   1.662   1.792   4.545  0.6961 -0.4804  0.9016
 1261SOL    HW215420   1.646   1.849   4.685 -4.2615  1.4566 -1.0130
 1262SOL     OW15421   4.286   2.132  15.320 -0.3752 -0.2812  0.2339
 1262SOL    HW115422   4.369   2.136  15.368 -0.9725  2.2552  1.0987
 1262SOL    HW215423   4.308   2.077  15.246 -0.1396 -0.4420  0.4223
 1263SOL     OW15424   1.099   3.276  17.397  0.8199 -0.8847 -0.1823
 1263SOL    HW115425   1.028   3.310  17.343 -0.1005 -1.6213  0.5564
 1263SOL    HW215426   1.174   3.274  17.338  0.8577  0.2339 -0.1744
 1264SOL     OW15427   0.723   2.869   6.160 -0.3266 -0.2212  0.0156
 1264SOL    HW115428   0.801   2.825   6.126  0.9661  2.3973 -0.4555
 1264SOL    HW215429   0.663   2.861   6.085 -0.7893  0.3081  0.3292
 1265SOL     OW15430   0.380   1.846   8.006  0.0230 -0.2939 -0.2907
 1265SOL    HW115431   0.345   1.767   8.048 -0.7745  0.5525  0.6016
 1265SOL    HW215432   0.295   1.881   7.980 -1.3670 -4.1117 -1.0253
 1266SOL     OW15433   0.597   0.724  12.644 -0.4059  0.2374 -0.1287
 1266SOL    HW115434   0.657   0.745  12.573 -0.9433  0.9028 -0.3876
 1266SOL    HW215435   0.637   0.772  12.717  2.1301 -2.9181  0.5540
 1267SOL     OW15436   1.865   2.205   3.863 -0.3232 -0.0439  0.2128
 1267SOL    HW115437   1.905   2.123   3.893  1.0021  0.4039 -0.2884
 1267SOL    HW215438   1.781   2.174   3.829 -0.1167  0.2649 -0.5973
 1268SOL     OW15439   4.622   2.425  13.235 -0.1512 -0.3129  0.2030
 1268SOL    HW115440   4.663   2.471  13.162  0.5494 -0.3765  0.5562
 1268SOL    HW215441   4.605   2.494  13.299 -1.0986 -1.1148  0.8053
 1269SOL     OW15442   2.914   2.303  16.897 -0.2237 -0.3377 -0.5779
 1269SOL    HW115443   2.891   2.349  16.816 -2.4865 -1.1418 -0.4012
 1269SOL    HW215444   2.991   2.252  16.873  0.0078  0.3603 -1.3032
 1270SOL     OW15445   2.839   1.971   5.215  0.8808 -0.0901 -0.2022
 1270SOL    HW115446   2.846   2.052   5.165 -1.3635 -0.7413 -1.5549
 1270SOL    HW215447   2.931   1.950   5.199  0.4061 -1.5653 -1.0361
 1271SOL     OW15448   0.738   2.565   7.028  0.2312  0.0117 -0.0609
 1271SOL    HW115449   0.803   2.577   7.097 -0.5749 -3.5720  1.3353
 1271SOL    HW215450   0.707   2.477   7.050 -0.3149 -0.1089 -1.3173
 1272SOL     OW15451   3.509   1.780  15.700  0.0437  0.7363  0.3940
 1272SOL    HW115452   3.574   1.765  15.768 -0.3939  1.6191  1.0135
 1272SOL    HW215453   3.433   1.740  15.741 -1.0077  0.8579 -1.4298
 1273SOL     OW15454   4.445   3.908   0.667  0.4718 -0.1204 -0.3383
 1273SOL    HW115455   4.366   3.958   0.688 -0.6097 -1.1938 -1.7981
 1273SOL    HW215456   4.411   3.818   0.672 -0.5382  0.2403 -0.6891
 1274SOL     OW15457   2.939   2.674   6.730  0.1355  0.3583 -0.0113
 1274SOL    HW115458   2.910   2.589   6.764  1.8068  0.6096  2.0279
 1274SOL    HW215459   2.894   2.740   6.783  0.8440 -0.1498  1.2058
 1275SOL     OW15460   1.162   4.709   8.168 -0.4542  0.1127  0.5100
 1275SOL    HW115461   1.195   4.705   8.258  1.2443  2.0306 -0.0121
 1275SOL    HW215462   1.187   0.062   8.149 -0.9246 -0.0777 -0.9828
 1276SOL     OW15463   0.202   2.181   1.916 -0.4888  0.6631  0.0181
 1276SOL    HW115464   0.168   2.187   1.827 -2.8582 -0.9871  0.8202
 1276SOL    HW215465   0.279   2.125   1.914 -1.6247 -0.8439 -1.2157
 1277SOL     OW15466   4.574   3.619  17.685  0.8345  0.0742  0.2107
 1277SOL    HW115467   4.530   3.537  17.706 -0.1130  0.2388 -1.0572
 1277SOL    HW215468   4.594   3.663   0.018  1.1814 -1.1699  0.7851
 1278SOL     OW15469   0.631   0.314  17.459  0.0837 -0.0634  0.0411
 1278SOL    HW115470   0.552   0.317  17.513  0.0475  1.2148 -0.0891
 1278SOL    HW215471   0.655   0.222  17.476 -2.0505 -0.3390  1.5380
 1279SOL     OW15472   2.313   2.901   8.362  0.3260  0.5933  0.5046
 1279SOL    HW115473   2.281   2.989   8.383 -0.1114  0.3416  0.8992
 1279SOL    HW215474   2.385   2.884   8.422  1.8740  1.0038 -1.2208
 1280SOL     OW15475   1.216   4.550  10.027 -0.0647  0.1490  0.3349
 1280SOL    HW115476   1.241   4.483  10.091 -2.0662  0.1417  1.1119
 1280SOL    HW215477   1.305   4.584  10.018 -0.0484  0.0940  0.2898
 1281SOL     OW15478   1.551   0.531   1.456 -0.3810 -0.4152 -0.3030
 1281SOL    HW115479   1.544   0.437   1.437 -0.3877 -0.4334 -0.2116
 1281SOL    HW215480   1.465   0.539   1.496 -0.5965 -2.0495 -0.4202
 1282SOL     OW15481   1.066   2.298  15.644  0.2995 -0.1588 -0.0833
 1282SOL    HW115482   1.112   2.229  15.597 -3.4015 -0.6102 -3.0210
 1282SOL    HW215483   1.054   2.360  15.572  0.2090 -2.3550 -1.9661
 1283SOL     OW15484   1.220   2.454  13.973 -0.1112 -0.3677 -0.4476
 1283SOL    HW115485   1.209   2.546  13.996 -0.3417 -0.2635 -0.9820
 1283SOL    HW215486   1.181   2.405  14.046 -0.6954  0.1718 -0.4009
 1284SOL     OW15487   2.705   0.674   1.103 -0.4993 -0.7421 -0.6999
 1284SOL    HW115488   2.651   0.746   1.071 -0.4922 -0.6108 -0.4083
 1284SOL    HW215489   2.781   0.729   1.122  0.3431 -1.3455 -2.2814
 1285SOL     OW15490   3.093   4.427   3.020 -0.4276  0.0989 -0.0626
 1285SOL    HW115491   3.182   4.436   3.052 -1.4491 -1.2011  3.1848
 1285SOL    HW215492   3.039   4.402   3.095  1.5671  1.4840  1.8343
 1286SOL     OW15493   1.181   2.083  10.961 -0.1550  0.0546  0.7597
 1286SOL    HW115494   1.265   2.128  10.973 -1.2651  2.3215 -0.0232
 1286SOL    HW215495   1.178   2.027  11.039 -0.9005  0.3395  0.9348
 1287SOL     OW15496   3.729   1.979  12.521 -0.2579 -0.4048 -0.1214
 1287SOL    HW115497   3.693   1.890  12.523  0.4230 -0.6917 -0.3906
 1287SOL    HW215498   3.817   1.962  12.554  0.3256  0.2908 -1.3034
 1288SOL     OW15499   4.197   1.423  10.589 -0.4329 -0.6527 -0.1232
 1288SOL    HW115500   4.141   1.462  10.522  1.7039 -0.6005 -1.8744
 1288SOL    HW215501   4.133   1.394  10.654 -0.8108 -0.8915 -0.6069
 1289SOL     OW15502   2.095   3.621   7.102 -0.4982 -0.0121 -0.1726
 1289SOL    HW115503   2.181   3.584   7.086 -0.6862 -0.5115 -0.0226
 1289SOL    HW215504   2.125   3.712   7.102 -2.4082  0.6113 -1.1318
 1290SOL     OW15505   1.168   1.550   2.673  0.2497 -0.5358 -0.2379
 1290SOL    HW115506   1.117   1.616   2.626  0.9294  1.3340  1.6547
 1290SOL    HW215507   1.097   1.503   2.717 -0.1866  0.3248 -0.0233
 1291SOL     OW15508   3.051   2.043   0.826 -0.2233 -0.0200  0.0693
 1291SOL    HW115509   2.987   1.995   0.878  0.8111 -0.9996  0.4354
 1291SOL    HW215510   3.011   2.052   0.740 -1.3682 -2.3804  0.3585
 1292SOL     OW15511   1.154   0.395   8.014  0.6297  0.1370  0.4059
 1292SOL    HW115512   1.201   0.328   8.063  0.5614 -0.7689 -0.7502
 1292SOL    HW215513   1.194   0.397   7.927  1.0512  3.2140  0.6884
 1293SOL     OW15514   2.954   1.844   7.226 -0.1522  0.2142  0.3145
 1293SOL    HW115515   3.013   1.772   7.248 -0.0706 -0.1195 -0.9953
 1293SOL    HW215516   2.872   1.799   7.247  0.0768 -0.5505 -0.4442
 1294SOL     OW15517   1.379   2.764   9.765 -0.5282 -0.4868  0.4356
 1294SOL    HW115518   1.406   2.849   9.800  0.0063  1.0555 -3.6552
 1294SOL    HW215519   1.453   2.706   9.782  1.1039  2.0776  1.9267
 1295SOL     OW15520   4.447   3.090  12.024  0.0994  0.0541 -0.1166
 1295SOL    HW115521   4.382   3.122  11.962  1.8686  0.7241 -1.6395
 1295SOL    HW215522   4.423   3.005  12.061 -1.2344  0.7155  0.5189
 1296SOL     OW15523   0.713   0.443   9.013 -0.4924  0.3377  0.8173
 1296SOL    HW115524   0.676   0.356   9.023  1.5535 -0.5339  0.7156
 1296SOL    HW215525   0.775   0.422   8.943  0.3354 -1.3578  2.0764
 1297SOL     OW15526   0.584   0.730   7.672 -0.3772 -0.0006 -0.4373
 1297SOL    HW115527   0.518   0.687   7.726  0.3909  0.1561  0.6425
 1297SOL    HW215528   0.543   0.714   7.587  0.2061 -0.7778 -0.5729
 1298SOL     OW15529   0.618   2.833   4.688 -0.0652  0.1488  0.0666
 1298SOL    HW115530   0.665   2.845   4.770 -1.9840 -1.9944  1.5064
 1298SOL    HW215531   0.584   2.922   4.678 -0.6631 -0.4913 -3.9073
 1299SOL     OW15532   0.589   2.973  16.747 -0.3364  0.0887 -0.2476
 1299SOL    HW115533   0.550   3.035  16.809  0.9015 -0.9228  1.5145
 1299SOL    HW215534   0.611   3.037  16.679  2.7336  0.5647  1.2205
 1300SOL     OW15535   0.939   1.273   8.077  0.0453 -0.4206  0.3684
 1300SOL    HW115536   0.918   1.248   7.987 -1.9300  0.3261  0.6323
 1300SOL    HW215537   0.991   1.196   8.099  2.5396  1.1802  0.2115
 1301SOL     OW15538   0.138   1.873   7.321 -0.3967  0.1629 -0.1184
 1301SOL    HW115539   0.093   1.793   7.295  0.3880  0.1279 -1.3848
 1301SOL    HW215540   0.228   1.843   7.331 -0.3872  1.1032  2.5741
 1302SOL     OW15541   1.852   3.024   2.565 -0.2901 -0.3808 -0.1219
 1302SOL    HW115542   1.927   3.081   2.577  0.5804 -1.0925 -2.1425
 1302SOL    HW215543   1.782   3.087   2.582 -0.5071 -1.0821  1.6781
 1303SOL     OW15544   3.704   3.399  16.180  0.4950  0.2251  0.2253
 1303SOL    HW115545   3.673   3.450  16.106  0.1790 -1.1449 -0.5634
 1303SOL    HW215546   3.795   3.385  16.153  0.9702  1.1398  1.3202
 1304SOL     OW15547   4.249   4.178   9.365  0.4584  0.3535  0.5106
 1304SOL    HW115548   4.295   4.095   9.380  2.1958  1.4942  1.5093
 1304SOL    HW215549   4.229   4.166   9.272  0.2818  0.8762  0.4834
 1305SOL     OW15550   4.587   4.119   4.677  0.2922  0.5296  0.5304
 1305SOL    HW115551   4.650   4.172   4.627  0.5978  0.0493  0.4111
 1305SOL    HW215552   4.508   4.132   4.624 -0.8399 -0.6067  1.9759
 1306SOL     OW15553   3.441   4.671  15.965 -0.1794  0.1459 -0.2356
 1306SOL    HW115554   3.351   4.667  15.932 -0.3740  0.1838  0.2875
 1306SOL    HW215555   3.481   4.702  15.884 -1.9570  1.9856 -0.4150
 1307SOL     OW15556   3.693   1.192  10.654  0.5590  0.0042 -0.1171
 1307SOL    HW115557   3.785   1.190  10.627  0.5353 -3.5380  0.1078
 1307SOL    HW215558   3.660   1.107  10.624 -0.8233  0.7735 -0.7403
 1308SOL     OW15559   0.837   3.164   7.357  0.0273 -0.0568 -0.0123
 1308SOL    HW115560   0.889   3.128   7.285 -0.7169  0.5042 -0.8323
 1308SOL    HW215561   0.805   3.087   7.405  2.4995 -0.6500  0.6708
 1309SOL     OW15562   4.163   0.766   0.541  0.8166  0.5103  0.1564
 1309SOL    HW115563   4.154   0.775   0.446 -0.3452  1.9107  0.3918
 1309SOL    HW215564   4.239   0.710   0.552  0.2101 -0.6067 -1.2762
 1310SOL     OW15565   0.784   3.010   4.147  0.2375 -0.4147  0.1029
 1310SOL    HW115566   0.864   3.016   4.095  0.0809 -0.5458 -0.1561
 1310SOL    HW215567   0.801   3.054   4.230 -2.3568 -1.4937  1.2038
 1311SOL     OW15568   2.526   0.493  12.776 -0.2912  0.2346  0.0286
 1311SOL    HW115569   2.582   0.530  12.845  0.3236  2.6523 -1.8004
 1311SOL    HW215570   2.460   0.462  12.838 -0.2855  0.2308  0.0328
 1312SOL     OW15571   1.823   0.748  12.027  0.8941 -0.5967 -0.4936
 1312SOL    HW115572   1.864   0.819  12.076 -0.0541 -0.1622 -0.3179
 1312SOL    HW215573   1.731   0.749  12.055  0.9080 -0.1321 -0.4740
 1313SOL     OW15574   1.952   1.915  12.670  0.8192  0.0668  0.3304
 1313SOL    HW115575   1.938   1.823  12.695  2.0087 -0.1416  0.2258
 1313SOL    HW215576   1.868   1.933  12.628  0.1271  0.9686  2.1241
 1314SOL     OW15577   1.894   0.361   5.147 -0.1139  0.0530 -0.0426
 1314SOL    HW115578   1.967   0.325   5.198 -0.1928  2.5521  1.8169
 1314SOL    HW215579   1.928   0.448   5.130  0.2652 -0.1535 -0.3545
 1315SOL     OW15580   4.236   3.584   1.802 -0.0277  0.3075  0.6660
 1315SOL    HW115581   4.275   3.562   1.887 -2.2651 -1.6083  1.1912
 1315SOL    HW215582   4.190   3.504   1.778 -0.0640  0.8771 -1.1480
 1316SOL     OW15583   2.718   4.058   3.987  0.4199  0.0482  0.1112
 1316SOL    HW115584   2.719   4.127   4.053 -0.8073  2.0621 -1.9803
 1316SOL    HW215585   2.705   3.982   4.044  0.8910 -2.2783 -2.8804
 1317SOL     OW15586   1.018   2.083  15.918 -0.1343  0.1979 -0.0520
 1317SOL    HW115587   0.997   1.989  15.915  2.7034 -0.3841 -1.5650
 1317SOL    HW215588   1.113   2.078  15.915 -0.1015 -0.4705  2.5222
 1318SOL     OW15589   1.662   3.343  13.297  0.5130 -0.2450  0.4399
 1318SOL    HW115590   1.735   3.285  13.315 -0.0817 -1.4211 -0.9263
 1318SOL    HW215591   1.673   3.370  13.206 -2.4622 -0.6477 -0.0396
 1319SOL     OW15592   0.715   0.542   6.762  0.2321  0.0788  0.3126
 1319SOL    HW115593   0.809   0.538   6.780  0.2368 -2.6783 -0.3860
 1319SOL    HW215594   0.688   0.568   6.850  2.0888  0.3610  0.8172
 1320SOL     OW15595   1.776   4.135   2.330  0.2231  0.2941  0.1307
 1320SOL    HW115596   1.751   4.164   2.242  0.6408  0.0725 -0.0613
 1320SOL    HW215597   1.835   4.062   2.310  1.7628  1.6050 -0.1154
 1321SOL     OW15598   1.331   1.195   4.161  0.0827  0.2665  0.0154
 1321SOL    HW115599   1.422   1.206   4.134  0.0676  2.4783  0.9202
 1321SOL    HW215600   1.275   1.193   4.083 -0.4285  0.9589  0.3631
 1322SOL     OW15601   0.220   1.640   4.767  0.2398 -0.0499  0.4048
 1322SOL    HW115602   0.230   1.592   4.685 -0.0286  0.5764 -0.0019
 1322SOL    HW215603   0.225   1.728   4.729 -1.0352  0.9206  2.4681
 1323SOL     OW15604   4.683   2.805   1.494  0.1381  0.1515  0.0207
 1323SOL    HW115605   4.660   2.714   1.476  1.3461  0.0164 -0.8329
 1323SOL    HW215606   4.595   2.843   1.492  0.2535  0.2935 -2.6116
 1324SOL     OW15607   3.370   2.091   5.224  0.4214 -0.0219  0.3574
 1324SOL    HW115608   3.396   2.057   5.310 -0.5195 -2.5815 -0.3660
 1324SOL    HW215609   3.298   2.033   5.198 -0.1676  1.2609 -0.8356
 1325SOL     OW15610   1.302   2.989   5.850 -0.4682 -0.0362 -0.2285
 1325SOL    HW115611   1.257   2.992   5.766  4.4977 -0.0903 -2.8813
 1325SOL    HW215612   1.292   3.078   5.884  0.8448 -0.2557  0.7641
 1326SOL     OW15613   4.633   3.614  10.184  0.6003 -0.6974 -0.3854
 1326SOL    HW115614   4.609   3.677  10.117  0.3889 -0.4314 -0.0608
 1326SOL    HW215615   4.682   3.560  10.123  1.9471 -1.4268  1.3281
 1327SOL     OW15616   4.125   2.891   6.273  0.5619 -0.0141  0.4619
 1327SOL    HW115617   4.210   2.848   6.260  0.3031 -0.5710  0.6153
 1327SOL    HW215618   4.150   2.973   6.230 -0.3405  0.5376  1.0082
 1328SOL     OW15619   0.428   1.777   7.355 -0.1038  0.3441  0.2310
 1328SOL    HW115620   0.457   1.801   7.443  2.1885  3.2818 -1.3338
 1328SOL    HW215621   0.424   1.681   7.356  0.8467  0.3111  1.7600
 1329SOL     OW15622   4.142   1.884   7.353 -0.6178 -0.4110  0.0615
 1329SOL    HW115623   4.117   1.810   7.298  0.5063 -1.0962  0.4600
 1329SOL    HW215624   4.237   1.882   7.340 -0.7084 -0.2925 -0.6181
 1330SOL     OW15625   1.268   3.477   0.807  0.6896  0.1657  0.0335
 1330SOL    HW115626   1.284   3.383   0.812  2.6206  0.5962  1.9502
 1330SOL    HW215627   1.186   3.477   0.858 -0.4634 -1.3827 -1.8091
 1331SOL     OW15628   2.006   1.471  11.585 -0.2803 -0.0141 -0.3075
 1331SOL    HW115629   2.099   1.448  11.589 -0.0022  1.0720 -0.5445
 1331SOL    HW215630   1.986   1.482  11.493 -0.9472  0.6606 -0.0820
 1332SOL     OW15631   4.325   2.176   1.859  0.3512 -0.5786  0.0035
 1332SOL    HW115632   4.303   2.168   1.766  0.2603 -2.2581  0.1719
 1332SOL    HW215633   4.381   2.099   1.868  0.6331 -0.3209  0.4713
 1333SOL     OW15634   4.175   3.196  13.207  0.5536  0.3934 -0.2796
 1333SOL    HW115635   4.116   3.122  13.219  1.1360 -0.2987 -1.6987
 1333SOL    HW215636   4.118   3.260  13.164  0.8173  1.2446  0.6315
 1334SOL     OW15637   3.002   1.283   2.476  0.0608 -0.0350 -0.0145
 1334SOL    HW115638   3.045   1.367   2.459  0.3742 -0.0479  0.7046
 1334SOL    HW215639   3.070   1.234   2.523  0.5618  1.4997  0.8719
 1335SOL     OW15640   1.840   3.687  10.888 -0.8612  0.0951 -0.2448
 1335SOL    HW115641   1.932   3.714  10.897 -0.3209 -2.2965  1.5210
 1335SOL    HW215642   1.803   3.750  10.950 -0.8926 -1.5607  1.4058
 1336SOL     OW15643   2.636   0.274   9.260  0.4706  0.1755  0.2221
 1336SOL    HW115644   2.629   0.211   9.190  1.9678  1.0608 -0.7322
 1336SOL    HW215645   2.728   0.265   9.285 -0.0911 -2.7363  1.1837
 1337SOL     OW15646   4.337   0.187   8.884 -0.0324  0.0283 -0.6506
 1337SOL    HW115647   4.260   0.222   8.838 -1.9576 -1.0985  1.6990
 1337SOL    HW215648   4.398   0.260   8.872 -0.6457  0.3452 -1.9691
 1338SOL     OW15649   2.810   1.636   3.955  0.2153  1.0798  0.1126
 1338SOL    HW115650   2.867   1.574   4.001 -1.1424 -0.1723  0.0828
 1338SOL    HW215651   2.876   1.670   3.893  1.0152 -3.3737 -1.4558
 1339SOL     OW15652   2.295   1.896   2.225 -0.0246  0.0854  0.0588
 1339SOL    HW115653   2.320   1.851   2.306 -1.8590 -1.2790 -0.1251
 1339SOL    HW215654   2.277   1.824   2.165  0.0087 -0.3535  0.5818
 1340SOL     OW15655   2.229   3.800   0.845 -0.5053  0.5604  0.1900
 1340SOL    HW115656   2.234   3.893   0.867  1.6639  0.8894 -1.6356
 1340SOL    HW215657   2.155   3.775   0.900  0.6466 -1.0645  1.0179
 1341SOL     OW15658   0.917   3.665   4.464  0.1393  0.1943 -0.5243
 1341SOL    HW115659   0.895   3.641   4.374 -2.9284 -0.2343  0.3312
 1341SOL    HW215660   1.012   3.671   4.457  0.2226  0.1220  0.5458
 1342SOL     OW15661   3.858   1.921   5.509 -0.2662 -0.7310 -0.7757
 1342SOL    HW115662   3.948   1.931   5.479 -0.0922 -1.6788 -0.5870
 1342SOL    HW215663   3.854   1.978   5.586  2.0750 -0.3923 -0.9174
 1343SOL     OW15664   0.151   0.051   8.849  0.2093 -0.1450  0.3446
 1343SOL    HW115665   0.111   0.053   8.936 -2.9745  2.0590 -1.1614
 1343SOL    HW215666   0.171   0.144   8.845  2.7815 -0.6686  1.3857
 1344SOL     OW15667   2.040   3.246   8.202  0.0294 -0.1211  0.0383
 1344SOL    HW115668   2.001   3.208   8.280 -0.4184  1.4644  0.5997
 1344SOL    HW215669   1.982   3.234   8.126  0.3481 -0.4750 -0.1500
 1345SOL     OW15670   1.852   0.697  11.739 -0.0201  0.3060 -0.0725
 1345SOL    HW115671   1.940   0.668  11.715 -0.8171 -0.6884 -1.8105
 1345SOL    HW215672   1.850   0.710  11.834 -0.2845  1.1763 -0.1951
 1346SOL     OW15673   4.183   2.115   4.732  0.3606  0.2885 -1.0927
 1346SOL    HW115674   4.184   2.064   4.813  0.5419 -0.5214 -1.6160
 1346SOL    HW215675   4.221   2.201   4.749 -0.6340  0.2068  1.5124
 1347SOL     OW15676   4.154   4.592   8.204  0.1866  0.2443 -0.5515
 1347SOL    HW115677   4.119   4.513   8.245  1.5456 -0.1156 -0.0590
 1347SOL    HW215678   4.230   4.594   8.263 -0.0045 -2.0766 -0.1961
 1348SOL     OW15679   1.808   2.585   5.293 -0.0687 -0.3491 -0.1321
 1348SOL    HW115680   1.832   2.574   5.385 -1.9189 -1.8844  0.1765
 1348SOL    HW215681   1.807   2.496   5.258  0.4717 -0.7139  0.7845
 1349SOL     OW15682   0.530   0.495   8.458  0.8141  0.2835  0.1902
 1349SOL    HW115683   0.582   0.572   8.436  1.2661 -0.1024 -0.1037
 1349SOL    HW215684   0.581   0.457   8.530  0.1287 -0.8469  0.0872
 1350SOL     OW15685   4.562   4.361   2.019 -0.1671 -0.1087  0.0024
 1350SOL    HW115686   4.603   4.437   1.977  2.5907 -1.8946 -0.4902
 1350SOL    HW215687   4.617   4.289   1.988 -0.6312 -0.5230  0.1343
 1351SOL     OW15688   2.829   3.719   4.646  0.3714  0.2843 -0.2865
 1351SOL    HW115689   2.781   3.789   4.603 -0.1390 -1.4474 -2.5471
 1351SOL    HW215690   2.845   3.671   4.565  1.8699 -0.4426  0.4248
 1352SOL     OW15691   2.889   1.627   6.308  0.2903 -0.1719  0.6032
 1352SOL    HW115692   2.912   1.597   6.220 -2.3410  3.7768 -1.4383
 1352SOL    HW215693   2.847   1.550   6.345 -1.2446 -0.5844 -2.0621
 1353SOL     OW15694   3.616   3.291   0.644  0.0871 -0.0134 -0.3597
 1353SOL    HW115695   3.596   3.275   0.552  1.7135 -0.5228 -0.6340
 1353SOL    HW215696   3.699   3.243   0.650  0.9005  1.5290  0.6385
 1354SOL     OW15697   0.105   3.603   6.704 -0.1149 -0.0957 -0.0423
 1354SOL    HW115698   0.129   3.653   6.782 -0.0690 -0.6666  0.3139
 1354SOL    HW215699   0.193   3.571   6.684  0.2145  0.3840  0.6419
 1355SOL     OW15700   0.962   3.982   4.252  0.2049  0.1151  0.1714
 1355SOL    HW115701   0.974   4.066   4.209  1.4346 -0.1353  0.0205
 1355SOL    HW215702   0.911   3.930   4.189  0.0359  0.7995 -0.2589
 1356SOL     OW15703   1.798   2.552   5.592 -0.2247  0.2745 -0.2383
 1356SOL    HW115704   1.727   2.526   5.650 -2.1187 -1.2590 -3.2904
 1356SOL    HW215705   1.845   2.618   5.644  1.3526  0.3571 -1.7782
 1357SOL     OW15706   3.125   2.284   1.728  0.1816  0.0592  0.2850
 1357SOL    HW115707   3.049   2.319   1.773  0.0323 -0.8265  0.7133
 1357SOL    HW215708   3.106   2.282   1.634 -1.0953  2.4890  0.4975
 1358SOL     OW15709   1.663   1.438   5.856 -0.3872  0.3897 -0.6168
 1358SOL    HW115710   1.606   1.454   5.781  0.0310 -1.6120 -1.3558
 1358SOL    HW215711   1.670   1.524   5.897  1.2509 -0.2889  0.5683
 1359SOL     OW15712   2.874   2.761   0.816 -0.5525  0.0623 -0.1877
 1359SOL    HW115713   2.968   2.763   0.800 -0.4152 -0.5995  0.5243
 1359SOL    HW215714   2.868   2.804   0.902 -1.2535 -3.1473  1.3767
 1360SOL     OW15715   3.313   4.650   9.512  0.1416  0.1610 -0.3806
 1360SOL    HW115716   3.405   4.673   9.507  0.2858  0.0708  1.8029
 1360SOL    HW215717   3.298   4.576   9.453  1.2401  1.3378 -2.0931
 1361SOL     OW15718   4.738   0.364   9.620 -0.3640  0.2242  0.4557
 1361SOL    HW115719   0.071   0.410   9.663  0.5866 -0.0443 -0.8279
 1361SOL    HW215720   0.049   0.326   9.547  1.0242  0.1475  1.4419
 1362SOL     OW15721   0.371   4.425   4.539 -0.0055  0.1381 -0.1617
 1362SOL    HW115722   0.441   4.490   4.531  1.4082 -1.4041 -0.3759
 1362SOL    HW215723   0.300   4.477   4.576 -1.0036 -0.4335 -1.2660
 1363SOL     OW15724   1.206   1.470  15.960  0.1759  0.1476  0.3524
 1363SOL    HW115725   1.255   1.538  16.008  0.0776  0.7284 -0.3694
 1363SOL    HW215726   1.196   1.407  16.031 -1.8975 -0.5988 -0.6012
 1364SOL     OW15727   3.688   0.397  16.733 -0.2109 -0.2970  0.0738
 1364SOL    HW115728   3.733   0.316  16.708  1.4921  0.6567  0.0130
 1364SOL    HW215729   3.677   0.436  16.646  0.6385  3.1966  1.5182
 1365SOL     OW15730   4.472   2.096   7.007 -0.4086 -0.5579 -0.1545
 1365SOL    HW115731   4.448   2.024   6.948  1.6191  1.1401 -3.0258
 1365SOL    HW215732   4.453   2.166   6.945  1.3972  3.2540  3.5633
 1366SOL     OW15733   3.534   3.633   0.003  0.0811 -0.0075 -0.8933
 1366SOL    HW115734   3.538   3.669  17.664  0.4345 -1.3459 -1.4243
 1366SOL    HW215735   3.625   3.601   0.004  0.0001 -0.2139 -0.1255
 1367SOL     OW15736   1.230   1.290   6.853 -0.1724 -0.2245 -0.1911
 1367SOL    HW115737   1.263   1.202   6.833  2.8690  0.8755 -0.1152
 1367SOL    HW215738   1.168   1.258   6.918  1.1139  4.4483  3.3301
 1368SOL     OW15739   4.179   1.675   6.352  0.0027  0.2568 -0.3082
 1368SOL    HW115740   4.248   1.730   6.390 -0.9849  1.9044 -0.8747
 1368SOL    HW215741   4.208   1.602   6.405 -1.4751 -0.2613 -0.2046
 1369SOL     OW15742   2.135   2.559   9.106 -0.9058  0.0306 -0.3032
 1369SOL    HW115743   2.145   2.471   9.142 -0.7957  0.1969  0.0718
 1369SOL    HW215744   2.104   2.608   9.182 -0.5080  0.2968 -0.3101
 1370SOL     OW15745   3.498   2.815   2.994 -0.1637 -0.2887  0.1988
 1370SOL    HW115746   3.533   2.846   3.078 -2.1169 -2.4808  1.8407
 1370SOL    HW215747   3.471   2.896   2.952 -1.2006 -0.0685  1.2735
 1371SOL     OW15748   2.324   2.256   8.412  0.2010 -0.4992  0.7365
 1371SOL    HW115749   2.240   2.301   8.406  0.4321 -0.1174  0.3203
 1371SOL    HW215750   2.387   2.326   8.431 -1.9611  1.5360  0.4142
 1372SOL     OW15751   1.252   4.066   8.507 -0.2013  0.1037  0.2299
 1372SOL    HW115752   1.176   4.056   8.449  0.3861 -0.2492 -0.4763
 1372SOL    HW215753   1.207   4.120   8.573 -1.8617  1.8208 -2.3141
 1373SOL     OW15754   2.352   2.606   8.252  0.0082  0.5850  0.1391
 1373SOL    HW115755   2.351   2.699   8.228 -0.3051  0.5618  0.0703
 1373SOL    HW215756   2.268   2.585   8.292  1.0073 -1.3476  1.2516
 1374SOL     OW15757   2.752   2.343  17.119 -0.0410  0.2632  0.0039
 1374SOL    HW115758   2.810   2.319  17.047  1.8723  2.8952  0.6637
 1374SOL    HW215759   2.808   2.405  17.165 -0.4148 -0.7205  1.7753
 1375SOL     OW15760   3.851   0.626   9.026 -0.4833 -0.1627  0.1942
 1375SOL    HW115761   3.770   0.638   8.976  0.8114  0.4842 -1.7665
 1375SOL    HW215762   3.911   0.682   8.978  1.9590 -3.1816 -0.3137
 1376SOL     OW15763   2.012   3.347   7.170 -0.2336  0.4174  0.4445
 1376SOL    HW115764   2.056   3.432   7.162  0.7425 -0.3279 -2.0296
 1376SOL    HW215765   2.084   3.284   7.168 -2.2759 -1.9011  0.4157
 1377SOL     OW15766   0.507   0.118  13.566  0.1689 -0.0117  0.1167
 1377SOL    HW115767   0.495   0.212  13.550 -1.7987 -0.2629  0.1354
 1377SOL    HW215768   0.527   0.098  13.474  0.3953 -2.0541  0.6149
 1378SOL     OW15769   0.456   2.330  15.430 -0.0745 -0.2234  0.1536
 1378SOL    HW115770   0.464   2.308  15.337  1.5629  0.0470  0.2344
 1378SOL    HW215771   0.523   2.398  15.427 -0.7314  0.5265  3.4612
 1379SOL     OW15772   3.475   1.290   5.299 -0.2062  0.4319 -0.4520
 1379SOL    HW115773   3.493   1.196   5.309  1.6912  0.5845 -2.4317
 1379SOL    HW215774   3.555   1.324   5.338  0.1875 -1.0827  0.0686
 1380SOL     OW15775   0.152   1.929  10.086 -0.0475 -0.0047 -0.3681
 1380SOL    HW115776   0.158   1.834  10.091  2.4731  0.2962  2.4261
 1380SOL    HW215777   0.057   1.939  10.085  0.0492  0.2917 -4.4280
 1381SOL     OW15778   3.711   4.198   8.448  1.0511 -0.6713 -0.0654
 1381SOL    HW115779   3.727   4.260   8.376 -0.5838 -1.1403 -0.8297
 1381SOL    HW215780   3.685   4.246   8.526 -0.8341 -0.6379 -0.7199
 1382SOL     OW15781   1.914   1.902   9.240 -0.1986 -0.2512 -0.3065
 1382SOL    HW115782   1.988   1.954   9.211  0.2032 -0.6825 -0.0405
 1382SOL    HW215783   1.923   1.816   9.197 -0.1316 -0.3432 -0.1055
 1383SOL     OW15784   4.346   4.424   9.412  0.4415  0.7041  0.2628
 1383SOL    HW115785   4.299   4.354   9.365  1.6083  1.1055 -1.5235
 1383SOL    HW215786   4.345   4.494   9.347 -0.6062  0.0279 -0.4583
 1384SOL     OW15787   1.142   3.736   4.248  0.2134  0.1056 -0.3250
 1384SOL    HW115788   1.129   3.826   4.277  0.4498 -0.3680  1.2524
 1384SOL    HW215789   1.230   3.722   4.284 -0.4509 -1.2219  0.7868
 1385SOL     OW15790   4.625   3.411  14.391 -0.1995 -0.0124  0.0429
 1385SOL    HW115791   4.582   3.362  14.321 -0.7277 -1.3957  1.3293
 1385SOL    HW215792   4.677   3.344  14.437 -0.0873  0.1249  0.1146
 1386SOL     OW15793   4.353   1.961   5.782  0.5432 -0.2322 -0.4497
 1386SOL    HW115794   4.383   1.876   5.750 -0.2517 -0.9019  0.6091
 1386SOL    HW215795   4.406   1.961   5.862 -1.6453  0.7987  0.9741
 1387SOL     OW15796   2.698   3.956   0.898  0.1038 -0.0934 -0.4127
 1387SOL    HW115797   2.765   4.023   0.890  0.1215 -0.0062  0.4544
 1387SOL    HW215798   2.749   3.899   0.956 -1.7934 -1.7199 -0.3136
 1388SOL     OW15799   3.589   2.954   1.162  0.4229  0.4852 -0.5026
 1388SOL    HW115800   3.502   2.992   1.146  0.6271  1.7651  1.4417
 1388SOL    HW215801   3.580   2.871   1.115 -4.3662  0.1618  1.0231
 1389SOL     OW15802   2.077   1.064   8.339 -0.2685  0.3020  0.2588
 1389SOL    HW115803   1.984   1.086   8.347  0.5948  3.2030  2.2950
 1389SOL    HW215804   2.090   1.007   8.415 -0.3933 -1.4845 -1.0792
 1390SOL     OW15805   3.987   2.665   5.507 -0.7200  0.2336  0.3369
 1390SOL    HW115806   3.967   2.616   5.587 -1.6856  2.0702  1.2221
 1390SOL    HW215807   3.917   2.731   5.507  0.4481  1.4842 -1.1257
 1391SOL     OW15808   0.874   1.893   0.061  0.2007  0.1267  0.5213
 1391SOL    HW115809   0.831   1.879   0.145  1.4085 -1.7190  0.8487
 1391SOL    HW215810   0.837   1.976   0.034 -1.2213 -0.7254 -0.1534
 1392SOL     OW15811   1.028   4.532   3.062 -0.1866  0.6939  0.3799
 1392SOL    HW115812   1.068   4.445   3.068  1.2411  1.4164  1.5758
 1392SOL    HW215813   1.031   4.551   2.968 -0.8532  1.1509  0.4495
 1393SOL     OW15814   0.394   4.084   2.302  0.3750 -0.1787  0.0641
 1393SOL    HW115815   0.431   4.016   2.247  1.8872  0.5790  0.1289
 1393SOL    HW215816   0.334   4.128   2.242 -2.0410 -2.0733  1.0947
 1394SOL     OW15817   3.271   1.539   6.462 -0.0355 -0.5249 -0.0780
 1394SOL    HW115818   3.304   1.450   6.452 -3.1571 -1.9542  2.2053
 1394SOL    HW215819   3.355   1.580   6.483 -0.9428  0.7194  1.1250
 1395SOL     OW15820   1.324   0.833   5.036  0.0571 -0.0514  0.1650
 1395SOL    HW115821   1.396   0.774   5.012 -1.0031 -0.8933 -0.9905
 1395SOL    HW215822   1.318   0.830   5.131 -0.8712  0.6115  0.1312
 1396SOL     OW15823   1.561   3.459   4.039 -0.1493 -0.7637 -0.7759
 1396SOL    HW115824   1.481   3.511   4.038  0.0835 -0.4073 -1.2158
 1396SOL    HW215825   1.530   3.381   3.994 -0.4555 -0.6569 -0.7466
 1397SOL     OW15826   3.419   2.858   6.772 -0.1786 -0.3028  0.3548
 1397SOL    HW115827   3.510   2.835   6.756  0.2686  0.6462  1.5469
 1397SOL    HW215828   3.390   2.893   6.688 -0.3656 -2.0781 -0.3143
 1398SOL     OW15829   4.665   0.720  13.437  0.0791  0.5306  0.4388
 1398SOL    HW115830   4.585   0.668  13.453  0.1019  0.3423 -0.0531
 1398SOL    HW215831   4.632   0.809  13.450  0.5571  0.8316 -0.4079
 1399SOL     OW15832   4.136   0.551  12.407  0.2575 -0.2226 -0.1848
 1399SOL    HW115833   4.194   0.576  12.335 -0.2768  0.4425 -0.3903
 1399SOL    HW215834   4.111   0.633  12.449  0.2911  0.5215 -1.5979
 1400SOL     OW15835   4.425   3.270   0.914 -0.1698 -1.1067 -0.0722
 1400SOL    HW115836   4.337   3.245   0.885 -0.5612  2.0073 -1.5118
 1400SOL    HW215837   4.456   3.311   0.834 -3.2090  1.0038 -0.1519
 1401SOL     OW15838   3.197   3.977   2.877  0.0665 -0.0703  0.1459
 1401SOL    HW115839   3.281   3.932   2.871 -1.0264 -2.1347  0.4857
 1401SOL    HW215840   3.127   3.913   2.889 -1.5697  1.7124  0.1337
 1402SOL     OW15841   0.183   1.406  11.165  0.3359  0.5092  0.1782
 1402SOL    HW115842   0.099   1.419  11.121  0.2281 -0.7486  0.0198
 1402SOL    HW215843   0.158   1.340  11.230 -1.4985 -0.2798 -1.3405
 1403SOL     OW15844   2.751   3.909   7.608 -0.4095 -0.0474 -0.0108
 1403SOL    HW115845   2.775   3.935   7.697  3.0977 -0.3737 -0.8585
 1403SOL    HW215846   2.823   3.852   7.584  0.0952 -0.2923  2.0477
 1404SOL     OW15847   3.718   3.701   7.945 -0.4539  0.4053 -0.1669
 1404SOL    HW115848   3.676   3.622   7.980  1.2738 -0.7847 -0.8148
 1404SOL    HW215849   3.794   3.658   7.907  0.4665  0.0017  2.1216
 1405SOL     OW15850   3.961   4.692   9.273 -0.1659 -0.1591 -0.0913
 1405SOL    HW115851   3.970   4.597   9.278  0.6481 -0.1369 -1.1988
 1405SOL    HW215852   4.019   4.711   9.199 -2.4382 -0.2270 -1.9034
 1406SOL     OW15853   3.602   1.750  15.236  0.0272 -0.1025  0.4986
 1406SOL    HW115854   3.602   1.667  15.189  0.9338 -0.6010  1.3759
 1406SOL    HW215855   3.588   1.716  15.324  0.7360 -1.0131  0.2536
 1407SOL     OW15856   0.489   3.525   4.226 -0.1154  0.1862  0.2801
 1407SOL    HW115857   0.458   3.437   4.202  1.2531 -0.5189  1.0725
 1407SOL    HW215858   0.477   3.522   4.321 -0.8914  0.6210  0.1943
 1408SOL     OW15859   2.299   4.581   0.369 -0.3026  0.0996 -0.1453
 1408SOL    HW115860   2.357   4.528   0.424  1.7330  2.1508 -0.3257
 1408SOL    HW215861   2.211   4.556   0.395 -0.1927  0.6550  0.7406
 1409SOL     OW15862   1.490   3.687   4.857  0.0330 -0.4794  0.3493
 1409SOL    HW115863   1.470   3.777   4.884  0.5867 -0.0615 -0.6380
 1409SOL    HW215864   1.567   3.658   4.906  0.8090  0.7607 -0.1313
 1410SOL     OW15865   4.170   0.149   6.928 -0.4835 -0.4512 -0.0571
 1410SOL    HW115866   4.119   0.070   6.912  2.6869 -2.4195 -0.3697
 1410SOL    HW215867   4.242   0.140   6.865  1.4291 -0.4790  2.1169
 1411SOL     OW15868   1.200   3.037  12.092 -0.3581 -0.3177 -0.5037
 1411SOL    HW115869   1.160   3.007  12.011 -0.4282 -2.2154  0.2438
 1411SOL    HW215870   1.216   3.129  12.072 -2.0792 -0.2880 -1.7176
 1412SOL     OW15871   3.597   4.543   3.068 -0.6149  0.5155 -0.4775
 1412SOL    HW115872   3.547   4.603   3.011  0.1688  0.3923 -1.2906
 1412SOL    HW215873   3.628   4.478   3.005 -0.8563  0.9250 -1.0304
 1413SOL     OW15874   3.350   2.226   4.350 -0.4106  0.5782  0.3411
 1413SOL    HW115875   3.431   2.181   4.371  0.4081  1.6730 -0.4420
 1413SOL    HW215876   3.374   2.278   4.273  0.3121  1.1543  0.9585
 1414SOL     OW15877   2.978   0.242  17.032 -0.5804  0.2216 -0.0881
 1414SOL    HW115878   3.036   0.318  17.040  1.3267 -1.2271 -0.0127
 1414SOL    HW215879   3.024   0.184  17.093 -0.9917  0.3683  0.3587
 1415SOL     OW15880   1.390   1.543  12.745 -0.3840  0.4515  0.2016
 1415SOL    HW115881   1.471   1.555  12.795 -1.3961  1.3544  1.6214
 1415SOL    HW215882   1.409   1.459  12.704 -0.9833  0.3495  0.1412
 1416SOL     OW15883   0.428   2.318   5.050  0.4944  0.2077 -0.2571
 1416SOL    HW115884   0.493   2.370   5.097 -0.2535  1.6067 -0.7676
 1416SOL    HW215885   0.457   2.231   5.077  2.4895 -0.2592 -4.0038
 1417SOL     OW15886   4.227   2.122  14.976 -0.6072  0.0883 -0.3892
 1417SOL    HW115887   4.164   2.064  15.019  1.6002 -1.5922  0.5968
 1417SOL    HW215888   4.173   2.199  14.958 -0.4474  0.4943  0.8524
 1418SOL     OW15889   1.172   2.962   7.463 -0.4222 -0.5630  0.1894
 1418SOL    HW115890   1.258   2.963   7.421  0.6066  1.7441  2.3624
 1418SOL    HW215891   1.167   2.867   7.451 -1.7593 -0.4300 -0.2556
 1419SOL     OW15892   0.938   0.947   6.229  0.2580 -0.0174  0.8871
 1419SOL    HW115893   0.920   1.040   6.218 -2.1544 -0.5753  0.0185
 1419SOL    HW215894   0.848   0.921   6.248 -0.4560  1.5487 -0.3454
 1420SOL     OW15895   2.144   0.485   3.660 -0.3593 -0.2593  0.3142
 1420SOL    HW115896   2.151   0.500   3.565  1.1877 -0.0298  0.4653
 1420SOL    HW215897   2.208   0.415   3.668  0.0978 -0.1147 -1.9465
 1421SOL     OW15898   0.920   2.410   8.384 -0.3591  0.2024 -0.1809
 1421SOL    HW115899   0.826   2.410   8.368 -0.6262 -2.7218  1.3463
 1421SOL    HW215900   0.943   2.444   8.298  2.5458 -1.1780  0.0493
 1422SOL     OW15901   0.541   4.319   1.692 -0.7727  0.0344  0.0695
 1422SOL    HW115902   0.553   4.413   1.703 -0.6043 -0.4160  3.6211
 1422SOL    HW215903   0.578   4.303   1.778  0.6934 -0.5316 -0.6733
 1423SOL     OW15904   3.124   3.385   8.140 -0.0715 -0.4729  0.1513
 1423SOL    HW115905   3.081   3.458   8.096 -2.0204 -1.5496  0.2580
 1423SOL    HW215906   3.096   3.414   8.227 -0.9585  2.4394 -1.1004
 1424SOL     OW15907   4.354   1.020  17.263 -0.1713  0.5094  0.0446
 1424SOL    HW115908   4.437   1.066  17.249  0.3341 -0.4974 -0.3414
 1424SOL    HW215909   4.294   1.077  17.217 -0.1384 -0.9090 -1.7401
 1425SOL     OW15910   2.614   0.000   4.355  0.0612 -0.5488  0.4333
 1425SOL    HW115911   2.561   0.076   4.380 -1.2494 -1.2778 -0.1020
 1425SOL    HW215912   2.549   4.698   4.297  0.6401 -0.6549 -0.1439
 1426SOL     OW15913   1.554   0.706   4.948  0.5238 -0.1283 -0.8878
 1426SOL    HW115914   1.633   0.756   4.928 -0.0133  1.1601  0.2361
 1426SOL    HW215915   1.524   0.675   4.862  2.3650  0.0652 -1.5934
 1427SOL     OW15916   0.162   4.294   9.081  0.4174 -0.3685  0.0820
 1427SOL    HW115917   0.132   4.364   9.023  0.0704 -2.1808 -1.9049
 1427SOL    HW215918   0.255   4.299   9.060  0.3884  1.6315  0.4229
 1428SOL     OW15919   4.413   2.852   3.942 -0.1730 -0.2714  0.3151
 1428SOL    HW115920   4.348   2.829   4.009 -0.1967  1.6335  0.9606
 1428SOL    HW215921   4.487   2.803   3.977  2.4560  2.5697 -1.2865
 1429SOL     OW15922   2.388   3.484   1.113 -0.2246  0.0164  0.2176
 1429SOL    HW115923   2.293   3.484   1.101 -0.2470 -1.6980  0.4498
 1429SOL    HW215924   2.401   3.558   1.173  2.4031  0.5311 -0.9643
 1430SOL     OW15925   3.939   0.057   2.574 -0.1049  0.2721  0.2968
 1430SOL    HW115926   3.953   4.702   2.590 -1.5095 -0.2541 -1.5300
 1430SOL    HW215927   3.903   0.088   2.657  0.8000  2.9240 -0.3074
 1431SOL     OW15928   4.382   1.345   3.959 -0.4653  0.1979  0.0768
 1431SOL    HW115929   4.344   1.258   3.949 -0.6551  0.2930 -0.0213
 1431SOL    HW215930   4.466   1.310   3.930  0.5752  1.9865  0.8750
 1432SOL     OW15931   2.433   1.785   7.518 -0.0461  0.0946 -0.0625
 1432SOL    HW115932   2.521   1.748   7.524 -0.0472  0.2582  0.8733
 1432SOL    HW215933   2.433   1.823   7.430 -0.4049 -1.4451 -0.7222
 1433SOL     OW15934   2.303   3.835   0.571 -0.0609  0.1065 -0.2197
 1433SOL    HW115935   2.378   3.886   0.601  1.6304 -1.3891 -1.9172
 1433SOL    HW215936   2.254   3.813   0.651 -0.7346 -1.2875 -1.0207
 1434SOL     OW15937   3.538   2.685   1.071 -0.3911  0.0029  0.1783
 1434SOL    HW115938   3.571   2.624   1.005 -0.9959 -1.2352  1.0231
 1434SOL    HW215939   3.541   2.638   1.154  0.5980 -0.2659 -0.0113
 1435SOL     OW15940   1.548   4.037  10.497 -0.1838 -0.4478 -0.2674
 1435SOL    HW115941   1.614   4.105  10.509 -1.7650  1.0734 -0.1938
 1435SOL    HW215942   1.587   3.968  10.551 -0.1777  1.4105  2.1414
 1436SOL     OW15943   3.543   4.169   8.904 -0.8171 -0.0123  0.1992
 1436SOL    HW115944   3.631   4.136   8.887 -0.4416  1.2026 -0.1870
 1436SOL    HW215945   3.499   4.086   8.887 -2.5913  1.2371 -1.2877
 1437SOL     OW15946   1.832   0.857   5.933 -0.3027  0.1571  0.6084
 1437SOL    HW115947   1.879   0.844   5.851 -0.2242 -0.1398  0.7006
 1437SOL    HW215948   1.880   0.933   5.968  2.2725 -1.2171  0.0124
 1438SOL     OW15949   2.542   0.507  11.206  0.5681  0.2476  0.9067
 1438SOL    HW115950   2.585   0.438  11.156 -0.9488  0.4251 -0.6183
 1438SOL    HW215951   2.615   0.568  11.212  1.8257 -1.1586 -0.1927
 1439SOL     OW15952   3.362   1.037   9.794  0.5451  0.5357 -0.3095
 1439SOL    HW115953   3.292   1.020   9.732 -1.1467  0.8842  1.4951
 1439SOL    HW215954   3.398   0.949   9.807 -1.0323 -0.1581 -0.6915
 1440SOL     OW15955   3.297   3.296  17.134  0.5828 -0.6977 -0.1344
 1440SOL    HW115956   3.215   3.338  17.107 -1.4543 -3.3410  1.9354
 1440SOL    HW215957   3.280   3.204  17.113 -1.5048 -0.9101  2.3935
 1441SOL     OW15958   0.420   3.820  11.149  0.5916  0.0073  0.1763
 1441SOL    HW115959   0.376   3.904  11.155  0.0444 -0.5674  4.1771
 1441SOL    HW215960   0.504   3.840  11.192 -0.0991 -3.0790  3.0337
 1442SOL     OW15961   4.209   1.100   5.540 -0.4687 -0.4129  0.1186
 1442SOL    HW115962   4.187   1.009   5.559  1.5383 -0.6176  1.4053
 1442SOL    HW215963   4.123   1.144   5.540 -0.2661 -0.0197  1.4871
 1443SOL     OW15964   3.875   1.479   7.436  0.2207 -0.0136 -0.1588
 1443SOL    HW115965   3.795   1.517   7.399 -0.1583 -0.3454  0.3170
 1443SOL    HW215966   3.881   1.526   7.519 -1.4838 -1.4570  0.7843
 1444SOL     OW15967   1.232   3.024   3.767 -0.1199 -0.8380 -0.0123
 1444SOL    HW115968   1.207   3.117   3.768 -1.6488 -1.2509  0.1895
 1444SOL    HW215969   1.162   2.992   3.711 -1.1206  0.2106  0.6411
 1445SOL     OW15970   2.208   0.458   9.421  0.9751 -0.9989 -0.0685
 1445SOL    HW115971   2.201   0.388   9.486 -1.0223  0.6871  1.5152
 1445SOL    HW215972   2.278   0.425   9.364  1.6130 -1.5470  1.0406
 1446SOL     OW15973   3.465   2.283   7.775  0.3154 -0.1656 -0.4145
 1446SOL    HW115974   3.452   2.355   7.836 -3.6330  0.0650 -1.5475
 1446SOL    HW215975   3.483   2.210   7.834 -2.4751  0.8511  1.6732
 1447SOL     OW15976   4.236   1.322   9.780 -0.0639 -0.6626 -0.9148
 1447SOL    HW115977   4.195   1.239   9.803  0.1284  0.1088  2.2634
 1447SOL    HW215978   4.325   1.307   9.813  0.6393  0.0909 -2.4662
 1448SOL     OW15979   2.568   2.336  10.613  0.3470 -0.2637  0.4482
 1448SOL    HW115980   2.634   2.403  10.632  0.3652 -0.2763  0.4287
 1448SOL    HW215981   2.611   2.262  10.657 -0.3092 -0.6434  0.4595
 1449SOL     OW15982   2.033   4.731   0.109 -0.2446  0.1801 -0.3099
 1449SOL    HW115983   1.954   4.677   0.116  1.3034 -1.9867  0.2235
 1449SOL    HW215984   2.054   4.721   0.016 -0.0693 -2.1258 -0.0173
 1450SOL     OW15985   1.772   2.873   1.924  0.0598  0.0502 -0.6764
 1450SOL    HW115986   1.846   2.930   1.903  0.6379 -0.3518  0.2816
 1450SOL    HW215987   1.713   2.923   1.981 -1.1478 -0.1511 -1.7548
 1451SOL     OW15988   0.249   1.880   4.601  0.1705  0.3971  0.5673
 1451SOL    HW115989   0.297   1.945   4.654  2.0046 -1.0384  0.6739
 1451SOL    HW215990   0.214   1.932   4.529  0.1845  0.6262  0.7252
 1452SOL     OW15991   1.740   3.203   3.103 -0.6668  0.2936  0.3378
 1452SOL    HW115992   1.744   3.221   3.009 -0.7278 -1.3768  0.0114
 1452SOL    HW215993   1.793   3.274   3.140 -0.7938  0.0031  1.0748
 1453SOL     OW15994   2.731   1.998   8.024  0.2392 -0.0356 -0.1537
 1453SOL    HW115995   2.782   2.046   8.089  1.1449 -0.0366 -0.8575
 1453SOL    HW215996   2.642   1.992   8.057 -0.1316  2.2802 -0.7482
 1454SOL     OW15997   4.414   2.101  14.050  0.5519 -0.1151 -0.1033
 1454SOL    HW115998   4.369   2.113  14.133  0.4203  0.3713 -0.2420
 1454SOL    HW215999   4.368   2.028  14.010  0.4163  0.9809 -1.9541
 1455SOL     OW16000   0.509   1.789   5.048 -0.0494 -0.3851 -0.6466
 1455SOL    HW116001   0.415   1.780   5.062 -0.3058  1.3757 -1.2202
 1455SOL    HW216002   0.510   1.883   5.068  0.5830  0.0156 -2.5571
 1456SOL     OW16003   4.257   1.685   9.973 -0.5110  0.0348  0.2979
 1456SOL    HW116004   4.233   1.618   9.909 -0.1131 -0.9522  1.1697
 1456SOL    HW216005   4.340   1.719   9.941 -1.4850 -0.2143 -2.4216
 1457SOL     OW16006   2.255   3.562   7.680 -0.1919 -0.3150  0.4229
 1457SOL    HW116007   2.331   3.545   7.736  1.0686  2.4366 -0.4337
 1457SOL    HW216008   2.263   3.650   7.643 -0.1061 -0.7670 -0.6311
 1458SOL     OW16009   3.139   3.642   3.385  0.0132  0.4166 -0.2894
 1458SOL    HW116010   3.107   3.652   3.475  4.0011 -1.4458  1.3433
 1458SOL    HW216011   3.159   3.548   3.383  0.8747  0.6105 -1.0022
 1459SOL     OW16012   2.888   3.697   7.511  0.2405  0.5001  0.1455
 1459SOL    HW116013   2.930   3.638   7.574  1.1106 -0.1812 -1.0667
 1459SOL    HW216014   2.949   3.694   7.437  0.9461  0.8270  0.7041
 1460SOL     OW16015   2.623   2.741   8.301  0.0691  0.0548 -0.1390
 1460SOL    HW116016   2.548   2.760   8.246 -0.0896 -0.7966 -0.2255
 1460SOL    HW216017   2.586   2.774   8.383  0.1155 -0.6687  0.1756
 1461SOL     OW16018   2.896   1.135   6.224 -0.3934  0.2882 -0.4775
 1461SOL    HW116019   2.891   1.059   6.165  3.1738 -0.1894 -0.1430
 1461SOL    HW216020   2.819   1.183   6.195  1.4949  2.9441 -1.0243
 1462SOL     OW16021   0.852   2.310   5.518 -0.0749 -0.2474 -0.3149
 1462SOL    HW116022   0.890   2.397   5.513  0.7822 -0.6214 -0.2598
 1462SOL    HW216023   0.926   2.255   5.543 -0.5714 -0.0123  1.7283
 1463SOL     OW16024   3.687   1.728   6.741 -0.4557 -0.0311  0.4791
 1463SOL    HW116025   3.726   1.706   6.825  0.5014 -1.1587 -0.2664
 1463SOL    HW216026   3.704   1.823   6.736  0.2239 -0.1653  0.2774
 1464SOL     OW16027   0.320   0.935  11.463  0.1372  0.3383  0.1755
 1464SOL    HW116028   0.266   0.876  11.517 -0.4216  1.1914  0.5372
 1464SOL    HW216029   0.321   0.877  11.387  0.5335 -0.1102  0.5179
 1465SOL     OW16030   4.152   2.348  13.900 -0.0995  0.2340 -0.1731
 1465SOL    HW116031   4.215   2.294  13.852 -0.2690 -0.7939  0.7772
 1465SOL    HW216032   4.090   2.366  13.829 -0.7327 -3.0381 -0.4710
 1466SOL     OW16033   3.528   1.346  11.202  0.0235  0.2534 -0.2407
 1466SOL    HW116034   3.442   1.330  11.242 -0.3950 -0.6448 -1.4863
 1466SOL    HW216035   3.589   1.307  11.264  0.4079  0.0335 -0.7520
 1467SOL     OW16036   1.982   1.316   1.048  0.0927 -0.1578 -0.1386
 1467SOL    HW116037   2.027   1.398   1.069 -1.0650  0.0318  1.6131
 1467SOL    HW216038   1.943   1.285   1.129 -1.2091  3.7422  0.7387
 1468SOL     OW16039   4.210   1.296   8.520  0.4053  0.0995 -0.1259
 1468SOL    HW116040   4.132   1.292   8.465 -0.7674 -0.0744  1.5330
 1468SOL    HW216041   4.286   1.290   8.462  0.0948 -3.5776 -0.1552
 1469SOL     OW16042   3.687   0.443   7.689 -0.0922 -0.0654 -0.0637
 1469SOL    HW116043   3.659   0.376   7.627  0.3924 -0.1783 -0.1658
 1469SOL    HW216044   3.610   0.499   7.684 -0.0187  0.1627  1.4601
 1470SOL     OW16045   3.289   2.074   3.424  0.1780 -0.5905  0.1909
 1470SOL    HW116046   3.257   2.132   3.492 -1.9853 -1.5490  0.0044
 1470SOL    HW216047   3.343   2.132   3.371  0.5981  0.9017  2.2637
 1471SOL     OW16048   0.227   3.953   5.253 -0.2627  0.1100  0.0085
 1471SOL    HW116049   0.231   3.891   5.326  1.1510 -3.7406 -3.3131
 1471SOL    HW216050   0.195   3.895   5.183  1.7446 -2.5274  1.2824
 1472SOL     OW16051   0.784   0.811   3.661  0.3509  0.2666 -0.1286
 1472SOL    HW116052   0.691   0.822   3.641  0.2028 -1.4664 -0.4090
 1472SOL    HW216053   0.779   0.730   3.713  0.0732 -0.2515 -0.9514
 1473SOL     OW16054   0.631   4.064   6.681 -0.1216 -0.0913  0.1484
 1473SOL    HW116055   0.659   4.129   6.745  2.1147 -2.0918  1.2005
 1473SOL    HW216056   0.608   4.007   6.755 -0.6893  1.0331  0.8301
 1474SOL     OW16057   3.668   1.233  16.668  0.0310 -0.4422  0.2165
 1474SOL    HW116058   3.576   1.256  16.653 -0.1829 -2.8467 -2.0049
 1474SOL    HW216059   3.712   1.312  16.700 -0.5121  0.0987 -0.3689
 1475SOL     OW16060   3.488   4.035   6.947 -0.0297 -0.0261 -0.3614
 1475SOL    HW116061   3.456   3.946   6.958 -0.9649  0.3835  0.2524
 1475SOL    HW216062   3.435   4.053   6.869  0.6758  0.4093 -0.7437
 1476SOL     OW16063   1.427   2.743   8.803 -0.2518  0.2141  0.1031
 1476SOL    HW116064   1.447   2.658   8.841  0.2050  0.4078  0.2915
 1476SOL    HW216065   1.334   2.727   8.788 -0.1560  0.9954 -1.3064
 1477SOL     OW16066   4.545   2.629  13.379 -0.1688  1.3022 -0.4217
 1477SOL    HW116067   4.513   2.655  13.465  0.9523  1.1143  0.0541
 1477SOL    HW216068   4.630   2.674  13.386  0.1652 -0.0379  3.7782
 1478SOL     OW16069   4.059   0.552   9.354 -0.0465 -0.5587 -0.5949
 1478SOL    HW116070   4.102   0.498   9.421  1.2538  1.1416 -0.0637
 1478SOL    HW216071   4.131   0.610   9.330  0.3886 -0.2740  1.3900
 1479SOL     OW16072   1.972   4.674   7.011  0.5469 -0.2667 -0.2790
 1479SOL    HW116073   1.968   4.609   7.081  0.6389 -0.3289 -0.3323
 1479SOL    HW216074   2.066   4.677   6.997  0.3662  0.2883 -1.3443
 1480SOL     OW16075   1.372   2.677   5.191 -0.0804 -0.1599 -0.3395
 1480SOL    HW116076   1.466   2.695   5.202 -0.1979 -0.5004  1.2672
 1480SOL    HW216077   1.339   2.766   5.180 -0.2459 -0.0642  0.8755
 1481SOL     OW16078   3.214   1.051   3.143  0.1859  0.2869 -0.6939
 1481SOL    HW116079   3.217   1.101   3.061  1.7548  0.1406 -0.7258
 1481SOL    HW216080   3.270   1.106   3.198 -1.0942 -0.8077  1.6830
 1482SOL     OW16081   3.859   0.542   6.246 -0.6451 -0.5374  0.1581
 1482SOL    HW116082   3.867   0.477   6.175  0.2740 -1.9857  1.5997
 1482SOL    HW216083   3.929   0.508   6.301  0.0531  1.2709  0.3824
 1483SOL     OW16084   1.148   4.391  17.724 -0.8530  0.4341 -0.0070
 1483SOL    HW116085   1.142   4.305  17.682  0.8070 -0.9212  2.5189
 1483SOL    HW216086   1.141   4.452  17.651  0.1492  0.6686  0.0912
 1484SOL     OW16087   4.292   2.361   3.354 -0.1395  0.1230  0.1975
 1484SOL    HW116088   4.366   2.392   3.407 -0.2084  1.8929 -0.7632
 1484SOL    HW216089   4.244   2.443   3.352 -0.3798 -0.0745 -1.7610
 1485SOL     OW16090   0.866   4.378   7.332  0.2754 -0.5740 -0.1063
 1485SOL    HW116091   0.867   4.474   7.332 -0.9684 -0.5603  2.5436
 1485SOL    HW216092   0.954   4.359   7.365  0.6892 -0.3633 -1.0771
 1486SOL     OW16093   2.431   3.142   8.031 -0.4381 -0.8471 -0.2961
 1486SOL    HW116094   2.380   3.221   8.052  0.2810 -1.2405  2.8314
 1486SOL    HW216095   2.422   3.136   7.936  1.5964  1.4487 -0.6309
 1487SOL     OW16096   4.116   0.967  10.897  0.8490  0.1944  0.3857
 1487SOL    HW116097   4.125   0.930  10.809 -0.0772  0.3921  0.2070
 1487SOL    HW216098   4.177   1.040  10.885  0.7949  0.3144  0.8423
 1488SOL     OW16099   0.078   1.379   3.692 -0.0233 -0.4322  0.4120
 1488SOL    HW116100   0.167   1.409   3.672 -0.1564 -0.3708 -0.0892
 1488SOL    HW216101   0.078   1.405   3.784  0.0755 -2.3080  0.9266
 1489SOL     OW16102   2.436   2.739  12.290 -0.1491  0.3183  0.3709
 1489SOL    HW116103   2.446   2.824  12.247 -0.4849 -0.9986 -2.3237
 1489SOL    HW216104   2.466   2.684  12.217  2.0313  2.5814 -0.4569
 1490SOL     OW16105   0.813   1.835   2.067  0.3960 -0.1182 -0.3582
 1490SOL    HW116106   0.738   1.842   2.126 -0.5967 -1.9875 -1.4221
 1490SOL    HW216107   0.759   1.812   1.991  0.9250 -0.9590 -0.4798
 1491SOL     OW16108   1.590   2.262   7.204 -0.2922 -0.5200 -0.2840
 1491SOL    HW116109   1.578   2.217   7.121 -2.4423  0.0712 -0.2990
 1491SOL    HW216110   1.620   2.187   7.255  0.0204  0.0546  0.3926
 1492SOL     OW16111   3.441   0.229  11.511 -0.4270 -0.6417  0.6570
 1492SOL    HW116112   3.486   0.220  11.595  0.8586  1.2502  0.1694
 1492SOL    HW216113   3.380   0.294  11.547  2.4038  2.4656 -0.2141
 1493SOL     OW16114   2.303   4.088   0.875  0.2969  0.0020  0.4614
 1493SOL    HW116115   2.332   4.168   0.920  1.4815  0.2891 -0.7974
 1493SOL    HW216116   2.231   4.124   0.823 -1.0221 -1.5169  1.2467
 1494SOL     OW16117   1.733   3.353   6.525 -0.4418  0.1793 -0.1439
 1494SOL    HW116118   1.646   3.391   6.540 -2.1550 -2.7227 -2.9140
 1494SOL    HW216119   1.779   3.361   6.609  0.6665 -2.9599 -0.4529
 1495SOL     OW16120   2.938   3.688  12.108 -0.2703 -0.1198  0.5391
 1495SOL    HW116121   2.944   3.643  12.024  1.9509 -2.3946  1.9268
 1495SOL    HW216122   2.850   3.725  12.108 -0.5263 -0.7380 -1.2124
 1496SOL     OW16123   4.647   4.734  10.902 -0.2382  0.1625  0.4088
 1496SOL    HW116124   4.621   0.014  10.992 -1.8889  2.4255 -0.5376
 1496SOL    HW216125   4.715   4.666  10.909  0.5175  0.8829  0.0763
 1497SOL     OW16126   1.084   3.213   6.297  0.6866  0.4810  0.9052
 1497SOL    HW116127   1.009   3.261   6.333 -1.0684  1.6458 -4.2483
 1497SOL    HW216128   1.093   3.239   6.205  1.1071 -2.6240  0.1000
 1498SOL     OW16129   3.912   3.894   8.259  0.4676 -0.0893  0.8476
 1498SOL    HW116130   3.825   3.911   8.296 -0.5544 -0.2834 -1.4927
 1498SOL    HW216131   3.937   3.978   8.221  0.7558 -0.8401 -0.5883
 1499SOL     OW16132   2.372   1.471  14.047 -0.4991  0.3369 -0.0200
 1499SOL    HW116133   2.310   1.495  14.115 -0.1140  0.3944  0.3135
 1499SOL    HW216134   2.333   1.394  14.006  2.0251 -1.6887  1.3666
 1500SOL     OW16135   2.810   0.943   7.449  0.5230  0.1823 -0.3940
 1500SOL    HW116136   2.789   0.996   7.526  1.0374  1.7706 -1.3436
 1500SOL    HW216137   2.727   0.908   7.417 -0.0600  0.7774  0.4952
 1501SOL     OW16138   1.147   2.258   7.200 -0.1546  0.3324 -0.5469
 1501SOL    HW116139   1.209   2.294   7.135 -0.3396 -1.0973 -1.5191
 1501SOL    HW216140   1.203   2.198   7.251 -0.5395 -0.6296 -1.2503
 1502SOL     OW16141   1.076   2.050   9.583 -0.4058  0.6979  0.3539
 1502SOL    HW116142   1.090   2.122   9.521  0.5393 -0.0104 -0.2520
 1502SOL    HW216143   1.078   2.098   9.666  0.1010 -1.5913  1.6869
 1503SOL     OW16144   2.118   1.411   9.506  0.0314 -0.3104 -0.8474
 1503SOL    HW116145   2.047   1.454   9.553 -0.0892  0.3209 -1.5979
 1503SOL    HW216146   2.143   1.341   9.566 -0.5515  0.7131  0.5870
 1504SOL     OW16147   4.239   0.049   1.763 -0.6704 -0.6205  0.4554
 1504SOL    HW116148   4.210   4.701   1.732 -0.6752 -1.1740  2.0256
 1504SOL    HW216149   4.231   0.095   1.679 -0.0845 -0.6784  0.3701
 1505SOL     OW16150   1.230   3.929   0.677  0.1637 -0.0772  0.1579
 1505SOL    HW116151   1.272   3.993   0.620  1.5457 -1.2840 -0.2041
 1505SOL    HW216152   1.284   3.850   0.669  0.6401  0.2445  0.2091
 1506SOL     OW16153   1.833   3.658   6.540 -0.2396 -0.0588  0.4292
 1506SOL    HW116154   1.919   3.629   6.570 -0.3391 -0.5264  0.2674
 1506SOL    HW216155   1.790   3.696   6.616  0.6959 -0.6145  1.2437
 1507SOL     OW16156   0.690   0.464   6.209 -0.5900  0.5725 -0.2982
 1507SOL    HW116157   0.691   0.393   6.145  0.7634  0.7295 -0.4701
 1507SOL    HW216158   0.782   0.491   6.206 -0.1053 -1.2469 -1.7026
 1508SOL     OW16159   4.655   2.371   6.717  0.0107 -0.0067 -0.2075
 1508SOL    HW116160   4.720   2.417   6.663  1.1354 -1.1823  0.1284
 1508SOL    HW216161   4.674   2.281   6.689  1.5469  0.7236 -1.5380
 1509SOL     OW16162   2.346   0.111   0.301  0.3353 -0.0704  0.1350
 1509SOL    HW116163   2.341   0.022   0.336  0.2221  0.6383  1.9252
 1509SOL    HW216164   2.275   0.164   0.337 -0.3121  0.8988 -2.5168
 1510SOL     OW16165   3.011   2.587   8.543  0.0671  0.3033  0.2805
 1510SOL    HW116166   2.965   2.639   8.608  1.3553  0.3028  1.2024
 1510SOL    HW216167   2.938   2.549   8.493 -1.1865 -0.5998  2.8008
 1511SOL     OW16168   1.926   1.188   5.975  0.3577 -0.0347  0.2266
 1511SOL    HW116169   1.839   1.196   6.014 -0.2769 -0.1934 -1.1528
 1511SOL    HW216170   1.936   1.267   5.922 -0.1423  1.0169  1.7183
 1512SOL     OW16171   4.278   3.600  14.249 -0.3351  0.4070  0.2658
 1512SOL    HW116172   4.369   3.629  14.243  0.2985 -1.7420 -0.3830
 1512SOL    HW216173   4.224   3.657  14.194 -1.1871 -1.4633 -0.8486
 1513SOL     OW16174   1.886   1.113  17.318 -0.4682 -0.5205  0.5012
 1513SOL    HW116175   1.791   1.105  17.310 -0.6731  0.6098  1.6876
 1513SOL    HW216176   1.884   1.158  17.403 -0.4219  0.9396 -0.2699
 1514SOL     OW16177   0.855   2.295   7.964 -0.0285 -0.2315 -0.7417
 1514SOL    HW116178   0.881   2.203   7.966  0.0073 -0.2008  0.2769
 1514SOL    HW216179   0.775   2.273   8.012  1.8408 -1.3519  1.8366
 1515SOL     OW16180   0.088   0.828   8.073 -0.1344  0.6309  0.4424
 1515SOL    HW116181   0.088   0.845   8.167  0.8624 -0.7582  0.7046
 1515SOL    HW216182   0.160   0.881   8.039 -0.1978  0.5888  0.2415
 1516SOL     OW16183   4.343   1.171   1.812 -0.2328 -0.5981  0.2511
 1516SOL    HW116184   4.326   1.139   1.723 -3.3521 -0.7386  0.9142
 1516SOL    HW216185   4.333   1.089   1.861  1.6620  0.0615  1.7281
 1517SOL     OW16186   4.403   4.668   4.692  0.2116  0.0535  0.1555
 1517SOL    HW116187   4.443   0.016   4.709  0.5210 -0.4005  1.7147
 1517SOL    HW216188   4.454   4.630   4.620 -0.7931 -0.9687 -0.0063
 1518SOL     OW16189   1.444   1.568  12.378 -0.1879 -0.1881  0.3050
 1518SOL    HW116190   1.517   1.509  12.396 -1.5136 -1.6149  1.0321
 1518SOL    HW216191   1.377   1.508  12.413 -3.0583  2.6043 -0.3965
 1519SOL     OW16192   2.117   3.451   1.087 -0.6709 -0.1087  0.1157
 1519SOL    HW116193   2.033   3.407   1.092 -2.1063  2.5658 -0.4110
 1519SOL    HW216194   2.085   3.528   1.041 -1.3037  0.9796  2.4117
 1520SOL     OW16195   1.430   3.471   4.310 -0.1679  0.2513  0.0356
 1520SOL    HW116196   1.470   3.467   4.223 -0.1275 -2.7897  0.1800
 1520SOL    HW216197   1.414   3.565   4.309 -0.1039  0.2660  0.4539
 1521SOL     OW16198   2.535   2.765   7.680 -0.2490 -0.0350  0.0158
 1521SOL    HW116199   2.555   2.841   7.625 -0.3111 -0.4784 -0.6240
 1521SOL    HW216200   2.586   2.699   7.632 -0.0438 -1.1011  1.7211
 1522SOL     OW16201   4.083   1.476   2.006  0.3640  0.6497  0.4839
 1522SOL    HW116202   4.082   1.569   2.029  0.1202  0.7926 -0.1041
 1522SOL    HW216203   4.177   1.466   2.022  0.6473 -0.8841 -2.2365
 1523SOL     OW16204   3.275   3.582   5.429 -0.1200  0.1056 -0.2843
 1523SOL    HW116205   3.211   3.520   5.463  0.5822  0.0386  0.9014
 1523SOL    HW216206   3.354   3.531   5.444 -0.7735  0.3699  4.0713
 1524SOL     OW16207   3.175   2.886   4.077 -0.6225 -0.5891  0.4286
 1524SOL    HW116208   3.166   2.981   4.073 -1.3583 -0.7207 -1.0779
 1524SOL    HW216209   3.177   2.873   4.172 -0.2377 -1.8850  0.2482
 1525SOL     OW16210   4.318   0.707   6.490 -0.0713  0.0147  0.4911
 1525SOL    HW116211   4.371   0.667   6.422  0.1407  0.7532  0.2215
 1525SOL    HW216212   4.302   0.633   6.549  1.7205 -0.8568 -0.1346
 1526SOL     OW16213   0.411   3.408   9.301  0.4989  0.5847  0.5007
 1526SOL    HW116214   0.316   3.405   9.290  0.6714 -0.8179 -0.6662
 1526SOL    HW216215   0.433   3.316   9.285  0.6994  0.3332  2.2500
 1527SOL     OW16216   2.230   0.700   9.872  0.7077 -0.2109 -0.5943
 1527SOL    HW116217   2.297   0.668   9.933 -0.0627 -0.6014  0.0459
 1527SOL    HW216218   2.276   0.782   9.853 -0.6896  0.2737 -1.9314
 1528SOL     OW16219   2.539   1.538   0.512  0.2526  0.2789  0.0953
 1528SOL    HW116220   2.536   1.532   0.608 -1.5579  0.9136  0.0746
 1528SOL    HW216221   2.597   1.614   0.503 -0.2142  0.6483  0.2434
 1529SOL     OW16222   0.223   2.385  15.591  0.3783 -0.5379 -0.2072
 1529SOL    HW116223   0.298   2.353  15.540  1.2336  1.9186 -0.4852
 1529SOL    HW216224   0.163   2.321  15.554  1.3431 -1.0709 -0.8695
 1530SOL     OW16225   0.636   0.393   3.078  0.0008  0.0226  0.2286
 1530SOL    HW116226   0.581   0.384   3.000  0.0681 -0.5033  0.2389
 1530SOL    HW216227   0.666   0.484   3.079 -2.2555  0.7565  1.7144
 1531SOL     OW16228   1.670   0.712   5.304  0.1450  0.3130  0.3800
 1531SOL    HW116229   1.634   0.639   5.252  1.0808  0.3137 -0.2685
 1531SOL    HW216230   1.746   0.726   5.248  1.0035 -3.8740  0.4520
 1532SOL     OW16231   2.149   0.902   8.761  0.8352 -0.3565 -0.0250
 1532SOL    HW116232   2.063   0.880   8.797  1.3969 -1.1601  0.8289
 1532SOL    HW216233   2.207   0.867   8.829 -0.4900  0.5978  1.5973
 1533SOL     OW16234   1.896   1.575   3.369 -0.4872  0.2835 -0.1191
 1533SOL    HW116235   1.838   1.583   3.445 -0.9884  0.0823 -0.4736
 1533SOL    HW216236   1.882   1.483   3.344  0.6048  0.3919 -1.1224
 1534SOL     OW16237   0.480   4.070   2.758  0.5052 -0.6893 -0.1694
 1534SOL    HW116238   0.511   3.984   2.730 -0.6578 -0.8850 -0.8670
 1534SOL    HW216239   0.548   4.095   2.820  0.6474  2.3524 -1.5242
 1535SOL     OW16240   0.280   3.842   5.527  0.0036 -0.0436  0.3064
 1535SOL    HW116241   0.246   3.779   5.464  0.6236 -1.9303  1.8563
 1535SOL    HW216242   0.200   3.889   5.554 -0.5158  0.9471 -3.0198
 1536SOL     OW16243   3.276   3.661   8.511 -0.1999 -0.3165 -0.5453
 1536SOL    HW116244   3.231   3.585   8.475 -3.0691  0.6341  0.9670
 1536SOL    HW216245   3.273   3.651   8.606 -0.6686 -1.2169 -0.6528
 1537SOL     OW16246   0.744   2.322   7.410 -0.4322 -0.0360  0.1164
 1537SOL    HW116247   0.754   2.331   7.505 -1.5209  1.7734  0.0419
 1537SOL    HW216248   0.705   2.406   7.388  0.0862 -0.5871 -2.8901
 1538SOL     OW16249   0.664   3.410   3.541  0.2968 -0.6223  0.2963
 1538SOL    HW116250   0.598   3.447   3.599  1.3021 -0.2404  1.1864
 1538SOL    HW216251   0.673   3.322   3.579 -1.3254 -1.4899 -1.3049
 1539SOL     OW16252   4.428   1.246   6.132  0.4333  0.1819 -0.1041
 1539SOL    HW116253   4.503   1.266   6.188 -0.2696 -1.2310  1.3470
 1539SOL    HW216254   4.359   1.264   6.196  2.6622  1.0881  1.9988
 1540SOL     OW16255   3.276   2.333   0.441 -0.4175 -0.5519 -0.5283
 1540SOL    HW116256   3.356   2.359   0.395  0.1728 -0.0430  0.7743
 1540SOL    HW216257   3.289   2.239   0.450 -0.7926 -0.4992  0.5721
 1541SOL     OW16258   3.910   3.225   6.420  0.0456  0.0499 -0.3579
 1541SOL    HW116259   3.956   3.267   6.347 -1.4208  1.9231 -0.2097
 1541SOL    HW216260   3.943   3.273   6.496 -1.5684  0.3918  0.1228
 1542SOL     OW16261   4.524   2.635   5.201 -0.0392  0.3653 -0.5684
 1542SOL    HW116262   4.459   2.672   5.260 -0.9537  0.4302 -1.6208
 1542SOL    HW216263   4.481   2.570   5.145  2.5503 -2.8712  1.2193
 1543SOL     OW16264   2.496   1.590   4.479 -0.4265 -0.2424  0.1304
 1543SOL    HW116265   2.525   1.640   4.555 -0.7783 -0.7492  0.5969
 1543SOL    HW216266   2.533   1.643   4.408 -0.2100  0.9892  1.1556
 1544SOL     OW16267   3.582   0.014   2.655 -0.4336 -0.0924  0.3876
 1544SOL    HW116268   3.586   0.087   2.593  1.4750 -1.6266 -1.2827
 1544SOL    HW216269   3.545   4.683   2.600  1.5826 -0.3492 -0.6448
 1545SOL     OW16270   2.861   3.767   6.052 -0.3438 -0.2616 -0.1741
 1545SOL    HW116271   2.954   3.778   6.034 -0.3954 -1.1557 -0.9521
 1545SOL    HW216272   2.823   3.854   6.042  2.3379  0.8477 -0.7996
 1546SOL     OW16273   4.676   1.680   4.734 -0.4427  0.2584 -0.2536
 1546SOL    HW116274   0.033   1.692   4.731 -0.4654  0.5457  0.1822
 1546SOL    HW216275   4.641   1.768   4.748 -1.4323 -0.1120 -0.4253
 1547SOL     OW16276   1.382   2.134   5.565  0.2408  0.0346 -0.2138
 1547SOL    HW116277   1.433   2.091   5.634 -0.8463 -1.6145 -0.4214
 1547SOL    HW216278   1.455   2.171   5.515  0.0086 -0.9823 -1.3068
 1548SOL     OW16279   3.187   3.719   7.117  0.3496 -0.2697 -0.3824
 1548SOL    HW116280   3.115   3.748   7.061  0.2452 -1.4785 -0.8668
 1548SOL    HW216281   3.259   3.770   7.080  0.6010 -0.2838  0.0933
 1549SOL     OW16282   4.360   4.671   7.969 -0.1216 -0.3272  0.7831
 1549SOL    HW116283   4.316   4.603   8.021 -1.2753 -0.2339 -0.0595
 1549SOL    HW216284   4.452   4.647   7.978  0.7543  2.3218 -1.0096
 1550SOL     OW16285   3.494   0.454   2.115  0.0897 -0.2268  0.1891
 1550SOL    HW116286   3.568   0.511   2.133  0.5166 -0.8945  0.5327
 1550SOL    HW216287   3.529   0.395   2.048  1.8780 -0.0705  0.9994
 1551SOL     OW16288   2.027   4.456   1.583  0.5415 -0.0627 -0.0276
 1551SOL    HW116289   1.943   4.443   1.627  0.5907  1.8843  0.6323
 1551SOL    HW216290   2.090   4.473   1.653  0.8569 -0.2684 -0.2599
 1552SOL     OW16291   4.390   2.393   8.033  0.0170  0.3957  0.0658
 1552SOL    HW116292   4.476   2.430   8.013  0.1377  0.9675  1.6388
 1552SOL    HW216293   4.357   2.426   8.117  3.0714 -2.1436  2.2474
 1553SOL     OW16294   0.701   4.146   3.592  0.0328 -0.0802  0.0842
 1553SOL    HW116295   0.622   4.097   3.614 -0.1352  0.6201  1.0399
 1553SOL    HW216296   0.768   4.083   3.618 -0.8894 -1.6090 -1.2691
 1554SOL     OW16297   0.259   3.185   8.254  0.2881  0.4794  0.3225
 1554SOL    HW116298   0.194   3.255   8.266  0.3718  0.5413  0.4156
 1554SOL    HW216299   0.297   3.183   8.342  2.3300 -2.1087 -0.6497
 1555SOL     OW16300   3.677   1.736   3.195  0.4592  0.2802  0.4171
 1555SOL    HW116301   3.753   1.778   3.156  0.1262  1.4433  1.0187
 1555SOL    HW216302   3.717   1.668   3.248  0.5070  0.3746  0.5016
 1556SOL     OW16303   1.844   3.129  10.335  0.0815 -0.5037 -0.4425
 1556SOL    HW116304   1.876   3.197  10.395 -0.5675  1.7301 -2.6197
 1556SOL    HW216305   1.871   3.055  10.390  0.9385  0.8883  1.0034
 1557SOL     OW16306   3.960   2.017   9.164 -0.5813  0.0342  0.3239
 1557SOL    HW116307   3.899   1.958   9.210  1.9085 -2.2469  0.7227
 1557SOL    HW216308   4.038   2.004   9.218 -0.7683 -0.7759  0.3986
 1558SOL     OW16309   0.472   0.510   1.778 -0.1513  0.5678  0.2271
 1558SOL    HW116310   0.550   0.559   1.753  0.6286 -0.4355  0.6348
 1558SOL    HW216311   0.511   0.445   1.838 -0.4698  0.0419 -0.1333
 1559SOL     OW16312   1.138   2.224   5.335  0.6323 -0.0106 -0.0339
 1559SOL    HW116313   1.190   2.298   5.367 -1.1304  0.1530  2.5397
 1559SOL    HW216314   1.158   2.226   5.242  0.7743 -0.9458 -0.0137
 1560SOL     OW16315   4.095   3.444   2.476  0.0674 -0.3849 -0.2510
 1560SOL    HW116316   4.029   3.511   2.490 -1.5969 -1.9881 -0.3921
 1560SOL    HW216317   4.161   3.475   2.538 -1.3737 -0.8568  1.4829
 1561SOL     OW16318   2.977   0.359   5.463  0.4297  0.4119 -0.0746
 1561SOL    HW116319   3.041   0.350   5.392 -1.4386 -2.1244 -1.4373
 1561SOL    HW216320   2.943   0.445   5.437 -0.7469  0.2996  1.0644
 1562SOL     OW16321   0.260   2.574   9.450 -0.6636  0.1556 -0.1220
 1562SOL    HW116322   0.266   2.545   9.358  2.6349  1.2407 -0.2631
 1562SOL    HW216323   0.182   2.533   9.487  0.1676  0.7002  2.2242
 1563SOL     OW16324   0.119   0.072   4.562 -0.3452 -0.1511 -0.2330
 1563SOL    HW116325   0.117   0.139   4.494 -0.2392  0.7081  0.6275
 1563SOL    HW216326   0.169   0.121   4.626 -2.0692  0.0186  0.9727
 1564SOL     OW16327   4.200   2.913   7.879  0.4914 -0.7833  0.0172
 1564SOL    HW116328   4.198   2.818   7.874  0.1254 -0.7404 -0.7033
 1564SOL    HW216329   4.210   2.935   7.971 -1.5446  3.5824 -0.7833
 1565SOL     OW16330   2.712   3.513  17.314 -0.2777 -0.3104  0.8538
 1565SOL    HW116331   2.773   3.475  17.378  3.1881  1.7975 -1.1968
 1565SOL    HW216332   2.660   3.568  17.372 -0.5620 -1.1073  1.3624
 1566SOL     OW16333   3.268   3.404   8.615 -0.0627 -0.0462  0.2376
 1566SOL    HW116334   3.348   3.410   8.564 -0.0382 -2.3633 -0.0061
 1566SOL    HW216335   3.221   3.329   8.577  0.8947 -0.9458  0.8269
 1567SOL     OW16336   1.698   0.786   4.311  0.2368  0.5179 -0.0614
 1567SOL    HW116337   1.711   0.693   4.326 -0.8660  0.8557  2.9288
 1567SOL    HW216338   1.691   0.798   4.216 -1.1962  2.0985  0.2241
 1568SOL     OW16339   3.767   2.022   8.272  0.0121 -0.0612  0.3944
 1568SOL    HW116340   3.842   2.081   8.277  0.2898 -0.3460 -0.3784
 1568SOL    HW216341   3.693   2.082   8.284  0.4027  0.5147 -0.0687
 1569SOL     OW16342   4.390   0.685   3.607 -0.5569  0.4647 -0.0225
 1569SOL    HW116343   4.398   0.666   3.513  0.4919 -1.1530  0.3983
 1569SOL    HW216344   4.472   0.734   3.614 -0.0015 -0.2396 -1.5199
 1570SOL     OW16345   1.010   3.426   5.052  0.1590  0.4111 -0.2523
 1570SOL    HW116346   0.953   3.498   5.078  2.2077  1.7114  0.6042
 1570SOL    HW216347   1.090   3.478   5.049  0.4863 -0.0321  0.6124
 1571SOL     OW16348   1.076   4.357  10.404  0.0305 -0.6425 -0.0427
 1571SOL    HW116349   1.135   4.343  10.331 -0.5692 -1.8494 -0.3105
 1571SOL    HW216350   1.049   4.266  10.421 -1.3211  0.0004  1.3008
 1572SOL     OW16351   3.472   2.067   0.180 -0.4348  0.8750 -0.5108
 1572SOL    HW116352   3.555   2.113   0.190 -0.1440  0.3555 -0.5623
 1572SOL    HW216353   3.473   2.012   0.258  0.0993  1.9348  0.2144
 1573SOL     OW16354   1.824   1.419  13.783 -0.1377 -0.5407  0.4634
 1573SOL    HW116355   1.753   1.444  13.724  0.5245  0.6237  0.1762
 1573SOL    HW216356   1.786   1.340  13.822  1.2703 -1.9424 -1.0439
 1574SOL     OW16357   1.560   4.412   6.438  0.1763  0.0848  0.2777
 1574SOL    HW116358   1.519   4.447   6.359 -1.2268 -3.0284 -0.3831
 1574SOL    HW216359   1.636   4.370   6.398  0.2123  2.2847 -1.9098
 1575SOL     OW16360   4.506   4.482   5.934 -0.6316  0.1239 -0.0088
 1575SOL    HW116361   4.570   4.414   5.911  0.1083  0.6512  0.4538
 1575SOL    HW216362   4.531   4.549   5.871 -1.4004  2.8308  2.5484
 1576SOL     OW16363   1.295   4.133  15.094 -0.2886  0.8735 -0.4590
 1576SOL    HW116364   1.322   4.224  15.104 -0.3852  1.1474 -2.7796
 1576SOL    HW216365   1.340   4.119  15.011  0.8083  0.4344  0.2013
 1577SOL     OW16366   1.337   0.841  12.023  0.3647  0.3532  0.1018
 1577SOL    HW116367   1.350   0.934  12.040  0.2525  0.1152  1.5061
 1577SOL    HW216368   1.345   0.806  12.112  1.4417  0.1242 -0.0904
 1578SOL     OW16369   2.622   2.315  12.753 -0.2686  0.1582 -0.5450
 1578SOL    HW116370   2.717   2.318  12.761 -0.1373 -0.0270 -1.9048
 1578SOL    HW216371   2.594   2.300  12.843 -0.7696 -1.1831 -0.9201
 1579SOL     OW16372   2.891   0.628   2.740 -0.2210  0.3279  0.2277
 1579SOL    HW116373   2.803   0.606   2.771 -1.1268 -0.5979 -3.0282
 1579SOL    HW216374   2.876   0.663   2.652  0.7546  1.8331  0.6509
 1580SOL     OW16375   4.355   2.871   5.949 -0.3182 -0.4903  0.1659
 1580SOL    HW116376   4.400   2.921   5.881 -0.0046 -4.3385 -2.4658
 1580SOL    HW216377   4.430   2.818   5.976  1.6310  1.0563 -2.1507
 1581SOL     OW16378   1.660   0.537   0.779 -0.0033 -0.6242 -0.3496
 1581SOL    HW116379   1.603   0.603   0.739  0.1025  0.1883  0.8139
 1581SOL    HW216380   1.666   0.474   0.707  2.0168 -0.7128 -0.1131
 1582SOL     OW16381   1.482   2.051  10.893  0.4203 -0.2761 -0.4059
 1582SOL    HW116382   1.452   1.964  10.868  1.1282 -1.1485  1.8654
 1582SOL    HW216383   1.539   2.030  10.967  0.7333 -0.0728 -0.5873
 1583SOL     OW16384   3.658   0.644   2.180  0.0349  0.3649 -0.1763
 1583SOL    HW116385   3.750   0.619   2.174 -0.7015 -2.3284 -0.6142
 1583SOL    HW216386   3.658   0.703   2.255  2.0712  0.3695 -0.1807
 1584SOL     OW16387   4.513   2.577   2.160  0.4704  0.8796  0.5229
 1584SOL    HW116388   4.572   2.540   2.095  0.1837 -1.3900  1.5294
 1584SOL    HW216389   4.488   2.500   2.211  0.3849 -0.3188 -1.3644
 1585SOL     OW16390   0.037   1.727   5.203  0.2974 -0.4653  0.1757
 1585SOL    HW116391   4.700   1.753   5.256  0.6055  0.2609  0.2537
 1585SOL    HW216392   0.050   1.638   5.236  0.4103 -0.6224 -0.2808
 1586SOL     OW16393   1.962   0.425   0.725  0.4760 -0.4048 -0.2088
 1586SOL    HW116394   1.954   0.377   0.643  2.6896 -1.0676 -0.0283
 1586SOL    HW216395   1.902   0.375   0.781  0.6492 -1.8218 -1.3022
 1587SOL     OW16396   0.621   2.654   2.265 -0.1221 -0.3578 -0.5349
 1587SOL    HW116397   0.582   2.738   2.240 -0.9704 -0.4112  0.6286
 1587SOL    HW216398   0.544   2.599   2.275  3.0238 -4.7660 -0.5138
 1588SOL     OW16399   4.654   2.261   8.994 -0.3223 -0.3107  0.1730
 1588SOL    HW116400   4.612   2.344   9.017 -1.5906 -1.4343  1.9487
 1588SOL    HW216401   4.672   2.221   9.079 -0.7591  1.9985  1.3400
 1589SOL     OW16402   1.514   3.814   0.458  1.0391 -0.1006  0.1937
 1589SOL    HW116403   1.478   3.743   0.512  1.3709 -0.3508  0.0847
 1589SOL    HW216404   1.504   3.783   0.368  0.1442  1.6359 -0.3067
 1590SOL     OW16405   1.915   3.111  12.896 -0.4808  0.0069  0.5192
 1590SOL    HW116406   1.976   3.085  12.966 -0.5463  1.1050  0.9844
 1590SOL    HW216407   1.829   3.082  12.926 -1.5575 -0.4587 -3.0873
 1591SOL     OW16408   4.454   1.729   7.997 -0.3567  0.3725 -0.0885
 1591SOL    HW116409   4.463   1.721   7.902 -0.8716 -0.4002 -0.0752
 1591SOL    HW216410   4.384   1.793   7.991 -0.6871  0.0884  0.6218
 1592SOL     OW16411   0.451   3.294   6.297 -0.6671  0.3584  0.0121
 1592SOL    HW116412   0.374   3.298   6.354  0.3444  1.8338  1.2990
 1592SOL    HW216413   0.513   3.244   6.350 -0.2662  1.8068  0.9062
 1593SOL     OW16414   3.046   1.709   6.535  0.2685 -0.8580 -0.1874
 1593SOL    HW116415   3.130   1.674   6.506  0.4729 -0.5015 -0.0276
 1593SOL    HW216416   2.994   1.723   6.456  0.2306  0.8698  0.1341
 1594SOL     OW16417   0.151   3.650  11.447 -0.3905  1.0789 -0.0067
 1594SOL    HW116418   0.058   3.628  11.452 -0.9319  3.0638 -1.4000
 1594SOL    HW216419   0.173   3.651  11.540 -1.5474  2.3335  0.2508
 1595SOL     OW16420   0.372   1.072   8.295  0.4921  0.2865  0.3274
 1595SOL    HW116421   0.289   1.085   8.250  0.5101 -0.0118  0.2033
 1595SOL    HW216422   0.422   1.018   8.233 -0.7893  0.6399 -1.0083
 1596SOL     OW16423   3.725   3.745   7.444  0.6656 -0.2741 -0.2491
 1596SOL    HW116424   3.752   3.669   7.497  1.9023  0.6214  0.4128
 1596SOL    HW216425   3.734   3.817   7.507 -2.9675 -0.9789  1.0419
 1597SOL     OW16426   1.375   2.623  15.809  0.0272  0.5153  0.3668
 1597SOL    HW116427   1.416   2.555  15.756 -0.1048 -0.2934  1.3184
 1597SOL    HW216428   1.337   2.669  15.734  0.4365 -0.0628 -0.1971
 1598SOL     OW16429   2.376   1.112   1.782 -0.6950  0.0121 -0.0466
 1598SOL    HW116430   2.283   1.137   1.783 -1.4652 -2.9660  0.4398
 1598SOL    HW216431   2.401   1.189   1.731  0.2927  0.0362  0.4847
 1599SOL     OW16432   1.194   4.398   8.299 -0.3147 -0.0219  0.4688
 1599SOL    HW116433   1.125   4.429   8.241  0.1305  0.0081 -0.0398
 1599SOL    HW216434   1.225   4.316   8.261 -1.7322 -0.6051  0.5729
 1600SOL     OW16435   2.228   0.845   3.037 -0.2260  0.4540 -0.0464
 1600SOL    HW116436   2.312   0.886   3.058  0.3160 -0.1742 -0.9690
 1600SOL    HW216437   2.169   0.879   3.104  0.8131  1.4488  0.3667
 1601SOL     OW16438   4.690   4.597   4.246  0.2437  0.3532 -0.0986
 1601SOL    HW116439   4.663   4.628   4.332 -0.1679 -0.2395 -0.0212
 1601SOL    HW216440   4.729   4.676   4.208 -0.0277  1.2972  1.5900
 1602SOL     OW16441   1.872   0.303   0.116  0.0884 -0.8049  0.2951
 1602SOL    HW116442   1.898   0.316   0.025  0.4830  1.3886  0.7099
 1602SOL    HW216443   1.910   0.217   0.131 -0.1353 -1.3374 -2.1979
 1603SOL     OW16444   0.873   0.893   8.031 -0.1439 -0.6093 -0.0505
 1603SOL    HW116445   0.860   0.816   7.976 -2.0620 -0.7322  0.5722
 1603SOL    HW216446   0.790   0.899   8.078 -0.3096 -3.1690 -0.0227
 1604SOL     OW16447   1.279   2.106   7.685  0.3422  0.2973  0.5273
 1604SOL    HW116448   1.361   2.104   7.635 -0.2386  1.4403 -0.4383
 1604SOL    HW216449   1.222   2.064   7.621  1.7073 -1.5503  0.5035
 1605SOL     OW16450   1.719   4.065   8.210  0.2756 -0.0654  0.2077
 1605SOL    HW116451   1.638   4.069   8.260  1.1395  2.6285  1.3748
 1605SOL    HW216452   1.783   4.116   8.259  1.0258  0.1881 -1.0153
 1606SOL     OW16453   4.576   3.209   5.195  0.3411  0.0617 -0.2704
 1606SOL    HW116454   4.518   3.188   5.122 -0.6874  1.0270  0.2804
 1606SOL    HW216455   4.509   3.251   5.248  0.9217  0.2190  0.3378
 1607SOL     OW16456   1.110   4.272   3.136  0.7215 -0.0070 -0.2072
 1607SOL    HW116457   1.130   4.289   3.228  0.5684  0.8883 -0.3360
 1607SOL    HW216458   1.172   4.200   3.121  0.3876 -1.1267  3.7649
 1608SOL     OW16459   4.655   0.291   2.411 -0.9625 -0.3944  0.2247
 1608SOL    HW116460   4.586   0.241   2.367 -0.1345 -1.4569  0.1553
 1608SOL    HW216461   4.631   0.273   2.502  2.1095 -1.5614  0.7975
 1609SOL     OW16462   4.303   0.450   4.578  0.3621 -0.1376 -0.3787
 1609SOL    HW116463   4.365   0.452   4.505  0.6397  1.9456 -0.0794
 1609SOL    HW216464   4.363   0.487   4.643  0.9513  0.5536 -1.3295
 1610SOL     OW16465   1.264   2.488   9.428  0.1919  0.0802 -0.1248
 1610SOL    HW116466   1.288   2.580   9.420  1.3359 -0.2312 -0.3700
 1610SOL    HW216467   1.318   2.460   9.502 -2.5768  2.0838  2.6456
 1611SOL     OW16468   1.718   1.898  14.961  0.6041  0.1995  0.3169
 1611SOL    HW116469   1.644   1.903  15.021 -0.2483 -0.6664 -0.6554
 1611SOL    HW216470   1.711   1.804  14.944 -0.2826  0.8067 -2.7360
 1612SOL     OW16471   3.598   1.610  15.468 -0.1195  0.2955 -0.4880
 1612SOL    HW116472   3.529   1.544  15.472 -0.7443  0.9385 -0.5164
 1612SOL    HW216473   3.642   1.592  15.550  1.3641 -0.7448 -1.5191
 1613SOL     OW16474   2.105   1.911   5.567  0.1757  0.0428 -0.1559
 1613SOL    HW116475   2.162   1.859   5.624  0.4092  0.3821 -0.0754
 1613SOL    HW216476   2.053   1.849   5.517  0.6493  1.1607 -2.0504
 1614SOL     OW16477   3.110   2.711   6.155 -0.6691  0.1203  0.3046
 1614SOL    HW116478   3.050   2.703   6.081 -0.7474  1.3455  0.2355
 1614SOL    HW216479   3.074   2.648   6.218  1.5271 -1.1919  0.2368
 1615SOL     OW16480   0.021   4.278  15.146  0.7437  0.1852  0.7704
 1615SOL    HW116481   4.674   4.291  15.104 -0.1745 -0.2937  2.4624
 1615SOL    HW216482   4.732   4.268  15.238  2.5893  0.2331  1.3045
 1616SOL     OW16483   1.985   4.472   7.630  0.1315  0.8523 -0.6067
 1616SOL    HW116484   1.896   4.458   7.662 -0.7498 -0.1842 -3.5394
 1616SOL    HW216485   1.986   4.411   7.557  0.1341  0.7451 -0.5180
 1617SOL     OW16486   4.506   3.577   2.892 -0.4989  0.1870 -0.4609
 1617SOL    HW116487   4.572   3.542   2.833 -0.2124 -1.0788  0.6095
 1617SOL    HW216488   4.476   3.498   2.935 -1.0677  0.0316 -1.1528
 1618SOL     OW16489   4.180   3.164  16.787 -0.1265 -0.5305 -0.3954
 1618SOL    HW116490   4.255   3.106  16.791 -0.4584 -1.0469 -1.8792
 1618SOL    HW216491   4.213   3.253  16.778 -0.5229 -0.4462 -0.9873
 1619SOL     OW16492   2.623   1.100   4.413  0.0014  0.1266  0.0087
 1619SOL    HW116493   2.573   1.031   4.371  1.1420 -0.0502 -1.0597
 1619SOL    HW216494   2.566   1.175   4.430 -0.6382 -0.2695 -0.4088
 1620SOL     OW16495   1.930   0.300   8.062 -0.0566 -0.2434 -0.4169
 1620SOL    HW116496   2.011   0.342   8.033  0.7401  0.2077  2.5411
 1620SOL    HW216497   1.878   0.378   8.082  0.0765 -0.6639  1.4916
 1621SOL     OW16498   4.042   2.407   3.648 -0.1364  0.6920 -0.0567
 1621SOL    HW116499   3.961   2.362   3.623  0.6598 -0.3786 -0.7026
 1621SOL    HW216500   4.109   2.340   3.637  1.5995  2.3795  0.3291
 1622SOL     OW16501   0.925   0.588   0.638 -0.2456 -0.6264  0.5455
 1622SOL    HW116502   0.830   0.604   0.630 -0.4969 -3.1860 -1.6072
 1622SOL    HW216503   0.918   0.563   0.730 -0.2277  0.0884  0.7430
 1623SOL     OW16504   3.823   2.359   7.254  0.3570  0.1005  0.4087
 1623SOL    HW116505   3.778   2.278   7.230  1.6680  0.5556 -3.4189
 1623SOL    HW216506   3.846   2.396   7.169 -0.6297 -0.2044  0.0128
 1624SOL     OW16507   3.459   2.471   7.968 -0.0671  0.1399 -0.5330
 1624SOL    HW116508   3.419   2.553   7.939  1.0037  0.1112 -2.0951
 1624SOL    HW216509   3.546   2.509   7.976 -0.6673  1.6774 -1.2331
 1625SOL     OW16510   1.463   0.610   8.197 -0.2484  0.0706  0.2566
 1625SOL    HW116511   1.389   0.645   8.248 -1.1305  0.1387 -1.0747
 1625SOL    HW216512   1.489   0.532   8.246 -1.0183 -1.3639 -1.6394
 1626SOL     OW16513   2.789   2.035  16.402  0.3744 -0.6072 -0.0599
 1626SOL    HW116514   2.747   2.109  16.446  0.4481 -2.1413  2.5359
 1626SOL    HW216515   2.797   1.966  16.467 -0.9425 -1.0569 -0.3805
 1627SOL     OW16516   1.063   0.425   2.839  0.0061 -0.5894  1.1836
 1627SOL    HW116517   1.061   0.465   2.925 -0.1897  0.0609  0.8716
 1627SOL    HW216518   0.988   0.364   2.841  1.5122 -2.5114 -0.4043
 1628SOL     OW16519   0.937   3.159   7.710 -0.0873  0.6934  0.2667
 1628SOL    HW116520   0.860   3.109   7.739  0.3245  0.5052  1.0415
 1628SOL    HW216521   0.994   3.082   7.710  0.1380  0.8551 -0.9687
 1629SOL     OW16522   2.004   2.379   5.409  0.1075  0.0326  0.7010
 1629SOL    HW116523   1.942   2.325   5.361  1.4788 -0.6804 -0.2840
 1629SOL    HW216524   1.952   2.422   5.476 -0.4801  0.6093 -0.1146
 1630SOL     OW16525   3.636   0.619   4.200 -0.0105  0.4954  0.3932
 1630SOL    HW116526   3.558   0.564   4.208  0.2803  0.4377  2.9163
 1630SOL    HW216527   3.603   0.687   4.142 -1.7539 -1.0697 -0.4531
 1631SOL     OW16528   0.213   3.691   7.189 -0.0111  0.2005 -0.2415
 1631SOL    HW116529   0.126   3.650   7.190 -0.5788  1.3734 -1.1772
 1631SOL    HW216530   0.224   3.726   7.277  0.5403 -0.3127 -0.1072
 1632SOL     OW16531   0.530   2.195   1.738 -0.2927 -0.2652  0.5504
 1632SOL    HW116532   0.479   2.114   1.737 -0.9045  0.1170  2.5181
 1632SOL    HW216533   0.622   2.172   1.723 -0.0996  1.9661 -1.7639
 1633SOL     OW16534   0.128   4.554  14.814  0.3007  0.7321  0.5407
 1633SOL    HW116535   0.167   4.557  14.727 -0.5232  0.5405  0.1685
 1633SOL    HW216536   0.146   4.462  14.838 -1.4604  0.5552  1.1481
 1634SOL     OW16537   3.931   1.786   6.401 -0.3831 -0.5622 -0.1771
 1634SOL    HW116538   4.002   1.737   6.359 -1.3795 -1.8786 -0.3249
 1634SOL    HW216539   3.930   1.748   6.489  1.7261 -1.2498 -0.4523
 1635SOL     OW16540   2.577   3.796  13.883  0.1162 -0.0190  0.4515
 1635SOL    HW116541   2.598   3.876  13.932  2.4951  0.1189 -0.7894
 1635SOL    HW216542   2.661   3.792  13.838 -1.0614 -0.1282 -1.7488
 1636SOL     OW16543   0.561   0.966   2.633  0.0832  0.0086  0.1436
 1636SOL    HW116544   0.607   0.902   2.579  0.6315 -0.5370  1.2493
 1636SOL    HW216545   0.503   0.903   2.676  1.2961 -0.2335  1.4473
 1637SOL     OW16546   0.886   3.801  15.199  0.0390 -0.0459  0.9845
 1637SOL    HW116547   0.825   3.743  15.246 -0.5816 -1.4644 -1.5615
 1637SOL    HW216548   0.969   3.784  15.244 -0.6962  0.1294  2.4371
 1638SOL     OW16549   2.886   2.444   5.869  0.3541  0.5292  0.1800
 1638SOL    HW116550   2.856   2.452   5.778 -3.8117  0.8505  1.5633
 1638SOL    HW216551   2.891   2.349   5.882  0.8223  0.4266 -0.7639
 1639SOL     OW16552   4.548   0.921   1.995  0.2729  0.0999  0.1515
 1639SOL    HW116553   4.532   1.002   2.043 -2.9401 -0.2397 -0.3573
 1639SOL    HW216554   4.637   0.899   2.023  0.7118 -0.4662 -1.6796
 1640SOL     OW16555   4.603   1.926   4.843  0.4722  0.5174 -0.2648
 1640SOL    HW116556   4.594   1.948   4.936  0.5542  2.9686 -0.8372
 1640SOL    HW216557   4.677   1.985   4.825 -0.1664  1.1781 -0.7206
 1641SOL     OW16558   3.852   1.972   3.933  0.1345 -0.0226  0.2278
 1641SOL    HW116559   3.871   2.029   4.008 -2.0923  0.9819  0.0415
 1641SOL    HW216560   3.937   1.944   3.899  0.8799 -0.6790  2.6176
 1642SOL     OW16561   4.168   4.252   1.745 -0.0539 -0.2363 -0.4663
 1642SOL    HW116562   4.116   4.195   1.688 -2.2106  1.2845 -0.0257
 1642SOL    HW216563   4.241   4.194   1.767  1.9927  2.1009 -1.1640
 1643SOL     OW16564   3.289   1.338   4.993  0.3152  0.1299 -1.6696
 1643SOL    HW116565   3.194   1.345   4.986  0.1398 -1.6865 -1.2625
 1643SOL    HW216566   3.304   1.422   5.037 -1.7651 -0.7042  0.6872
 1644SOL     OW16567   4.019   3.315  16.995  0.1537 -0.1696  0.0050
 1644SOL    HW116568   3.947   3.255  17.013 -1.2403  1.9227  1.4677
 1644SOL    HW216569   4.094   3.278  17.042  0.2722 -0.3346 -0.3186
 1645SOL     OW16570   0.987   2.704   7.500 -0.0407  0.0071  0.2711
 1645SOL    HW116571   0.980   2.642   7.573 -0.8701  1.2307  1.2402
 1645SOL    HW216572   0.977   2.657   7.417 -1.0407 -1.4954  1.2393
 1646SOL     OW16573   1.198   0.699   1.294 -0.3237  0.0026  0.3970
 1646SOL    HW116574   1.250   0.625   1.262 -2.2593 -0.1107 -2.4439
 1646SOL    HW216575   1.275   0.744   1.329 -0.3512  1.4622 -1.3973
 1647SOL     OW16576   0.658   1.485   8.849  0.1703 -0.1801 -0.1469
 1647SOL    HW116577   0.639   1.407   8.797  1.7731 -1.1932  0.7730
 1647SOL    HW216578   0.707   1.431   8.912  1.8025  0.4907 -0.8343
 1648SOL     OW16579   4.150   1.860   1.543 -0.0966 -0.2603 -0.2692
 1648SOL    HW116580   4.240   1.894   1.543 -0.7590  1.4716  0.0107
 1648SOL    HW216581   4.109   1.906   1.617  0.4100 -2.2537  1.2442
 1649SOL     OW16582   3.635   0.987   8.960 -0.9064  0.5648 -0.2527
 1649SOL    HW116583   3.721   0.996   9.000 -0.9832  2.5059 -0.5388
 1649SOL    HW216584   3.666   0.930   8.890 -1.3612 -1.4049  1.1285
 1650SOL     OW16585   4.350   0.590   6.222 -0.2196 -0.4391 -0.0644
 1650SOL    HW116586   4.287   0.542   6.168 -0.4657  1.1181 -1.1645
 1650SOL    HW216587   4.419   0.523   6.216  1.5248  1.2898  0.7889
 1651SOL     OW16588   0.848   4.497   6.649  0.3806 -0.2236  0.2886
 1651SOL    HW116589   0.880   4.413   6.682  2.6644  0.1174 -1.0230
 1651SOL    HW216590   0.756   4.477   6.666  0.0348  0.9087 -0.2787
 1652SOL     OW16591   4.315   3.332  12.955  0.1590 -0.6468 -0.7004
 1652SOL    HW116592   4.230   3.297  12.981  0.5570 -1.1983 -0.1359
 1652SOL    HW216593   4.302   3.417  12.997  2.5846 -0.3701 -0.4921
 1653SOL     OW16594   3.669   0.828   8.684  0.0083 -0.4587  0.0296
 1653SOL    HW116595   3.757   0.853   8.654  0.0380  0.7479  1.1514
 1653SOL    HW216596   3.611   0.867   8.619 -1.2000 -0.7651  0.9382
 1654SOL     OW16597   1.347   0.811   4.675  0.1454 -0.2866 -0.1078
 1654SOL    HW116598   1.329   0.881   4.737 -1.2117 -1.8406  1.2534
 1654SOL    HW216599   1.420   0.854   4.631 -0.8820  2.0958  0.5405
 1655SOL     OW16600   3.758   0.071   9.820  0.1018  0.1005 -0.5079
 1655SOL    HW116601   3.699   0.046   9.748 -0.4119 -0.3609  0.0748
 1655SOL    HW216602   3.718   0.033   9.899  2.6751 -0.0928  0.6768
 1656SOL     OW16603   3.132   1.641  16.749  0.1254 -0.0354 -0.3771
 1656SOL    HW116604   3.079   1.645  16.670 -1.6558 -1.9031  0.7164
 1656SOL    HW216605   3.077   1.695  16.806  0.3092  0.1838 -0.4066
 1657SOL     OW16606   2.112   4.479   8.106 -0.8255  0.6233 -0.0313
 1657SOL    HW116607   2.114   4.449   8.197  2.6900 -1.4865 -0.8071
 1657SOL    HW216608   2.198   4.441   8.088 -1.3770 -1.2996  1.4178
 1658SOL     OW16609   3.855   1.432   3.992 -0.3676 -0.3024  0.1530
 1658SOL    HW116610   3.798   1.371   4.038 -0.3319 -0.8719 -0.5613
 1658SOL    HW216611   3.899   1.365   3.940  0.5283  1.2534 -1.1020
 1659SOL     OW16612   1.443   2.452   3.123 -0.1619 -0.0241  0.9167
 1659SOL    HW116613   1.421   2.461   3.030  1.8058 -1.3341  0.3311
 1659SOL    HW216614   1.459   2.359   3.140  0.8594 -0.0913 -0.3919
 1660SOL     OW16615   3.434   3.168   0.462  0.2704  0.4402  0.6621
 1660SOL    HW116616   3.500   3.098   0.455 -0.4773 -0.2540  0.4982
 1660SOL    HW216617   3.390   3.159   0.547 -0.1896  3.2737  0.6975
 1661SOL     OW16618   2.485   3.811  13.471  0.6490  0.2180 -0.0893
 1661SOL    HW116619   2.519   3.722  13.460 -2.7925 -1.2303  0.7946
 1661SOL    HW216620   2.569   3.855  13.474  0.6377  0.1768  0.9455
 1662SOL     OW16621   2.167   4.675  14.118 -0.0630 -0.0367 -0.4238
 1662SOL    HW116622   2.097   0.001  14.110 -2.6160 -2.7015  0.5591
 1662SOL    HW216623   2.226   4.737  14.160  0.8974  1.1377 -3.5567
 1663SOL     OW16624   3.535   2.200   2.095 -0.1635 -0.2354  0.1781
 1663SOL    HW116625   3.513   2.112   2.065  0.3349 -0.4926  0.5573
 1663SOL    HW216626   3.450   2.241   2.075  0.3696  0.1397 -1.3176
 1664SOL     OW16627   0.873   0.883   3.419  0.1809 -0.3639  0.3340
 1664SOL    HW116628   0.844   0.828   3.491  1.5089 -0.3789  0.8519
 1664SOL    HW216629   0.861   0.973   3.450 -0.0805 -1.1552  2.5251
 1665SOL     OW16630   0.350   4.270  17.694 -0.1505  0.6919 -0.1962
 1665SOL    HW116631   0.262   4.239  17.713  1.0852 -1.9495  1.0799
 1665SOL    HW216632   0.356   4.258  17.599 -0.1210  4.1406 -0.6480
 1666SOL     OW16633   0.196   1.507   1.992 -0.5601 -0.4138 -0.0428
 1666SOL    HW116634   0.237   1.503   1.906 -1.1377  0.3935 -0.3540
 1666SOL    HW216635   0.210   1.417   2.021 -1.4341 -0.3981  0.4394
 1667SOL     OW16636   4.176   1.214   7.004 -0.2384 -0.6277 -0.3080
 1667SOL    HW116637   4.098   1.167   6.975 -0.7284 -0.0542  0.0716
 1667SOL    HW216638   4.141   1.253   7.084 -0.4089  1.2207 -1.2878
 1668SOL     OW16639   0.640   2.400   3.489 -0.6891  0.0565 -0.0564
 1668SOL    HW116640   0.616   2.309   3.510  0.5076 -0.4806 -1.0023
 1668SOL    HW216641   0.672   2.403   3.399  1.5644 -0.6813  0.6975
 1669SOL     OW16642   2.350   2.593   6.606  0.0001 -0.2255  0.1097
 1669SOL    HW116643   2.355   2.584   6.702 -3.1995 -0.0233  0.2743
 1669SOL    HW216644   2.370   2.506   6.572  0.8718 -1.2439  3.2211
 1670SOL     OW16645   2.837   3.121   2.945  0.4213 -0.3531  0.1998
 1670SOL    HW116646   2.798   3.174   2.875 -1.6487  0.6685  2.1360
 1670SOL    HW216647   2.911   3.085   2.896  0.6084 -0.5261  0.6192
 1671SOL     OW16648   3.291   1.404  14.509 -0.2106  0.0751  0.5793
 1671SOL    HW116649   3.267   1.492  14.539 -1.3072 -0.7549  2.1375
 1671SOL    HW216650   3.385   1.411  14.492 -0.3020 -2.3290 -0.8208
 1672SOL     OW16651   4.282   4.575   7.568  0.6457 -0.5202 -0.3401
 1672SOL    HW116652   4.200   4.592   7.615  0.1532 -0.6632 -1.1437
 1672SOL    HW216653   4.340   4.629   7.622  0.0026  1.5018 -1.6868
 1673SOL     OW16654   4.183   4.650  15.214  0.1847 -0.0601 -0.9673
 1673SOL    HW116655   4.141   4.736  15.210 -1.6039 -0.9346 -1.0929
 1673SOL    HW216656   4.223   4.639  15.128  1.3747  0.8525 -0.5364
 1674SOL     OW16657   1.011   0.095   2.115 -0.0995 -0.1149  0.2200
 1674SOL    HW116658   0.941   0.138   2.066  1.3392  1.5439 -0.3785
 1674SOL    HW216659   1.033   0.025   2.054 -0.1248 -0.8389  1.0321
 1675SOL     OW16660   3.298   4.435   6.641 -0.0695  0.3243  0.3815
 1675SOL    HW116661   3.282   4.468   6.552 -2.2844 -0.0974  0.6230
 1675SOL    HW216662   3.360   4.363   6.625  0.2303  0.2457  1.9083
 1676SOL     OW16663   1.938   0.581  13.925  0.1335  0.0581  0.2453
 1676SOL    HW116664   1.885   0.636  13.982 -1.7075 -0.5928 -0.8556
 1676SOL    HW216665   1.934   0.621  13.839 -0.5142  1.0850  0.7601
 1677SOL     OW16666   4.016   1.955   1.761  0.6341  0.0259  0.2229
 1677SOL    HW116667   4.050   2.044   1.766  0.6962 -0.0187  0.5734
 1677SOL    HW216668   3.943   1.963   1.700  1.3497 -3.1248 -1.0939
 1678SOL     OW16669   1.405   0.617   5.532 -0.2025 -0.3171  0.5788
 1678SOL    HW116670   1.383   0.525   5.552 -1.5523 -0.1643 -0.2354
 1678SOL    HW216671   1.500   0.608   5.541 -0.1713 -1.2808 -0.6859
 1679SOL     OW16672   3.004   3.123   4.305  0.0698  0.4914 -0.3702
 1679SOL    HW116673   3.058   3.079   4.370 -0.6403  0.3217  0.1113
 1679SOL    HW216674   3.062   3.166   4.243 -0.7720  1.3141 -0.5914
 1680SOL     OW16675   4.622   4.657   8.007  0.2124 -0.2038  0.5367
 1680SOL    HW116676   4.634   4.609   8.089  0.3260 -1.4561 -0.2188
 1680SOL    HW216677   4.680   4.617   7.943 -0.6006 -3.6361  1.9459
 1681SOL     OW16678   0.762   0.645   9.887 -0.6015 -0.0758 -0.0950
 1681SOL    HW116679   0.774   0.602   9.802  0.1958 -0.3841  0.1675
 1681SOL    HW216680   0.742   0.563   9.932  0.6017 -0.2143  0.1739
 1682SOL     OW16681   0.820   4.281   2.616  0.8369  0.3287 -0.3966
 1682SOL    HW116682   0.816   4.226   2.694 -0.0273  1.2680  0.2213
 1682SOL    HW216683   0.738   4.252   2.577  0.5508  2.0484 -1.0988
 1683SOL     OW16684   1.173   4.185   1.783  0.1201  0.3037 -0.1521
 1683SOL    HW116685   1.086   4.211   1.814  0.3392  1.5235 -0.5654
 1683SOL    HW216686   1.212   4.270   1.767  1.8100 -0.4769 -0.1816
 1684SOL     OW16687   0.315   4.692   2.167 -0.2206  0.0937  0.3235
 1684SOL    HW116688   0.304   0.024   2.103 -0.0098 -0.1414  0.0291
 1684SOL    HW216689   0.353   0.011   2.235 -1.4240  2.5717 -1.1102
 1685SOL     OW16690   1.691   3.761   8.799  0.2642  0.4797  0.6266
 1685SOL    HW116691   1.696   3.829   8.866  1.9286 -0.0821  1.0715
 1685SOL    HW216692   1.648   3.810   8.729  1.1558 -2.2234 -1.7990
 1686SOL     OW16693   2.187   4.724   0.942 -0.2577  0.3383  0.1068
 1686SOL    HW116694   2.254   4.689   1.001 -1.4916 -0.1038  1.2369
 1686SOL    HW216695   2.121   4.661   0.970  0.1465 -0.1189  0.0411
 1687SOL     OW16696   3.420   2.518   8.245 -0.0305 -0.4918 -0.1213
 1687SOL    HW116697   3.407   2.509   8.150 -2.5838 -0.9820  0.2819
 1687SOL    HW216698   3.328   2.519   8.269  0.3023 -0.3525  1.1225
 1688SOL     OW16699   2.877   1.969   5.744 -0.1293 -0.0183  0.5011
 1688SOL    HW116700   2.840   1.990   5.658  2.9378 -0.0558 -0.8386
 1688SOL    HW216701   2.968   1.997   5.738 -0.2996  0.7306  1.3585
 1689SOL     OW16702   2.668   3.830   4.404  0.2458  0.0386 -0.1713
 1689SOL    HW116703   2.690   3.764   4.338 -1.7729 -1.6637  0.8570
 1689SOL    HW216704   2.690   3.904   4.348  0.1196 -1.7342 -2.5865
 1690SOL     OW16705   0.036   0.180  10.108  0.5295  0.3829 -0.5558
 1690SOL    HW116706   4.679   0.186  10.118  0.3846 -1.8396 -0.5147
 1690SOL    HW216707   0.053   0.109  10.046 -0.8133 -0.9048  0.5546
 1691SOL     OW16708   3.630   0.881   1.983 -0.7059  0.0745  0.3593
 1691SOL    HW116709   3.537   0.856   1.986 -0.3655 -0.9991  1.8025
 1691SOL    HW216710   3.669   0.802   1.944  1.7623  0.9464  1.1246
 1692SOL     OW16711   3.846   2.400  17.228  0.5542 -0.4763 -0.3270
 1692SOL    HW116712   3.906   2.329  17.250  0.8677  0.1968  0.9780
 1692SOL    HW216713   3.806   2.357  17.153 -1.8531 -2.0665  1.8500
 1693SOL     OW16714   2.726   3.094   7.301  0.3808 -0.1213  0.4055
 1693SOL    HW116715   2.792   3.162   7.314  1.6221 -1.7149  2.3982
 1693SOL    HW216716   2.770   3.059   7.222  1.6992  1.5897  0.3866
 1694SOL     OW16717   0.081   3.770   1.228  0.0437 -0.4916  0.0968
 1694SOL    HW116718   0.058   3.767   1.135  0.3663  0.9952 -0.0382
 1694SOL    HW216719   0.154   3.833   1.221  0.4157 -0.9902 -0.4825
 1695SOL     OW16720   1.278   1.063   6.250 -0.1244  0.5204 -0.2081
 1695SOL    HW116721   1.335   1.087   6.177  0.1437 -0.1175 -0.2010
 1695SOL    HW216722   1.192   1.085   6.214  0.2689 -1.0842 -2.0959
 1696SOL     OW16723   1.993   3.810  10.079 -1.1458  0.4285 -0.0871
 1696SOL    HW116724   2.049   3.736  10.101 -0.5617  0.5506 -1.2270
 1696SOL    HW216725   2.003   3.804   9.984 -0.7175 -0.9567  0.0413
 1697SOL     OW16726   3.548   2.934   3.258 -0.4609 -1.0839  0.0450
 1697SOL    HW116727   3.525   2.895   3.342  1.6567  0.0622  1.1834
 1697SOL    HW216728   3.528   3.026   3.277  2.3729 -0.7431  1.4166
 1698SOL     OW16729   3.098   2.296  17.248 -0.6040  0.0184  0.3336
 1698SOL    HW116730   3.184   2.297  17.207 -0.0992  0.2353  1.3891
 1698SOL    HW216731   3.078   2.203  17.253 -2.8139  0.4115 -1.0503
 1699SOL     OW16732   1.840   2.671   5.856 -0.0257  0.1310 -0.3985
 1699SOL    HW116733   1.814   2.722   5.932  0.8548  0.3575 -0.2475
 1699SOL    HW216734   1.881   2.603   5.910  1.6078  0.1502 -1.5965
 1700SOL     OW16735   4.086   0.303   7.114  0.4468  0.8734  0.5114
 1700SOL    HW116736   4.104   0.245   7.188  0.4180 -0.0475 -0.2032
 1700SOL    HW216737   4.136   0.259   7.045 -0.8714  0.1630  0.0148
 1701SOL     OW16738   1.279   2.440   8.201 -0.5648  0.2214 -0.2776
 1701SOL    HW116739   1.216   2.506   8.170 -0.0398  1.1773  0.7011
 1701SOL    HW216740   1.333   2.499   8.253  2.1680  0.0404 -2.9532
 1702SOL     OW16741   4.087   3.741   2.247 -0.2600  0.6484 -0.0479
 1702SOL    HW116742   4.154   3.687   2.205 -1.4930 -1.2003  0.4144
 1702SOL    HW216743   4.131   3.787   2.318 -0.3549  0.1919  0.3033
 1703SOL     OW16744   3.633   4.585   6.160  0.9300 -0.0667 -0.2630
 1703SOL    HW116745   3.671   4.630   6.084 -0.7381  0.4809 -0.7743
 1703SOL    HW216746   3.615   4.501   6.119  1.8849 -1.1238  1.4998
 1704SOL     OW16747   0.382   4.523   4.068 -0.6168 -0.4046 -0.0127
 1704SOL    HW116748   0.290   4.497   4.073 -0.2794 -1.1984  1.8486
 1704SOL    HW216749   0.389   4.537   3.973 -0.0818 -0.2091  0.0545
 1705SOL     OW16750   0.605   2.367   1.965  0.0342 -0.2736  0.3173
 1705SOL    HW116751   0.555   2.336   1.889  2.1226 -0.1896 -1.0712
 1705SOL    HW216752   0.571   2.308   2.033 -0.6660 -1.8745 -1.4343
 1706SOL     OW16753   3.221   2.042   1.097  0.5366  0.3858 -0.2664
 1706SOL    HW116754   3.178   1.976   1.152  0.0345  0.5033 -0.5192
 1706SOL    HW216755   3.153   2.108   1.088  0.8265  1.0713  2.4388
 1707SOL     OW16756   1.340   0.629   1.678  0.1169  0.4903  0.2053
 1707SOL    HW116757   1.281   0.698   1.707  2.2226  1.4269  2.2217
 1707SOL    HW216758   1.278   0.568   1.638 -0.3250  0.3704  1.0779
 1708SOL     OW16759   1.204   2.888  12.308  0.3133 -0.1729  0.0253
 1708SOL    HW116760   1.193   2.948  12.234 -0.3943  2.8046  2.5386
 1708SOL    HW216761   1.198   2.803  12.264  1.3759 -0.2245 -0.0255
 1709SOL     OW16762   3.102   1.141   5.516  0.0108  0.4129 -0.0844
 1709SOL    HW116763   3.106   1.199   5.440 -0.4318 -0.9008 -1.1234
 1709SOL    HW216764   3.196   1.147   5.534  0.0712  0.3532 -0.3763
 1710SOL     OW16765   3.024   3.938   4.106  0.5221 -0.2289  0.4420
 1710SOL    HW116766   2.996   3.907   4.019  2.0445  0.7187 -0.3800
 1710SOL    HW216767   3.039   3.851   4.143  1.7029 -0.8664 -1.5249
 1711SOL     OW16768   4.424   0.173   7.355  0.8038  0.6759 -0.6611
 1711SOL    HW116769   4.368   0.178   7.433  0.5500  1.2250 -0.8753
 1711SOL    HW216770   4.452   0.264   7.343  0.1388  0.8701 -0.7918
 1712SOL     OW16771   1.835   4.234   0.235 -0.1216  0.0129  0.1446
 1712SOL    HW116772   1.808   4.187   0.156 -0.8842 -0.7879  0.8841
 1712SOL    HW216773   1.757   4.226   0.289  0.3583  0.4992  0.9057
 1713SOL     OW16774   4.721   0.459  12.951  0.4984  0.1357  0.5889
 1713SOL    HW116775   0.021   0.458  13.039  0.3657  0.9734  0.6583
 1713SOL    HW216776   0.061   0.459  12.896  0.6872  0.7459  0.8503
 1714SOL     OW16777   0.534   3.472   6.052  0.5373 -0.4016 -0.5743
 1714SOL    HW116778   0.454   3.424   6.072  1.4828 -1.5119  0.4923
 1714SOL    HW216779   0.546   3.435   5.965  0.9446 -1.7223  0.0400
 1715SOL     OW16780   0.615   2.705   2.837 -0.5626 -0.3065  0.3317
 1715SOL    HW116781   0.706   2.684   2.812 -1.1018  0.0895 -1.9698
 1715SOL    HW216782   0.579   2.755   2.764  0.0476 -1.6854 -0.9408
 1716SOL     OW16783   0.400   0.193   9.793  0.2776  0.0580  0.0974
 1716SOL    HW116784   0.415   0.270   9.849 -0.2822 -2.6438  3.9787
 1716SOL    HW216785   0.491   0.189   9.764  0.1395  1.6816 -0.5724
 1717SOL     OW16786   2.593   0.226   2.675 -0.6682  0.0606  0.0940
 1717SOL    HW116787   2.662   0.210   2.740 -1.4792 -1.7760  0.5172
 1717SOL    HW216788   2.516   0.243   2.729 -1.8769  2.5700 -2.4320
 1718SOL     OW16789   4.436   3.019   7.801 -0.2401  0.0361  0.2399
 1718SOL    HW116790   4.345   3.011   7.830 -0.4055  1.0767  0.0066
 1718SOL    HW216791   4.487   2.971   7.866 -1.6370 -0.3507  1.0477
 1719SOL     OW16792   0.215   1.302  12.742  0.9974  0.1249 -0.5064
 1719SOL    HW116793   0.275   1.234  12.772  1.3700  0.7006  0.0550
 1719SOL    HW216794   0.274   1.375  12.726 -0.1016  0.7118 -1.8742
 1720SOL     OW16795   1.126   1.872   8.884 -0.0346 -0.1314 -0.6579
 1720SOL    HW116796   1.173   1.955   8.872 -1.1434  0.7529  1.1684
 1720SOL    HW216797   1.153   1.837   8.799  1.2219  0.5369 -0.5452
 1721SOL     OW16798   3.451   3.789   5.313  0.2952  0.7355 -0.2273
 1721SOL    HW116799   3.396   3.808   5.237 -0.7486 -2.2357 -0.2171
 1721SOL    HW216800   3.399   3.717   5.350  2.2584  0.7371  2.5298
 1722SOL     OW16801   0.073   2.095   4.782  0.1721  0.1244 -0.1088
 1722SOL    HW116802   0.111   2.150   4.714 -4.0437  0.8058 -1.9163
 1722SOL    HW216803   0.122   2.121   4.860 -0.6423  0.8353  0.1596
 1723SOL     OW16804   4.423   4.481   2.447  0.4119 -0.4293  1.1422
 1723SOL    HW116805   4.393   4.392   2.466 -0.0329 -0.1160  1.9122
 1723SOL    HW216806   4.495   4.477   2.384  0.3391  2.8138  0.8471
 1724SOL     OW16807   3.297   4.646   7.715  0.0228 -0.0853 -0.1166
 1724SOL    HW116808   3.312   4.737   7.690 -0.1845  0.2787  1.0605
 1724SOL    HW216809   3.326   4.597   7.639  3.1257 -0.8848  1.6056
 1725SOL     OW16810   1.438   3.297  11.224  0.0831 -0.1698 -0.6444
 1725SOL    HW116811   1.520   3.345  11.208  0.8844 -1.6018 -0.8129
 1725SOL    HW216812   1.423   3.321  11.315  2.4756  0.5682 -0.4314
 1726SOL     OW16813   0.600   2.476   8.629  0.0048  0.0500 -0.3560
 1726SOL    HW116814   0.643   2.539   8.687  1.1778  0.0687 -1.2513
 1726SOL    HW216815   0.541   2.427   8.686  1.1950 -0.8236  0.1245
 1727SOL     OW16816   4.561   2.972   8.661 -0.1561  0.0076  0.1494
 1727SOL    HW116817   4.615   2.961   8.583  0.1807  2.6118 -0.0038
 1727SOL    HW216818   4.614   2.925   8.724  1.7454 -0.3591 -1.7373
 1728SOL     OW16819   3.462   2.414   8.694 -0.1126 -0.1029  0.1060
 1728SOL    HW116820   3.538   2.463   8.664 -1.0015  0.6753 -0.8482
 1728SOL    HW216821   3.495   2.376   8.776  1.1263  0.2172 -0.2374
 1729SOL     OW16822   3.269   4.236   2.815 -0.2240  0.1586 -0.2785
 1729SOL    HW116823   3.258   4.321   2.857 -1.0971 -0.0697 -0.0317
 1729SOL    HW216824   3.208   4.185   2.869 -0.6484 -1.6863 -2.5180
 1730SOL     OW16825   4.591   2.133   8.211  0.0435 -0.4019  0.6887
 1730SOL    HW116826   4.610   2.196   8.141 -1.5164  1.0146  1.5481
 1730SOL    HW216827   4.665   2.146   8.271  0.3778  1.6574 -0.1851
 1731SOL     OW16828   4.212   2.163   8.430  0.8942 -0.1694 -0.0760
 1731SOL    HW116829   4.246   2.138   8.344 -0.0978 -0.3628 -0.4108
 1731SOL    HW216830   4.230   2.083   8.479  0.5289  0.0058  0.3526
 1732SOL     OW16831   0.567   0.092  13.296 -0.4491  0.0161 -0.2708
 1732SOL    HW116832   0.645   0.084  13.241  0.1285 -1.0618  0.7227
 1732SOL    HW216833   0.562   0.187  13.283 -2.5461  0.0769  1.0089
 1733SOL     OW16834   0.081   2.304  12.675  0.4012 -0.0306 -0.2901
 1733SOL    HW116835   0.012   2.259  12.725  0.8449  1.7501  1.9346
 1733SOL    HW216836   0.165   2.269  12.705  1.5647  2.3862 -0.7305
 1734SOL     OW16837   0.720   1.363  10.197 -0.2526  0.1143 -0.0143
 1734SOL    HW116838   0.814   1.379  10.212  0.0213 -1.1316 -0.4462
 1734SOL    HW216839   0.709   1.271  10.219 -0.3645 -0.3082 -1.8419
 1735SOL     OW16840   3.895   1.376   1.563  0.2029  0.5804  0.4148
 1735SOL    HW116841   3.894   1.425   1.646  1.1246 -0.5563  1.0990
 1735SOL    HW216842   3.966   1.425   1.521 -1.2213  0.3726 -2.2156
 1736SOL     OW16843   0.245   1.414   4.322  0.3809  0.0344 -0.1513
 1736SOL    HW116844   0.307   1.365   4.377  0.6825  0.6755  0.0740
 1736SOL    HW216845   0.194   1.344   4.281  1.3310 -0.4234 -0.5543
 1737SOL     OW16846   1.422   3.983   1.805 -0.1775 -0.4786  0.9239
 1737SOL    HW116847   1.347   3.955   1.752 -0.9207  1.4020  0.9836
 1737SOL    HW216848   1.371   3.977   1.886  1.2294  1.5540  1.9598
 1738SOL     OW16849   3.711   3.458   3.383 -0.7183 -0.8895  0.1814
 1738SOL    HW116850   3.688   3.503   3.464  1.7936  0.0017  0.4130
 1738SOL    HW216851   3.715   3.535   3.326  0.4499  0.4222  2.0307
 1739SOL     OW16852   3.495   1.910   2.422  0.8491 -0.4582  0.0221
 1739SOL    HW116853   3.418   1.942   2.469  0.7512  1.2861 -1.3419
 1739SOL    HW216854   3.499   1.816   2.441  1.1378 -0.6934 -1.2229
 1740SOL     OW16855   0.464   4.180  10.633  0.4759 -0.7070  0.2897
 1740SOL    HW116856   0.394   4.232  10.595 -0.0745 -1.7655 -0.1672
 1740SOL    HW216857   0.482   4.115  10.565 -0.2616  1.4441 -1.9435
 1741SOL     OW16858   4.734   0.251  16.943 -0.3240 -0.6408  0.6410
 1741SOL    HW116859   4.671   0.287  17.007 -1.0455 -0.1016 -0.3753
 1741SOL    HW216860   0.066   0.315  16.953 -0.4129 -0.4801  0.2368
 1742SOL     OW16861   2.811   3.677  10.960 -0.0606  0.2044  0.2190
 1742SOL    HW116862   2.853   3.705  11.042 -0.6259  1.1097  0.1948
 1742SOL    HW216863   2.865   3.598  10.951 -0.7215  0.0924 -2.7236
 1743SOL     OW16864   2.782   1.343   2.007  0.0629  0.2222  0.2680
 1743SOL    HW116865   2.712   1.284   2.031  0.6553 -1.0564 -1.1304
 1743SOL    HW216866   2.842   1.352   2.081 -0.5084 -1.6051  0.9419
 1744SOL     OW16867   0.852   1.781   9.159  0.1172 -0.2800  0.1249
 1744SOL    HW116868   0.874   1.688   9.163 -0.6622 -0.5406 -1.6435
 1744SOL    HW216869   0.918   1.821   9.215 -2.7028  1.6570  2.1049
 1745SOL     OW16870   1.401   2.709   9.476 -0.6201  0.0776  0.4229
 1745SOL    HW116871   1.461   2.779   9.450 -0.3489 -0.6814 -1.0040
 1745SOL    HW216872   1.375   2.728   9.566  0.4015  0.0794  0.7110
 1746SOL     OW16873   2.515   0.223   4.424 -0.4398  0.1787 -0.1726
 1746SOL    HW116874   2.439   0.253   4.474 -0.8463  0.2802 -0.8667
 1746SOL    HW216875   2.577   0.237   4.496  0.3648 -0.5937 -0.7194
 1747SOL     OW16876   3.517   0.036   8.381  0.1082  0.2928 -0.0304
 1747SOL    HW116877   3.556   0.121   8.400 -1.7610  0.9852  0.6596
 1747SOL    HW216878   3.472   0.029   8.466 -2.5715 -0.3821 -1.5157
 1748SOL     OW16879   4.407   2.612   8.658 -0.2185  0.6845 -0.1655
 1748SOL    HW116880   4.413   2.518   8.639 -1.2054  0.7387 -0.7726
 1748SOL    HW216881   4.421   2.641   8.568  0.0213  2.5101  0.4664
 1749SOL     OW16882   1.492   0.848   8.038 -0.1419  0.0912 -0.7856
 1749SOL    HW116883   1.448   0.830   7.955 -0.8461  0.3662 -0.4744
 1749SOL    HW216884   1.479   0.762   8.077  0.8954 -0.1825 -1.0471
 1750SOL     OW16885   2.999   3.399  17.114  0.1380  0.0848 -0.0379
 1750SOL    HW116886   3.048   3.380  17.034 -1.8178 -0.5934 -1.0708
 1750SOL    HW216887   2.923   3.440  17.072 -0.2090 -0.7166 -0.1895
 1751SOL     OW16888   1.546   0.003   4.445 -0.1678 -0.5663  0.3880
 1751SOL    HW116889   1.547   0.062   4.520 -1.3086  1.2698 -1.0414
 1751SOL    HW216890   1.505   0.061   4.381 -1.3583  1.2727  2.8215
 1752SOL     OW16891   0.156   2.638   6.207 -0.3489 -0.7701  0.3620
 1752SOL    HW116892   0.182   2.724   6.241 -0.9407 -0.6934  0.6122
 1752SOL    HW216893   0.163   2.652   6.113 -0.3810 -3.4869 -0.0374
 1753SOL     OW16894   3.539   3.711   0.695 -0.3246 -0.0197  0.4562
 1753SOL    HW116895   3.602   3.718   0.623  1.1976  0.8815  1.8763
 1753SOL    HW216896   3.496   3.630   0.668  1.5187 -0.6959 -0.3989
 1754SOL     OW16897   3.806   0.967  10.910 -0.1624  0.2811  0.0489
 1754SOL    HW116898   3.802   1.061  10.929  1.2541 -0.4163  3.7044
 1754SOL    HW216899   3.901   0.957  10.904  0.0375  1.5385  1.1584
 1755SOL     OW16900   1.800   4.252   8.607  0.1473  0.0635  1.0562
 1755SOL    HW116901   1.887   4.279   8.636  0.1626 -0.1231  1.1826
 1755SOL    HW216902   1.781   4.184   8.671  0.7174 -0.4942  0.6316
 1756SOL     OW16903   2.599   0.609   1.360  0.4231 -0.1289  0.1797
 1756SOL    HW116904   2.638   0.622   1.274  0.4443 -0.8606  0.0787
 1756SOL    HW216905   2.623   0.692   1.402 -0.4230 -0.7464  1.8945
 1757SOL     OW16906   3.448   4.142   1.320  0.0673 -0.0049  0.2625
 1757SOL    HW116907   3.366   4.118   1.277  0.2272 -0.7109  0.3397
 1757SOL    HW216908   3.448   4.235   1.299 -1.2402 -0.5303 -2.0758
 1758SOL     OW16909   1.706   3.954   6.665  0.5883  0.2553 -0.1262
 1758SOL    HW116910   1.677   3.869   6.697 -0.1455  0.6464  0.2288
 1758SOL    HW216911   1.703   4.000   6.749  1.3145  0.7409 -0.3626
 1759SOL     OW16912   0.329   1.238   7.669 -0.0904 -0.0050 -0.0743
 1759SOL    HW116913   0.312   1.281   7.753  1.9251  0.3781  0.1234
 1759SOL    HW216914   0.423   1.222   7.676  0.4089  3.4861  1.7945
 1760SOL     OW16915   0.010   2.134   6.609 -0.3298 -0.1509  0.5843
 1760SOL    HW116916   0.005   2.121   6.515  3.0661  0.2389  0.3540
 1760SOL    HW216917   4.732   2.044   6.638 -1.8788  0.1796  0.7567
 1761SOL     OW16918   1.761   0.094   5.133  0.2703 -0.1889  0.2665
 1761SOL    HW116919   1.699   0.043   5.081 -0.4333  0.8321  0.0957
 1761SOL    HW216920   1.786   0.167   5.075  1.5165 -1.4331 -0.7651
 1762SOL     OW16921   4.076   3.258   4.980 -0.4826 -0.0833 -0.3533
 1762SOL    HW116922   4.012   3.232   4.914  0.1345 -1.0076 -0.5860
 1762SOL    HW216923   4.073   3.184   5.040 -0.5122  0.4035  0.2497
 1763SOL     OW16924   3.129   0.565  11.321  0.4505  0.4844  0.1798
 1763SOL    HW116925   3.216   0.595  11.347  0.1672  3.0013 -1.7390
 1763SOL    HW216926   3.107   0.626  11.250 -0.4200  0.1018  0.1272
 1764SOL     OW16927   2.170   1.237   5.151  0.3500 -0.4215  0.0027
 1764SOL    HW116928   2.194   1.200   5.236 -0.0649 -0.5581  0.0605
 1764SOL    HW216929   2.208   1.325   5.151 -1.4399  0.3486 -0.3852
 1765SOL     OW16930   1.321   1.310   1.383 -0.1134  0.0625  0.3950
 1765SOL    HW116931   1.362   1.229   1.352  0.1915  0.6886 -0.8300
 1765SOL    HW216932   1.361   1.366   1.316 -2.7065  0.5227 -0.7727
 1766SOL     OW16933   3.295   3.138   5.927 -0.0013  0.1962 -0.4367
 1766SOL    HW116934   3.345   3.217   5.906 -0.8046  0.7429 -0.2852
 1766SOL    HW216935   3.218   3.145   5.870 -0.9340 -0.3557  0.7733
 1767SOL     OW16936   3.393   0.520  11.685 -0.4134 -0.3010 -0.5043
 1767SOL    HW116937   3.301   0.519  11.659 -0.1147  3.4220 -1.6937
 1767SOL    HW216938   3.439   0.526  11.601  0.1130  2.5884 -0.0063
 1768SOL     OW16939   0.338   2.413   4.227  0.4373  0.1667  0.3017
 1768SOL    HW116940   0.362   2.455   4.145  0.4752 -0.3927  0.0302
 1768SOL    HW216941   0.369   2.323   4.216  1.9650  0.7089  0.1321
 1769SOL     OW16942   2.296   1.762   9.570 -0.0406  0.0902  0.1297
 1769SOL    HW116943   2.308   1.707   9.493  0.7353 -0.0108  0.3177
 1769SOL    HW216944   2.203   1.779   9.560 -0.2187 -0.6259  0.5717
 1770SOL     OW16945   3.093   2.198   1.445  0.5306 -0.2727  0.2462
 1770SOL    HW116946   3.161   2.136   1.419 -0.3955 -1.7792  1.3953
 1770SOL    HW216947   3.032   2.143   1.494  0.4092  0.2592  0.6843
 1771SOL     OW16948   1.133   4.135   1.161 -0.3345 -0.3673  0.1828
 1771SOL    HW116949   1.064   4.091   1.210 -0.5710 -1.3114 -0.9906
 1771SOL    HW216950   1.131   4.090   1.076  1.2911 -1.6777  0.8580
 1772SOL     OW16951   2.917   0.734   2.473 -0.2058  0.2828 -0.5220
 1772SOL    HW116952   2.828   0.727   2.438 -0.5246  0.5532  0.2453
 1772SOL    HW216953   2.951   0.807   2.421  0.5705  0.5551  0.3676
 1773SOL     OW16954   0.453   3.063   4.553 -0.7831 -0.3550  0.1470
 1773SOL    HW116955   0.374   3.097   4.594 -0.6523  0.9520 -0.6714
 1773SOL    HW216956   0.507   3.140   4.534  2.0794 -2.3645  0.0950
 1774SOL     OW16957   0.789   2.964  15.936 -0.2506 -0.0505  0.0345
 1774SOL    HW116958   0.879   2.968  15.903 -0.5296 -0.7642 -0.7974
 1774SOL    HW216959   0.808   2.928  16.023  0.7666 -2.2166 -1.0926
 1775SOL     OW16960   4.429   2.831   2.859  0.1876  0.4358  0.1883
 1775SOL    HW116961   4.459   2.896   2.795 -0.6227 -1.2048 -1.8401
 1775SOL    HW216962   4.337   2.857   2.861 -0.5258 -2.0528  0.4972
 1776SOL     OW16963   4.028   4.173   4.364 -0.0270  0.3040 -0.9002
 1776SOL    HW116964   4.013   4.222   4.284  0.3425  1.2122 -0.4165
 1776SOL    HW216965   3.974   4.096   4.350  1.9323 -1.7995  2.9631
 1777SOL     OW16966   1.786   4.029   4.968 -0.1281 -0.1630  0.4854
 1777SOL    HW116967   1.733   3.982   5.033  1.1381 -2.0439  0.1708
 1777SOL    HW216968   1.776   3.975   4.890  0.0757  0.9377 -0.3101
 1778SOL     OW16969   3.464   0.782   9.815 -0.1822 -0.6986  0.4102
 1778SOL    HW116970   3.518   0.800   9.739 -0.2803 -0.0837  0.4833
 1778SOL    HW216971   3.398   0.732   9.767 -0.2959 -1.1615  1.0504
 1779SOL     OW16972   1.144   1.393   7.375 -0.4551  0.2061 -0.7604
 1779SOL    HW116973   1.143   1.470   7.432 -1.4397 -0.8146  0.5899
 1779SOL    HW216974   1.167   1.439   7.294 -1.6500  0.1246 -1.1471
 1780SOL     OW16975   0.786   2.154   0.671 -0.1091 -0.4691 -0.1290
 1780SOL    HW116976   0.814   2.230   0.724 -0.1323 -1.1493  0.8673
 1780SOL    HW216977   0.818   2.180   0.585  0.8062  0.4331  0.4772
 1781SOL     OW16978   3.648   4.676  16.856  0.3222  0.2294 -0.0391
 1781SOL    HW116979   3.671   0.031  16.864  2.5700 -0.2686 -0.7775
 1781SOL    HW216980   3.693   4.643  16.778  0.6933  2.2604 -0.6798
 1782SOL     OW16981   3.084   2.820  10.311 -0.5387 -0.2041  0.0085
 1782SOL    HW116982   3.150   2.886  10.288 -0.5151 -0.3103 -0.2312
 1782SOL    HW216983   3.013   2.878  10.339 -1.1942 -1.2700  0.5447
 1783SOL     OW16984   2.308   0.871   5.092 -0.1624  0.2926  0.2648
 1783SOL    HW116985   2.284   0.858   5.000  2.1143 -0.0209 -0.2743
 1783SOL    HW216986   2.258   0.806   5.141  0.4708 -0.2890  0.1358
 1784SOL     OW16987   2.794   1.437   2.577 -0.0378  0.2323  0.3195
 1784SOL    HW116988   2.813   1.438   2.670 -1.1603  0.1919  0.5498
 1784SOL    HW216989   2.870   1.395   2.537 -1.2577 -1.0694 -0.6287
 1785SOL     OW16990   2.907   0.560   0.398 -0.3680 -0.8123  0.3529
 1785SOL    HW116991   2.855   0.572   0.477 -0.3321 -1.7546  0.5130
 1785SOL    HW216992   2.839   0.514   0.348  0.4507 -1.0718 -0.5170
 1786SOL     OW16993   3.043   0.044   5.185 -0.3947 -0.0214  0.4358
 1786SOL    HW116994   2.962   0.040   5.134 -0.3222  2.6356  0.1470
 1786SOL    HW216995   3.008   0.104   5.250  2.4306 -0.9917  2.8272
 1787SOL     OW16996   0.205   4.398   7.812  0.1490  0.8229 -0.2574
 1787SOL    HW116997   0.215   4.323   7.754  3.3920  2.0228 -1.2476
 1787SOL    HW216998   0.286   4.397   7.862  1.0784  2.5376 -1.7329
 1788SOL     OW16999   0.966   1.117   2.871 -0.4430  0.1772  0.0509
 1788SOL    HW117000   0.907   1.102   2.945 -1.4283 -0.5196 -0.8704
 1788SOL    HW217001   0.909   1.079   2.804  0.3481  0.8459 -1.0104
 1789SOL     OW17002   1.738   4.004   0.120  0.7511 -0.1122  0.4255
 1789SOL    HW117003   1.660   3.959   0.153 -1.2596  3.1908  0.1936
 1789SOL    HW217004   1.804   3.934   0.117 -2.0727 -2.7470 -0.6861
 1790SOL     OW17005   0.098   0.818   4.874 -0.9543 -0.2323  0.6177
 1790SOL    HW117006   0.128   0.766   4.948  0.8338  1.6195  1.2079
 1790SOL    HW217007   0.124   0.763   4.801 -1.2037 -0.1986  0.5029
 1791SOL     OW17008   0.407   1.747   9.020  0.2380 -0.2493 -0.2930
 1791SOL    HW117009   0.445   1.664   9.048  0.1371  0.0270  0.6460
 1791SOL    HW217010   0.421   1.738   8.925  1.0586 -0.1687 -0.1749
 1792SOL     OW17011   1.651   4.208   0.420 -0.1907 -0.4711  0.3651
 1792SOL    HW117012   1.690   4.238   0.502  2.1906 -0.4832 -0.7668
 1792SOL    HW217013   1.565   4.249   0.411  0.3344  0.5513  0.0238
 1793SOL     OW17014   4.354   4.217   2.419  0.6275  0.1247  0.3829
 1793SOL    HW117015   4.323   4.251   2.335 -2.6977 -2.1591  0.6989
 1793SOL    HW217016   4.360   4.125   2.394 -1.3220 -0.4660  2.1530
 1794SOL     OW17017   2.923   2.115   7.214 -0.6249  0.1591 -0.6074
 1794SOL    HW117018   2.932   2.021   7.201  0.2021  0.2684 -0.8526
 1794SOL    HW217019   2.964   2.117   7.301 -0.0510 -2.3178 -0.8179
 1795SOL     OW17020   3.673   3.351   6.882 -0.1306 -0.4480 -0.2944
 1795SOL    HW117021   3.705   3.299   6.956  0.0633 -0.0366 -0.0881
 1795SOL    HW217022   3.578   3.343   6.886 -0.3061  1.2510 -1.1682
 1796SOL     OW17023   2.210   0.960   2.788  0.0169 -0.0445  0.1071
 1796SOL    HW117024   2.196   0.907   2.866 -1.2877  0.6554  0.3446
 1796SOL    HW217025   2.302   0.985   2.800  0.0895  0.3766 -1.2770
 1797SOL     OW17026   1.769   3.574   9.023 -0.2277 -0.0268 -0.4071
 1797SOL    HW117027   1.825   3.502   8.994 -0.4305 -0.6455  0.7472
 1797SOL    HW217028   1.730   3.591   8.937  1.8101  1.0037 -1.1236
 1798SOL     OW17029   4.391   0.984   6.056  0.0398 -0.0693  0.1944
 1798SOL    HW117030   4.405   1.071   6.094  0.0831 -0.3905  0.9177
 1798SOL    HW217031   4.419   0.938   6.135 -1.1281  0.3152  0.8402
 1799SOL     OW17032   1.967   2.715   6.396  0.4303 -0.8793 -0.0391
 1799SOL    HW117033   2.030   2.691   6.328  0.7136 -0.6749  0.1530
 1799SOL    HW217034   2.025   2.778   6.438  0.2343 -0.4616 -0.3967
 1800SOL     OW17035   3.749   3.503   3.041  0.1457 -0.2646  0.0060
 1800SOL    HW117036   3.709   3.589   3.031  0.1338 -0.4137 -1.2286
 1800SOL    HW217037   3.685   3.451   2.992  0.2271 -0.7963  0.4663
 1801SOL     OW17038   1.987   0.954  14.013 -0.1423 -0.6361 -0.3500
 1801SOL    HW117039   2.035   0.877  14.044 -0.6667 -0.2233  1.4766
 1801SOL    HW217040   1.972   1.003  14.094 -0.5036 -2.0784  0.4631
 1802SOL     OW17041   3.525   2.073   7.980  0.5079 -0.0614 -0.3459
 1802SOL    HW117042   3.467   2.007   8.019 -0.5297  2.8521  3.0076
 1802SOL    HW217043   3.559   2.113   8.060 -1.3060  0.1832  0.3097
 1803SOL     OW17044   4.240   1.496   9.018  0.2891  0.2446 -0.0691
 1803SOL    HW117045   4.185   1.557   8.969 -0.3128  0.9592  1.5150
 1803SOL    HW217046   4.163   1.467   9.068  0.8604 -1.3211 -0.0902
 1804SOL     OW17047   4.365   0.588   0.576  0.1315 -0.4470  0.3483
 1804SOL    HW117048   4.416   0.662   0.609 -1.8380  1.4717 -0.8818
 1804SOL    HW217049   4.432   0.524   0.597  1.5093  0.7534 -0.4326
 1805SOL     OW17050   4.270   3.992   3.098 -0.3214 -0.0536  0.1062
 1805SOL    HW117051   4.315   3.931   3.039 -2.3695 -2.7640  1.2964
 1805SOL    HW217052   4.338   4.059   3.090 -1.9676  1.6663  0.6102
 1806SOL     OW17053   1.206   4.488  11.157  0.3277  0.5437  0.4519
 1806SOL    HW117054   1.207   4.548  11.083 -1.5312 -0.5053 -0.4312
 1806SOL    HW217055   1.198   4.549  11.231  1.8503 -0.6991  1.6521
 1807SOL     OW17056   2.990   2.946   1.383  0.6351 -0.0812 -0.2310
 1807SOL    HW117057   3.085   2.951   1.396  0.8414  1.4670 -2.2292
 1807SOL    HW217058   2.979   2.852   1.376 -1.9161  0.0533  1.9447
 1808SOL     OW17059   3.622   0.564  15.444  0.4260 -0.3667 -0.2958
 1808SOL    HW117060   3.561   0.582  15.516  0.6086  1.1039 -0.5094
 1808SOL    HW217061   3.577   0.581  15.361  1.5147  1.8046 -0.4460
 1809SOL     OW17062   1.652   2.145   8.557  0.2871  0.3813 -0.1593
 1809SOL    HW117063   1.695   2.174   8.477 -2.7310  1.3021 -1.4712
 1809SOL    HW217064   1.634   2.226   8.606 -1.8782 -0.4847  0.4897
 1810SOL     OW17065   2.296   4.276  14.729  0.0184 -1.0226  0.0009
 1810SOL    HW117066   2.211   4.304  14.762  0.1239  1.7607 -2.0865
 1810SOL    HW217067   2.319   4.219  14.802  0.1081 -1.3339 -0.2685
 1811SOL     OW17068   4.574   4.707   6.865 -0.2086 -0.6850 -0.0370
 1811SOL    HW117069   4.625   0.003   6.791 -2.8642  1.2489 -1.0023
 1811SOL    HW217070   4.495   4.711   6.812 -0.0087 -0.9025 -0.3518
 1812SOL     OW17071   0.387   1.209  13.219 -0.4144  0.7316  0.2494
 1812SOL    HW117072   0.387   1.282  13.282  0.5169  0.4200  0.6039
 1812SOL    HW217073   0.398   1.249  13.132 -1.6589  0.9207  0.1765
 1813SOL     OW17074   4.279   1.316   3.139  0.1367 -0.2564 -0.7186
 1813SOL    HW117075   4.192   1.346   3.168 -0.7526 -0.8187 -2.8473
 1813SOL    HW217076   4.336   1.338   3.213  0.9025 -0.7524 -1.1685
 1814SOL     OW17077   2.173   3.717  13.352 -0.3297  0.3018  0.3234
 1814SOL    HW117078   2.217   3.789  13.398  0.5870  1.6923 -2.7498
 1814SOL    HW217079   2.223   3.640  13.377  0.3767  0.1560 -1.5929
 1815SOL     OW17080   0.504   0.466   6.428  0.7658 -0.2852  0.1207
 1815SOL    HW117081   0.545   0.460   6.341  2.3600 -2.7117  1.0394
 1815SOL    HW217082   0.486   0.374   6.451  0.3497 -0.1481  0.3371
 1816SOL     OW17083   4.324   3.694  11.313  0.2021 -0.0837  0.1085
 1816SOL    HW117084   4.232   3.690  11.341 -0.2395 -0.2266 -1.3764
 1816SOL    HW217085   4.349   3.770  11.367  0.9977 -0.3139  0.0553
 1817SOL     OW17086   3.283   1.927  14.782  0.0045 -0.0695  0.0915
 1817SOL    HW117087   3.260   1.864  14.713  0.3885 -1.5140  1.2986
 1817SOL    HW217088   3.371   1.954  14.756  0.4875 -2.3457 -0.5915
 1818SOL     OW17089   0.095   0.772   5.237  0.2137 -0.3201  0.1117
 1818SOL    HW117090   0.055   0.854   5.267 -2.4581 -2.0028  1.1010
 1818SOL    HW217091   0.182   0.797   5.205  1.0488 -4.4168 -0.8011
 1819SOL     OW17092   0.934   2.918   5.111 -0.4389  0.6218  0.5728
 1819SOL    HW117093   0.941   2.843   5.051 -0.4412  0.9838  0.1164
 1819SOL    HW217094   0.855   2.960   5.075 -0.0699 -0.4703 -1.5333
 1820SOL     OW17095   1.555   3.618   3.298 -0.1338  0.1219  0.0887
 1820SOL    HW117096   1.610   3.561   3.351  0.2849  1.7660  1.4281
 1820SOL    HW217097   1.562   3.575   3.213 -2.4213 -0.1932  0.0533
 1821SOL     OW17098   3.583   3.489   4.183  0.0736  0.7436  0.1566
 1821SOL    HW117099   3.568   3.411   4.130 -0.1922 -1.1968  3.1498
 1821SOL    HW217100   3.637   3.448   4.251  0.7520 -1.6671 -1.8336
 1822SOL     OW17101   2.457   3.486   6.304 -0.4870  0.0148 -0.0492
 1822SOL    HW117102   2.448   3.564   6.360 -0.0108 -1.1193  1.6141
 1822SOL    HW217103   2.547   3.495   6.274 -0.5876 -0.4807 -0.4973
 1823SOL     OW17104   2.000   4.629   2.323 -0.3847  0.1797 -0.2020
 1823SOL    HW117105   1.924   4.685   2.333  0.9851  2.0344 -0.2266
 1823SOL    HW217106   1.978   4.568   2.394  0.3756 -0.8182 -0.8177
 1824SOL     OW17107   0.764   4.034   6.444  0.1770  0.3548  0.7463
 1824SOL    HW117108   0.832   4.101   6.438  2.6661 -2.1658  0.8459
 1824SOL    HW217109   0.719   4.073   6.519 -1.5677 -0.4594  0.1129
 1825SOL     OW17110   0.474   1.256   4.448  0.2670 -0.1756  0.4947
 1825SOL    HW117111   0.441   1.200   4.378 -1.2600 -0.2365  1.2606
 1825SOL    HW217112   0.563   1.268   4.415  0.5174 -0.9141  0.8963
 1826SOL     OW17113   0.399   0.503   5.199 -0.0247  0.3104 -0.1499
 1826SOL    HW117114   0.362   0.589   5.220 -1.2029 -0.0110 -0.9679
 1826SOL    HW217115   0.374   0.454   5.278  1.1193  0.4731  0.3185
 1827SOL     OW17116   2.665   2.953   6.796  0.4513 -0.5413  0.5783
 1827SOL    HW117117   2.688   2.883   6.857 -2.5779 -0.3850  1.8882
 1827SOL    HW217118   2.739   3.014   6.807 -0.5440  1.1424 -2.1287
 1828SOL     OW17119   0.476   4.321   7.575 -0.0799  0.1953  0.2354
 1828SOL    HW117120   0.495   4.327   7.481  1.2910  1.5929  0.6002
 1828SOL    HW217121   0.381   4.325   7.578 -0.1332  0.3412 -1.7726
 1829SOL     OW17122   3.494   4.414   8.842  0.6449  0.7815 -0.5602
 1829SOL    HW117123   3.568   4.449   8.893 -0.1918  2.5057 -0.5350
 1829SOL    HW217124   3.510   4.323   8.869 -1.7871 -0.0891 -2.1207
 1830SOL     OW17125   1.269   3.994  10.508  0.0373 -0.2030  0.0139
 1830SOL    HW117126   1.215   4.068  10.479  0.5956  0.5386  0.8601
 1830SOL    HW217127   1.356   4.034  10.519  0.5144 -1.2890  0.1287
 1831SOL     OW17128   4.715   3.507   9.934  0.6501  0.1963  0.3228
 1831SOL    HW117129   4.660   3.579   9.903  0.0523  0.8308  2.8122
 1831SOL    HW217130   0.062   3.518   9.890 -0.3020  0.7103 -1.3756
 1832SOL     OW17131   0.696   4.485   8.848 -0.1543  0.4875 -0.3457
 1832SOL    HW117132   0.673   4.557   8.907 -0.0334 -0.5380  0.9535
 1832SOL    HW217133   0.705   4.411   8.908  0.2864 -0.3147 -1.4010
 1833SOL     OW17134   1.740   3.607   5.999  0.0833  0.5841  0.5856
 1833SOL    HW117135   1.792   3.527   5.995 -1.8095 -0.7026  1.6544
 1833SOL    HW217136   1.768   3.645   6.083 -1.6634  1.2848  0.8609
 1834SOL     OW17137   0.879   2.170   6.461 -0.1124  0.7448  0.2765
 1834SOL    HW117138   0.814   2.238   6.445  0.2306  0.0933 -3.7626
 1834SOL    HW217139   0.964   2.215   6.466  0.6634 -0.9201  2.2599
 1835SOL     OW17140   3.827   4.651   7.598 -0.4312  0.1868  0.1633
 1835SOL    HW117141   3.738   4.685   7.586  0.0072  1.2390 -0.1267
 1835SOL    HW217142   3.812   4.561   7.626 -2.1774  0.8396  1.3598
 1836SOL     OW17143   4.094   0.643   1.033  0.4557 -0.1833  0.1468
 1836SOL    HW117144   4.112   0.729   0.995 -0.2930 -0.4377 -0.7706
 1836SOL    HW217145   4.116   0.592   0.955  0.2037 -1.5405  0.9607
 1837SOL     OW17146   2.805   0.525   7.974 -0.0492  0.4375  0.6175
 1837SOL    HW117147   2.762   0.445   7.945 -1.2331 -0.0658  3.8458
 1837SOL    HW217148   2.727   0.581   7.972 -1.5038 -1.6282 -1.3038
 1838SOL     OW17149   0.735   0.833   6.033  0.0284 -0.4676 -0.9370
 1838SOL    HW117150   0.828   0.853   6.025 -0.6057  1.7001 -2.9772
 1838SOL    HW217151   0.741   0.826   6.128  0.5063  1.5380 -0.8268
 1839SOL     OW17152   4.185   3.005  17.301  0.0739 -0.9079 -0.2013
 1839SOL    HW117153   4.225   2.920  17.284  0.0773 -0.7600 -0.9370
 1839SOL    HW217154   4.136   3.040  17.227 -1.0387 -0.0763  0.9208
 1840SOL     OW17155   3.070   4.108  12.157  0.2009  0.0869 -0.1887
 1840SOL    HW117156   2.989   4.137  12.114 -0.9557  0.1384  2.0468
 1840SOL    HW217157   3.082   4.023  12.114 -1.0772 -0.7427  1.0822
 1841SOL     OW17158   0.092   0.864   2.043  0.1954 -0.4272  0.6309
 1841SOL    HW117159   0.141   0.830   2.118  1.2301 -1.1605 -0.3715
 1841SOL    HW217160   0.076   0.782   1.996 -1.1422  0.2312 -0.0691
 1842SOL     OW17161   3.938   2.871  10.957  0.5985 -1.3425  0.1229
 1842SOL    HW117162   3.997   2.865  11.032 -2.2608 -0.2364  2.4469
 1842SOL    HW217163   3.855   2.829  10.979 -0.4849  1.5306  1.4709
 1843SOL     OW17164   1.042   1.864   6.439 -0.1382 -0.1256 -0.0889
 1843SOL    HW117165   1.057   1.956   6.461  1.6173  0.1279 -2.3957
 1843SOL    HW217166   1.087   1.810   6.504 -1.5095  0.6307  1.5163
 1844SOL     OW17167   0.214   3.616   3.117 -0.7888 -0.3646  0.1328
 1844SOL    HW117168   0.294   3.574   3.084 -1.1084  0.1885 -1.3218
 1844SOL    HW217169   0.247   3.689   3.170  0.2846  0.0319 -1.0786
 1845SOL     OW17170   2.499   0.880   6.851  0.6884  0.1152  0.1193
 1845SOL    HW117171   2.516   0.887   6.757  0.6785 -0.1606  0.0965
 1845SOL    HW217172   2.483   0.971   6.875 -0.5622 -0.2772  0.8253
 1846SOL     OW17173   0.757   1.756   3.228  0.7178  0.7964  0.2797
 1846SOL    HW117174   0.744   1.757   3.323 -1.2084 -2.1834  0.0234
 1846SOL    HW217175   0.807   1.675   3.223  2.0645  1.6889 -0.8956
 1847SOL     OW17176   0.280   0.781  11.238  0.1077 -0.0224 -0.3224
 1847SOL    HW117177   0.319   0.752  11.155 -0.0978  0.1491 -0.4816
 1847SOL    HW217178   0.242   0.699  11.270  1.1312  0.2223  1.4971
 1848SOL     OW17179   0.970   1.727   2.582  0.1126  0.4610  0.1547
 1848SOL    HW117180   0.900   1.668   2.611 -0.5336  0.8006 -0.6997
 1848SOL    HW217181   0.930   1.755   2.500  0.1001  1.8017  0.6168
 1849SOL     OW17182   3.516   1.758  11.413 -0.5696 -0.0056  0.1196
 1849SOL    HW117183   3.440   1.814  11.433 -1.2850  0.2897 -3.4666
 1849SOL    HW217184   3.524   1.712  11.496  0.6698  0.7644  0.4234
 1850SOL     OW17185   0.147   4.205   3.881  0.4887 -0.3570  0.4169
 1850SOL    HW117186   0.127   4.257   3.803 -0.0718 -1.4237 -0.1422
 1850SOL    HW217187   0.150   4.278   3.944 -1.3792 -0.1432  0.2573
 1851SOL     OW17188   2.297   2.556   7.171  0.1996 -0.3845  0.2540
 1851SOL    HW117189   2.353   2.609   7.116 -0.4790  0.1635  0.0880
 1851SOL    HW217190   2.218   2.556   7.117 -0.7169 -3.0902  1.5853
 1852SOL     OW17191   2.591   2.690  12.075  0.3846  0.2929  0.0702
 1852SOL    HW117192   2.526   2.752  12.041 -3.5386 -2.8861  1.8229
 1852SOL    HW217193   2.671   2.715  12.029  0.8988  0.5551  1.1126
 1853SOL     OW17194   2.466   1.400   9.704  0.4050  0.6247  0.1747
 1853SOL    HW117195   2.382   1.379   9.744 -0.0860  2.8853  0.3297
 1853SOL    HW217196   2.516   1.424   9.782 -0.9162  2.0046  0.5891
 1854SOL     OW17197   3.749   2.723   6.414 -0.0096 -0.7307 -0.0255
 1854SOL    HW117198   3.819   2.662   6.435  1.2457  0.9105  0.5265
 1854SOL    HW217199   3.794   2.804   6.439 -2.2911  1.6122 -3.4049
 1855SOL     OW17200   2.564   1.193   1.972 -0.3893  0.2973  0.2375
 1855SOL    HW117201   2.474   1.204   2.002 -0.6475 -1.2233  0.0093
 1855SOL    HW217202   2.551   1.119   1.913  2.7458 -0.8031  0.9123
 1856SOL     OW17203   3.322   3.892   1.485 -0.5679 -0.0933 -0.2715
 1856SOL    HW117204   3.367   3.808   1.477 -1.5726 -0.5676 -0.9872
 1856SOL    HW217205   3.307   3.907   1.391  1.9675  0.8561 -0.5406
 1857SOL     OW17206   3.076   1.450   8.199 -0.4351 -0.3067 -0.0745
 1857SOL    HW117207   3.103   1.407   8.280  1.8784  0.2931 -0.5421
 1857SOL    HW217208   2.980   1.445   8.203 -0.5749 -0.5530 -3.0704
 1858SOL     OW17209   0.120   4.509   8.936 -0.2309  0.2805 -0.0520
 1858SOL    HW117210   0.128   4.570   9.009  1.0096  2.2214 -1.7967
 1858SOL    HW217211   0.034   4.537   8.904 -0.4774 -2.2006 -1.5857
 1859SOL     OW17212   2.561   2.054   9.879 -0.1745 -0.2459 -0.0315
 1859SOL    HW117213   2.523   1.991   9.818 -1.5818 -2.1313  2.7627
 1859SOL    HW217214   2.589   2.003   9.955  0.6195  0.5165  0.1880
 1860SOL     OW17215   3.104   2.877   6.361 -0.0186  0.1879 -0.1481
 1860SOL    HW117216   3.110   2.801   6.303  1.5727  1.2548 -1.3792
 1860SOL    HW217217   3.128   2.942   6.294 -1.1689  2.1168  1.3241
 1861SOL     OW17218   0.913   4.595   6.399 -0.0746 -0.6235 -0.3785
 1861SOL    HW117219   0.832   4.645   6.406  0.7776  0.4592  1.7067
 1861SOL    HW217220   0.901   4.549   6.482  0.0420 -2.5162 -1.4086
 1862SOL     OW17221   0.117   3.742   9.344  0.2669 -0.1367  0.0509
 1862SOL    HW117222   0.118   3.752   9.440 -1.0377  1.0188 -0.0576
 1862SOL    HW217223   0.069   3.659   9.350  1.9264 -1.1034  0.0783
 1863SOL     OW17224   0.951   2.338  11.085 -0.2076 -0.3256 -0.5995
 1863SOL    HW117225   0.930   2.252  11.048 -1.3543  0.0651 -0.8648
 1863SOL    HW217226   1.016   2.323  11.153 -1.0255 -0.7753  0.0751
 1864SOL     OW17227   1.048   3.508   2.735 -0.3733  0.0138 -0.3205
 1864SOL    HW117228   1.092   3.587   2.768  0.1469 -0.1760 -0.5540
 1864SOL    HW217229   1.052   3.534   2.643 -0.9811  0.1454 -0.3058
 1865SOL     OW17230   4.523   0.448   3.815  0.1830 -0.3576  0.1717
 1865SOL    HW117231   4.489   0.360   3.802  1.7039 -1.0890  1.2119
 1865SOL    HW217232   4.522   0.485   3.727  2.0503 -1.9032 -0.4822
 1866SOL     OW17233   4.221   1.776   0.031  0.0327  0.1919 -0.2344
 1866SOL    HW117234   4.222   1.787  17.686  0.7496  1.2767 -0.1044
 1866SOL    HW217235   4.218   1.867   0.058 -0.2121  0.2399 -0.4253
 1867SOL     OW17236   1.857   4.138   3.873  0.1332  0.2886  0.3804
 1867SOL    HW117237   1.872   4.226   3.839 -0.2259 -0.4229 -1.6544
 1867SOL    HW217238   1.940   4.106   3.838 -0.4326 -1.0183  0.2566
 1868SOL     OW17239   2.404   1.984  13.969  0.5726 -0.5509  0.7819
 1868SOL    HW117240   2.333   1.980  14.032 -0.1757  0.9054  0.0342
 1868SOL    HW217241   2.362   1.923  13.909  1.1413 -1.1156  0.9498
 1869SOL     OW17242   0.246   1.462   2.752  0.2153 -0.1307  0.6431
 1869SOL    HW117243   0.216   1.534   2.696  0.8824 -0.8090 -0.5939
 1869SOL    HW217244   0.336   1.491   2.769  0.7913 -2.1145  0.9973
 1870SOL     OW17245   3.110   4.385   0.698  0.7264 -0.5649  0.1839
 1870SOL    HW117246   3.036   4.362   0.643 -0.1512  1.9212  0.3474
 1870SOL    HW217247   3.065   4.406   0.780 -1.6685  0.2598 -1.3537
 1871SOL     OW17248   4.442   2.525  12.874  0.6148 -0.0591  0.3085
 1871SOL    HW117249   4.485   2.557  12.794 -1.1263  0.1310 -0.5424
 1871SOL    HW217250   4.447   2.601  12.931 -0.8709  0.9902 -0.9569
 1872SOL     OW17251   2.047   2.036  16.996 -0.3385  0.2789  0.2630
 1872SOL    HW117252   2.131   2.065  17.030  0.7464  1.3425 -3.3504
 1872SOL    HW217253   2.036   1.948  17.034  0.5834 -1.2417 -2.9715
 1873SOL     OW17254   2.463   3.386   3.161  0.0980  0.1053 -0.0271
 1873SOL    HW117255   2.448   3.329   3.085  3.8882 -1.3710  0.3253
 1873SOL    HW217256   2.537   3.338   3.198  0.7810  2.2755  1.4276
 1874SOL     OW17257   1.527   2.988   2.055 -0.4557 -0.0909 -0.4727
 1874SOL    HW117258   1.452   3.031   2.015 -0.5128 -0.1930 -0.4746
 1874SOL    HW217259   1.493   2.901   2.077 -1.7988  1.0632  1.9223
 1875SOL     OW17260   0.840   4.582   0.060  0.3276 -0.0561  0.2564
 1875SOL    HW117261   0.784   4.516   0.018  1.9912 -2.8500  2.4385
 1875SOL    HW217262   0.912   4.589  17.747 -0.8405  0.6679 -1.0028
 1876SOL     OW17263   2.755   4.135   6.350 -0.5048 -0.1918  0.1959
 1876SOL    HW117264   2.746   4.193   6.426  0.5541 -0.2593  0.3618
 1876SOL    HW217265   2.785   4.196   6.283  0.2046 -0.6734  0.0737
 1877SOL     OW17266   0.797   4.621   9.734 -0.3774  0.6883 -0.1743
 1877SOL    HW117267   0.888   4.649   9.738  0.4544 -1.7841 -1.9463
 1877SOL    HW217268   0.749   4.699   9.707 -0.4429  0.6866 -0.0611
 1878SOL     OW17269   2.687   4.306   3.203  0.6889  0.3931 -0.3646
 1878SOL    HW117270   2.663   4.232   3.147 -3.3620  1.0819  0.4553
 1878SOL    HW217271   2.657   4.276   3.290  0.7115 -1.5795 -1.0258
 1879SOL     OW17272   3.838   2.737   1.570  0.0267 -0.8437 -0.5797
 1879SOL    HW117273   3.885   2.779   1.642 -1.1413 -1.3957  0.5141
 1879SOL    HW217274   3.781   2.803   1.530 -1.0436 -0.5494  1.4370
 1880SOL     OW17275   1.152   0.798   7.465 -0.1443  0.0996 -0.1015
 1880SOL    HW117276   1.105   0.878   7.487  0.9629  0.2354  1.7288
 1880SOL    HW217277   1.237   0.834   7.488 -0.1256  1.9354 -3.0500
 1881SOL     OW17278   0.955   4.512  17.549 -0.0758 -0.7232  0.3139
 1881SOL    HW117279   0.978   4.458  17.474 -0.4088 -1.7858  0.9879
 1881SOL    HW217280   0.868   4.475  17.566 -0.1237 -1.6525 -2.0254
 1882SOL     OW17281   2.002   4.606   6.720 -0.2164 -0.4655  0.2466
 1882SOL    HW117282   1.912   4.582   6.700 -0.0815 -2.0843  1.5451
 1882SOL    HW217283   1.995   4.636   6.811 -1.8131  0.7014 -0.2591
 1883SOL     OW17284   1.366   1.545   1.873 -0.0344  0.3272  0.0296
 1883SOL    HW117285   1.436   1.487   1.903 -0.5974 -0.1419  0.4431
 1883SOL    HW217286   1.405   1.632   1.879  0.1646  0.4179 -2.7348
 1884SOL     OW17287   1.293   1.771   4.300  1.0350  0.1762  0.3775
 1884SOL    HW117288   1.308   1.678   4.287  3.8505  0.8975 -1.5794
 1884SOL    HW217289   1.302   1.779   4.395  0.1165  0.2616  0.4588
 1885SOL     OW17290   2.096   3.897  15.574 -0.0536 -0.3100  0.2606
 1885SOL    HW117291   2.137   3.867  15.493 -0.7654  3.0669 -1.3638
 1885SOL    HW217292   2.141   3.852  15.646 -1.5477  0.5710  1.7318
 1886SOL     OW17293   1.857   0.310   1.212  0.2068 -0.4348  0.3005
 1886SOL    HW117294   1.810   0.387   1.180  1.6000 -0.2118 -1.1842
 1886SOL    HW217295   1.814   0.293   1.296 -2.0829 -0.9420 -0.9973
 1887SOL     OW17296   0.007   4.581   3.682 -0.2780 -0.0582  0.4209
 1887SOL    HW117297   0.090   4.534   3.695  1.3373  2.6126 -0.2538
 1887SOL    HW217298   4.684   4.520   3.723  2.0776 -2.8992 -0.3145
 1888SOL     OW17299   0.825   4.431   5.859 -0.1336 -0.6591  0.4675
 1888SOL    HW117300   0.886   4.373   5.814 -0.4066 -2.0793  1.9278
 1888SOL    HW217301   0.872   4.462   5.936  1.3324 -1.5874 -0.0623
 1889SOL     OW17302   3.028   2.396   0.997 -0.3805  0.5803 -0.2409
 1889SOL    HW117303   3.068   2.341   0.930 -0.8483 -0.8372  0.6380
 1889SOL    HW217304   2.985   2.348   1.068 -1.0495  0.3272 -0.8128
 1890SOL     OW17305   3.291   0.913   0.936  0.1729  0.2453  0.2099
 1890SOL    HW117306   3.237   0.906   0.858 -1.4013 -3.7817  1.6716
 1890SOL    HW217307   3.373   0.955   0.909 -0.5571  1.7383  0.2960
 1891SOL     OW17308   4.567   2.318  15.097  0.1598  0.4108 -0.6023
 1891SOL    HW117309   4.546   2.406  15.127  0.1923 -0.5044  2.1926
 1891SOL    HW217310   4.483   2.281  15.067  2.0877 -3.8914 -0.7296
 1892SOL     OW17311   1.249   2.149   5.958  0.1545 -0.2164 -0.2538
 1892SOL    HW117312   1.280   2.234   5.927 -0.5467  0.0597 -0.1931
 1892SOL    HW217313   1.161   2.161   5.992 -0.3601  0.9580 -1.9634
 1893SOL     OW17314   1.108   1.979   7.501  0.4365  0.3338  0.2608
 1893SOL    HW117315   1.040   1.979   7.434 -0.5583 -1.6884  1.2661
 1893SOL    HW217316   1.051   1.954   7.575  1.8943 -0.3478  1.1480
 1894SOL     OW17317   3.058   3.416   5.558  0.8640 -0.1470 -0.4563
 1894SOL    HW117318   3.052   3.492   5.616 -1.7026 -0.8374  0.1774
 1894SOL    HW217319   2.974   3.424   5.514 -0.0016 -3.5783  0.5963
 1895SOL     OW17320   3.582   2.608   7.664  0.0251 -0.0365  0.4171
 1895SOL    HW117321   3.621   2.577   7.746 -2.2691  0.6695  1.7635
 1895SOL    HW217322   3.657   2.654   7.627  0.8334 -0.2225  1.8101
 1896SOL     OW17323   1.115   1.881   7.075  0.0683 -0.0980 -0.0520
 1896SOL    HW117324   1.164   1.877   6.993 -2.6886  0.7645 -1.7536
 1896SOL    HW217325   1.067   1.965   7.075 -1.8481 -1.1906  0.7774
 1897SOL     OW17326   4.506   2.567   1.154  0.6109  0.5946  0.2458
 1897SOL    HW117327   4.530   2.544   1.244 -0.4057  0.3971  0.4627
 1897SOL    HW217328   4.501   2.663   1.159  1.5039  0.6121  0.7570
 1898SOL     OW17329   4.227   4.162  10.063  0.7731  0.2236 -0.7747
 1898SOL    HW117330   4.246   4.189   9.973 -2.9874  3.5660 -0.5364
 1898SOL    HW217331   4.289   4.090  10.078 -0.6255 -0.4203  1.8912
 1899SOL     OW17332   0.975   0.515   6.005  0.2393  0.6011  0.0477
 1899SOL    HW117333   0.986   0.602   5.966  3.1031  0.0743 -0.3516
 1899SOL    HW217334   0.986   0.536   6.098 -1.0337  1.1916  0.0649
 1900SOL     OW17335   1.101   3.606   2.494  0.0560 -0.0944 -0.3313
 1900SOL    HW117336   1.085   3.689   2.450 -0.3214 -0.2396 -0.4736
 1900SOL    HW217337   1.194   3.609   2.472  0.0351  0.5239 -0.3298
 1901SOL     OW17338   1.440   3.332   6.515 -0.8337 -0.2253 -0.2883
 1901SOL    HW117339   1.431   3.312   6.608 -1.5945 -0.8090 -0.4955
 1901SOL    HW217340   1.428   3.242   6.486  1.7861 -0.5231 -0.4652
 1902SOL     OW17341   2.357   2.774   3.977 -0.1921 -0.1476  0.3159
 1902SOL    HW117342   2.307   2.846   4.015  1.2511 -0.0941  2.1269
 1902SOL    HW217343   2.404   2.763   4.060  0.6416 -2.2644 -0.4438
 1903SOL     OW17344   3.506   1.757   0.885  0.9216 -0.4530  0.5004
 1903SOL    HW117345   3.468   1.700   0.952  0.2294  0.4460  0.8624
 1903SOL    HW217346   3.505   1.842   0.930  2.4287 -0.6205  0.8632
 1904SOL     OW17347   1.033   3.010   5.350 -0.6053 -0.6691 -0.1365
 1904SOL    HW117348   1.018   3.001   5.256  0.7065 -0.8977 -0.3254
 1904SOL    HW217349   0.953   3.046   5.390 -0.5623 -0.2881 -0.3915
 1905SOL     OW17350   2.349   4.348   8.072  0.4157 -0.4611 -0.0102
 1905SOL    HW117351   2.407   4.293   8.020 -0.5183 -1.6625  0.2226
 1905SOL    HW217352   2.378   4.320   8.159  0.2477 -1.3613 -0.2435
 1906SOL     OW17353   2.521   0.351   4.178 -0.2154  0.1006 -0.1887
 1906SOL    HW117354   2.479   0.319   4.258 -0.4476 -2.7798 -1.4651
 1906SOL    HW217355   2.614   0.358   4.202 -0.8285  0.6937  1.9910
 1907SOL     OW17356   0.877   2.361   1.726  0.0112 -0.0790 -0.2090
 1907SOL    HW117357   0.825   2.349   1.647 -0.0212  0.5073 -0.2754
 1907SOL    HW217358   0.857   2.281   1.775  0.1075 -0.1022 -0.2068
 1908SOL     OW17359   0.608   3.644   5.672  0.0556  0.5032  0.3352
 1908SOL    HW117360   0.652   3.650   5.587  0.0425 -2.1678  0.1666
 1908SOL    HW217361   0.675   3.681   5.729  1.4375  0.6266 -1.3669
 1909SOL     OW17362   2.104   4.102   6.915  0.5667 -0.6013 -0.0816
 1909SOL    HW117363   2.188   4.148   6.916  1.6099 -2.5316  0.6601
 1909SOL    HW217364   2.066   4.126   6.831  0.0918 -2.0306 -0.2736
 1910SOL     OW17365   3.092   2.249   2.827  0.3968  0.3982  0.2952
 1910SOL    HW117366   3.115   2.342   2.824 -1.0699  0.7606  0.6120
 1910SOL    HW217367   3.048   2.240   2.743  2.7964 -2.0277 -0.6946
 1911SOL     OW17368   1.423   1.692   7.445 -0.0409  0.0069  0.0638
 1911SOL    HW117369   1.474   1.728   7.517 -1.5506  1.2926  0.5073
 1911SOL    HW217370   1.477   1.626   7.401  1.5505  0.3875  1.4553
 1912SOL     OW17371   2.188   3.019   6.722  0.2273 -0.3243 -0.5332
 1912SOL    HW117372   2.277   3.054   6.733  0.8890 -1.7014 -1.4397
 1912SOL    HW217373   2.180   2.970   6.804 -0.4454  2.2498  0.9542
 1913SOL     OW17374   3.943   1.163   5.516 -0.0700  0.3127 -0.2522
 1913SOL    HW117375   3.856   1.201   5.529 -0.2942 -1.1740  2.3352
 1913SOL    HW217376   3.921   1.115   5.436 -0.4019 -0.5865  0.3886
 1914SOL     OW17377   1.774   3.596   2.389  0.1822  0.2118 -0.0462
 1914SOL    HW117378   1.840   3.544   2.433 -0.8734 -0.4696  0.7286
 1914SOL    HW217379   1.744   3.536   2.321 -2.8679  1.7028 -0.0556
 1915SOL     OW17380   3.090   2.607   4.945 -0.3029  0.2044 -0.3121
 1915SOL    HW117381   3.034   2.649   5.011 -0.4520  2.8642 -2.1239
 1915SOL    HW217382   3.171   2.607   4.996 -0.6739  0.2255  0.2815
 1916SOL     OW17383   4.029   2.989   8.485  0.1306 -0.7100 -0.0464
 1916SOL    HW117384   4.024   2.935   8.564 -2.1802  1.0943  1.0633
 1916SOL    HW217385   4.124   2.993   8.480  0.1175 -1.0552 -0.5234
 1917SOL     OW17386   3.693   3.682   5.294  0.0130  0.1835  0.2358
 1917SOL    HW117387   3.667   3.599   5.253 -0.5692  1.0969 -1.2528
 1917SOL    HW217388   3.609   3.725   5.313 -1.2833 -3.2209  2.2500
 1918SOL     OW17389   3.504   4.016   2.678  0.7376 -0.2437 -0.0616
 1918SOL    HW117390   3.555   4.034   2.600 -0.7140  2.0848 -0.4639
 1918SOL    HW217391   3.414   4.009   2.644 -0.0264  0.0683  1.8840
 1919SOL     OW17392   3.429   2.805   7.047  0.7036 -0.1565  0.4766
 1919SOL    HW117393   3.410   2.788   6.955  0.6064  0.1429  0.4415
 1919SOL    HW217394   3.361   2.870   7.066  1.1783  0.2839  0.6883
 1920SOL     OW17395   3.483   3.249  16.281  0.1480 -0.6644 -0.2658
 1920SOL    HW117396   3.455   3.245  16.372 -2.4648 -0.7394 -1.0777
 1920SOL    HW217397   3.555   3.311  16.286 -1.3523  1.1306 -0.7706
 1921SOL     OW17398   0.739   1.755  17.618  0.3855 -0.3384 -0.6275
 1921SOL    HW117399   0.806   1.794  17.674 -0.3948  0.2622 -0.0935
 1921SOL    HW217400   0.784   1.704  17.552  0.8860 -0.4080 -0.2279
 1922SOL     OW17401   1.172   1.983   3.475  0.7727 -0.5925  0.5487
 1922SOL    HW117402   1.092   2.035   3.483  1.1613 -0.3153  2.5483
 1922SOL    HW217403   1.159   1.932   3.395  2.1990 -1.4701  0.8830
 1923SOL     OW17404   4.579   4.708   9.907 -0.0925 -0.0134 -0.5924
 1923SOL    HW117405   4.619   0.048   9.867 -0.7147 -0.2304 -1.6198
 1923SOL    HW217406   4.494   4.701   9.865 -0.3755 -0.5165  0.0600
 1924SOL     OW17407   2.231   1.030   4.486 -0.3131 -0.1432  0.0995
 1924SOL    HW117408   2.310   1.047   4.435 -1.0374  3.3403  0.1282
 1924SOL    HW217409   2.270   0.964   4.544 -1.6181 -0.0216  1.1165
 1925SOL     OW17410   3.257   3.053  10.189 -0.2672  0.0608  0.0631
 1925SOL    HW117411   3.308   3.057  10.108  0.7377 -1.5620  0.6145
 1925SOL    HW217412   3.326   3.031  10.252 -0.2087  0.1036  0.0147
 1926SOL     OW17413   3.618   2.258   4.864  0.1007 -0.4313 -0.0452
 1926SOL    HW117414   3.663   2.184   4.905  1.8832 -0.6858 -2.4656
 1926SOL    HW217415   3.535   2.216   4.845 -0.1550 -0.9862  2.2730
 1927SOL     OW17416   2.185   3.322   4.663 -0.2908  0.5048 -0.6466
 1927SOL    HW117417   2.241   3.336   4.587  0.8786  1.2310  0.3387
 1927SOL    HW217418   2.253   3.342   4.728 -0.2380 -0.1299 -0.5086
 1928SOL     OW17419   1.874   0.003   8.238  0.6979 -0.3443 -0.8341
 1928SOL    HW117420   1.834   4.664   8.198  3.4415 -2.4637  0.5029
 1928SOL    HW217421   1.939   0.025   8.171 -0.3498  1.8787 -1.1260
 1929SOL     OW17422   0.968   2.614   4.468  0.5720 -0.2203  0.4698
 1929SOL    HW117423   1.018   2.540   4.503 -0.4629 -1.5862 -0.9147
 1929SOL    HW217424   0.884   2.585   4.505  0.9147 -1.3640  0.3447
 1930SOL     OW17425   3.278   2.558  16.604  0.3258 -0.2300  0.5715
 1930SOL    HW117426   3.296   2.539  16.512  0.1608 -2.0179  0.9036
 1930SOL    HW217427   3.187   2.530  16.602  0.1996  0.1884  0.4590
 1931SOL     OW17428   0.592   2.044   7.841  0.3525  0.7672  0.1471
 1931SOL    HW117429   0.666   1.986   7.854 -0.9007 -1.1638 -1.3515
 1931SOL    HW217430   0.515   1.988   7.854  1.0667  0.1375  1.6511
 1932SOL     OW17431   2.738   1.944   1.820  0.1500 -0.2800  0.0980
 1932SOL    HW117432   2.829   1.939   1.850  0.7391 -0.7753 -1.7463
 1932SOL    HW217433   2.722   1.866   1.767 -1.3508 -0.2779  0.5533
 1933SOL     OW17434   2.605   0.832   8.825 -0.2173 -0.1654 -0.6158
 1933SOL    HW117435   2.615   0.804   8.734 -0.1903 -0.5001 -0.5093
 1933SOL    HW217436   2.646   0.756   8.866 -2.3587 -1.0199 -0.0927
 1934SOL     OW17437   0.748   4.370   4.707  0.4549 -0.3225 -0.0550
 1934SOL    HW117438   0.739   4.406   4.795 -1.6136  2.0381 -1.2173
 1934SOL    HW217439   0.669   4.316   4.702  1.0592 -1.0395 -2.1027
 1935SOL     OW17440   1.246   2.412   8.506 -0.6693  0.2538  0.0374
 1935SOL    HW117441   1.151   2.407   8.515 -0.6365  1.2425  0.9426
 1935SOL    HW217442   1.252   2.502   8.474 -2.6996  1.3923  2.8499
 1936SOL     OW17443   4.131   1.200   6.541  0.2761 -0.0188  0.1446
 1936SOL    HW117444   4.076   1.232   6.612  0.6056 -1.2762  0.9732
 1936SOL    HW217445   4.127   1.105   6.557  0.4938 -0.3006 -1.4356
 1937SOL     OW17446   1.838   1.483  16.646 -0.4571 -0.2229  0.3669
 1937SOL    HW117447   1.832   1.413  16.581  1.9585 -1.4166  1.4230
 1937SOL    HW217448   1.930   1.470  16.670 -0.8453  0.5258  2.2382
 1938SOL     OW17449   3.166   0.198  10.735  0.1973  0.3449 -0.2530
 1938SOL    HW117450   3.135   0.192  10.825  2.4352 -0.8829  0.4240
 1938SOL    HW217451   3.086   0.234  10.696  1.4357  2.5739 -0.7579
 1939SOL     OW17452   4.014   0.313  12.315  0.0039 -0.1933  0.1750
 1939SOL    HW117453   4.076   0.242  12.325 -0.8451 -0.6409  2.2447
 1939SOL    HW217454   4.067   0.385  12.350  1.4656  0.2559 -3.0130
 1940SOL     OW17455   2.541   1.569   0.140 -0.4191  0.1269  0.8725
 1940SOL    HW117456   2.504   1.595   0.056 -1.5572 -2.4725  0.5520
 1940SOL    HW217457   2.499   1.486   0.162  0.5798  0.4479  3.9480
 1941SOL     OW17458   1.443   3.424  10.408 -0.2059  0.2253  0.5124
 1941SOL    HW117459   1.431   3.517  10.425 -0.0565  0.3940 -0.2843
 1941SOL    HW217460   1.536   3.414  10.428 -0.0729  3.1188  1.2828
 1942SOL     OW17461   4.452   4.337   6.709  0.3774 -0.3094 -0.2636
 1942SOL    HW117462   4.537   4.307   6.677 -0.4637 -1.5366 -1.3515
 1942SOL    HW217463   4.429   4.279   6.782  0.9626 -1.3679 -0.9198
 1943SOL     OW17464   3.393   1.304   6.524 -0.0460  0.1818  0.0180
 1943SOL    HW117465   3.323   1.307   6.589 -0.9336 -0.0507 -0.9443
 1943SOL    HW217466   3.469   1.305   6.582 -0.5054 -0.1947  0.6236
 1944SOL     OW17467   3.262   0.774   4.945 -0.5657  0.5899 -0.1491
 1944SOL    HW117468   3.345   0.820   4.957 -1.4881  2.2850 -0.1753
 1944SOL    HW217469   3.208   0.849   4.920  0.4397  1.3426 -0.0591
 1945SOL     OW17470   1.950   2.755  10.121  0.1773 -0.1615  0.1029
 1945SOL    HW117471   1.895   2.682  10.151 -0.1321 -0.8753 -2.1820
 1945SOL    HW217472   1.961   2.802  10.204  0.6365  1.1896 -0.7323
 1946SOL     OW17473   4.513   3.799   9.299  0.2351 -0.6134  0.1774
 1946SOL    HW117474   4.598   3.755   9.293  1.1660  1.0319  1.3280
 1946SOL    HW217475   4.515   3.833   9.209 -0.6082 -0.3731  0.2444
 1947SOL     OW17476   0.060   1.468  15.701 -0.5104  0.6724  0.6651
 1947SOL    HW117477   4.731   1.527  15.734 -0.2488  0.3868  1.6970
 1947SOL    HW217478   0.073   1.411  15.777 -3.1240 -1.3373 -0.3923
 1948SOL     OW17479   0.158   0.564  13.988  0.4652 -0.4540 -0.7436
 1948SOL    HW117480   0.157   0.548  13.894 -0.7126  3.1898 -1.3468
 1948SOL    HW217481   0.216   0.639  14.001  0.3429 -0.5017  0.0868
 1949SOL     OW17482   2.639   0.527   2.850  0.6432  0.0102 -0.4448
 1949SOL    HW117483   2.557   0.556   2.812  1.2674  0.3845 -1.5006
 1949SOL    HW217484   2.620   0.438   2.882 -2.3273  1.1130  0.8722
 1950SOL     OW17485   2.312   3.401   4.433 -0.2971 -0.3364 -0.3993
 1950SOL    HW117486   2.306   3.496   4.430 -1.8759 -0.4592 -0.9721
 1950SOL    HW217487   2.404   3.410   4.410  0.6623  1.5342  4.1762
 1951SOL     OW17488   3.455   0.330   9.167  0.3080  0.0880  0.0857
 1951SOL    HW117489   3.372   0.375   9.151 -0.3413 -1.4935 -0.9815
 1951SOL    HW217490   3.491   0.385   9.237  4.0474 -1.5561 -0.5832
 1952SOL     OW17491   3.186   0.184  10.205 -0.1840  0.5512 -0.3170
 1952SOL    HW117492   3.176   0.191  10.300 -0.3393 -0.0784 -0.2853
 1952SOL    HW217493   3.122   0.249  10.174 -0.8321  0.5539  1.0256
 1953SOL     OW17494   2.741   1.645   2.893  0.1553 -0.0972  0.1914
 1953SOL    HW117495   2.674   1.602   2.947 -0.4035 -0.4859 -0.8235
 1953SOL    HW217496   2.742   1.733   2.930  0.0634 -0.8705  2.0454
 1954SOL     OW17497   4.067   1.063   2.747 -0.5231 -0.7209 -0.4985
 1954SOL    HW117498   4.038   1.019   2.827  0.2668  2.0959  1.3270
 1954SOL    HW217499   4.101   0.986   2.701 -0.5119 -2.0475  1.7062
 1955SOL     OW17500   3.440   3.208   5.627  0.0540  0.9064  0.1136
 1955SOL    HW117501   3.388   3.129   5.615  0.9728  0.5301 -1.4079
 1955SOL    HW217502   3.506   3.183   5.692  0.7992  1.2443 -0.5109
 1956SOL     OW17503   2.176   0.632   2.848  0.0208 -0.0854 -0.4310
 1956SOL    HW117504   2.105   0.679   2.804 -1.1657 -0.9080  0.6154
 1956SOL    HW217505   2.206   0.697   2.912  0.4505 -0.1385 -0.5776
 1957SOL     OW17506   3.558   0.289   5.431  0.4519 -0.0193  0.5318
 1957SOL    HW117507   3.515   0.374   5.442  2.0201  0.9835 -1.1934
 1957SOL    HW217508   3.510   0.230   5.489  2.2974  0.0503  2.1317
 1958SOL     OW17509   3.446   2.288  14.843 -0.2012 -0.2631 -0.0482
 1958SOL    HW117510   3.434   2.279  14.938 -0.7054  2.7818  0.1678
 1958SOL    HW217511   3.397   2.368  14.825  0.8342  0.6501  1.1712
 1959SOL     OW17512   0.059   4.130   6.156 -0.6761  0.4089 -0.3038
 1959SOL    HW117513   0.151   4.102   6.152 -0.1424  2.0935  0.2838
 1959SOL    HW217514   0.022   4.113   6.069 -0.2235 -2.4920  0.0859
 1960SOL     OW17515   0.498   4.005   7.575  0.0542 -0.7426  0.4200
 1960SOL    HW117516   0.592   4.016   7.566 -0.0964 -0.1540 -0.4480
 1960SOL    HW217517   0.466   4.035   7.490  1.5400  1.5241  0.6785
 1961SOL     OW17518   1.490   4.530   3.158  0.2537 -0.2028 -0.0509
 1961SOL    HW117519   1.477   4.541   3.064 -0.9269 -2.3713 -0.1201
 1961SOL    HW217520   1.473   4.621   3.183  2.1764 -0.6835  2.9483
 1962SOL     OW17521   3.941   0.672   3.509  0.0932  0.0273 -0.2072
 1962SOL    HW117522   3.906   0.583   3.504 -0.7484  0.3707 -0.3679
 1962SOL    HW217523   3.860   0.719   3.488  0.8953  0.3533 -2.5835
 1963SOL     OW17524   3.089   4.481   7.638 -0.0690  0.7512 -0.6187
 1963SOL    HW117525   3.037   4.554   7.604 -1.6344 -0.3585 -0.5841
 1963SOL    HW217526   3.157   4.519   7.693 -1.8845  3.0457  0.0249
 1964SOL     OW17527   1.418   3.770  15.969 -0.0261 -0.0075  0.0350
 1964SOL    HW117528   1.335   3.818  15.968 -0.3753 -0.5765  1.4073
 1964SOL    HW217529   1.478   3.837  15.935 -0.0857  1.0491  1.9910
 1965SOL     OW17530   4.184   3.722   5.495 -0.7069 -0.2267  0.4589
 1965SOL    HW117531   4.100   3.730   5.450  0.0992 -0.9123 -1.1518
 1965SOL    HW217532   4.238   3.788   5.452  2.5328 -2.0038  1.7893
 1966SOL     OW17533   1.808   2.775   4.659 -0.0706 -0.8626 -0.3741
 1966SOL    HW117534   1.851   2.844   4.609  1.0940 -1.1546  0.2301
 1966SOL    HW217535   1.751   2.755   4.584 -2.1970 -2.1958  1.5878
 1967SOL     OW17536   4.696   1.365   6.133  0.1756 -0.4697  0.2415
 1967SOL    HW117537   4.656   1.451   6.127  1.4165  0.0828 -0.2009
 1967SOL    HW217538   0.052   1.382   6.143  0.0663  0.1283  0.2437
 1968SOL     OW17539   2.414   1.136   6.865  0.3384 -0.0103 -0.5922
 1968SOL    HW117540   2.354   1.202   6.831 -1.4307 -0.0362  2.4232
 1968SOL    HW217541   2.353   1.098   6.929  0.7380 -0.7612 -0.6576
 1969SOL     OW17542   4.678   1.478   5.811 -0.0880  0.5415  0.5890
 1969SOL    HW117543   4.704   1.482   5.902  3.2760  2.1044 -0.4395
 1969SOL    HW217544   0.009   1.416   5.786 -0.9001 -0.0622 -0.1688
 1970SOL     OW17545   3.744   4.546   8.614  0.6633 -0.0413 -0.1661
 1970SOL    HW117546   3.755   4.534   8.708  0.5413 -0.8186 -0.2550
 1970SOL    HW217547   3.674   4.484   8.593 -0.4194  2.1532 -3.0445
 1971SOL     OW17548   1.679   2.541   6.647 -0.2177  0.0253  0.0999
 1971SOL    HW117549   1.771   2.517   6.649  0.2335  1.7321 -0.8248
 1971SOL    HW217550   1.671   2.548   6.552 -0.6599  0.4009  0.1626
 1972SOL     OW17551   4.030   1.205   7.953  0.3259 -0.0977 -0.2696
 1972SOL    HW117552   4.031   1.115   7.920  0.0421 -0.2569  0.1539
 1972SOL    HW217553   3.977   1.197   8.032  0.1862 -1.8086 -0.5303
 1973SOL     OW17554   4.176   3.153   1.815  0.4204 -0.2720 -0.0006
 1973SOL    HW117555   4.201   3.093   1.886 -2.2129 -0.7851  0.4965
 1973SOL    HW217556   4.116   3.210   1.864 -0.9506 -1.7968  0.0665
 1974SOL     OW17557   3.695   2.920   1.412 -0.2095  0.4930 -0.9990
 1974SOL    HW117558   3.667   2.941   1.323 -0.4432  2.6810 -0.4053
 1974SOL    HW217559   3.721   3.008   1.440  0.1976  0.3585 -0.9513
 1975SOL     OW17560   4.621   3.556   0.968  0.2716 -0.2384  0.1660
 1975SOL    HW117561   4.553   3.602   1.018 -0.7934 -1.1053 -0.4913
 1975SOL    HW217562   4.646   3.484   1.027 -0.3520 -0.1040  0.5946
 1976SOL     OW17563   2.194   3.449  15.058  0.3302 -0.1488 -0.3693
 1976SOL    HW117564   2.222   3.526  15.008  0.5947 -0.9710 -1.4892
 1976SOL    HW217565   2.101   3.467  15.071  0.0007 -0.8500 -1.7366
 1977SOL     OW17566   3.353   0.594  13.634 -0.5039  0.3620 -1.1289
 1977SOL    HW117567   3.383   0.676  13.593 -0.8811  2.6105  3.1044
 1977SOL    HW217568   3.381   0.612  13.723 -1.5650 -2.4572 -0.2519
 1978SOL     OW17569   2.126   3.943  17.128  0.1927  0.3531  0.3840
 1978SOL    HW117570   2.112   3.858  17.171  1.3699  0.9168  1.9062
 1978SOL    HW217571   2.213   3.973  17.157 -0.5791 -0.3964  3.5170
 1979SOL     OW17572   0.598   1.487   4.809 -0.8462 -0.6689  0.1021
 1979SOL    HW117573   0.632   1.417   4.753 -1.7051 -2.0929  1.3758
 1979SOL    HW217574   0.581   1.552   4.741  0.9109 -0.2830  0.0262
 1980SOL     OW17575   1.396   0.393  14.646  0.3425 -0.4790  0.2023
 1980SOL    HW117576   1.400   0.489  14.638  1.1443 -0.4975  0.3194
 1980SOL    HW217577   1.312   0.371  14.608  0.0891  0.9341 -0.0667
 1981SOL     OW17578   1.569   1.818   1.845 -0.0713 -0.0903  0.7546
 1981SOL    HW117579   1.638   1.859   1.897 -0.4803  0.3910  0.9124
 1981SOL    HW217580   1.623   1.771   1.781  0.6327  1.1761  0.4189
 1982SOL     OW17581   2.139   1.185  16.563 -0.3473 -0.6870  0.0285
 1982SOL    HW117582   2.092   1.185  16.479  0.9115 -1.8445 -0.6781
 1982SOL    HW217583   2.131   1.093  16.588  0.8915 -0.7112  0.3130
 1983SOL     OW17584   2.948   3.960   3.826  0.0521 -0.1681  0.5284
 1983SOL    HW117585   2.927   4.050   3.851  1.0686 -0.2073  1.4980
 1983SOL    HW217586   2.876   3.936   3.767 -0.0105  0.4482  0.3523
 1984SOL     OW17587   4.680   2.513  11.452 -0.3981  0.2553  0.2645
 1984SOL    HW117588   4.726   2.430  11.436 -1.8427 -0.8031  1.6360
 1984SOL    HW217589   4.587   2.490  11.454 -0.5433  1.0663  2.8405
 1985SOL     OW17590   0.283   0.527   6.612  0.7179  0.1215  0.4862
 1985SOL    HW117591   0.371   0.494   6.597  0.5994 -0.6345  1.4475
 1985SOL    HW217592   0.296   0.596   6.677  2.4935  1.3327 -1.1693
 1986SOL     OW17593   4.472   2.418  13.798 -0.0168  0.2080  0.0193
 1986SOL    HW117594   4.519   2.464  13.729  0.8106  0.5668  0.8213
 1986SOL    HW217595   4.538   2.396  13.864  0.4679  1.0222 -0.2004
 1987SOL     OW17596   1.569   4.603   2.543  0.1776 -0.1732 -0.0185
 1987SOL    HW117597   1.609   4.528   2.500 -0.9556 -0.4898 -0.5238
 1987SOL    HW217598   1.478   4.580   2.565 -0.0882 -1.6154 -2.6110
 1988SOL     OW17599   3.648   4.384   4.333  0.4413 -0.0679  0.6492
 1988SOL    HW117600   3.723   4.438   4.309 -1.4349  3.1280  1.9275
 1988SOL    HW217601   3.598   4.382   4.251  0.2280 -1.8814  0.8246
 1989SOL     OW17602   0.410   3.675   3.866 -0.0108  0.2523 -0.2826
 1989SOL    HW117603   0.337   3.660   3.926 -0.3575 -0.0798 -0.7892
 1989SOL    HW217604   0.377   3.678   3.776  0.0915 -2.9691 -0.3955
 1990SOL     OW17605   3.483   2.810   3.493  0.1838  0.4933 -0.2551
 1990SOL    HW117606   3.547   2.740   3.508 -1.4974 -0.5856  2.0171
 1990SOL    HW217607   3.482   2.849   3.580 -0.2893  0.5697 -0.2924
 1991SOL     OW17608   3.167   2.322   2.526  0.8250  0.4286  0.2731
 1991SOL    HW117609   3.080   2.303   2.559  0.4905  1.3362 -0.0823
 1991SOL    HW217610   3.159   2.395   2.464  1.5683  1.3153  1.2179
 1992SOL     OW17611   0.822   3.815  13.174  0.2455 -0.5647 -0.4332
 1992SOL    HW117612   0.859   3.737  13.217  2.0848 -0.2539 -1.4554
 1992SOL    HW217613   0.823   3.773  13.088 -4.5643  0.9784 -1.2575
 1993SOL     OW17614   0.708   3.936  16.671 -0.6854  0.5126 -0.2152
 1993SOL    HW117615   0.691   3.969  16.583  1.5769  1.3264 -0.3459
 1993SOL    HW217616   0.701   3.841  16.658  2.6143  0.5349 -2.1304
 1994SOL     OW17617   3.108   2.798   5.433 -0.3431 -0.0387  0.5361
 1994SOL    HW117618   3.152   2.716   5.455 -0.9255  0.0640  2.1104
 1994SOL    HW217619   3.125   2.802   5.339 -1.1566 -0.0875  0.3879
 1995SOL     OW17620   2.089   1.741   4.476  0.0031 -0.4162  0.2792
 1995SOL    HW117621   2.005   1.778   4.452  0.2351  0.1675  0.3750
 1995SOL    HW217622   2.140   1.815   4.445 -1.3471 -0.2298 -1.4702
 1996SOL     OW17623   2.506   1.317   4.554 -0.1370  0.2850 -0.0242
 1996SOL    HW117624   2.519   1.411   4.545 -2.2750  0.4818 -1.0596
 1996SOL    HW217625   2.411   1.316   4.547 -0.3278 -3.1247  3.0551
 1997SOL     OW17626   4.655   3.888   7.739  0.3087 -0.3400 -0.7690
 1997SOL    HW117627   4.703   3.918   7.816  0.3488  0.0695 -0.9538
 1997SOL    HW217628   4.707   3.813   7.712 -1.5400 -1.5137 -1.0821
 1998SOL     OW17629   2.441   4.607   3.712 -0.2113  0.1946  0.3178
 1998SOL    HW117630   2.433   4.515   3.737  2.6845 -0.6978 -1.9549
 1998SOL    HW217631   2.350   4.635   3.721 -0.3811 -0.7960  1.7838
 1999SOL     OW17632   2.004   0.412   2.902  0.0614 -0.0071  0.2614
 1999SOL    HW117633   1.983   0.428   2.994 -0.3637 -0.0677  0.1717
 1999SOL    HW217634   2.083   0.466   2.907  0.3670 -0.4838  0.6781
 2000SOL     OW17635   3.702   1.335  15.533 -0.1358 -0.1409 -0.0699
 2000SOL    HW117636   3.677   1.289  15.453 -2.9636  0.6981  0.3271
 2000SOL    HW217637   3.654   1.273  15.588  0.3637  0.3229  0.8847
 2001SOL     OW17638   2.359   3.191  13.034  0.3722 -0.4426 -0.2951
 2001SOL    HW117639   2.360   3.281  13.066  2.1930 -0.8939  0.8685
 2001SOL    HW217640   2.276   3.191  12.986  0.2708  1.5894 -0.1109
 2002SOL     OW17641   1.428   4.588   6.589 -0.5131  0.4729  0.2823
 2002SOL    HW117642   1.504   4.643   6.569  2.0072 -2.9306  0.4456
 2002SOL    HW217643   1.456   4.511   6.540 -1.0165  0.6525 -0.2879
 2003SOL     OW17644   1.884   2.391   4.864  0.4261 -0.1147  0.1467
 2003SOL    HW117645   1.902   2.459   4.799  1.8996  0.0532  0.7321
 2003SOL    HW217646   1.963   2.341   4.844  1.3618  1.9980 -1.4679
 2004SOL     OW17647   4.521   4.208  13.065 -0.3802  0.4516 -0.2507
 2004SOL    HW117648   4.498   4.299  13.047  0.3143  0.6430 -0.1856
 2004SOL    HW217649   4.461   4.199  13.138 -0.7542 -2.4910 -0.9109
 2005SOL     OW17650   0.120   1.401   3.967 -0.1458 -0.2741 -0.1436
 2005SOL    HW117651   0.210   1.380   3.941  0.3902 -1.3064  2.5524
 2005SOL    HW217652   0.122   1.494   3.990  1.4535 -0.1460 -0.8036
 2006SOL     OW17653   0.846   2.923  11.049 -0.4037 -0.0804 -0.5837
 2006SOL    HW117654   0.878   2.833  11.063  1.4392  0.6094 -0.3928
 2006SOL    HW217655   0.778   2.935  11.116 -0.7833 -3.2066 -0.3683
 2007SOL     OW17656   2.797   0.007   3.629  0.1940  0.1122 -0.0836
 2007SOL    HW117657   2.833   0.083   3.582 -3.3590  1.0462 -1.3122
 2007SOL    HW217658   2.758   0.042   3.710 -2.0007 -1.1720 -0.5891
 2008SOL     OW17659   2.676   3.814   2.898 -0.2593  0.8274  0.0313
 2008SOL    HW117660   2.771   3.819   2.905 -0.2250  0.9960 -0.5722
 2008SOL    HW217661   2.648   3.772   2.980  0.0807 -1.2118 -0.8818
 2009SOL     OW17662   2.155   1.681   7.976 -0.1292  0.3682 -0.6529
 2009SOL    HW117663   2.132   1.648   8.062  0.1249  0.9461 -0.3624
 2009SOL    HW217664   2.226   1.620   7.957 -1.1122 -0.5980 -1.2238
 2010SOL     OW17665   3.731   1.039   3.697 -0.7179  0.5939  0.4436
 2010SOL    HW117666   3.684   1.122   3.698 -0.1714  0.9612 -2.8627
 2010SOL    HW217667   3.673   0.974   3.657  0.3556 -2.0133  3.1290
 2011SOL     OW17668   3.091   2.093   6.740  0.3579  0.2307  0.0081
 2011SOL    HW117669   3.186   2.086   6.756  0.4415 -1.2461 -1.1973
 2011SOL    HW217670   3.059   2.004   6.753  2.2465 -0.4803 -0.2186
 2012SOL     OW17671   1.630   3.149   7.400  0.4923 -0.0151 -0.3684
 2012SOL    HW117672   1.565   3.144   7.329  0.0783 -2.1178  0.1687
 2012SOL    HW217673   1.680   3.225   7.371  0.3975  0.2303  0.1227
 2013SOL     OW17674   2.013   1.370   2.741  0.2101 -0.2308  0.0386
 2013SOL    HW117675   2.045   1.296   2.688 -0.7052  0.3358 -1.3112
 2013SOL    HW217676   2.013   1.335   2.830 -1.4650 -1.7505 -0.5473
 2014SOL     OW17677   0.452   1.579  14.766 -0.4261 -0.0115  0.3037
 2014SOL    HW117678   0.400   1.599  14.689  0.0486 -1.0396 -0.2704
 2014SOL    HW217679   0.402   1.508  14.806 -1.1802  0.3636  0.0215
 2015SOL     OW17680   4.371   0.502   1.044 -0.3966 -0.4962 -0.3185
 2015SOL    HW117681   4.366   0.536   1.133 -1.9582  2.7514 -1.6279
 2015SOL    HW217682   4.306   0.560   1.004  1.0785  2.8884  2.1779
 2016SOL     OW17683   1.362   3.389  10.821  0.1225 -0.6450 -0.5835
 2016SOL    HW117684   1.303   3.320  10.793 -1.5340  0.2194  0.8196
 2016SOL    HW217685   1.432   3.341  10.864  0.1091  1.2070  1.5116
 2017SOL     OW17686   4.146   4.025   5.607  0.1302 -0.2303  0.1093
 2017SOL    HW117687   4.127   4.088   5.538 -2.6384  0.4333  1.5064
 2017SOL    HW217688   4.224   3.978   5.576  0.7031  0.5682  0.3623
 2018SOL     OW17689   0.172   0.297  16.672  0.2132  0.0812 -0.3326
 2018SOL    HW117690   0.156   0.210  16.710 -1.0142 -0.5725 -2.3356
 2018SOL    HW217691   0.103   0.341  16.721 -2.4537 -0.0653 -3.9593
 2019SOL     OW17692   2.694   1.408  10.240  0.6614  0.0689  0.0332
 2019SOL    HW117693   2.727   1.348  10.173 -4.0479  0.7685 -2.9742
 2019SOL    HW217694   2.751   1.393  10.315  0.6783  0.0458  0.0157
 2020SOL     OW17695   3.652   2.104   6.101  0.2624 -0.0823 -0.0581
 2020SOL    HW117696   3.654   2.059   6.016 -0.4540 -0.6780  0.2411
 2020SOL    HW217697   3.729   2.063   6.141  0.1456 -0.9461 -0.7054
 2021SOL     OW17698   4.716   2.386   9.466  0.1698 -0.1782 -0.2574
 2021SOL    HW117699   4.645   2.447   9.446  1.1388  0.6058 -1.2777
 2021SOL    HW217700   4.717   2.391   9.562  1.4391  0.2151 -0.2918
 2022SOL     OW17701   4.574   1.972   5.132  0.0087  0.2392 -0.1530
 2022SOL    HW117702   4.544   1.886   5.160 -1.0206  1.1270  1.5067
 2022SOL    HW217703   4.651   1.977   5.188 -0.0275 -1.4874  0.0472
 2023SOL     OW17704   3.899   2.227   5.093 -0.0971  0.0893 -0.0410
 2023SOL    HW117705   3.970   2.264   5.040 -0.8830  0.3673 -0.8959
 2023SOL    HW217706   3.936   2.237   5.181 -1.4797  0.2155  0.5116
 2024SOL     OW17707   4.095   0.405   3.009  0.5267  0.0580 -0.1357
 2024SOL    HW117708   4.053   0.416   3.094  1.2809  3.0388 -0.1622
 2024SOL    HW217709   4.025   0.393   2.945 -0.3136  1.6579  0.4759
 2025SOL     OW17710   3.750   1.783   4.888 -0.4780 -0.5931 -0.3738
 2025SOL    HW117711   3.696   1.859   4.868  1.0953  0.4696 -0.6666
 2025SOL    HW217712   3.746   1.785   4.984 -3.0428 -2.0299 -0.4516
 2026SOL     OW17713   1.200   3.424   3.082 -0.1903  0.2028 -0.0671
 2026SOL    HW117714   1.107   3.401   3.085  0.4529 -2.4209 -0.4365
 2026SOL    HW217715   1.191   3.476   3.162 -0.5885 -0.4672  0.3219
 2027SOL     OW17716   1.943   1.643  12.750  0.2615  0.0009  0.6868
 2027SOL    HW117717   1.913   1.619  12.838  1.2534  0.5665  1.1785
 2027SOL    HW217718   1.922   1.570  12.692  3.0492 -1.0235  0.9584
 2028SOL     OW17719   2.287   0.126   1.426 -0.0198 -0.3955  0.2840
 2028SOL    HW117720   2.290   0.215   1.391  1.4589  0.1899  1.8926
 2028SOL    HW217721   2.192   0.135   1.439 -0.2512 -0.1882 -1.5822
 2029SOL     OW17722   1.911   1.529  14.054  0.1119 -0.0060  0.3255
 2029SOL    HW117723   1.902   1.517  13.960 -0.0710  1.0376  0.2124
 2029SOL    HW217724   1.951   1.444  14.074  1.6735  0.4080 -1.0531
 2030SOL     OW17725   3.475   3.145  16.566  0.1534 -0.3177 -0.1644
 2030SOL    HW117726   3.564   3.110  16.564 -0.4596 -1.8045 -0.8461
 2030SOL    HW217727   3.492   3.193  16.647 -0.4037 -1.1397  0.4355
 2031SOL     OW17728   3.780   2.305   1.723  0.1962  0.2033 -0.0055
 2031SOL    HW117729   3.780   2.333   1.815 -1.8716  0.8186 -0.2094
 2031SOL    HW217730   3.866   2.262   1.719  0.3926  0.6120 -0.1058
 2032SOL     OW17731   3.593   3.048   0.084  0.7719  0.4654  0.3988
 2032SOL    HW117732   3.536   2.972   0.070  0.9444  0.4285 -0.1062
 2032SOL    HW217733   3.648   3.027   0.159  0.5731 -2.3840 -0.2447
 2033SOL     OW17734   1.151   0.890   2.555 -0.2487  0.2403 -1.0063
 2033SOL    HW117735   1.226   0.879   2.497  0.2093  0.2069 -0.4049
 2033SOL    HW217736   1.187   0.961   2.608 -1.0774  0.9089 -1.3393
 2034SOL     OW17737   3.519   1.497  15.748  0.0280  0.0933  0.5128
 2034SOL    HW117738   3.474   1.494  15.663 -0.1673 -2.0146  0.6931
 2034SOL    HW217739   3.507   1.411  15.789 -1.8621 -0.5585 -1.3986
 2035SOL     OW17740   1.682   2.389  10.503  0.2698  0.0099  0.0573
 2035SOL    HW117741   1.627   2.332  10.557 -0.3828  0.9540  0.3852
 2035SOL    HW217742   1.631   2.470  10.500 -2.4795 -1.7442 -1.0986
 2036SOL     OW17743   2.735   1.833  13.594 -0.0686 -0.2562 -0.1420
 2036SOL    HW117744   2.722   1.746  13.556  0.9234 -0.2745 -0.4461
 2036SOL    HW217745   2.818   1.821  13.641  0.3592  1.1202 -0.5501
 2037SOL     OW17746   4.335   3.398  15.538  0.0835  0.3514 -0.0378
 2037SOL    HW117747   4.401   3.446  15.488 -0.7776  0.3438 -1.1956
 2037SOL    HW217748   4.296   3.458  15.601  1.6367  0.3882  0.8819
 2038SOL     OW17749   2.942   4.212   1.127  0.3915 -0.4434 -0.1970
 2038SOL    HW117750   2.860   4.183   1.166  0.5231 -2.7222 -1.5758
 2038SOL    HW217751   2.916   4.212   1.035 -1.4822 -2.9853  0.3304
 2039SOL     OW17752   1.408   3.765   4.390  0.4144 -0.5697  0.0340
 2039SOL    HW117753   1.393   3.712   4.468 -1.6537 -0.4607 -0.3069
 2039SOL    HW217754   1.359   3.845   4.409 -0.2656 -0.9973  0.0628
 2040SOL     OW17755   4.071   4.686   7.693  0.0364 -0.1036 -0.9913
 2040SOL    HW117756   3.982   4.691   7.658 -0.3903  0.5597  0.1881
 2040SOL    HW217757   4.057   4.656   7.783 -1.7643 -0.8893 -1.5563
 2041SOL     OW17758   2.742   1.888  16.138 -0.4194  0.0823  0.5043
 2041SOL    HW117759   2.647   1.889  16.154 -0.3603 -1.2914  0.8782
 2041SOL    HW217760   2.767   1.927  16.222  0.3472  0.7331 -0.0219
 2042SOL     OW17761   0.694   3.200   3.709  1.1034 -0.1310  0.5394
 2042SOL    HW117762   0.611   3.154   3.693  1.6179 -0.3837 -1.3897
 2042SOL    HW217763   0.692   3.201   3.805  1.2376 -0.6429  0.5435
 2043SOL     OW17764   1.371   2.946  17.291 -0.8901 -0.3048 -1.0655
 2043SOL    HW117765   1.425   2.889  17.236  0.7854  0.1478  0.1166
 2043SOL    HW217766   1.303   2.883  17.311 -2.6251  1.7698 -0.4088
 2044SOL     OW17767   4.236   0.797   3.853 -0.3810  0.3744 -0.4246
 2044SOL    HW117768   4.279   0.731   3.799  0.3976  0.4596  0.0918
 2044SOL    HW217769   4.149   0.798   3.813  0.2772 -2.0198 -1.9242
 2045SOL     OW17770   3.964   0.752   3.184  0.6296  0.1257 -0.4451
 2045SOL    HW117771   3.899   0.685   3.204  0.9345 -0.1772 -0.4734
 2045SOL    HW217772   4.038   0.718   3.235 -0.9648 -2.3554  0.1968
 2046SOL     OW17773   1.859   3.096   3.959  0.0536  0.1293  0.0958
 2046SOL    HW117774   1.916   3.173   3.955  0.7308 -0.4898 -1.9962
 2046SOL    HW217775   1.833   3.082   3.868  0.1240  2.2962 -0.2648
 2047SOL     OW17776   0.208   4.404   3.616 -0.0992  0.0715  0.1319
 2047SOL    HW117777   0.259   4.334   3.575 -1.3770 -0.8663  0.1495
 2047SOL    HW217778   0.128   4.395   3.565 -1.3352  0.3521  2.0415
 2048SOL     OW17779   4.070   4.468   3.478  0.2788 -0.2807  0.0053
 2048SOL    HW117780   4.089   4.385   3.521  2.8540  0.7938  0.9712
 2048SOL    HW217781   4.025   4.443   3.397  0.5715 -0.7103 -0.0271
 2049SOL     OW17782   0.146   3.735   6.920 -0.2651  0.5182  0.3663
 2049SOL    HW117783   0.183   3.710   7.005 -0.5987 -0.1048  0.3201
 2049SOL    HW217784   0.147   3.830   6.932 -0.7839  0.1631  3.3120
 2050SOL     OW17785   3.147   4.670  17.698 -0.4142  0.1202 -0.5371
 2050SOL    HW117786   3.229   4.683  17.745  0.1951  0.9536 -1.8260
 2050SOL    HW217787   3.092   4.625   0.012 -0.1610  0.9639  0.2711
 2051SOL     OW17788   2.950   3.146  17.208 -0.2292  0.1727 -0.3367
 2051SOL    HW117789   3.036   3.104  17.200 -0.2004 -0.1680  1.8836
 2051SOL    HW217790   2.969   3.237  17.188  1.0489 -0.1490 -0.6369
 2052SOL     OW17791   4.619   2.249  15.828 -0.0322  0.7066 -0.2127
 2052SOL    HW117792   4.606   2.306  15.904  0.8259  1.6417 -0.7674
 2052SOL    HW217793   4.541   2.268  15.775 -0.8720 -1.8214  0.1383
 2053SOL     OW17794   0.204   1.500   7.565  0.4382  0.0952 -0.0447
 2053SOL    HW117795   0.231   1.579   7.610  0.2671  0.1261  0.0041
 2053SOL    HW217796   0.252   1.450   7.631  0.2885  0.5400  0.3929
 2054SOL     OW17797   4.182   0.185  10.500  0.7545  0.5710  0.2565
 2054SOL    HW117798   4.233   0.265  10.510 -1.5345  2.2222 -1.4269
 2054SOL    HW217799   4.189   0.147  10.588  1.9944  0.4595  0.1164
 2055SOL     OW17800   1.531   4.345   8.522 -0.0082  0.3316 -0.3717
 2055SOL    HW117801   1.614   4.305   8.548  0.1640  0.4464 -0.7355
 2055SOL    HW217802   1.464   4.326   8.587 -0.6219  1.2961 -0.7307
 2056SOL     OW17803   2.986   3.307   7.625  0.0730  0.7072 -0.1758
 2056SOL    HW117804   3.048   3.380   7.625  0.3387  0.4882  1.9183
 2056SOL    HW217805   3.023   3.269   7.705 -0.3854 -3.1211 -1.7943
 2057SOL     OW17806   3.207   1.309   6.732  0.7808  0.0232 -0.0452
 2057SOL    HW117807   3.113   1.328   6.734  0.6657 -0.6622  1.2444
 2057SOL    HW217808   3.236   1.398   6.754  1.6119  0.3902 -2.6188
 2058SOL     OW17809   2.907   4.562  12.112  0.0564 -1.1632  0.1921
 2058SOL    HW117810   2.996   4.537  12.139 -0.1705  0.1557  2.2023
 2058SOL    HW217811   2.876   4.479  12.077 -0.2340  0.3745 -3.1424
 2059SOL     OW17812   2.251   4.144   8.676 -0.0775 -0.8111  0.2512
 2059SOL    HW117813   2.334   4.111   8.642 -0.0108 -1.3894  0.9828
 2059SOL    HW217814   2.200   4.064   8.664 -0.4362 -0.6305  0.5886
 2060SOL     OW17815   1.627   0.997  16.194 -0.5811  0.1849  0.0459
 2060SOL    HW117816   1.656   1.007  16.285 -1.6734 -1.8439  0.6304
 2060SOL    HW217817   1.686   1.054  16.146 -0.8603 -0.4056 -0.9983
 2061SOL     OW17818   2.182   2.384   3.166  0.3874  0.6397  0.2170
 2061SOL    HW117819   2.188   2.328   3.243  2.6065 -0.9483 -1.1066
 2061SOL    HW217820   2.180   2.311   3.104  0.3765 -0.1423  1.1355
 2062SOL     OW17821   4.716   0.434   9.959 -0.1391  0.7852  0.4885
 2062SOL    HW117822   0.014   0.375   9.893 -1.8213 -1.7405  1.8186
 2062SOL    HW217823   4.737   0.382  10.037 -0.1337 -0.2822 -0.2224
 2063SOL     OW17824   4.452   2.626   1.667  0.1476  0.5186  0.8186
 2063SOL    HW117825   4.476   2.543   1.625  2.8309  2.0620 -0.6751
 2063SOL    HW217826   4.374   2.647   1.616  1.8248 -2.0709 -2.8446
 2064SOL     OW17827   3.380   0.237   3.805  0.0742 -0.9708  0.5482
 2064SOL    HW117828   3.374   0.148   3.772  0.4520 -1.0681  0.7480
 2064SOL    HW217829   3.468   0.239   3.843  0.8153  1.7385 -1.3269
 2065SOL     OW17830   3.468   1.633  14.770 -0.0621 -0.1195  0.4453
 2065SOL    HW117831   3.538   1.664  14.713 -1.0725 -0.4557 -0.9724
 2065SOL    HW217832   3.510   1.642  14.856  1.1967  2.0308 -0.4072
 2066SOL     OW17833   3.069   2.707   1.644  0.3008  0.5688 -0.2330
 2066SOL    HW117834   3.138   2.717   1.710  1.0845 -0.4717 -0.8902
 2066SOL    HW217835   3.120   2.657   1.580 -1.4467  1.4880 -2.3311
 2067SOL     OW17836   2.831   2.094   3.496  0.0541  0.0009 -0.4232
 2067SOL    HW117837   2.900   2.082   3.430 -0.5565  0.6428 -1.1745
 2067SOL    HW217838   2.806   2.186   3.489 -1.3106 -0.2897  0.6142
 2068SOL     OW17839   0.861   1.372   9.072  0.0701 -0.1277  0.0636
 2068SOL    HW117840   0.822   1.316   9.140 -1.3709  1.0590  0.2026
 2068SOL    HW217841   0.906   1.438   9.125  0.3115 -1.2374  1.2385
 2069SOL     OW17842   3.853   1.478   8.153  0.5400 -0.0349 -0.5563
 2069SOL    HW117843   3.798   1.399   8.152  1.0640 -0.4082  0.4335
 2069SOL    HW217844   3.782   1.539   8.173 -1.1327 -0.4947 -4.9342
 2070SOL     OW17845   3.613   2.920   4.007 -0.1296 -0.1988  0.2517
 2070SOL    HW117846   3.699   2.879   4.007 -1.1187 -2.2540  0.3633
 2070SOL    HW217847   3.625   2.989   3.942 -3.3913 -0.2848 -0.4574
 2071SOL     OW17848   2.806   0.339   4.169 -0.5711 -0.0842  0.2311
 2071SOL    HW117849   2.854   0.420   4.188 -0.3913 -0.0802 -0.2251
 2071SOL    HW217850   2.877   0.277   4.156  0.6170  1.2081  0.6093
 2072SOL     OW17851   2.377   2.877  16.602  0.2132  0.4317  0.0520
 2072SOL    HW117852   2.388   2.934  16.678  0.7403  0.5110 -0.0884
 2072SOL    HW217853   2.452   2.903  16.549 -0.2587  2.1608  0.2487
 2073SOL     OW17854   0.990   3.903   2.109 -0.0888 -0.2090  0.2160
 2073SOL    HW117855   0.909   3.858   2.088 -1.0062  1.6320 -0.1258
 2073SOL    HW217856   0.957   3.981   2.153  0.5358  0.3804 -0.3618
 2074SOL     OW17857   1.558   2.530   7.605 -0.0440  0.3156 -0.0454
 2074SOL    HW117858   1.594   2.448   7.636 -0.6292  0.0884  0.0332
 2074SOL    HW217859   1.467   2.504   7.594  0.0746 -0.1154  0.0244
 2075SOL     OW17860   3.131   3.090  17.647 -0.3976  0.2505  0.3913
 2075SOL    HW117861   3.127   3.015  17.588 -0.3925 -0.5514  1.4261
 2075SOL    HW217862   3.054   3.141  17.621  0.4542  1.3543 -0.0056
 2076SOL     OW17863   0.281   1.038   1.966 -0.1215 -0.2194  0.2808
 2076SOL    HW117864   0.228   0.967   2.003 -0.0216 -0.4846 -0.0954
 2076SOL    HW217865   0.365   1.003   1.936 -0.1125  0.6634 -0.6896
 2077SOL     OW17866   1.797   2.805   9.437 -0.7968 -0.2245  0.0744
 2077SOL    HW117867   1.883   2.841   9.417 -0.6614  0.0655  1.1543
 2077SOL    HW217868   1.818   2.716   9.467 -1.9056 -0.1826  0.9620
 2078SOL     OW17869   0.996   0.879  12.818 -0.5834  0.1431  0.5070
 2078SOL    HW117870   0.904   0.862  12.838 -1.8022  3.0309 -2.4806
 2078SOL    HW217871   1.033   0.896  12.904 -0.1188  1.2737  0.0836
 2079SOL     OW17872   2.639   1.697   7.896 -0.0579 -1.0491  0.0912
 2079SOL    HW117873   2.574   1.767   7.902  0.9113 -0.2350  1.0432
 2079SOL    HW217874   2.585   1.619   7.880  0.4298 -1.1754 -0.9520
 2080SOL     OW17875   1.575   3.029   5.068 -0.2299  0.4180 -0.3699
 2080SOL    HW117876   1.607   2.952   5.116 -1.6829 -0.1571 -0.2955
 2080SOL    HW217877   1.555   2.982   4.987 -2.1118  0.6596 -0.0519
 2081SOL     OW17878   2.442   4.428  12.770  0.1470  0.0884 -0.0197
 2081SOL    HW117879   2.523   4.380  12.753 -1.1510 -2.9863  2.5480
 2081SOL    HW217880   2.386   4.364  12.724 -1.0520  1.8816 -1.0450
 2082SOL     OW17881   3.479   1.864   5.604 -0.3528  0.5030  0.0932
 2082SOL    HW117882   3.557   1.820   5.639 -0.3274  0.3910 -0.1032
 2082SOL    HW217883   3.424   1.792   5.573 -0.5110 -0.0882  1.7537
 2083SOL     OW17884   3.610   1.584   8.222 -0.5036  1.1352 -0.1304
 2083SOL    HW117885   3.644   1.668   8.190  2.3434 -0.6392 -1.7300
 2083SOL    HW217886   3.520   1.603   8.250 -1.0437 -1.5260 -0.0822
 2084SOL     OW17887   4.092   0.264   9.175  0.4997 -0.1208 -0.3167
 2084SOL    HW117888   4.005   0.303   9.173 -0.1851 -1.5470  1.3776
 2084SOL    HW217889   4.111   0.263   9.269 -0.8518  2.2597 -0.0313
 2085SOL     OW17890   3.388   2.696   4.602  0.0785  0.0447  0.3112
 2085SOL    HW117891   3.447   2.624   4.624  2.4769  2.2273  1.1044
 2085SOL    HW217892   3.308   2.645   4.616 -0.1582  0.2567 -0.2430
 2086SOL     OW17893   4.455   0.884  10.219 -0.0545 -0.0620  0.3161
 2086SOL    HW117894   4.438   0.796  10.186  3.3342 -0.1930 -1.0509
 2086SOL    HW217895   4.426   0.931  10.140  1.7804  0.1990 -0.1992
 2087SOL     OW17896   3.981   4.166   9.198  0.1757 -0.2589  0.2421
 2087SOL    HW117897   4.016   4.179   9.111 -1.7182 -2.8190 -0.8950
 2087SOL    HW217898   3.938   4.081   9.190 -1.6002  0.6742 -0.2710
 2088SOL     OW17899   0.996   1.198   3.207  0.0914  0.2154 -0.7663
 2088SOL    HW117900   0.912   1.168   3.172  0.1145 -1.1937  0.4164
 2088SOL    HW217901   0.960   1.252   3.278  2.5505 -1.4478  1.7455
 2089SOL     OW17902   0.247   2.153   7.167 -0.3628 -0.4154  0.5078
 2089SOL    HW117903   0.173   2.105   7.130 -2.1199  0.7407  2.5067
 2089SOL    HW217904   0.212   2.162   7.255 -1.3119  1.5147 -0.0715
 2090SOL     OW17905   1.705   4.487   7.329 -0.7529 -0.0545  0.1215
 2090SOL    HW117906   1.697   4.392   7.319  3.3732 -0.4524  0.5930
 2090SOL    HW217907   1.799   4.497   7.338 -0.9719  2.9544 -1.0978
 2091SOL     OW17908   3.609   4.679   8.154 -0.0574 -0.3031 -0.2128
 2091SOL    HW117909   3.571   4.718   8.232 -0.3511 -3.5171  1.2396
 2091SOL    HW217910   3.656   0.016   8.116  3.2189 -2.7364 -0.9692
 2092SOL     OW17911   1.547   2.088   6.971  0.0716  0.0706  0.2351
 2092SOL    HW117912   1.492   2.013   6.950 -0.1329  0.2656  0.0705
 2092SOL    HW217913   1.624   2.037   6.994 -0.7086 -0.1288  2.4010
 2093SOL     OW17914   1.204   4.392   4.950  0.6798 -0.1746 -0.5119
 2093SOL    HW117915   1.239   4.357   5.032  3.3248  2.0448 -0.7003
 2093SOL    HW217916   1.277   4.401   4.889  1.5241 -1.5611  0.2763
 2094SOL     OW17917   1.731   4.428   1.127  0.0538 -0.4215 -0.5429
 2094SOL    HW117918   1.696   4.339   1.127 -2.6726  0.6422  0.0102
 2094SOL    HW217919   1.715   4.457   1.217  0.7510 -3.8479  0.6686
 2095SOL     OW17920   1.969   1.551   3.030  0.3509 -0.1093 -0.5038
 2095SOL    HW117921   1.922   1.504   3.099  0.1920  0.9557  0.1226
 2095SOL    HW217922   1.895   1.573   2.973 -0.2163  0.5684  0.4882
 2096SOL     OW17923   1.017   0.864   6.490 -0.4239  0.5414 -0.4786
 2096SOL    HW117924   0.966   0.934   6.532 -0.6000  0.3200 -0.3233
 2096SOL    HW217925   1.001   0.893   6.400  1.3048  0.1171 -0.9322
 2097SOL     OW17926   3.719   2.306   4.037 -0.3040 -0.2098 -0.2779
 2097SOL    HW117927   3.786   2.245   4.070  0.3074 -0.5828 -2.2341
 2097SOL    HW217928   3.640   2.264   4.070 -0.9758  1.3103  0.0376
 2098SOL     OW17929   2.323   1.217   3.818 -0.4325 -0.2653  0.2678
 2098SOL    HW117930   2.290   1.296   3.777 -0.2407  0.6698  1.9180
 2098SOL    HW217931   2.369   1.171   3.748  0.4041 -0.2337  0.7899
 2099SOL     OW17932   2.878   1.505  14.669  0.0034  0.7631 -0.1857
 2099SOL    HW117933   2.902   1.495  14.576 -1.5444 -0.1603 -0.4784
 2099SOL    HW217934   2.788   1.535  14.656 -0.6482 -1.8068 -1.5758
 2100SOL     OW17935   1.901   1.051   1.704  0.1840 -0.4945  0.0904
 2100SOL    HW117936   1.942   1.057   1.617 -1.1300 -1.8101 -0.6277
 2100SOL    HW217937   1.827   0.993   1.689  0.5524 -1.0847  0.5714
 2101SOL     OW17938   0.449   0.944  15.959  0.6319 -0.4419 -0.2316
 2101SOL    HW117939   0.502   0.969  15.884  0.5392 -0.1783 -0.2082
 2101SOL    HW217940   0.430   0.854  15.932  2.5714 -1.0036  0.2710
 2102SOL     OW17941   4.160   1.732   2.504  0.0585  0.2440 -0.4654
 2102SOL    HW117942   4.088   1.768   2.556  1.7461  0.3967  1.7445
 2102SOL    HW217943   4.232   1.794   2.514 -0.3622  0.0248  3.7810
 2103SOL     OW17944   4.196   2.400  17.373 -0.1299  0.4728  0.1840
 2103SOL    HW117945   4.207   2.423  17.281  0.6412  0.5565  0.2922
 2103SOL    HW217946   4.215   2.306  17.375  2.2588  0.9507  1.5486
 2104SOL     OW17947   0.737   1.426   4.095 -0.2975 -0.2168 -0.5018
 2104SOL    HW117948   0.664   1.456   4.039 -1.1548  0.9594  1.2289
 2104SOL    HW217949   0.717   1.333   4.100 -3.5308  0.5908  1.9336
 2105SOL     OW17950   0.525   2.641  14.456 -0.7864 -0.1050  0.0102
 2105SOL    HW117951   0.533   2.607  14.545 -2.2958 -1.9304 -0.5409
 2105SOL    HW217952   0.618   2.653  14.440 -0.6048 -1.2546  0.1798
 2106SOL     OW17953   1.725   4.196   4.147  0.1101  0.5465  0.1969
 2106SOL    HW117954   1.662   4.257   4.109 -0.8968 -0.0864  0.8339
 2106SOL    HW217955   1.761   4.141   4.077 -1.7712  0.2895 -0.5693
 2107SOL     OW17956   0.979   4.027  12.161  0.0664  0.6423  0.1621
 2107SOL    HW117957   0.985   3.950  12.105 -0.0928 -0.1212  1.1908
 2107SOL    HW217958   0.943   4.088  12.098 -0.5133 -1.8106 -1.8784
 2108SOL     OW17959   4.698   3.003  13.539 -0.6655  0.6377  0.1350
 2108SOL    HW117960   0.023   3.074  13.543 -3.0954  2.8053  0.0586
 2108SOL    HW217961   4.683   2.997  13.445 -0.1488  0.1708  0.0859
 2109SOL     OW17962   0.078   0.031   9.107  0.7173 -0.5846 -0.1196
 2109SOL    HW117963   0.001   0.083   9.129  0.9847 -0.2826  0.1080
 2109SOL    HW217964   0.148   0.088   9.140  1.7633 -1.0289 -1.5794
 2110SOL     OW17965   3.965   1.126  10.586  0.1755 -0.1058 -0.2609
 2110SOL    HW117966   4.004   1.039  10.599  1.2690  1.0463  4.1812
 2110SOL    HW217967   3.962   1.118  10.491  0.1852 -2.1977 -0.0876
 2111SOL     OW17968   0.627   0.642   7.071 -0.4578 -0.3329  0.5642
 2111SOL    HW117969   0.633   0.555   7.034 -0.8552  0.6687 -1.8598
 2111SOL    HW217970   0.545   0.645   7.120 -0.5633 -3.3368  0.5703
 2112SOL     OW17971   3.374   0.721   1.973 -0.0925  0.3914 -0.0694
 2112SOL    HW117972   3.403   0.634   2.000  0.1616  0.5143  0.0573
 2112SOL    HW217973   3.380   0.732   1.878  3.4844 -0.9888  0.0075
 2113SOL     OW17974   0.204   3.685   2.691 -0.2573 -0.3305  0.0968
 2113SOL    HW117975   0.278   3.624   2.694  0.3916  0.4912  0.9586
 2113SOL    HW217976   0.233   3.767   2.652 -0.3190 -0.9127 -1.1545
 2114SOL     OW17977   4.164   0.812   6.809  0.3004  0.1114 -0.4316
 2114SOL    HW117978   4.176   0.722   6.777 -0.4575  0.2522 -1.1431
 2114SOL    HW217979   4.147   0.795   6.901  1.6932 -2.5992 -0.6717
 2115SOL     OW17980   1.162   0.257   3.089 -0.6110  0.0600 -0.2953
 2115SOL    HW117981   1.149   0.174   3.043  2.4530 -0.2437 -0.6348
 2115SOL    HW217982   1.072   0.288   3.083 -1.1187 -1.0968  1.5129
 2116SOL     OW17983   4.472   3.525   4.702  0.2272 -0.1125  0.6623
 2116SOL    HW117984   4.398   3.586   4.696  1.5357  1.3805 -0.0965
 2116SOL    HW217985   4.453   3.497   4.792 -1.9805 -1.0151 -0.0847
 2117SOL     OW17986   3.624   1.460  10.694 -0.8098 -1.0295 -0.4116
 2117SOL    HW117987   3.662   1.372  10.687 -0.3593 -0.8419 -0.3093
 2117SOL    HW217988   3.599   1.458  10.786  1.0301 -0.0582  0.0863
 2118SOL     OW17989   3.092   4.593   6.779  0.0865 -0.2191  0.0659
 2118SOL    HW117990   3.153   4.531   6.741 -2.6006 -0.6348 -3.5910
 2118SOL    HW217991   3.146   4.652   6.831 -0.5808 -0.3566  0.9394
 2119SOL     OW17992   0.562   4.585   2.007  0.3187 -0.1886 -0.6458
 2119SOL    HW117993   0.571   4.570   1.913 -0.9354 -4.3918 -0.1138
 2119SOL    HW217994   0.504   4.661   2.008  2.3728  1.3760 -0.5684
 2120SOL     OW17995   0.440   0.001   8.161 -0.0067 -0.2113 -0.1085
 2120SOL    HW117996   0.478   0.013   8.248  0.1502 -1.5719  0.0046
 2120SOL    HW217997   0.483   4.659   8.131  0.6804  0.3808 -0.7101
 2121SOL     OW17998   0.518   0.977  13.335 -0.3189 -0.5407  0.1038
 2121SOL    HW117999   0.440   0.924  13.315 -1.2981  0.8827  0.1634
 2121SOL    HW218000   0.512   1.044  13.267  1.9670  1.6698  2.1069
 2122SOL     OW18001   1.675   2.349   9.102  0.3269 -0.0204  0.4935
 2122SOL    HW118002   1.682   2.429   9.154 -1.9846  1.3086 -1.2326
 2122SOL    HW218003   1.589   2.314   9.124  0.9484 -0.2215  2.5248
 2123SOL     OW18004   2.745   1.700   0.255 -0.5641  0.2100 -0.0769
 2123SOL    HW118005   2.795   1.627   0.218 -0.7798 -0.3048  0.6499
 2123SOL    HW218006   2.663   1.662   0.223  1.5033 -0.7359 -4.2806
 2124SOL     OW18007   2.600   0.161  13.363  0.3533  0.0292  0.5060
 2124SOL    HW118008   2.635   0.151  13.274  2.7554 -0.9120  1.5547
 2124SOL    HW218009   2.537   0.090  13.356  1.0251 -0.4895 -0.3029
 2125SOL     OW18010   3.126   1.063   4.031  0.5027  0.4410 -0.3916
 2125SOL    HW118011   3.146   1.009   4.107 -1.7270 -0.6988 -0.5993
 2125SOL    HW218012   3.213   1.072   3.992 -0.0163 -3.2672 -2.4154
 2126SOL     OW18013   1.265   0.229  10.433 -0.4434 -0.1751  0.4666
 2126SOL    HW118014   1.343   0.176  10.449 -1.5873 -1.3559  2.1648
 2126SOL    HW218015   1.188   0.174  10.417  0.5122 -1.4412  0.2188
 2127SOL     OW18016   4.195   3.784   9.324 -0.4862 -0.1271  0.1224
 2127SOL    HW118017   4.253   3.849   9.284  0.7672  0.3166  2.6703
 2127SOL    HW218018   4.204   3.803   9.417  0.0132 -0.4075  0.1278
 2128SOL     OW18019   0.336   2.686   1.630  1.1434  0.2939 -0.0634
 2128SOL    HW118020   0.406   2.638   1.675  0.5371 -0.7437 -0.2191
 2128SOL    HW218021   0.352   2.679   1.535  0.4789 -3.7490  0.1213
 2129SOL     OW18022   3.748   0.566  13.459 -0.0655 -0.2991  0.0392
 2129SOL    HW118023   3.774   0.583  13.368 -0.5657 -1.1013 -0.2581
 2129SOL    HW218024   3.693   0.488  13.462 -0.0846 -0.2433  1.0408
 2130SOL     OW18025   0.309   2.297  12.426  0.3516  0.0193 -0.3000
 2130SOL    HW118026   0.338   2.386  12.407 -0.7823  0.4919  0.1880
 2130SOL    HW218027   0.213   2.300  12.418  0.0985 -1.2697  2.1341
 2131SOL     OW18028   3.372   4.049   1.871  0.0808 -0.5730 -0.1009
 2131SOL    HW118029   3.371   4.114   1.801 -0.3857 -0.1990  0.2412
 2131SOL    HW218030   3.308   3.990   1.832 -0.5273  0.6644 -0.9955
 2132SOL     OW18031   2.787   3.199  12.911 -0.0116 -0.0904  0.4264
 2132SOL    HW118032   2.772   3.116  12.865  0.5531  0.5294 -0.8943
 2132SOL    HW218033   2.707   3.244  12.883  0.7203 -0.1498 -1.8045
 2133SOL     OW18034   3.356   0.492  11.136  0.0068  0.6217  0.0077
 2133SOL    HW118035   3.377   0.526  11.223 -0.1606 -1.5576  0.9176
 2133SOL    HW218036   3.348   0.574  11.087  2.1525 -0.8880 -2.8781
 2134SOL     OW18037   2.075   2.665   8.606 -0.3439 -0.3974 -0.1125
 2134SOL    HW118038   2.016   2.734   8.575 -1.1490 -0.2674  1.6972
 2134SOL    HW218039   2.156   2.704   8.641  0.1841 -3.4448  2.0678
 2135SOL     OW18040   1.733   0.020   2.678  0.0996 -0.2610 -0.5359
 2135SOL    HW118041   1.811   0.001   2.625 -0.1249 -0.8665 -0.6502
 2135SOL    HW218042   1.664   4.713   2.629  0.1483 -0.3455 -0.5260
 2136SOL     OW18043   1.567   4.531   4.596 -0.6063 -0.4430 -0.4412
 2136SOL    HW118044   1.589   4.454   4.544  1.5817  0.7125 -1.2505
 2136SOL    HW218045   1.530   4.586   4.528 -2.4029 -0.0610  0.8341
 2137SOL     OW18046   3.859   0.811   5.571  0.9387 -0.1494 -0.0447
 2137SOL    HW118047   3.913   0.835   5.646 -0.2387  0.6477  0.5488
 2137SOL    HW218048   3.812   0.732   5.600  1.8480  0.2186  2.3886
 2138SOL     OW18049   4.562   0.057   4.483 -0.2023 -0.2763  0.4546
 2138SOL    HW118050   4.552   0.103   4.566 -2.1970  2.3718 -1.2753
 2138SOL    HW218051   4.656   0.060   4.464 -0.3160  0.7281  0.0867
 2139SOL     OW18052   1.610   0.059  15.099  0.3048  0.0631  0.1129
 2139SOL    HW118053   1.608   0.136  15.157 -5.5364  0.8675 -1.1148
 2139SOL    HW218054   1.686   0.073  15.043 -0.5828  0.0670 -1.1024
 2140SOL     OW18055   3.855   0.913   9.113  0.2188 -0.4072  0.4334
 2140SOL    HW118056   3.854   0.826   9.153  1.7559 -1.1615 -1.1308
 2140SOL    HW218057   3.808   0.954   9.185 -0.2854  1.1653 -0.7984
 2141SOL     OW18058   3.056   2.898  16.663  0.1942  0.2554  0.2903
 2141SOL    HW118059   3.049   2.993  16.678 -0.8510 -0.0396  1.6455
 2141SOL    HW218060   3.116   2.891  16.590 -0.6612  1.4038 -0.5295
 2142SOL     OW18061   1.266   2.052  15.732 -0.1546 -0.0033  0.8965
 2142SOL    HW118062   1.254   1.957  15.726 -2.5277  0.4698 -1.3797
 2142SOL    HW218063   1.251   2.074  15.641  0.6575 -0.3899  0.6702
 2143SOL     OW18064   3.938   1.974  11.956  0.3032 -0.2916 -0.0262
 2143SOL    HW118065   3.913   1.946  12.044 -1.0377 -0.3715 -0.4254
 2143SOL    HW218066   4.030   1.950  11.959 -0.0814 -1.6014  1.0948
 2144SOL     OW18067   0.817   2.146   2.677 -0.0562  0.4276  0.3212
 2144SOL    HW118068   0.762   2.224   2.684  0.7695  0.9170  1.2396
 2144SOL    HW218069   0.830   2.120   2.768  2.1413 -0.0824 -0.1524
 2145SOL     OW18070   2.923   0.494   3.163  0.0322  0.2120 -0.0492
 2145SOL    HW118071   3.015   0.485   3.190  0.2480  1.5309 -0.2909
 2145SOL    HW218072   2.910   0.588   3.150 -0.0758  0.1647 -0.2845
 2146SOL     OW18073   0.650   1.581   1.980 -0.1829  0.1779  0.2521
 2146SOL    HW118074   0.661   1.581   2.075 -2.1518 -1.3205  0.4859
 2146SOL    HW218075   0.674   1.490   1.964  2.6138  1.0200 -0.3421
 2147SOL     OW18076   2.628   4.669   2.951 -0.7033 -0.4422 -0.2993
 2147SOL    HW118077   2.667   4.645   3.034 -2.0198 -2.5714 -0.2835
 2147SOL    HW218078   2.545   4.712   2.973 -1.0705 -2.1526  1.6180
 2148SOL     OW18079   4.306   2.362   3.038  0.1074  1.1500  0.1612
 2148SOL    HW118080   4.346   2.296   2.981  0.8154 -1.3435  3.5156
 2148SOL    HW218081   4.285   2.326   3.124  1.0467  0.4845  0.1052
 2149SOL     OW18082   2.463   4.150   1.124  0.1310 -0.5251 -0.2482
 2149SOL    HW118083   2.433   4.071   1.078 -3.3196 -0.2483  1.4957
 2149SOL    HW218084   2.387   4.152   1.182 -1.2168 -0.5097 -1.9875
 2150SOL     OW18085   2.658   0.595   3.724  0.2157 -0.2255  0.4467
 2150SOL    HW118086   2.689   0.540   3.795 -0.3765 -0.6346  0.3836
 2150SOL    HW218087   2.646   0.526   3.659 -0.1475 -0.2455  0.5357
 2151SOL     OW18088   4.597   2.330   4.734 -0.3473 -0.2663 -0.8514
 2151SOL    HW118089   4.503   2.316   4.741 -0.5571  2.2770  1.2966
 2151SOL    HW218090   4.628   2.306   4.822 -0.7984 -0.5840 -0.7784
 2152SOL     OW18091   4.440   0.573  13.239  0.0059  0.3797  0.5482
 2152SOL    HW118092   4.424   0.555  13.331 -1.1201  0.5950  0.3926
 2152SOL    HW218093   4.374   0.641  13.229 -0.3704 -0.1590 -0.6444
 2153SOL     OW18094   3.071   1.372   4.781  0.1330 -0.4491 -0.9548
 2153SOL    HW118095   3.139   1.429   4.746  0.2066  0.1518  0.1488
 2153SOL    HW218096   3.042   1.325   4.703 -0.6608  0.8206 -1.4183
 2154SOL     OW18097   2.180   2.861   5.929 -0.4403  0.6545  0.0061
 2154SOL    HW118098   2.138   2.884   5.846 -1.1205 -2.0343 -0.3908
 2154SOL    HW218099   2.154   2.934   5.985 -0.1701  1.5372 -1.0293
 2155SOL     OW18100   1.637   2.574   4.864 -0.2239  0.3074 -0.3525
 2155SOL    HW118101   1.683   2.504   4.911  0.0760  0.6726 -0.0927
 2155SOL    HW218102   1.660   2.540   4.778  2.3955  4.3180 -1.2420
 2156SOL     OW18103   1.836   3.275  17.656  1.1101 -0.0691 -0.4241
 2156SOL    HW118104   1.858   3.182  17.652 -1.4202 -0.8764  3.5671
 2156SOL    HW218105   1.834   3.304  17.565  0.5161  1.1884 -0.0070
 2157SOL     OW18106   1.007   3.561   6.349  0.3728 -0.5339 -0.3058
 2157SOL    HW118107   0.948   3.489   6.371 -0.5292  0.3406  0.1644
 2157SOL    HW218108   0.947   3.635   6.364  0.1833 -0.5058 -1.1988
 2158SOL     OW18109   1.550   1.152   7.386  0.0672  0.4339  0.4166
 2158SOL    HW118110   1.496   1.213   7.438  2.0559  0.2373  2.6782
 2158SOL    HW218111   1.483   1.096   7.347 -0.4452  1.0684  0.3757
 2159SOL     OW18112   0.027   2.791   9.707 -0.0660  0.2589 -0.2189
 2159SOL    HW118113   0.048   2.756   9.794 -0.9103  0.6410  0.1328
 2159SOL    HW218114   4.736   2.875   9.742 -1.5571 -0.1909 -0.3725
 2160SOL     OW18115   4.227   2.806  13.599 -0.1158 -0.1284  0.4231
 2160SOL    HW118116   4.215   2.752  13.677  0.8619 -1.7657 -0.5616
 2160SOL    HW218117   4.195   2.890  13.633  0.4439  0.8892 -1.5767
 2161SOL     OW18118   3.603   4.218  17.463 -0.6337 -0.0823 -0.6911
 2161SOL    HW118119   3.624   4.302  17.506  0.8950 -1.8252  1.9762
 2161SOL    HW218120   3.562   4.246  17.381  0.6046  0.5761 -1.0912
 2162SOL     OW18121   1.530   0.371   8.346  0.4903 -0.0046 -0.6010
 2162SOL    HW118122   1.604   0.315   8.326  1.0858  0.6200 -0.1334
 2162SOL    HW218123   1.497   0.307   8.409  2.7825 -0.3177  0.2704
 2163SOL     OW18124   1.129   1.917   2.723 -0.7539 -0.9679  0.3861
 2163SOL    HW118125   1.053   1.872   2.684 -2.6642  1.2314  1.5898
 2163SOL    HW218126   1.183   1.848   2.761  0.8813  1.0284  1.6693
 2164SOL     OW18127   3.512   3.434   2.228 -0.8940 -0.5659  0.4647
 2164SOL    HW118128   3.442   3.440   2.293 -0.2480  0.8192  1.0335
 2164SOL    HW218129   3.510   3.526   2.202 -0.6510 -0.6275  0.2314
 2165SOL     OW18130   1.960   0.407   7.646  0.3023 -0.0987 -0.2008
 2165SOL    HW118131   1.962   0.502   7.657 -0.0551  0.2207 -2.8442
 2165SOL    HW218132   1.898   0.382   7.714  0.9769 -2.8609 -0.5853
 2166SOL     OW18133   4.633   1.869   5.596 -0.1199 -0.5603  0.0675
 2166SOL    HW118134   4.680   1.935   5.545 -4.1237  2.1439 -0.0943
 2166SOL    HW218135   4.699   1.832   5.655 -0.2163 -0.2449  0.3722
 2167SOL     OW18136   0.716   3.136  11.394 -0.1627 -0.1290 -0.4368
 2167SOL    HW118137   0.669   3.070  11.343  1.3974 -0.0883 -1.9438
 2167SOL    HW218138   0.784   3.156  11.329  0.8061  1.3171  1.0225
 2168SOL     OW18139   1.252   1.808  12.503  0.4319 -0.2718 -0.3209
 2168SOL    HW118140   1.237   1.741  12.570 -2.5410  0.1949 -0.5219
 2168SOL    HW218141   1.165   1.813  12.462 -0.8096 -4.4868  1.6831
 2169SOL     OW18142   0.306   1.244  12.253 -0.2562 -0.3391 -0.2079
 2169SOL    HW118143   0.255   1.166  12.231  0.8478 -1.0697 -0.2314
 2169SOL    HW218144   0.295   1.246  12.348  1.2381 -0.0581 -0.0422
 2170SOL     OW18145   4.383   1.904  10.734  0.5316  0.2533 -0.3324
 2170SOL    HW118146   4.360   1.813  10.715 -0.0376 -0.2864  3.0230
 2170SOL    HW218147   4.429   1.888  10.816  3.0987  0.7326 -1.6781
 2171SOL     OW18148   3.771   4.518  16.282 -0.3132 -0.1741 -0.2879
 2171SOL    HW118149   3.785   4.612  16.276  0.7413 -0.2450  0.9373
 2171SOL    HW218150   3.792   4.504  16.374 -0.9453  1.4539  0.0900
 2172SOL     OW18151   1.471   3.798   5.361 -0.7668  0.0874 -0.4065
 2172SOL    HW118152   1.502   3.888   5.373  1.7954 -0.6950 -1.1704
 2172SOL    HW218153   1.544   3.748   5.324 -0.9801  0.2862 -1.0847
 2173SOL     OW18154   4.227   4.555   5.228 -0.5106  0.0013 -0.4132
 2173SOL    HW118155   4.167   4.529   5.158  0.5207 -0.2513 -1.1972
 2173SOL    HW218156   4.312   4.539   5.186 -0.8397  1.2646 -1.5309
 2174SOL     OW18157   3.562   2.544   1.318 -0.2947 -0.3204  0.5759
 2174SOL    HW118158   3.532   2.621   1.367 -0.0408  0.6511 -0.8199
 2174SOL    HW218159   3.631   2.517   1.379  2.0456 -0.9398 -2.3702
 2175SOL     OW18160   2.929   1.394   4.082 -0.0370 -0.1039 -0.2810
 2175SOL    HW118161   2.855   1.363   4.134  0.9716  0.1350  1.2874
 2175SOL    HW218162   2.907   1.351   4.000 -1.4376 -1.4541  0.8112
 2176SOL     OW18163   4.607   4.688   5.756 -0.3080  0.1372 -0.1812
 2176SOL    HW118164   4.669   4.628   5.713  1.2540  0.7574  1.1806
 2176SOL    HW218165   4.671   0.013   5.789  1.6572 -1.5318 -0.7259
 2177SOL     OW18166   2.539   4.370  13.748 -0.1785 -0.2995 -0.1881
 2177SOL    HW118167   2.582   4.303  13.802 -0.3786 -0.8075 -0.6567
 2177SOL    HW218168   2.529   4.318  13.668  1.2200 -1.7623  0.5805
 2178SOL     OW18169   4.335   1.019   9.381  0.2509 -0.2675 -0.7300
 2178SOL    HW118170   4.321   1.106   9.420  0.8832 -0.2263 -0.5827
 2178SOL    HW218171   4.410   1.045   9.326  0.3603 -0.1701 -0.5369
 2179SOL     OW18172   3.891   1.134  15.337  0.0738 -0.4263 -0.4010
 2179SOL    HW118173   3.818   1.189  15.367 -0.4254 -1.8435  1.0126
 2179SOL    HW218174   3.846   1.049  15.333  0.8325 -0.9064  1.0301
 2180SOL     OW18175   3.102   2.595   1.137  0.1806 -0.2855 -0.2922
 2180SOL    HW118176   3.110   2.673   1.082  0.9200  0.3175  0.6609
 2180SOL    HW218177   3.078   2.526   1.076 -2.4877 -1.8300  2.4949
 2181SOL     OW18178   0.496   0.917   2.295 -0.8467  0.1071 -0.7404
 2181SOL    HW118179   0.402   0.921   2.314 -0.5212 -0.3526  0.9374
 2181SOL    HW218180   0.530   0.869   2.371  0.3684  1.2250 -0.5939
 2182SOL     OW18181   4.069   3.997   2.490 -0.4059 -0.1238  0.0392
 2182SOL    HW118182   4.156   3.986   2.452  0.2532 -4.3677  2.8264
 2182SOL    HW218183   4.051   4.080   2.445  2.3148 -0.4978 -1.7768
 2183SOL     OW18184   1.758   3.286   2.845  0.1633 -0.1236 -0.5147
 2183SOL    HW118185   1.724   3.305   2.757  0.4193 -0.0691 -0.6017
 2183SOL    HW218186   1.841   3.251   2.814  0.8536  0.3152  0.8788
 2184SOL     OW18187   2.420   3.972  11.515 -0.2653  0.1080  0.1213
 2184SOL    HW118188   2.485   3.908  11.543 -1.0787 -0.9594 -0.4191
 2184SOL    HW218189   2.361   3.961  11.590  0.7586  0.4607  0.9721
 2185SOL     OW18190   3.610   1.226  12.464 -0.3083  0.8212  0.3860
 2185SOL    HW118191   3.588   1.184  12.547  0.8663 -0.5508 -0.0042
 2185SOL    HW218192   3.580   1.170  12.394 -0.6404  0.1274  1.0841
 2186SOL     OW18193   1.250   4.018   3.103  0.8231 -0.2523 -0.5482
 2186SOL    HW118194   1.341   4.042   3.088  1.1537 -0.9672  0.3351
 2186SOL    HW218195   1.261   3.947   3.166 -1.9889 -0.2309 -0.0017
 2187SOL     OW18196   2.019   2.027   5.823 -0.3299 -0.0006 -0.1223
 2187SOL    HW118197   2.036   2.050   5.732 -1.4075  0.1889 -0.2787
 2187SOL    HW218198   1.927   2.046   5.842 -0.1693 -2.7773  3.3067
 2188SOL     OW18199   2.514   0.820   4.879  0.4996 -0.0821  0.3012
 2188SOL    HW118200   2.536   0.744   4.932 -0.3141 -0.5391 -0.0200
 2188SOL    HW218201   2.569   0.889   4.916  0.1012  0.1241  0.5184
 2189SOL     OW18202   2.675   4.564   5.239  0.0911 -0.9481  1.0599
 2189SOL    HW118203   2.720   4.524   5.313  0.9901  0.8311  1.4762
 2189SOL    HW218204   2.713   4.519   5.164 -0.2171  1.1072 -0.3116
 2190SOL     OW18205   3.640   3.288   0.984  0.5239 -0.1249 -0.5878
 2190SOL    HW118206   3.572   3.226   1.009  1.0123 -1.0913 -1.6172
 2190SOL    HW218207   3.694   3.233   0.927  1.9568  1.9086 -1.1687
 2191SOL     OW18208   0.684   3.550   7.793 -0.2231  0.3126 -0.4595
 2191SOL    HW118209   0.744   3.614   7.832 -0.1980 -0.2883  0.4709
 2191SOL    HW218210   0.611   3.548   7.854  1.4265  0.4888  1.5382
 2192SOL     OW18211   0.778   0.537  17.497 -0.4965  0.3297  0.5672
 2192SOL    HW118212   0.730   0.615  17.470 -0.7828 -0.3754 -0.9985
 2192SOL    HW218213   0.714   0.467  17.479 -1.5507  1.4862 -0.1784
 2193SOL     OW18214   0.103   3.187   3.073 -0.1104  0.1551  0.5398
 2193SOL    HW118215   0.159   3.262   3.093 -1.0633  0.6317  1.3778
 2193SOL    HW218216   0.074   3.158   3.159 -0.2556 -0.2181  0.3625
 2194SOL     OW18217   1.750   0.965   2.088 -0.4743  0.1245 -0.4724
 2194SOL    HW118218   1.714   0.907   2.155  0.9628 -0.4242 -0.1745
 2194SOL    HW218219   1.841   0.978   2.116 -1.3343  0.8523  1.9330
 2195SOL     OW18220   4.027   2.580  11.021 -0.3566  1.0218 -0.0808
 2195SOL    HW118221   3.961   2.575  10.951 -0.2045  2.2326 -0.3013
 2195SOL    HW218222   4.105   2.616  10.979 -0.4810  0.0979 -1.1071
 2196SOL     OW18223   1.468   4.085   2.378 -0.6537 -0.4076  0.3522
 2196SOL    HW118224   1.557   4.117   2.361 -0.9661  0.2136 -0.1202
 2196SOL    HW218225   1.476   4.053   2.467  1.4075  1.5992  0.8720
 2197SOL     OW18226   1.229   1.802   1.267 -0.0838 -0.4017 -0.0841
 2197SOL    HW118227   1.221   1.730   1.204 -1.9923 -0.7597  0.5576
 2197SOL    HW218228   1.160   1.784   1.332  1.0425 -1.2390  0.8916
 2198SOL     OW18229   3.895   3.037   3.138 -0.2861  0.4592  0.4955
 2198SOL    HW118230   3.828   3.105   3.147 -0.0010  1.0154 -1.6203
 2198SOL    HW218231   3.858   2.967   3.084 -0.3467  0.3777  0.6411
 2199SOL     OW18232   4.078   4.640   6.828 -0.7489  0.6881 -0.1211
 2199SOL    HW118233   4.132   4.615   6.753 -0.0426 -0.0123  0.6317
 2199SOL    HW218234   4.129   4.594   6.894 -3.5771 -1.1620  0.7512
 2200SOL     OW18235   3.055   1.826   8.870  0.4471 -0.3594 -0.3131
 2200SOL    HW118236   3.034   1.853   8.959  1.3500  2.0494 -0.8361
 2200SOL    HW218237   3.127   1.767   8.890 -1.0672 -3.2449 -3.4070
 2201SOL     OW18238   1.192   1.942   7.954 -0.4187 -0.1513  0.5306
 2201SOL    HW118239   1.242   1.869   7.990  0.3447  0.1040 -0.0028
 2201SOL    HW218240   1.248   1.982   7.887 -2.7334  0.3529 -1.1101
 2202SOL     OW18241   4.299   0.978   5.077  0.1948 -0.4359 -0.4712
 2202SOL    HW118242   4.361   0.914   5.044  0.1100 -1.4986  1.4427
 2202SOL    HW218243   4.330   0.976   5.168  0.3842 -0.6077 -0.5430
 2203SOL     OW18244   2.767   3.159   7.694  0.1776 -0.0783 -0.7466
 2203SOL    HW118245   2.701   3.229   7.704  1.3336  0.8305  0.5649
 2203SOL    HW218246   2.840   3.214   7.667 -0.3264  1.0289  0.1425
 2204SOL     OW18247   2.030   4.274   6.016 -0.1999 -0.2736  0.1526
 2204SOL    HW118248   2.022   4.203   6.080 -0.2322 -0.5089 -0.1142
 2204SOL    HW218249   1.944   4.315   6.026 -0.5697 -1.0635  0.1736
 2205SOL     OW18250   3.864   0.581   4.693  0.3684 -0.2633 -0.0719
 2205SOL    HW118251   3.777   0.562   4.660 -0.4905  2.0371  0.8708
 2205SOL    HW218252   3.914   0.601   4.614  0.3974  0.2770  0.0812
 2206SOL     OW18253   4.494   3.415   2.250 -0.3608 -0.1260  0.0245
 2206SOL    HW118254   4.531   3.488   2.299 -2.9400  0.3776  1.1875
 2206SOL    HW218255   4.508   3.344   2.312  1.9584 -0.2616 -0.6436
 2207SOL     OW18256   3.252   3.823   4.473 -0.1753  0.1314  0.0686
 2207SOL    HW118257   3.276   3.904   4.520  1.3352  0.8749 -1.9641
 2207SOL    HW218258   3.321   3.759   4.493  2.9235  2.8822 -1.6820
 2208SOL     OW18259   0.454   2.539   5.970  0.8306 -0.4593 -0.3324
 2208SOL    HW118260   0.386   2.586   6.018  1.4698 -1.5051  1.5904
 2208SOL    HW218261   0.518   2.516   6.037 -0.2768  1.0763  1.2717
 2209SOL     OW18262   3.735   1.700   4.063  0.3618 -0.0233  0.2183
 2209SOL    HW118263   3.759   1.750   3.985  1.1176 -1.8536 -0.7236
 2209SOL    HW218264   3.763   1.610   4.045 -0.9919 -0.3092 -0.4838
 2210SOL     OW18265   2.504   0.890  12.219 -0.5124  0.6358  0.5978
 2210SOL    HW118266   2.559   0.959  12.182 -0.9209  0.5991 -0.0656
 2210SOL    HW218267   2.437   0.883  12.152  0.0724 -1.1573  0.2160
 2211SOL     OW18268   0.992   4.653   2.773  0.0840 -0.1645 -0.2365
 2211SOL    HW118269   1.050   4.637   2.698 -0.7001 -0.0931 -0.8684
 2211SOL    HW218270   0.906   4.650   2.729  0.0279 -1.7042 -0.0158
 2212SOL     OW18271   0.290   2.115  12.736  0.3517  0.6980 -0.5165
 2212SOL    HW118272   0.229   2.081  12.671  0.4904 -2.9077  1.2263
 2212SOL    HW218273   0.374   2.113  12.690 -0.3563  1.0383 -1.8388
 2213SOL     OW18274   3.696   3.727   3.931  0.3818 -0.0889 -0.3496
 2213SOL    HW118275   3.689   3.635   3.907  3.2144 -0.2144 -0.6773
 2213SOL    HW218276   3.770   3.756   3.878 -0.2673 -2.7671 -2.7319
 2214SOL     OW18277   0.117   1.769  17.499  0.2112  0.1315  0.2039
 2214SOL    HW118278   0.080   1.798  17.583 -0.2709  0.3199 -0.0767
 2214SOL    HW218279   0.191   1.829  17.506  1.1363 -0.8499 -1.3700
 2215SOL     OW18280   4.318   2.866  16.245 -0.3637 -0.2614  0.0520
 2215SOL    HW118281   4.307   2.961  16.235 -0.6404 -0.4002 -0.9600
 2215SOL    HW218282   4.269   2.836  16.168 -0.9431  0.2797  0.2089
 2216SOL     OW18283   4.036   1.285   5.752  0.4623  0.9342  0.2085
 2216SOL    HW118284   3.971   1.242   5.808  1.2583 -0.2137  0.2492
 2216SOL    HW218285   4.022   1.244   5.667  0.9118  0.8049  0.1958
 2217SOL     OW18286   4.543   3.550   6.875  0.7341  0.5736 -0.4491
 2217SOL    HW118287   4.488   3.562   6.797  0.9796 -2.4941 -1.1333
 2217SOL    HW218288   4.628   3.575   6.839  1.3073  0.6715  0.9805
 2218SOL     OW18289   1.983   2.222  17.328  0.8509 -0.6396  0.2044
 2218SOL    HW118290   1.951   2.132  17.332  1.5452 -0.8878  0.2415
 2218SOL    HW218291   2.021   2.237  17.241 -0.3121  0.2111 -0.1550
 2219SOL     OW18292   3.667   1.848   1.440  0.3427 -0.1675 -0.1483
 2219SOL    HW118293   3.676   1.805   1.525  0.9560  1.7868  0.7776
 2219SOL    HW218294   3.581   1.809   1.422  0.1070 -0.6708  2.0338
 2220SOL     OW18295   4.237   2.447   2.176 -0.3186 -0.4414  1.0446
 2220SOL    HW118296   4.229   2.487   2.089  0.0767  2.1250  2.2098
 2220SOL    HW218297   4.318   2.400   2.151 -0.4711 -0.2795  0.2307
 2221SOL     OW18298   3.495   3.253  16.805  0.3378  0.2886 -0.7092
 2221SOL    HW118299   3.539   3.313  16.865 -0.1260 -1.4418  1.3344
 2221SOL    HW218300   3.518   3.173  16.852  2.9549  2.4141  1.5860
 2222SOL     OW18301   1.336   3.639   4.647 -0.2444  0.1871  0.3634
 2222SOL    HW118302   1.381   3.557   4.629 -1.7253 -0.8241  1.3225
 2222SOL    HW218303   1.390   3.677   4.716  2.4033  0.2928 -1.7641
 2223SOL     OW18304   3.026   3.612   5.755  0.1404 -0.3332 -0.8762
 2223SOL    HW118305   3.053   3.698   5.788  0.5114 -0.5718 -0.5530
 2223SOL    HW218306   3.073   3.551   5.812  0.9804 -0.1555 -1.3620
 2224SOL     OW18307   0.891   0.057   2.348 -0.0780 -0.0203 -0.6655
 2224SOL    HW118308   0.973   0.057   2.398 -1.6021  2.3580  1.8197
 2224SOL    HW218309   0.935   0.069   2.264 -1.3781 -0.2394 -1.3770
 2225SOL     OW18310   1.168   4.131   9.627 -0.2130  0.6950  0.1241
 2225SOL    HW118311   1.093   4.182   9.597 -0.6369  0.6808  1.1731
 2225SOL    HW218312   1.213   4.207   9.665  1.2019  0.3789 -0.9017
 2226SOL     OW18313   0.218   3.046   7.413 -0.2126 -0.2778  0.0592
 2226SOL    HW118314   0.186   3.095   7.338  0.2972 -1.1933 -0.7548
 2226SOL    HW218315   0.233   2.962   7.369  0.1207 -1.2586  2.0602
 2227SOL     OW18316   1.693   4.076   6.956 -0.0370  0.1154 -0.0790
 2227SOL    HW118317   1.605   4.112   6.953  1.2998  3.5309  1.7350
 2227SOL    HW218318   1.740   4.144   6.907  2.0744  0.1462  2.0015
 2228SOL     OW18319   4.511   1.649   3.045  0.0066 -0.1943  0.3406
 2228SOL    HW118320   4.473   1.629   3.131 -0.1982 -3.1643 -0.4320
 2228SOL    HW218321   4.562   1.569   3.032  2.9128  1.6555  0.2621
 2229SOL     OW18322   3.601   1.662   7.589  0.7553  0.1508 -0.1489
 2229SOL    HW118323   3.610   1.738   7.646  1.6734 -0.1729  0.1346
 2229SOL    HW218324   3.562   1.595   7.645  1.7860  0.0014  0.3718
 2230SOL     OW18325   0.636   3.001   8.858  0.2722 -0.0499  0.0541
 2230SOL    HW118326   0.603   3.032   8.942  1.3030  0.0065  0.4442
 2230SOL    HW218327   0.626   2.906   8.865 -0.2019 -0.0960 -1.1791
 2231SOL     OW18328   1.831   0.369  16.761 -0.5332  0.7414 -0.4629
 2231SOL    HW118329   1.873   0.434  16.817  2.7889 -0.4808 -1.5419
 2231SOL    HW218330   1.790   0.411  16.685 -1.5939 -0.1574 -0.3932
 2232SOL     OW18331   2.703   2.525   4.640  0.4954 -0.2850  0.1042
 2232SOL    HW118332   2.721   2.575   4.720  0.0072  0.7574 -0.4397
 2232SOL    HW218333   2.789   2.541   4.601 -0.6209  2.0888 -1.3935
 2233SOL     OW18334   0.849   2.342   2.062  0.0691 -0.1773  0.2511
 2233SOL    HW118335   0.868   2.249   2.052 -0.7939 -0.3965  0.6613
 2233SOL    HW218336   0.768   2.349   2.013  0.3245  3.3561  0.2935
 2234SOL     OW18337   0.466   0.534   4.494 -0.4102 -0.6197  0.0456
 2234SOL    HW118338   0.426   0.588   4.563  0.5031  1.3610 -0.9756
 2234SOL    HW218339   0.436   0.567   4.410  1.8531  0.7773 -0.2217
 2235SOL     OW18340   0.895   4.378   3.941  0.1880 -0.0752 -0.2340
 2235SOL    HW118341   0.815   4.327   3.933  0.6579 -0.8419 -0.0798
 2235SOL    HW218342   0.859   4.464   3.921 -1.4142 -0.5025  0.9187
 2236SOL     OW18343   1.676   4.385   2.436  0.4613 -0.3782 -0.1663
 2236SOL    HW118344   1.717   4.299   2.449  2.2194  0.7629  1.7862
 2236SOL    HW218345   1.729   4.416   2.363  0.7482 -0.6125 -0.0602
 2237SOL     OW18346   0.302   0.617  10.106  0.3403 -0.1057  0.3317
 2237SOL    HW118347   0.287   0.567  10.186 -1.0005  0.2991  0.3482
 2237SOL    HW218348   0.242   0.690  10.123  0.0037 -0.1863 -0.5132
 2238SOL     OW18349   1.735   2.286   9.415  0.2754  0.0102 -0.4362
 2238SOL    HW118350   1.655   2.335   9.397 -1.1606 -1.6224  1.5123
 2238SOL    HW218351   1.707   2.197   9.435  0.1362 -0.0012 -0.6870
 2239SOL     OW18352   4.483   2.995   5.428 -0.0378  0.3579 -0.5728
 2239SOL    HW118353   4.404   3.049   5.422  0.2486  1.1163  2.4640
 2239SOL    HW218354   4.505   2.975   5.337 -0.9715  0.0443 -0.7267
 2240SOL     OW18355   4.417   4.198   6.997  0.1014 -0.3656 -0.3395
 2240SOL    HW118356   4.497   4.149   6.981 -0.4431 -1.2931 -0.2114
 2240SOL    HW218357   4.423   4.244   7.081 -1.9594 -0.2758 -0.2424
 2241SOL     OW18358   3.791   4.697   3.772 -0.4027 -0.2838  0.6727
 2241SOL    HW118359   3.714   4.647   3.744 -0.1451 -0.2613 -0.0795
 2241SOL    HW218360   3.822   4.730   3.687 -0.1418 -0.0937  0.8442
 2242SOL     OW18361   3.968   1.207   7.645  0.2103  0.0620  0.0524
 2242SOL    HW118362   3.997   1.296   7.625 -2.9968  0.6820 -1.9323
 2242SOL    HW218363   4.021   1.162   7.579 -1.2621  0.7691 -1.6377
 2243SOL     OW18364   2.394   4.674   6.676 -0.8761  0.1461 -0.0406
 2243SOL    HW118365   2.354   0.008   6.725 -1.8456 -2.3524  2.8474
 2243SOL    HW218366   2.434   4.728   6.609  0.5798  3.0982  3.2104
 2244SOL     OW18367   2.191   3.877   2.105 -0.4133  0.1311  0.0444
 2244SOL    HW118368   2.282   3.846   2.097 -0.9258 -0.5085 -3.4470
 2244SOL    HW218369   2.172   3.885   2.011 -0.2700  3.9807  0.3754
 2245SOL     OW18370   0.405   4.359  13.806 -0.1969 -0.7312 -0.3671
 2245SOL    HW118371   0.411   4.380  13.899 -2.8484 -1.3759 -0.0375
 2245SOL    HW218372   0.412   4.448  13.771 -2.7030  0.8044  3.0244
 2246SOL     OW18373   4.507   0.529   9.575 -0.5430 -0.7768 -0.1783
 2246SOL    HW118374   4.588   0.478   9.576 -0.5206 -0.7384  0.8416
 2246SOL    HW218375   4.509   0.563   9.665 -0.3111 -1.8987  0.2415
 2247SOL     OW18376   4.692   4.434  15.695 -0.1974  0.1308 -0.7966
 2247SOL    HW118377   4.604   4.448  15.662 -0.8034  0.7649  1.0980
 2247SOL    HW218378   4.677   4.460  15.786  2.6274  1.9367 -0.8309
 2248SOL     OW18379   2.215   0.292   4.233 -0.5947 -0.1700 -0.1495
 2248SOL    HW118380   2.254   0.247   4.158  2.5216 -0.0794  1.4388
 2248SOL    HW218381   2.122   0.272   4.222 -0.3932 -0.3994 -1.4406
 2249SOL     OW18382   2.333   0.033   8.284  0.9935 -0.1853 -0.0918
 2249SOL    HW118383   2.258   0.066   8.333  1.2209  0.7793 -0.3930
 2249SOL    HW218384   2.404   0.022   8.348  0.2883 -1.4744  0.4643
 2250SOL     OW18385   4.008   2.003   4.550  0.4655 -0.2328 -0.8604
 2250SOL    HW118386   3.957   1.934   4.592  0.7691 -0.6612 -1.2042
 2250SOL    HW218387   4.063   2.028   4.625  0.1667  0.1703 -0.7708
 2251SOL     OW18388   4.447   0.166   2.192 -0.2943 -0.0154 -0.1655
 2251SOL    HW118389   4.379   0.233   2.180 -1.7751 -1.9263 -2.4004
 2251SOL    HW218390   4.501   0.203   2.122 -0.7731  2.5936  0.8451
 2252SOL     OW18391   2.815   0.426   5.102  0.1800  0.5407 -0.1954
 2252SOL    HW118392   2.765   0.349   5.128  0.0063  0.4833 -0.7126
 2252SOL    HW218393   2.897   0.382   5.079  1.2169  2.5870 -0.4224
 2253SOL     OW18394   2.463   3.374   4.709  0.2014 -0.4726 -0.2652
 2253SOL    HW118395   2.437   3.336   4.793 -2.6743 -0.8749 -1.3348
 2253SOL    HW218396   2.526   3.442   4.733 -0.9090  0.5462 -0.2606
 2254SOL     OW18397   3.438   0.083  14.013  0.1153 -0.4795 -0.0502
 2254SOL    HW118398   3.459   0.024  13.941 -1.1281 -1.2603  0.2394
 2254SOL    HW218399   3.356   0.122  13.983 -0.0223  0.4309  1.4878
 2255SOL     OW18400   0.303   0.488   9.685  0.1846  0.1821  0.2722
 2255SOL    HW118401   0.375   0.499   9.622  0.3032  0.8474  0.5243
 2255SOL    HW218402   0.346   0.496   9.770 -1.4382 -1.6195  1.2596
 2256SOL     OW18403   1.245   1.329   2.260 -0.1268 -0.1662  0.2304
 2256SOL    HW118404   1.306   1.347   2.190 -0.3140 -3.0350 -0.6535
 2256SOL    HW218405   1.296   1.346   2.339  0.1271  1.2019 -0.2294
 2257SOL     OW18406   0.669   1.261  13.801 -0.5103 -0.5107  0.0885
 2257SOL    HW118407   0.686   1.341  13.751 -2.6152  0.5667  1.0982
 2257SOL    HW218408   0.640   1.202  13.731 -2.0226  0.0508  0.2444
 2258SOL     OW18409   0.362   4.690  13.135 -0.6026 -0.6124  0.1556
 2258SOL    HW118410   0.364   4.594  13.135 -1.5010 -0.6320 -1.0578
 2258SOL    HW218411   0.454   4.717  13.145 -0.3406 -1.4909  0.0930
 2259SOL     OW18412   0.946   0.854   8.543  0.5205  0.9123 -0.2180
 2259SOL    HW118413   1.031   0.828   8.579  0.0753 -0.6891 -0.2864
 2259SOL    HW218414   0.963   0.947   8.554 -0.1185  1.0725 -0.6239
 2260SOL     OW18415   4.614   1.203   7.660  0.0993 -0.2676  0.5682
 2260SOL    HW118416   4.542   1.246   7.707 -0.0587  1.7690 -1.5683
 2260SOL    HW218417   4.658   1.281   7.629 -1.9017  0.2027 -1.1202
 2261SOL     OW18418   2.256   3.708   3.384  0.5368 -0.1190  0.4353
 2261SOL    HW118419   2.244   3.717   3.290  0.8217  1.3307  0.5422
 2261SOL    HW218420   2.168   3.720   3.422  0.8961  0.2460  1.1503
 2262SOL     OW18421   4.418   1.685   7.734  0.0753 -0.1442  0.4320
 2262SOL    HW118422   4.330   1.721   7.734 -1.0134 -2.8146 -0.4820
 2262SOL    HW218423   4.453   1.742   7.665 -1.6648  0.6611  0.2123
 2263SOL     OW18424   4.180   2.131   7.446  0.3916  0.3984  0.4274
 2263SOL    HW118425   4.146   2.045   7.423 -1.0761  0.7610  1.2697
 2263SOL    HW218426   4.254   2.145   7.386 -0.1793 -0.8142 -0.5529
 2264SOL     OW18427   0.131   3.258   4.848  0.7511  0.1826 -0.5520
 2264SOL    HW118428   0.197   3.310   4.803  1.1728 -0.4923 -0.7206
 2264SOL    HW218429   0.164   3.266   4.938 -0.6017 -0.6014  0.0129
 2265SOL     OW18430   3.531   0.852  10.281 -0.0318 -0.0894 -0.4539
 2265SOL    HW118431   3.583   0.856  10.200 -0.4429 -1.3518 -0.7825
 2265SOL    HW218432   3.514   0.762  10.307 -0.4147 -0.2734 -1.3368
 2266SOL     OW18433   0.267   1.317   8.098  0.0169  0.3078  0.3264
 2266SOL    HW118434   0.209   1.243   8.116 -1.1439  0.2971 -3.5798
 2266SOL    HW218435   0.276   1.366   8.180  1.2880 -2.3366  1.7484
 2267SOL     OW18436   0.202   4.016  16.977  0.1161  0.1555 -0.6419
 2267SOL    HW118437   0.149   4.093  16.995 -0.4095 -0.4004  0.1458
 2267SOL    HW218438   0.286   4.062  16.976  0.7275 -0.9436  0.2886
 2268SOL     OW18439   3.729   1.570   4.686  0.3103 -0.5266 -0.0107
 2268SOL    HW118440   3.707   1.641   4.747  0.1172 -1.3931  0.9388
 2268SOL    HW218441   3.792   1.619   4.634 -1.2922 -0.4057 -1.8236
 2269SOL     OW18442   0.511   4.184   5.957 -0.2832  0.1507  0.0687
 2269SOL    HW118443   0.550   4.106   5.918  1.0614  0.2564  1.2204
 2269SOL    HW218444   0.441   4.131   5.996 -1.3302  2.7327  1.7028
 2270SOL     OW18445   1.900   2.513   7.891 -0.7748  0.0997  0.2061
 2270SOL    HW118446   1.849   2.432   7.893  1.2643 -1.1383  0.8201
 2270SOL    HW218447   1.965   2.484   7.954 -1.0879  1.5398  1.2135
 2271SOL     OW18448   0.515   4.238   8.426  0.2414  0.4771  0.0076
 2271SOL    HW118449   0.554   4.151   8.441 -1.2707  0.1199  1.8691
 2271SOL    HW218450   0.474   4.254   8.511 -1.4959  0.8371 -0.9059
 2272SOL     OW18451   4.261   1.098   4.241 -0.2791 -0.1911 -0.1443
 2272SOL    HW118452   4.249   1.022   4.297  0.1337  1.4214  2.1191
 2272SOL    HW218453   4.346   1.132   4.272 -0.6635  0.3430  0.3209
 2273SOL     OW18454   1.278   1.779   2.479 -0.2756 -0.0448 -0.3914
 2273SOL    HW118455   1.189   1.799   2.451 -0.7957  0.7153  1.7563
 2273SOL    HW218456   1.317   1.867   2.476 -1.2969  0.3381 -2.1004
 2274SOL     OW18457   3.150   4.458   4.104 -0.4613  0.6327  0.0415
 2274SOL    HW118458   3.188   4.483   4.188 -2.3458  1.1796  0.7178
 2274SOL    HW218459   3.108   4.374   4.121 -1.8622  1.4131  0.3779
 2275SOL     OW18460   0.648   4.229   1.974 -0.0530 -0.4589 -0.0614
 2275SOL    HW118461   0.660   4.146   2.021  1.4666 -0.1753  0.0342
 2275SOL    HW218462   0.575   4.269   2.020  0.7159  1.3022 -0.3848
 2276SOL     OW18463   0.838   3.790   6.411 -0.2380 -0.0486 -0.0003
 2276SOL    HW118464   0.820   3.882   6.426  1.1857  0.2854 -0.3544
 2276SOL    HW218465   0.818   3.757   6.499 -1.3099  1.2501  0.2505
 2277SOL     OW18466   2.025   0.517  13.387  0.1793  0.1862 -0.0548
 2277SOL    HW118467   2.047   0.550  13.475  1.3750 -0.3326 -0.1574
 2277SOL    HW218468   2.103   0.471  13.355  0.4731  0.2184  0.6114
 2278SOL     OW18469   2.114   0.235   5.229  0.3101 -0.0772  0.4037
 2278SOL    HW118470   2.166   0.272   5.300  0.5784  1.7113 -0.7193
 2278SOL    HW218471   2.122   0.142   5.252  1.2661  0.1585  1.0010
 2279SOL     OW18472   0.132   4.388   4.079 -0.1057 -0.4544  0.6851
 2279SOL    HW118473   0.130   4.312   4.138 -0.6145 -0.6060  0.4769
 2279SOL    HW218474   0.071   4.449   4.120 -1.3832 -1.1831 -0.1306
 2280SOL     OW18475   4.029   3.186   2.201 -0.0926  0.2444 -0.2959
 2280SOL    HW118476   4.028   3.164   2.108 -0.5282 -0.0461 -0.2235
 2280SOL    HW218477   4.101   3.131   2.233 -1.1954 -1.6292 -1.0717
 2281SOL     OW18478   1.797   0.101   3.391  0.1433  0.0211  0.1849
 2281SOL    HW118479   1.768   0.166   3.327  0.3158 -1.1104 -1.0582
 2281SOL    HW218480   1.856   0.151   3.447  2.1693 -0.4840 -1.4907
 2282SOL     OW18481   1.462   0.230  12.658  0.3878 -0.0250  0.4567
 2282SOL    HW118482   1.517   0.247  12.734  1.4054 -0.4011 -0.1937
 2282SOL    HW218483   1.412   0.311  12.650 -2.0811 -1.7280 -1.4039
 2283SOL     OW18484   1.293   2.954   5.264 -0.9371 -0.3133  0.3628
 2283SOL    HW118485   1.225   2.937   5.328 -0.4398 -0.3693  0.8729
 2283SOL    HW218486   1.342   3.033   5.287  1.0388 -2.0806  2.2016
 2284SOL     OW18487   1.290   0.790   5.335  1.0198 -0.1648  0.6021
 2284SOL    HW118488   1.319   0.736   5.409 -0.5767 -2.5823 -0.5386
 2284SOL    HW218489   1.360   0.855   5.328 -1.3112  2.4073  1.1950
 2285SOL     OW18490   4.355   2.336   9.137  0.1583  0.2519  0.5564
 2285SOL    HW118491   4.324   2.395   9.206 -1.3219  1.0794 -0.7901
 2285SOL    HW218492   4.377   2.256   9.185  2.1242 -1.2471 -2.8122
 2286SOL     OW18493   1.521   1.811  16.203  0.4867  0.5298  0.1609
 2286SOL    HW118494   1.546   1.901  16.221  1.6617  0.0186  1.0621
 2286SOL    HW218495   1.528   1.768  16.288  2.6532 -0.1482 -0.3677
 2287SOL     OW18496   1.098   0.511   7.064 -0.0242  0.2231  0.1764
 2287SOL    HW118497   1.187   0.537   7.040  0.6054 -2.7087 -0.6823
 2287SOL    HW218498   1.092   0.537   7.156 -0.5883 -0.7401  0.4180
 2288SOL     OW18499   2.756   3.250   4.230  0.6164  0.4921 -0.0254
 2288SOL    HW118500   2.836   3.210   4.266  0.7050 -0.6506 -1.4791
 2288SOL    HW218501   2.786   3.326   4.180  0.5212  1.4698  1.3831
 2289SOL     OW18502   3.779   0.572   8.649 -0.6881 -0.2644  0.2739
 2289SOL    HW118503   3.783   0.655   8.601  0.3364 -0.9305 -0.7989
 2289SOL    HW218504   3.693   0.574   8.691 -0.6202 -0.3684  0.4176
 2290SOL     OW18505   1.482   4.458   4.234  0.0362  0.3101 -0.4644
 2290SOL    HW118506   1.449   4.542   4.202  1.4030  0.3588 -1.7946
 2290SOL    HW218507   1.412   4.398   4.210 -0.5509  0.3933  1.1079
 2291SOL     OW18508   0.831   4.657   3.362 -0.1577 -0.3025  0.3257
 2291SOL    HW118509   0.923   4.664   3.386  0.0806 -1.3858 -0.2826
 2291SOL    HW218510   0.790   4.717   3.425 -0.8222 -2.1279  1.6402
 2292SOL     OW18511   0.770   0.837  14.046  0.8895  0.0026 -0.0535
 2292SOL    HW118512   0.777   0.931  14.032  2.1675 -0.2243 -0.9414
 2292SOL    HW218513   0.856   0.807  14.075  0.0661 -1.8539  0.4658
 2293SOL     OW18514   2.805   0.720   2.985 -0.0566  0.2808  0.2926
 2293SOL    HW118515   2.867   0.685   2.921 -0.7612  0.1810 -0.3254
 2293SOL    HW218516   2.740   0.651   2.976 -0.3570  0.2486  2.7086
 2294SOL     OW18517   2.889   3.078   5.332 -0.0056 -0.8030  0.1325
 2294SOL    HW118518   2.855   3.077   5.242 -0.7134 -0.6449  0.3971
 2294SOL    HW218519   2.915   2.987   5.342 -0.7713 -1.1097 -0.6708
 2295SOL     OW18520   1.602   3.249  12.852  0.0568 -0.0407 -0.0936
 2295SOL    HW118521   1.647   3.168  12.876  1.2820  0.2766 -1.3041
 2295SOL    HW218522   1.570   3.219  12.767  2.7899 -2.5338 -0.2504
 2296SOL     OW18523   4.625   1.147  11.103 -0.2307 -0.1392 -0.2828
 2296SOL    HW118524   4.574   1.087  11.157 -0.6293  0.7428  0.3194
 2296SOL    HW218525   4.684   1.081  11.066 -0.6604 -0.1906 -0.8805
 2297SOL     OW18526   0.329   0.455   4.935 -0.6324 -0.0659  0.3567
 2297SOL    HW118527   0.371   0.457   5.022  1.0016  0.6241 -0.4515
 2297SOL    HW218528   0.247   0.412   4.959  0.5613 -2.7366 -0.3116
 2298SOL     OW18529   0.687   4.334  16.380 -0.0761  0.1228  0.0209
 2298SOL    HW118530   0.635   4.264  16.340 -0.2551 -1.1886  2.5726
 2298SOL    HW218531   0.725   4.377  16.303  1.7777 -0.5367  0.5598
 2299SOL     OW18532   2.625   3.091  11.342 -0.3691  0.0302 -0.0325
 2299SOL    HW118533   2.702   3.112  11.289 -1.6228  2.0287 -1.0724
 2299SOL    HW218534   2.583   3.176  11.333 -1.6766 -0.3286  2.9784
 2300SOL     OW18535   2.998   3.514   3.710  0.0084 -0.3009  0.2414
 2300SOL    HW118536   3.050   3.565   3.772 -0.5705 -0.4988  0.9043
 2300SOL    HW218537   3.068   3.454   3.688  1.3063  1.1915  0.2976
 2301SOL     OW18538   3.303   3.485   6.191 -0.4893  0.9777  0.1007
 2301SOL    HW118539   3.232   3.458   6.249 -1.1547  2.6858  0.0632
 2301SOL    HW218540   3.371   3.516   6.250 -0.0547 -3.7484  2.1159
 2302SOL     OW18541   2.280   4.737   9.583 -0.8178  0.0460 -0.0552
 2302SOL    HW118542   2.376   0.006   9.582 -0.9128  1.2684 -0.3044
 2302SOL    HW218543   2.262   4.659   9.636 -2.3523  1.4421  1.4411
 2303SOL     OW18544   1.620   0.148   8.123 -0.3145 -0.4100 -0.1976
 2303SOL    HW118545   1.603   0.054   8.125 -0.6149 -0.3607 -0.3551
 2303SOL    HW218546   1.715   0.144   8.120 -0.2561  1.3824 -1.1402
 2304SOL     OW18547   0.142   1.830  10.936  0.0318 -0.7423  0.0837
 2304SOL    HW118548   0.191   1.764  10.984  1.0048  1.2385  1.8046
 2304SOL    HW218549   0.059   1.826  10.983 -1.9202  1.2957 -3.1765
 2305SOL     OW18550   2.162   2.303   9.191 -0.3682  0.1444 -0.3891
 2305SOL    HW118551   2.096   2.249   9.148  0.4374 -1.2433  0.1354
 2305SOL    HW218552   2.248   2.265   9.171 -0.0052  1.8372 -2.0718
 2306SOL     OW18553   2.983   0.807   4.432 -0.0620  0.6397 -0.2941
 2306SOL    HW118554   2.941   0.892   4.445  0.5607  0.7426  1.1002
 2306SOL    HW218555   3.054   0.807   4.496 -2.4393 -1.2942  2.3276
 2307SOL     OW18556   0.841   3.232   1.617  0.3265 -0.1871 -0.3383
 2307SOL    HW118557   0.862   3.166   1.683  1.3498  0.5686  0.0944
 2307SOL    HW218558   0.816   3.177   1.543  2.2010 -1.5446  0.0601
 2308SOL     OW18559   0.224   4.280  15.414  0.2445 -0.2549 -0.1482
 2308SOL    HW118560   0.229   4.365  15.458 -0.5521  0.2164 -0.9601
 2308SOL    HW218561   0.141   4.246  15.449 -1.0770  2.6416 -0.4234
 2309SOL     OW18562   2.773   0.736   6.255 -0.1849 -0.0687  0.1950
 2309SOL    HW118563   2.685   0.718   6.223 -0.3930  1.5401 -0.1571
 2309SOL    HW218564   2.743   0.769   6.339  1.2776  0.3488  0.5552
 2310SOL     OW18565   1.480   1.203   7.015 -0.5267 -0.2533 -0.3418
 2310SOL    HW118566   1.438   1.131   7.062 -0.0655 -0.4180 -0.1871
 2310SOL    HW218567   1.418   1.240   6.952 -1.4139 -1.4086 -0.1526
 2311SOL     OW18568   3.057   4.353  12.885  0.0509 -0.4891  0.3178
 2311SOL    HW118569   3.082   4.296  12.812 -0.2559  1.2397 -1.1353
 2311SOL    HW218570   3.101   4.318  12.963 -0.4718 -4.3542 -1.1392
 2312SOL     OW18571   0.185   4.140   9.819  0.2731  0.4506 -0.1726
 2312SOL    HW118572   0.165   4.118   9.728 -2.3580  1.5418  0.1477
 2312SOL    HW218573   0.097   4.149   9.856  1.3010 -0.7534  2.5549
 2313SOL     OW18574   3.987   4.606   6.162 -0.2565 -0.4096  0.1495
 2313SOL    HW118575   3.934   4.544   6.213 -0.4145 -0.9251 -0.6318
 2313SOL    HW218576   4.061   4.550   6.141  0.3650  0.1234  0.9448
 2314SOL     OW18577   3.825   1.380   0.865  0.5966 -0.5334  0.0977
 2314SOL    HW118578   3.845   1.288   0.883 -0.9914 -1.0730 -0.8350
 2314SOL    HW218579   3.796   1.378   0.774 -0.9515 -0.0048  0.5835
 2315SOL     OW18580   3.889   0.189   3.451  1.0134  0.6512 -0.5545
 2315SOL    HW118581   3.863   0.115   3.396 -0.3077  3.3009 -3.5570
 2315SOL    HW218582   3.807   0.207   3.496  1.4811  0.9218  0.1909
 2316SOL     OW18583   2.553   1.240  17.270 -0.1919  0.2207 -0.3200
 2316SOL    HW118584   2.495   1.237  17.346  1.0581  1.5168  0.6987
 2316SOL    HW218585   2.481   1.250  17.208 -1.0751  0.9761  0.8171
 2317SOL     OW18586   0.232   3.032   2.139  0.0169  0.0014  0.1120
 2317SOL    HW118587   0.192   3.106   2.094  0.8120 -0.1104 -0.7603
 2317SOL    HW218588   0.212   2.953   2.088 -0.2163 -0.2507  0.5902
 2318SOL     OW18589   0.005   2.527   4.603  0.4393 -0.5474 -0.4958
 2318SOL    HW118590   4.705   2.559   4.685 -0.2490 -0.3251 -0.8999
 2318SOL    HW218591   4.711   2.436   4.609  1.6354 -0.7878  2.0162
 2319SOL     OW18592   1.385   2.452   5.885  0.0853  0.2955 -0.5959
 2319SOL    HW118593   1.374   2.453   5.980 -0.4131 -0.8537 -0.6357
 2319SOL    HW218594   1.373   2.543   5.860 -1.5792 -0.5626 -2.9515
 2320SOL     OW18595   0.479   2.411   1.424 -0.3264 -0.1860  0.2752
 2320SOL    HW118596   0.488   2.497   1.465  0.1187 -0.4720  0.7749
 2320SOL    HW218597   0.571   2.386   1.433 -0.3386 -0.6332 -0.7549
 2321SOL     OW18598   0.961   2.548   3.704 -0.5326  0.4256 -0.0855
 2321SOL    HW118599   1.033   2.601   3.737 -0.5684 -0.5249  1.5533
 2321SOL    HW218600   0.942   2.585   3.619  0.5495 -2.1631 -1.4576
 2322SOL     OW18601   1.600   3.489   3.039 -0.2032 -0.2752 -1.0083
 2322SOL    HW118602   1.575   3.510   2.948 -0.2425 -0.7556 -1.1078
 2322SOL    HW218603   1.678   3.436   3.021  0.2947 -0.6633  2.3049
 2323SOL     OW18604   1.555   3.895  12.996 -0.4995 -0.0088  0.2199
 2323SOL    HW118605   1.535   3.982  12.960  0.2284  0.0892  0.0463
 2323SOL    HW218606   1.645   3.890  12.965 -0.7625 -0.4834 -0.4750
 2324SOL     OW18607   1.405   0.816   1.907  0.1048  0.0295  0.3907
 2324SOL    HW118608   1.499   0.819   1.891  0.0571 -1.3121 -0.1383
 2324SOL    HW218609   1.398   0.898   1.956  0.4619  0.0628  0.3853
 2325SOL     OW18610   4.375   1.431   2.086  0.2471 -0.3288 -0.4330
 2325SOL    HW118611   4.429   1.467   2.016 -1.3128  1.3292 -0.7991
 2325SOL    HW218612   4.415   1.475   2.161  1.8049 -1.8081 -0.4267
 2326SOL     OW18613   0.744   1.256   4.377  0.2077 -0.1854 -0.2505
 2326SOL    HW118614   0.818   1.308   4.408  0.3801 -0.7354  0.2647
 2326SOL    HW218615   0.779   1.167   4.374 -2.1049 -1.1034  0.2767
 2327SOL     OW18616   0.697   4.434   9.553  0.2663  0.2931 -0.1168
 2327SOL    HW118617   0.737   4.478   9.628 -3.0814  2.2740  0.5089
 2327SOL    HW218618   0.720   4.343   9.573 -0.5553  0.0348 -0.3219
 2328SOL     OW18619   0.439   3.685   5.091 -0.0754 -0.2085 -0.0582
 2328SOL    HW118620   0.492   3.751   5.136  0.2610  0.5381 -1.5388
 2328SOL    HW218621   0.459   3.712   5.001  0.2755  0.1271  0.1214
 2329SOL     OW18622   3.115   4.731   6.217 -0.1695 -0.6584  0.5924
 2329SOL    HW118623   3.131   0.067   6.276  1.2351  1.0131 -1.8597
 2329SOL    HW218624   3.148   0.021   6.132  0.8745  3.9892  2.5065
 2330SOL     OW18625   0.545   3.151  12.761  0.2459  0.5300  0.0883
 2330SOL    HW118626   0.576   3.063  12.742 -1.2189 -0.2207  1.1860
 2330SOL    HW218627   0.449   3.152  12.770  0.3436  1.5265  1.0557
 2331SOL     OW18628   0.530   1.073   5.059  0.4001 -0.3755 -0.7063
 2331SOL    HW118629   0.597   1.005   5.062  0.2620 -0.3803  1.9670
 2331SOL    HW218630   0.584   1.150   5.043 -0.7038  1.0794  2.6985
 2332SOL     OW18631   0.804   0.592   3.921  0.0510  0.1988  0.0063
 2332SOL    HW118632   0.752   0.512   3.920  0.7569 -0.2624  0.0092
 2332SOL    HW218633   0.795   0.625   4.010 -3.2964  1.6610 -0.8586
 2333SOL     OW18634   1.762   0.903  13.299  0.0326 -0.2502  0.4480
 2333SOL    HW118635   1.810   0.959  13.360 -0.3228  0.9626 -0.3685
 2333SOL    HW218636   1.691   0.885  13.360 -1.0012 -1.5210 -1.1359
 2334SOL     OW18637   3.118   1.539  11.155  0.3752 -0.4282 -0.0231
 2334SOL    HW118638   3.149   1.628  11.172 -0.4875 -0.0437 -0.4596
 2334SOL    HW218639   3.115   1.529  11.059  0.6235  0.0417 -0.0827
 2335SOL     OW18640   1.207   0.219   7.382  0.7710  0.5993  0.1691
 2335SOL    HW118641   1.198   0.133   7.341 -0.4163 -0.2089  2.0944
 2335SOL    HW218642   1.272   0.261   7.326  0.2333  0.3014 -0.6813
 2336SOL     OW18643   3.104   3.658   7.819  0.0134 -0.2170  0.5660
 2336SOL    HW118644   3.015   3.625   7.806 -0.5882  1.1458  1.1642
 2336SOL    HW218645   3.146   3.609   7.748 -2.2074  0.1942 -1.0286
 2337SOL     OW18646   4.388   4.400   9.681  0.5814 -0.0114  0.6688
 2337SOL    HW118647   4.475   4.364   9.699  0.8073  0.8812  1.3320
 2337SOL    HW218648   4.393   4.395   9.585 -0.9230  0.8270  0.5493
 2338SOL     OW18649   4.011   0.950   4.038 -0.7862  0.4071  0.4028
 2338SOL    HW118650   4.066   0.893   4.093 -2.2808 -0.3370  1.1149
 2338SOL    HW218651   3.991   0.908   3.954 -1.6615 -1.0782  1.3513
 2339SOL     OW18652   3.846   1.360   3.009 -0.0051 -0.2079 -0.0930
 2339SOL    HW118653   3.792   1.403   2.943 -1.1349 -0.7132  0.5012
 2339SOL    HW218654   3.804   1.275   3.021  0.8233 -0.4263  1.3251
 2340SOL     OW18655   3.728   3.414   3.873  0.6934 -0.1963 -0.5422
 2340SOL    HW118656   3.806   3.429   3.926  1.1986  0.2590 -1.4091
 2340SOL    HW218657   3.726   3.319   3.859 -2.8107 -0.2950  0.5460
 2341SOL     OW18658   4.206   0.347  12.876  0.2049 -0.8010 -0.0144
 2341SOL    HW118659   4.182   0.271  12.824 -2.0686  0.9461 -1.5561
 2341SOL    HW218660   4.167   0.418  12.824  1.7639  1.0704  1.3397
 2342SOL     OW18661   0.270   3.907   4.383  0.3960 -0.3270 -0.0531
 2342SOL    HW118662   0.297   3.838   4.443 -1.1215 -1.2051 -0.3681
 2342SOL    HW218663   0.287   3.985   4.435 -2.3160  0.5382 -0.4241
 2343SOL     OW18664   1.981   4.636   1.390  0.1628 -0.5764 -0.2989
 2343SOL    HW118665   2.022   4.573   1.450  0.9450  0.2233  0.0157
 2343SOL    HW218666   2.009   4.723   1.419 -1.4060  0.7045 -2.6488
 2344SOL     OW18667   1.627   3.694   6.739 -0.0046 -0.1864 -0.2714
 2344SOL    HW118668   1.654   3.657   6.823  0.0706  0.7053  0.1060
 2344SOL    HW218669   1.546   3.646   6.727 -0.2435  0.1049  0.1498
 2345SOL     OW18670   0.748   3.165   0.627 -0.2991  0.2586 -0.4444
 2345SOL    HW118671   0.710   3.243   0.587 -0.3499  0.5803  0.2308
 2345SOL    HW218672   0.840   3.194   0.628 -0.1157 -0.3255 -0.3710
 2346SOL     OW18673   0.365   1.252  10.977 -0.5197 -0.0030 -0.5453
 2346SOL    HW118674   0.400   1.199  11.048 -2.4779 -1.2190 -0.4912
 2346SOL    HW218675   0.300   1.303  11.024 -2.3054 -1.4197 -1.4747
 2347SOL     OW18676   0.840   3.662   5.132  0.1378 -0.3179  0.1084
 2347SOL    HW118677   0.918   3.701   5.172 -0.4867  1.1717 -0.1220
 2347SOL    HW218678   0.771   3.720   5.164  2.1117  0.0743  3.6577
 2348SOL     OW18679   1.305   3.049  11.190  0.1297  0.6170  0.3006
 2348SOL    HW118680   1.369   3.120  11.202  1.6269 -0.4185 -1.5182
 2348SOL    HW218681   1.319   3.039  11.096  0.1280 -0.3126  0.4043
 2349SOL     OW18682   2.216   1.954   5.327 -0.0427 -0.4214  0.1107
 2349SOL    HW118683   2.181   1.950   5.416 -3.4043  1.6774 -1.1389
 2349SOL    HW218684   2.294   1.905   5.353  0.1191 -0.6579 -0.8145
 2350SOL     OW18685   2.467   2.107   4.456 -0.0929  0.1619  0.6483
 2350SOL    HW118686   2.551   2.131   4.495  0.3664  0.0716 -0.2885
 2350SOL    HW218687   2.497   2.042   4.392 -0.6178  1.5795 -1.0424
 2351SOL     OW18688   2.436   0.324   5.257  0.1803 -0.4585  0.6254
 2351SOL    HW118689   2.385   0.245   5.272  3.4315 -2.2386  2.2763
 2351SOL    HW218690   2.388   0.390   5.308  2.0718  0.7123  0.8908
 2352SOL     OW18691   2.617   2.201   5.098 -0.1782 -0.0621  0.4037
 2352SOL    HW118692   2.629   2.280   5.151 -1.3641 -1.0378  2.1339
 2352SOL    HW218693   2.630   2.131   5.162 -1.9264 -2.6849 -2.0898
 2353SOL     OW18694   0.429   2.771   8.140 -0.0010  0.1541  0.7308
 2353SOL    HW118695   0.427   2.698   8.202 -0.5829 -0.4274  0.0350
 2353SOL    HW218696   0.342   2.809   8.153 -0.3591 -0.0060 -1.2679
 2354SOL     OW18697   3.735   2.607   5.989  0.1548  0.1458  0.0423
 2354SOL    HW118698   3.760   2.696   5.966  1.2557  0.0532  0.9290
 2354SOL    HW218699   3.772   2.602   6.077 -0.6865 -1.4089  0.3214
 2355SOL     OW18700   3.940   1.455  17.083 -0.3103  0.5474 -0.6476
 2355SOL    HW118701   3.968   1.446  17.175 -1.9942  2.5851  0.0510
 2355SOL    HW218702   3.851   1.423  17.093  0.8305 -1.9302  1.8966
 2356SOL     OW18703   0.386   2.442   7.233  0.5695 -0.6609  0.2202
 2356SOL    HW118704   0.432   2.364   7.202 -0.4206 -1.1342 -0.0711
 2356SOL    HW218705   0.352   2.399   7.311 -3.5392 -0.1439 -1.2544
 2357SOL     OW18706   4.430   4.290   5.335 -0.1639  0.7919 -0.2267
 2357SOL    HW118707   4.506   4.346   5.349  0.3350  0.1645 -0.4442
 2357SOL    HW218708   4.471   4.204   5.320 -0.1975  0.2958  2.5880
 2358SOL     OW18709   4.382   1.332  11.861  0.0889  0.2476 -0.0865
 2358SOL    HW118710   4.326   1.257  11.883  0.6915 -0.2450 -0.2011
 2358SOL    HW218711   4.470   1.293  11.864  0.8045  1.7415 -1.6625
 2359SOL     OW18712   3.285   2.459  16.352  0.4051  0.0785  0.4177
 2359SOL    HW118713   3.191   2.467  16.336  0.6606  1.9530 -0.1364
 2359SOL    HW218714   3.320   2.449  16.264 -1.0384 -1.4548  0.0229
 2360SOL     OW18715   3.837   1.449  13.785 -0.1471 -0.0573 -0.2839
 2360SOL    HW118716   3.795   1.380  13.733  1.9718 -0.7834 -1.0265
 2360SOL    HW218717   3.774   1.447  13.858  0.4331  0.0561  0.2262
 2361SOL     OW18718   0.436   2.931   4.943 -0.7771  0.1392 -0.4282
 2361SOL    HW118719   0.522   2.940   4.903 -0.4327 -1.4888 -0.0608
 2361SOL    HW218720   0.402   2.864   4.883 -1.8307  1.3910 -1.2173
 2362SOL     OW18721   1.188   4.464   9.423 -0.1970 -0.2165  0.1463
 2362SOL    HW118722   1.270   4.501   9.454 -1.9228  1.4024  2.7869
 2362SOL    HW218723   1.207   4.441   9.332  3.7711 -0.9466  1.1890
 2363SOL     OW18724   3.689   0.001   7.271  0.6724 -0.2522  0.1389
 2363SOL    HW118725   3.771   0.022   7.228 -0.0803  1.4323 -0.4712
 2363SOL    HW218726   3.668   4.664   7.216  2.0825 -0.0968 -0.6060
 2364SOL     OW18727   2.084   0.471  11.658  0.0957 -0.7186 -0.2698
 2364SOL    HW118728   2.105   0.537  11.592 -1.4900 -0.2217 -0.2874
 2364SOL    HW218729   2.157   0.478  11.719  0.4988 -0.5973 -0.7655
 2365SOL     OW18730   1.582   4.052   3.393 -0.3321  0.0627  0.2099
 2365SOL    HW118731   1.641   4.119   3.426 -2.4539  2.3904 -0.7317
 2365SOL    HW218732   1.508   4.072   3.450  0.6978  2.0707  0.8173
 2366SOL     OW18733   1.411   4.171   6.241 -0.1315  0.0411  0.3573
 2366SOL    HW118734   1.351   4.193   6.312 -0.2612  0.5162  0.0994
 2366SOL    HW218735   1.464   4.109   6.290 -0.3380 -0.3792  0.0458
 2367SOL     OW18736   0.585   2.045   4.388  0.0001 -0.3324  0.0881
 2367SOL    HW118737   0.580   2.084   4.475 -0.9875  0.7781 -0.4567
 2367SOL    HW218738   0.547   1.958   4.400  0.0303 -0.2536  0.7578
 2368SOL     OW18739   4.260   0.707   8.955 -0.0327  0.1033  0.2406
 2368SOL    HW118740   4.197   0.684   8.886  0.3431  0.3283 -0.1757
 2368SOL    HW218741   4.224   0.793   8.977 -0.9385  0.3017 -1.9317
 2369SOL     OW18742   0.913   4.235   1.873  0.7683  0.8050  0.4218
 2369SOL    HW118743   0.949   4.242   1.961 -1.5184  2.5924  1.2170
 2369SOL    HW218744   0.819   4.246   1.887  0.6584  1.4932 -0.8119
 2370SOL     OW18745   2.652   2.959  12.757  0.1637  0.5912 -0.1985
 2370SOL    HW118746   2.588   2.927  12.821 -0.0626 -1.7304 -1.5725
 2370SOL    HW218747   2.626   2.926  12.671 -2.3311  1.1133  0.3658
 2371SOL     OW18748   3.580   4.437  17.606  0.5604  0.0416 -0.6692
 2371SOL    HW118749   3.608   4.426  17.697 -2.8684 -0.0022  0.3982
 2371SOL    HW218750   3.596   4.530  17.592  0.9555 -0.1286 -1.3352
 2372SOL     OW18751   2.266   4.096   2.468 -0.0144 -0.2194 -0.0652
 2372SOL    HW118752   2.319   4.170   2.439 -1.5181  0.7575 -0.3076
 2372SOL    HW218753   2.215   4.137   2.538 -2.2978 -1.0981 -1.1965
 2373SOL     OW18754   4.526   4.720  17.427  0.1277 -0.4908  1.1356
 2373SOL    HW118755   4.527   0.000  17.334 -2.6484  1.5388  1.4966
 2373SOL    HW218756   4.443   4.673  17.428  0.0499 -0.3688 -0.3337
 2374SOL     OW18757   0.526   0.711   9.038  0.4533  0.1595  0.1303
 2374SOL    HW118758   0.562   0.668   8.961 -0.4654 -0.5723  0.1007
 2374SOL    HW218759   0.563   0.652   9.103 -0.2533  0.5021  0.8474
 2375SOL     OW18760   3.636   3.286   4.383  0.2901 -0.3535 -0.0418
 2375SOL    HW118761   3.720   3.240   4.380 -0.4628 -1.6979  0.0490
 2375SOL    HW218762   3.608   3.261   4.471  1.2594  0.9232  0.6348
 2376SOL     OW18763   4.087   2.816  11.245 -0.1806 -0.3019 -0.4739
 2376SOL    HW118764   4.060   2.783  11.330 -0.8041 -1.1044 -0.9845
 2376SOL    HW218765   4.149   2.754  11.207 -1.1818 -0.1488 -2.4104
 2377SOL     OW18766   3.051   3.295   4.807 -0.1275  0.1036 -0.8021
 2377SOL    HW118767   3.130   3.262   4.849 -0.6143 -0.6009 -0.4510
 2377SOL    HW218768   3.079   3.348   4.732 -1.8956  1.4935 -0.4971
 2378SOL     OW18769   0.882   2.115   3.448 -0.2605  0.3140  0.0428
 2378SOL    HW118770   0.910   2.205   3.465 -0.1640  0.1969  0.5026
 2378SOL    HW218771   0.875   2.078   3.536 -1.1165 -1.8819 -0.9342
 2379SOL     OW18772   2.179   3.950   6.132  0.0240  0.0882 -0.3119
 2379SOL    HW118773   2.092   3.989   6.133  0.0147  0.0757 -0.5896
 2379SOL    HW218774   2.186   3.949   6.227 -0.9722  1.1861 -0.2267
 2380SOL     OW18775   4.582   4.227   5.634  0.2607  0.4613  0.4945
 2380SOL    HW118776   4.631   4.256   5.710  2.1611 -0.8195 -0.2209
 2380SOL    HW218777   4.542   4.309   5.606 -0.1810 -0.1115 -0.5505
 2381SOL     OW18778   4.380   2.829   6.221 -0.5084  0.5190  0.1531
 2381SOL    HW118779   4.471   2.806   6.206 -0.9368 -0.7809 -0.4192
 2381SOL    HW218780   4.349   2.850   6.133  1.4572 -1.8574 -1.0779
 2382SOL     OW18781   2.025   2.391  14.449  0.1229 -0.3292  0.4783
 2382SOL    HW118782   1.946   2.340  14.463 -0.0451 -0.1043  0.3600
 2382SOL    HW218783   2.024   2.385  14.354 -1.7357  0.5721  0.4379
 2383SOL     OW18784   4.279   2.730   4.330  0.3460  0.4374 -0.2657
 2383SOL    HW118785   4.265   2.752   4.238 -1.3192  1.7294  0.3017
 2383SOL    HW218786   4.203   2.677   4.354 -0.6206  2.3204  0.8864
 2384SOL     OW18787   1.450   4.357   3.691 -0.6024 -0.7036  0.4036
 2384SOL    HW118788   1.467   4.290   3.623  0.3072 -1.2211  1.1302
 2384SOL    HW218789   1.380   4.404   3.647 -1.3014 -3.3525 -1.3753
 2385SOL     OW18790   3.244   4.194   1.129 -0.1773 -0.7172 -0.6534
 2385SOL    HW118791   3.153   4.209   1.104  0.0148  0.1179 -0.8355
 2385SOL    HW218792   3.293   4.210   1.048  0.9957  1.8997  0.5983
 2386SOL     OW18793   0.621   2.520  15.361 -0.0178  0.4761  0.0834
 2386SOL    HW118794   0.584   2.608  15.356  1.6596  1.2257  1.0756
 2386SOL    HW218795   0.715   2.535  15.353 -0.0758  0.1918 -1.0942
 2387SOL     OW18796   1.273   0.463   7.767  0.5105  0.6076  0.4177
 2387SOL    HW118797   1.351   0.430   7.722 -0.0637 -1.0586  0.6453
 2387SOL    HW218798   1.215   0.489   7.695  0.7339 -0.2951 -0.0935
 2388SOL     OW18799   3.449   0.960   1.547  0.4697 -0.7677 -0.5677
 2388SOL    HW118800   3.400   1.016   1.486 -0.1483 -0.5297  0.1536
 2388SOL    HW218801   3.514   0.937   1.480 -0.1022 -1.5585 -0.8532
 2389SOL     OW18802   4.203   4.283   5.030  0.2280  0.6118  0.8341
 2389SOL    HW118803   4.293   4.257   5.050  0.4882  0.3691 -0.7015
 2389SOL    HW218804   4.154   4.251   5.106 -1.7866  1.5696 -0.0599
 2390SOL     OW18805   3.676   1.365  17.161  0.1120 -0.2422  0.1677
 2390SOL    HW118806   3.592   1.407  17.182  1.0011  1.9625 -0.7428
 2390SOL    HW218807   3.709   1.329  17.244  4.9235  1.0217 -1.2093
 2391SOL     OW18808   1.510   3.277   1.614  0.4514 -0.3295 -0.2144
 2391SOL    HW118809   1.440   3.320   1.565  0.3665  1.1862  1.2555
 2391SOL    HW218810   1.504   3.327   1.695 -1.1234 -0.5249 -0.2024
 2392SOL     OW18811   0.202   2.454   0.946 -0.1938 -0.3604  0.2219
 2392SOL    HW118812   0.208   2.380   0.885  0.5217 -1.6017  1.7893
 2392SOL    HW218813   0.108   2.453   0.963  0.2584 -1.7967  2.7199
 2393SOL     OW18814   4.427   2.569   6.918 -0.2780  0.1026 -0.2404
 2393SOL    HW118815   4.421   2.528   7.004  0.1104 -1.3552 -0.9179
 2393SOL    HW218816   4.511   2.612   6.936 -0.1518  0.0846 -0.8140
 2394SOL     OW18817   0.046   4.355   2.768 -0.2760  0.6534 -0.2723
 2394SOL    HW118818   0.108   4.287   2.795 -0.6297 -0.3332 -1.9412
 2394SOL    HW218819   0.021   4.323   2.681  1.0131 -0.2064 -0.3355
 2395SOL     OW18820   1.907   3.065   7.189  0.2151 -0.2055  0.1302
 2395SOL    HW118821   1.905   3.087   7.096 -1.6435  2.3090  0.7759
 2395SOL    HW218822   1.937   3.152   7.215 -1.8702  0.3444  0.6270
 2396SOL     OW18823   1.388   2.346   9.602  0.1929 -0.5081  0.4416
 2396SOL    HW118824   1.445   2.332   9.678  2.5811 -0.1036 -1.2867
 2396SOL    HW218825   1.328   2.273   9.613  0.6238 -0.8506  0.5219
 2397SOL     OW18826   2.265   0.230  15.871  0.6074 -0.2029  0.0553
 2397SOL    HW118827   2.275   0.259  15.961  1.1977 -0.3202  0.0273
 2397SOL    HW218828   2.253   0.135  15.875 -1.3275  0.1245  1.8286
 2398SOL     OW18829   1.394   1.006   7.164 -0.2861 -0.3502 -0.0547
 2398SOL    HW118830   1.326   0.939   7.157 -0.4933 -0.3238  1.7141
 2398SOL    HW218831   1.469   0.949   7.180  0.0360 -1.0329 -3.9897
 2399SOL     OW18832   1.282   4.357   8.644 -0.7335  0.1152  0.1777
 2399SOL    HW118833   1.205   4.301   8.638 -0.8828  0.3600 -0.1451
 2399SOL    HW218834   1.268   4.427   8.580  0.7865  1.1113  0.9430
 2400SOL     OW18835   2.353   0.889   7.162 -0.1036  0.1504  0.0631
 2400SOL    HW118836   2.448   0.882   7.155  0.1372  0.0742  3.0717
 2400SOL    HW218837   2.313   0.819   7.111 -0.6899  0.9152 -0.5361
 2401SOL     OW18838   1.193   4.055   0.235  0.3969  0.1596  0.3892
 2401SOL    HW118839   1.114   4.107   0.219  1.4365  2.5238  2.9302
 2401SOL    HW218840   1.161   3.981   0.286  0.7825 -0.7871 -0.7364
 2402SOL     OW18841   2.410   1.752   0.343 -0.1704  0.0260  0.3035
 2402SOL    HW118842   2.427   1.664   0.309 -3.1903 -0.4777  0.1634
 2402SOL    HW218843   2.414   1.804   0.263 -1.3947 -0.2225  0.0882
 2403SOL     OW18844   3.660   4.585   3.480 -0.0541  0.5199 -0.0990
 2403SOL    HW118845   3.617   4.569   3.564  0.2828 -0.7379 -0.1681
 2403SOL    HW218846   3.697   4.499   3.460 -1.2786 -0.1108  0.3654
 2404SOL     OW18847   2.321   2.807   8.937  0.5493 -0.6055  0.4974
 2404SOL    HW118848   2.330   2.878   9.000 -5.1252 -0.5501  1.2587
 2404SOL    HW218849   2.263   2.749   8.987 -0.9855 -0.4974 -1.1400
 2405SOL     OW18850   2.372   2.465   4.106 -0.1351 -1.3658 -0.3145
 2405SOL    HW118851   2.452   2.464   4.157 -0.6850 -0.6808  0.5645
 2405SOL    HW218852   2.406   2.448   4.018  0.4777 -3.1436  0.2638
 2406SOL     OW18853   1.418   1.295   2.664 -0.3121  0.1030 -0.0618
 2406SOL    HW118854   1.334   1.258   2.694  0.9332 -2.0723  0.7698
 2406SOL    HW218855   1.488   1.245   2.705 -0.0528  0.3867 -0.1595
 2407SOL     OW18856   3.459   3.503   1.757 -0.0391  0.5612  0.7562
 2407SOL    HW118857   3.537   3.552   1.731  0.9828 -0.4869  1.8657
 2407SOL    HW218858   3.418   3.506   1.670  3.2442  0.4553 -0.7951
 2408SOL     OW18859   4.103   4.094   8.427 -0.1482 -0.1008  0.3799
 2408SOL    HW118860   4.178   4.113   8.371  0.7424 -1.3707  1.1596
 2408SOL    HW218861   4.113   3.999   8.430  1.5932  0.0566 -0.4566
 2409SOL     OW18862   2.809   2.454   5.602 -0.3457  0.3924  0.4241
 2409SOL    HW118863   2.806   2.509   5.523  0.4931 -0.4542 -0.1947
 2409SOL    HW218864   2.719   2.421   5.602 -0.5711  1.0357 -2.0770
 2410SOL     OW18865   1.594   2.831   6.331  0.3016 -0.3982 -0.1330
 2410SOL    HW118866   1.515   2.860   6.376 -0.6526  1.3218 -2.9320
 2410SOL    HW218867   1.639   2.911   6.359 -2.0928  0.0021  2.5635
 2411SOL     OW18868   3.697   1.572   0.990  0.2227  0.0133  1.1482
 2411SOL    HW118869   3.753   1.518   0.934 -0.2854  1.0126 -0.3347
 2411SOL    HW218870   3.658   1.626   0.921  0.2747  0.2542  1.3056
 2412SOL     OW18871   0.624   1.743   4.684  0.9667  0.0839 -0.5689
 2412SOL    HW118872   0.719   1.734   4.669  0.9043 -1.1451 -0.2861
 2412SOL    HW218873   0.613   1.826   4.728  0.7121 -0.6405  0.7200
 2413SOL     OW18874   0.092   2.025   5.175  0.0593 -0.1778 -0.0793
 2413SOL    HW118875   0.117   1.932   5.173 -1.1798 -0.5106  0.2030
 2413SOL    HW218876   0.153   2.058   5.108 -1.7362  0.4796 -1.3832
 2414SOL     OW18877   2.949   1.384   0.648  0.2507  0.4920  0.0564
 2414SOL    HW118878   2.910   1.471   0.656 -0.9296  0.2745 -3.4289
 2414SOL    HW218879   2.965   1.368   0.741 -0.0955  1.5884  0.2985
 2415SOL     OW18880   2.604   2.227   9.342 -0.5030 -0.3355 -0.7950
 2415SOL    HW118881   2.570   2.196   9.426 -3.2679  0.2439 -1.6835
 2415SOL    HW218882   2.669   2.289   9.375 -1.1354 -0.6251  0.9888
 2416SOL     OW18883   2.669   2.169   2.693 -0.3708  0.4002  0.0048
 2416SOL    HW118884   2.603   2.237   2.702 -0.7252  0.1589 -0.7354
 2416SOL    HW218885   2.621   2.094   2.728 -1.6615  0.6197 -1.3015
 2417SOL     OW18886   4.576   3.319   4.897 -0.3575 -0.1141  0.4486
 2417SOL    HW118887   4.600   3.402   4.939 -0.6253  0.5880 -0.7856
 2417SOL    HW218888   4.658   3.291   4.856 -0.4251 -1.3827  1.1658
 2418SOL     OW18889   3.228   0.448   9.081  0.7899  0.2053 -0.1010
 2418SOL    HW118890   3.277   0.530   9.076  0.4613  0.4306  0.3687
 2418SOL    HW218891   3.153   0.472   9.026 -0.3889 -1.7277  0.6463
 2419SOL     OW18892   2.789   1.944   9.396  0.6768 -0.0411  0.4409
 2419SOL    HW118893   2.845   1.875   9.431  0.2251 -0.0078  1.2450
 2419SOL    HW218894   2.759   1.898   9.318  0.0888  0.2551  0.4927
 2420SOL     OW18895   1.399   3.660   0.667  0.1171  0.5992 -0.0110
 2420SOL    HW118896   1.354   3.624   0.743 -0.4263 -2.9586 -2.0432
 2420SOL    HW218897   1.393   3.586   0.607 -0.7948  2.1323 -1.8129
 2421SOL     OW18898   0.405   0.704  14.007 -0.0160  0.6792 -0.5018
 2421SOL    HW118899   0.473   0.638  14.018 -1.3246 -0.8291 -1.4499
 2421SOL    HW218900   0.425   0.785  14.054  0.6934  0.6748 -0.7985
 2422SOL     OW18901   4.720   0.946   9.279  0.2416  0.1226  0.2452
 2422SOL    HW118902   4.681   1.032   9.271  0.4330  0.3946  2.1250
 2422SOL    HW218903   4.655   0.906   9.338  1.0703 -1.8868 -0.1908
 2423SOL     OW18904   3.472   4.384  16.604 -0.4929  0.0332 -0.0828
 2423SOL    HW118905   3.445   4.417  16.689  1.2156 -0.3898  0.6208
 2423SOL    HW218906   3.442   4.454  16.545 -0.0569 -0.7029 -1.1883
 2424SOL     OW18907   1.087   3.548   0.478  0.3337 -0.1603  0.1065
 2424SOL    HW118908   1.176   3.522   0.453  0.5401  0.6310  0.0320
 2424SOL    HW218909   1.034   3.508   0.410 -0.9602  0.9846  0.4463
 2425SOL     OW18910   0.221   4.338  12.455 -0.1675 -0.2906 -0.3419
 2425SOL    HW118911   0.139   4.353  12.407 -0.9826 -1.2247  0.7509
 2425SOL    HW218912   0.200   4.272  12.521  0.1949  1.1957  1.2782
 2426SOL     OW18913   0.816   0.200   8.610 -0.5791  0.2476 -0.1929
 2426SOL    HW118914   0.829   0.178   8.518 -2.7550 -1.8326 -0.0148
 2426SOL    HW218915   0.883   0.148   8.655 -0.9877 -0.6719 -0.6514
 2427SOL     OW18916   3.803   2.690   0.875 -0.1629  0.1289 -0.2327
 2427SOL    HW118917   3.758   2.605   0.866 -1.5609  0.5555  2.7347
 2427SOL    HW218918   3.756   2.740   0.808 -0.7057  1.2790  1.0112
 2428SOL     OW18919   2.680   1.110   6.499 -0.2626  0.7948  0.3562
 2428SOL    HW118920   2.768   1.077   6.482 -0.4592  0.6722 -0.4496
 2428SOL    HW218921   2.683   1.147   6.587  1.0084  0.5961  0.3907
 2429SOL     OW18922   1.771   2.128   1.427 -0.2379  0.7972 -0.3349
 2429SOL    HW118923   1.691   2.142   1.477 -0.6173  1.7726 -1.2254
 2429SOL    HW218924   1.833   2.177   1.480 -2.5598  2.8413  0.4969
 2430SOL     OW18925   2.920   3.295  14.165  0.3066 -0.2902 -0.0845
 2430SOL    HW118926   2.829   3.294  14.195  0.9532  0.0668  1.8877
 2430SOL    HW218927   2.962   3.324  14.246 -0.5187  0.1248  0.1890
 2431SOL     OW18928   2.079   4.482   3.064  0.4287  0.2753 -0.0429
 2431SOL    HW118929   2.107   4.390   3.070  0.1767  0.2298  0.3862
 2431SOL    HW218930   2.012   4.466   2.997 -0.2675 -0.9254  0.9293
 2432SOL     OW18931   1.761   1.930  10.189 -0.4426 -0.4627 -0.0282
 2432SOL    HW118932   1.770   1.877  10.268  1.4105  0.1567  0.1690
 2432SOL    HW218933   1.811   2.007  10.219 -1.8839 -0.2966  1.9769
 2433SOL     OW18934   0.263   2.282   8.516 -0.0522  0.5511  0.0118
 2433SOL    HW118935   0.232   2.365   8.552 -0.7486  0.1564  0.3050
 2433SOL    HW218936   0.210   2.263   8.438 -3.3974 -1.3431  2.7765
 2434SOL     OW18937   1.438   3.807   2.912 -0.2248 -0.2288  0.2830
 2434SOL    HW118938   1.424   3.714   2.893  2.0848 -0.5731  0.2301
 2434SOL    HW218939   1.488   3.804   2.994 -0.1461  0.4717  0.2608
 2435SOL     OW18940   2.396   3.422  13.146 -0.2077 -0.0618 -0.0488
 2435SOL    HW118941   2.410   3.482  13.072  0.3740 -1.4479 -1.0689
 2435SOL    HW218942   2.397   3.477  13.225 -0.1101 -0.5775  0.3045
 2436SOL     OW18943   1.065   0.193   0.622 -0.5218  0.4662 -0.4909
 2436SOL    HW118944   1.075   0.231   0.710  0.3150 -1.7127  0.3434
 2436SOL    HW218945   1.108   0.258   0.566 -1.1014  0.8527 -0.4935
 2437SOL     OW18946   3.056   3.654  12.991 -0.2328  0.5831  0.0132
 2437SOL    HW118947   3.109   3.604  12.929  0.2343  1.0349  0.0426
 2437SOL    HW218948   2.979   3.598  12.994 -0.2646  0.7322  1.7323
 2438SOL     OW18949   3.928   3.758   3.780  0.1645 -0.1213  0.8386
 2438SOL    HW118950   3.913   3.785   3.689  2.1807  0.1123  0.5860
 2438SOL    HW218951   3.948   3.666   3.762  2.1127  0.8145 -1.6882
 2439SOL     OW18952   1.965   0.823   1.289  0.3253  0.0596  0.6297
 2439SOL    HW118953   1.889   0.774   1.322 -0.7771  1.3150 -0.0418
 2439SOL    HW218954   1.957   0.806   1.195 -2.4574 -1.1559  1.0792
 2440SOL     OW18955   0.193   1.186   6.489  0.7893 -0.0338  0.2489
 2440SOL    HW118956   0.241   1.122   6.542  1.0269  0.5340  0.7170
 2440SOL    HW218957   0.265   1.242   6.461  0.6198 -0.4482 -0.9944
 2441SOL     OW18958   3.264   0.823  15.790  0.4605  0.2821 -0.0666
 2441SOL    HW118959   3.238   0.908  15.827  0.8369  0.5849 -0.4832
 2441SOL    HW218960   3.278   0.768  15.867  1.5412  1.2444  0.4334
 2442SOL     OW18961   0.072   0.285   2.827 -0.4270  0.0945  0.1839
 2442SOL    HW118962   0.128   0.239   2.890 -0.7885 -0.0967  0.3660
 2442SOL    HW218963   4.724   0.246   2.845  0.1945 -1.0070  0.7783
 2443SOL     OW18964   1.376   2.383  15.644 -0.4911 -0.3225 -0.2064
 2443SOL    HW118965   1.466   2.398  15.670 -0.6402  2.8900 -1.4397
 2443SOL    HW218966   1.346   2.321  15.710  1.1134 -0.6554  0.1995
 2444SOL     OW18967   3.778   0.785   0.824  0.0692  0.4509 -0.1677
 2444SOL    HW118968   3.743   0.705   0.862  0.2605 -0.5058 -2.0078
 2444SOL    HW218969   3.846   0.795   0.891  0.1845  3.1607 -0.6907
 2445SOL     OW18970   0.508   3.892   6.875  0.1057  0.0639 -0.6121
 2445SOL    HW118971   0.564   3.885   6.952  0.4920  1.1196 -0.8030
 2445SOL    HW218972   0.472   3.808   6.846 -1.8178  0.4547  0.6353
 2446SOL     OW18973   1.302   3.744  10.604  0.1427 -0.1820 -0.5289
 2446SOL    HW118974   1.267   3.831  10.584  1.2919  0.1745 -1.0123
 2446SOL    HW218975   1.379   3.746  10.547 -0.6998  1.6301 -1.6024
 2447SOL     OW18976   2.163   3.071   5.707  0.1858 -0.7293  0.3465
 2447SOL    HW118977   2.091   3.009   5.696 -0.7219  0.4014 -0.0047
 2447SOL    HW218978   2.131   3.147   5.755  1.2315 -1.6273  2.4507
 2448SOL     OW18979   4.260   3.129   8.052 -0.2058 -0.5339  0.0350
 2448SOL    HW118980   4.325   3.111   8.120  0.3847 -0.9953 -0.6505
 2448SOL    HW218981   4.301   3.204   8.009 -1.4496 -0.1573 -0.5105
 2449SOL     OW18982   1.654   1.074  12.785  0.6041  0.1804  0.2419
 2449SOL    HW118983   1.727   1.012  12.781 -0.2803 -1.0062  2.2461
 2449SOL    HW218984   1.581   1.027  12.744  0.0113  0.0508  1.4352
 2450SOL     OW18985   2.715   4.711   8.787  0.1934  0.2249 -0.4377
 2450SOL    HW118986   2.721   4.616   8.789  2.0038  0.3292 -0.5853
 2450SOL    HW218987   2.630   4.731   8.749  0.0457  0.8422  0.2162
 2451SOL     OW18988   3.524   0.845   0.157 -0.1475  0.5630 -0.1833
 2451SOL    HW118989   3.572   0.819   0.235 -1.0557  0.7121  0.4233
 2451SOL    HW218990   3.528   0.939   0.170  0.5170  0.4187  0.6355
 2452SOL     OW18991   0.256   3.834   5.930  0.1403  0.3244 -0.0769
 2452SOL    HW118992   0.252   3.776   5.853  1.5075 -0.0286  0.1237
 2452SOL    HW218993   0.347   3.818   5.953 -0.1570 -1.5753 -0.2506
 2453SOL     OW18994   3.698   1.132   3.029  0.1029  0.0461  0.3542
 2453SOL    HW118995   3.737   1.057   3.075  0.3125  0.6583  1.1864
 2453SOL    HW218996   3.613   1.113   3.068 -0.8861 -1.0201 -2.3733
 2454SOL     OW18997   0.055   3.068   3.752  0.3770 -0.2709 -0.2198
 2454SOL    HW118998   0.055   3.114   3.836  2.2865 -2.8992  1.2381
 2454SOL    HW218999   0.037   3.143   3.696 -2.6363  0.9174  2.3539
 2455SOL     OW19000   4.362   4.698   5.639 -0.1889 -0.3916 -0.0913
 2455SOL    HW119001   4.445   4.703   5.686 -0.0384  0.0969 -0.4065
 2455SOL    HW219002   4.328   4.610   5.656  0.1840 -0.0573  2.2695
 2456SOL     OW19003   2.256   0.936   7.954 -0.1421  0.0344 -0.2838
 2456SOL    HW119004   2.245   0.979   7.869  0.8329 -0.2543 -0.5581
 2456SOL    HW219005   2.246   1.010   8.014 -1.8404  0.3338 -0.9314
 2457SOL     OW19006   0.610   0.662   3.055 -0.9249 -0.2019 -1.3749
 2457SOL    HW119007   0.635   0.752   3.077  0.5787 -0.4996 -1.8376
 2457SOL    HW219008   0.661   0.649   2.975  0.0057  3.4247 -1.3725
 2458SOL     OW19009   4.242   4.023   3.632  0.3787  0.2144  0.0947
 2458SOL    HW119010   4.297   4.039   3.709 -0.8057  0.3817  0.9141
 2458SOL    HW219011   4.275   3.938   3.604  0.0353  0.3389 -0.6857
 2459SOL     OW19012   0.390   0.335  17.576 -0.4746  0.6994  0.0087
 2459SOL    HW119013   0.318   0.359  17.517 -0.7808  0.3266  0.2302
 2459SOL    HW219014   0.341   0.344  17.657 -1.0113  0.1729 -0.2599
 2460SOL     OW19015   4.037   4.087   8.086  0.3841  0.2060 -0.2642
 2460SOL    HW119016   4.112   4.039   8.122 -0.2663  0.7235  1.7665
 2460SOL    HW219017   4.045   4.072   7.992  1.1143 -0.2569 -0.1307
 2461SOL     OW19018   0.953   0.275   7.367 -0.5449 -0.4161 -0.5689
 2461SOL    HW119019   1.047   0.255   7.360 -0.9832 -3.4642  1.9640
 2461SOL    HW219020   0.918   0.238   7.286 -1.1975 -0.5179 -0.2385
 2462SOL     OW19021   3.770   4.712   4.959 -0.2718 -0.0540  0.1000
 2462SOL    HW119022   3.748   4.715   4.866  1.9120  1.4917 -0.3548
 2462SOL    HW219023   3.685   4.691   4.999  0.3975  0.8596  1.9728
 2463SOL     OW19024   0.189   2.082  14.414 -0.5174 -0.4276 -0.1457
 2463SOL    HW119025   0.107   2.034  14.422  0.5174 -2.3960 -1.3429
 2463SOL    HW219026   0.244   2.004  14.411  1.1992  0.7621  0.0439
 2464SOL     OW19027   2.294   2.818   6.467 -0.2357  0.4153 -0.1773
 2464SOL    HW119028   2.288   2.791   6.375  1.0130 -1.5697  0.3217
 2464SOL    HW219029   2.309   2.736   6.514 -2.8089 -0.9699 -1.7929
 2465SOL     OW19030   4.362   3.321   7.428  0.2393  0.3303 -0.3245
 2465SOL    HW119031   4.273   3.356   7.427 -0.0322 -0.3669 -0.9396
 2465SOL    HW219032   4.388   3.335   7.519 -1.3451  0.4400  0.0947
 2466SOL     OW19033   2.206   3.223  10.635  0.0686 -0.3545  0.1987
 2466SOL    HW119034   2.209   3.167  10.712 -2.2674  2.7380  2.4980
 2466SOL    HW219035   2.259   3.172  10.573 -0.5420  0.7584 -1.2295
 2467SOL     OW19036   1.232   2.731  15.236  0.2694 -0.2803  0.3621
 2467SOL    HW119037   1.247   2.669  15.308  1.5003  1.4322  1.5557
 2467SOL    HW219038   1.270   2.810  15.274 -0.3903 -0.0518  0.5436
 2468SOL     OW19039   0.402   0.195  13.849 -0.8762 -0.1599  0.0884
 2468SOL    HW119040   0.436   0.152  13.770  0.5110 -0.2942  0.7731
 2468SOL    HW219041   0.484   0.226  13.886 -0.2725 -0.8213 -0.6782
 2469SOL     OW19042   0.487   3.130   1.582 -0.0210  0.1382 -0.1172
 2469SOL    HW119043   0.524   3.043   1.567 -0.4030 -0.6450  3.4758
 2469SOL    HW219044   0.408   3.102   1.627  1.3284 -2.1734  0.8463
 2470SOL     OW19045   0.532   3.596   8.194 -0.7247 -0.3469 -0.4724
 2470SOL    HW119046   0.562   3.550   8.116 -1.4386 -2.0225  0.2557
 2470SOL    HW219047   0.437   3.604   8.199 -0.6294 -1.0542  2.3659
 2471SOL     OW19048   2.616   4.526   6.838 -0.0866 -0.0153 -0.7024
 2471SOL    HW119049   2.542   4.551   6.783 -0.6892 -0.1948  0.0237
 2471SOL    HW219050   2.656   4.612   6.848  0.4348 -0.2717 -0.5862
 2472SOL     OW19051   0.688   3.642   4.614 -0.3186 -0.2452 -0.6320
 2472SOL    HW119052   0.754   3.638   4.544  1.1921  0.3545  0.7418
 2472SOL    HW219053   0.737   3.601   4.686  0.7685 -0.1015 -1.2778
 2473SOL     OW19054   3.828   2.002   1.558 -0.1293  0.4356 -0.0578
 2473SOL    HW119055   3.741   2.041   1.569 -0.1093  0.0460  1.4314
 2473SOL    HW219056   3.791   1.930   1.508 -1.9194  1.3083 -0.0128
 2474SOL     OW19057   1.363   0.489   2.446 -0.0743  0.8582 -0.2092
 2474SOL    HW119058   1.366   0.396   2.422  0.9467  0.2942  2.1687
 2474SOL    HW219059   1.305   0.522   2.377  3.5779  2.8375 -2.3546
 2475SOL     OW19060   2.250   0.757   5.790  0.3924  0.2676 -0.0688
 2475SOL    HW119061   2.183   0.747   5.723 -0.2347 -0.7667  0.6927
 2475SOL    HW219062   2.321   0.796   5.741 -0.6574  0.5949 -1.3102
 2476SOL     OW19063   2.416   3.729   2.028 -0.2997  0.2410  0.2931
 2476SOL    HW119064   2.507   3.736   2.000  0.9947 -3.8020  3.5743
 2476SOL    HW219065   2.422   3.666   2.100  2.6401 -0.1220 -0.2792
 2477SOL     OW19066   0.872   1.943   8.784  0.7368 -0.0239 -0.3732
 2477SOL    HW119067   0.813   1.887   8.834 -0.8412  0.4700 -1.7002
 2477SOL    HW219068   0.950   1.923   8.836 -0.0682  0.6564  1.0784
 2478SOL     OW19069   3.535   4.715   3.291 -0.4269 -0.0600  0.5020
 2478SOL    HW119070   3.592   4.666   3.350  1.2787  0.0125 -1.1169
 2478SOL    HW219071   3.544   4.676   3.204 -1.0708  1.3477 -0.2032
 2479SOL     OW19072   2.167   0.480   1.445  0.2418 -0.1622  0.4193
 2479SOL    HW119073   2.076   0.478   1.475  0.2825 -0.1443  0.5445
 2479SOL    HW219074   2.160   0.443   1.357  0.6963  0.2468  0.2120
 2480SOL     OW19075   0.559   0.001  14.979 -0.5531  0.0689 -0.3758
 2480SOL    HW119076   0.572   0.046  15.062 -0.5358  1.8712 -1.3628
 2480SOL    HW219077   0.606   4.656  14.989 -0.0727  0.4269  0.2944
 2481SOL     OW19078   4.713   3.212   1.647  0.4413  0.1056  0.1887
 2481SOL    HW119079   4.633   3.254   1.681 -0.1093 -0.0857 -0.8799
 2481SOL    HW219080   4.723   3.257   1.563  1.8175 -0.5038  0.0327
 2482SOL     OW19081   0.716   1.926   4.157 -0.4157  0.4750 -0.6618
 2482SOL    HW119082   0.688   1.942   4.247 -1.7718 -1.3971 -0.7617
 2482SOL    HW219083   0.744   2.014   4.130  2.5214  0.9072  3.8209
 2483SOL     OW19084   4.656   0.516  16.660 -0.2272 -0.1994 -0.5171
 2483SOL    HW119085   4.579   0.476  16.701  0.7162  1.4698  2.8738
 2483SOL    HW219086   4.646   0.607  16.688  1.6139 -0.7286  1.8537
 2484SOL     OW19087   4.479   1.684   9.095 -0.5447  0.0370 -0.5719
 2484SOL    HW119088   4.567   1.648   9.103 -1.6098 -2.3099  0.5039
 2484SOL    HW219089   4.446   1.670   9.007 -1.0384 -0.5673 -0.2867
 2485SOL     OW19090   0.932   2.126   7.097 -0.3862  0.5750  0.3290
 2485SOL    HW119091   0.999   2.180   7.140  1.7555 -1.2247 -0.7223
 2485SOL    HW219092   0.910   2.080   7.178  1.0017  0.7098  0.7894
 2486SOL     OW19093   1.838   2.903   6.658  0.7501  0.4983 -0.2019
 2486SOL    HW119094   1.914   2.938   6.611  0.3399  2.0931  0.3373
 2486SOL    HW219095   1.780   2.884   6.585  0.2849 -3.1403  1.1095
 2487SOL     OW19096   3.801   3.270  12.300 -0.9718 -0.1635 -0.5736
 2487SOL    HW119097   3.728   3.292  12.357 -0.0493  0.2279  0.4548
 2487SOL    HW219098   3.848   3.207  12.354 -2.8825  0.3254  1.6738
 2488SOL     OW19099   2.267   3.067   3.826  0.1713 -0.2380  0.2757
 2488SOL    HW119100   2.231   3.155   3.819  0.3715 -0.1552  0.2993
 2488SOL    HW219101   2.314   3.061   3.909  0.2571 -0.0050  0.2427
 2489SOL     OW19102   1.892   2.627   2.227 -1.0059 -0.1350 -0.1467
 2489SOL    HW119103   1.918   2.538   2.250  0.5539  0.9373  2.2559
 2489SOL    HW219104   1.809   2.621   2.272 -0.9806 -4.2247 -0.6035
 2490SOL     OW19105   1.164   3.477   8.051 -0.4720  0.5854 -0.2427
 2490SOL    HW119106   1.123   3.403   8.095 -1.7988  1.1723 -0.4830
 2490SOL    HW219107   1.246   3.441   8.018 -0.9249 -1.1590  0.5097
 2491SOL     OW19108   1.842   1.647   8.718  0.0382  0.1728 -0.0061
 2491SOL    HW119109   1.900   1.695   8.776 -0.1102 -0.7113  0.8791
 2491SOL    HW219110   1.820   1.724   8.665  1.1320  1.5015  1.4895
 2492SOL     OW19111   1.467   1.108   1.257 -0.0303 -0.1846  0.0606
 2492SOL    HW119112   1.428   1.030   1.217  1.7648 -1.8193  1.4992
 2492SOL    HW219113   1.548   1.068   1.287 -0.7141 -0.5381  1.4516
 2493SOL     OW19114   2.397   0.520   2.720 -0.2118  0.1099  0.3021
 2493SOL    HW119115   2.322   0.558   2.765 -1.1653 -1.0109 -0.3584
 2493SOL    HW219116   2.399   0.432   2.756 -0.4295  0.1246  0.3495
 2494SOL     OW19117   2.934   1.367   8.568 -0.4087 -0.6651 -0.2125
 2494SOL    HW119118   2.942   1.272   8.573  0.3772 -0.5570  0.3855
 2494SOL    HW219119   2.888   1.395   8.648 -0.4373  0.6884 -0.6895
 2495SOL     OW19120   2.097   1.345   8.327 -0.2508  0.7125  0.3333
 2495SOL    HW119121   2.045   1.274   8.290 -0.7354  0.0345  2.2901
 2495SOL    HW219122   2.182   1.303   8.345  0.0231  0.3447 -1.8814
 2496SOL     OW19123   1.924   2.570  16.129 -0.5282  0.2667 -0.1039
 2496SOL    HW119124   1.915   2.665  16.119 -1.4001 -0.1234 -2.8277
 2496SOL    HW219125   1.949   2.541  16.042 -1.5734 -1.1868  0.0687
 2497SOL     OW19126   4.684   0.092  11.157 -0.1168  0.3102  0.2823
 2497SOL    HW119127   4.736   0.048  11.224 -0.9073 -2.0052 -0.6441
 2497SOL    HW219128   0.022   0.133  11.115 -2.8417  2.7931 -2.2647
 2498SOL     OW19129   0.418   2.772  16.830 -0.2078 -0.1390  0.0467
 2498SOL    HW119130   0.486   2.824  16.787 -0.1281  0.2259  0.6141
 2498SOL    HW219131   0.413   2.701  16.766  2.8767  1.0707 -1.5566
 2499SOL     OW19132   4.155   3.806   6.000  0.3561  0.6564 -0.0378
 2499SOL    HW119133   4.186   3.896   6.011 -1.9333  1.3936  0.3994
 2499SOL    HW219134   4.200   3.785   5.918  0.3943 -0.6241  0.3154
 2500SOL     OW19135   3.401   4.238   5.707 -0.2570 -0.9220  0.4150
 2500SOL    HW119136   3.453   4.310   5.742 -0.2793 -0.9545  0.5150
 2500SOL    HW219137   3.408   4.172   5.776 -1.5408 -0.7227  0.7361
 2501SOL     OW19138   3.801   1.979  13.224  0.0146 -0.8417 -0.0161
 2501SOL    HW119139   3.805   2.057  13.168 -0.1420 -0.6892  0.1865
 2501SOL    HW219140   3.895   1.985  13.242  0.1405 -0.1524 -0.9074
 2502SOL     OW19141   1.591   4.040   5.361 -0.5686  0.7103  0.0749
 2502SOL    HW119142   1.578   4.086   5.278 -0.7738 -1.1246 -0.9087
 2502SOL    HW219143   1.684   4.053   5.381 -0.3770  0.1722 -0.4613
 2503SOL     OW19144   4.087   2.224  11.245  0.8440  0.1634 -0.1410
 2503SOL    HW119145   4.063   2.314  11.264 -0.8124  0.1416 -2.1347
 2503SOL    HW219146   4.003   2.186  11.217  0.8091 -0.4606  0.8245
 2504SOL     OW19147   2.749   2.951  14.087  0.6684 -0.2577 -0.4462
 2504SOL    HW119148   2.783   2.953  14.176 -2.0392 -1.4790  0.6161
 2504SOL    HW219149   2.802   2.876  14.060 -0.5209 -1.1285 -0.3972
 2505SOL     OW19150   4.416   2.641   4.696 -0.3415 -0.5283  0.2499
 2505SOL    HW119151   4.399   2.553   4.660 -1.7449 -0.5957  1.0544
 2505SOL    HW219152   4.500   2.620   4.737 -0.2814 -1.7976 -0.5114
 2506SOL     OW19153   3.758   1.556   9.417  0.3048  0.6341  0.2243
 2506SOL    HW119154   3.758   1.532   9.324  0.4525 -2.0897  0.9425
 2506SOL    HW219155   3.765   1.468   9.453  0.1831  1.0266  1.2168
 2507SOL     OW19156   0.688   0.208   9.448 -0.0241  0.2666 -0.1503
 2507SOL    HW119157   0.758   0.221   9.384 -1.3907 -0.9410 -1.8894
 2507SOL    HW219158   0.696   0.113   9.457  4.3150  0.6054 -0.1701
 2508SOL     OW19159   3.451   0.334   2.783 -0.4617 -0.5404  0.1987
 2508SOL    HW119160   3.364   0.314   2.819  0.0678 -0.3087  1.5995
 2508SOL    HW219161   3.428   0.385   2.705  1.0088 -1.3518 -0.7635
 2509SOL     OW19162   3.719   0.477   3.752 -0.3325  0.0179 -0.0180
 2509SOL    HW119163   3.654   0.544   3.774 -0.9219 -0.5672  0.0079
 2509SOL    HW219164   3.677   0.399   3.787 -0.1485 -0.1990 -0.2865
 2510SOL     OW19165   3.013   0.094   7.358 -0.5218 -0.8607  0.4766
 2510SOL    HW119166   3.099   0.056   7.376 -0.2498 -1.9129 -3.0682
 2510SOL    HW219167   3.020   0.126   7.268  2.1084 -0.0840  0.9654
 2511SOL     OW19168   4.673   2.640  10.572  0.2887 -0.7831 -0.1799
 2511SOL    HW119169   4.705   2.721  10.613 -1.2125  0.8087 -2.1923
 2511SOL    HW219170   0.020   2.597  10.563  0.2457 -0.9278  0.1068
 2512SOL     OW19171   2.122   3.970   4.753  0.4857 -0.1849 -0.2528
 2512SOL    HW119172   2.163   3.936   4.674 -0.0939  0.0952 -0.6804
 2512SOL    HW219173   2.139   3.905   4.821 -1.2376 -0.0850  0.2858
 2513SOL     OW19174   0.329   2.949  12.133 -0.2365 -0.1156 -0.1169
 2513SOL    HW119175   0.391   2.957  12.061 -1.2337  0.6588 -0.8927
 2513SOL    HW219176   0.332   3.034  12.176 -1.1478 -0.7212  1.1615
 2514SOL     OW19177   2.092   1.739   6.886 -0.5895  0.5044  0.6660
 2514SOL    HW119178   1.998   1.735   6.874 -0.3075 -2.8479 -0.5679
 2514SOL    HW219179   2.094   1.798   6.961 -0.7143  1.5866 -0.1834
 2515SOL     OW19180   2.010   4.274   1.950 -0.0426 -0.4458  0.0243
 2515SOL    HW119181   2.055   4.281   1.865 -1.1956 -1.8343 -0.7059
 2515SOL    HW219182   2.066   4.335   1.999  1.8369 -1.0879 -1.3144
 2516SOL     OW19183   3.842   0.705   7.275  0.0151 -0.2996  0.5926
 2516SOL    HW119184   3.931   0.690   7.305 -0.3154  0.4384  1.9825
 2516SOL    HW219185   3.820   0.620   7.238 -0.9995  0.3868 -0.3871
 2517SOL     OW19186   4.672   3.553   5.108 -0.2296 -0.1356 -0.2060
 2517SOL    HW119187   4.624   3.543   5.190 -2.8157 -1.9944 -1.9541
 2517SOL    HW219188   4.643   3.631   5.061  0.1868  0.2800  0.2273
 2518SOL     OW19189   0.705   0.317   1.000 -0.0597  0.4690 -0.4748
 2518SOL    HW119190   0.620   0.305   1.042  2.0339  0.2544  3.7793
 2518SOL    HW219191   0.727   0.223   0.997  1.3654  0.7206  1.7728
 2519SOL     OW19192   2.553   0.925   7.381 -0.5229 -0.3184  0.4837
 2519SOL    HW119193   2.525   0.835   7.396  0.5008 -0.1659  3.3174
 2519SOL    HW219194   2.469   0.970   7.384  0.2125  1.1817 -1.1451
 2520SOL     OW19195   1.846   2.570  16.670 -0.3995  0.2498  0.0840
 2520SOL    HW119196   1.920   2.618  16.633 -0.4712 -0.1504 -0.5781
 2520SOL    HW219197   1.810   2.523  16.595  0.1177 -0.2598  0.1572
 2521SOL     OW19198   3.513   0.636   5.219 -0.1956  0.0333 -0.4526
 2521SOL    HW119199   3.593   0.590   5.246  1.1101  1.6670 -1.4776
 2521SOL    HW219200   3.481   0.665   5.304 -1.8079 -2.3707 -0.2548
 2522SOL     OW19201   3.405   1.098  14.724 -0.3503  0.3655 -0.3424
 2522SOL    HW119202   3.380   1.040  14.796 -0.9665  0.4859 -0.4507
 2522SOL    HW219203   3.423   1.183  14.763  0.0029  0.8703 -1.6059
 2523SOL     OW19204   2.266   4.595   2.340 -0.1655 -0.1851  0.3842
 2523SOL    HW119205   2.176   4.622   2.321 -0.1784  0.5116  1.4431
 2523SOL    HW219206   2.310   4.675   2.370  0.9311 -1.2004  1.4945
 2524SOL     OW19207   1.793   2.542   1.542 -0.2316 -0.1746  0.8243
 2524SOL    HW119208   1.860   2.520   1.606  0.7943 -0.0636 -0.2109
 2524SOL    HW219209   1.719   2.495   1.580 -0.7444  0.1779  0.2666
 2525SOL     OW19210   0.911   3.169  11.184 -0.4930  0.3646  0.1425
 2525SOL    HW119211   0.853   3.106  11.141  0.1188 -0.2377  0.2005
 2525SOL    HW219212   0.980   3.183  11.119  0.3382  1.8233  1.3665
 2526SOL     OW19213   0.629   1.360  11.059  0.0501 -0.3857 -0.3646
 2526SOL    HW119214   0.602   1.444  11.096  0.2199 -0.3478 -0.3242
 2526SOL    HW219215   0.578   1.359  10.978 -1.9629  0.1177  0.9138
 2527SOL     OW19216   4.230   0.501   9.553  0.0124  0.5726 -0.1925
 2527SOL    HW119217   4.325   0.500   9.564  0.1056  0.6804 -0.9877
 2527SOL    HW219218   4.197   0.508   9.642  0.7744 -0.4214  0.1696
 2528SOL     OW19219   1.975   2.530   6.622  0.0683  0.4823  0.1189
 2528SOL    HW119220   2.020   2.577   6.553  0.5189  0.0473  0.1150
 2528SOL    HW219221   2.006   2.568   6.704  0.3895 -0.2738  0.3514
 2529SOL     OW19222   4.673   0.876   3.114 -0.4575  0.0798  0.6920
 2529SOL    HW119223   4.659   0.788   3.081  1.1878 -0.7775  2.2588
 2529SOL    HW219224   4.598   0.921   3.075 -0.4635  1.0843  1.8507
 2530SOL     OW19225   4.730   2.528  14.463  0.3993  0.7838 -0.3151
 2530SOL    HW119226   4.651   2.496  14.419  0.4296  0.9959 -0.5266
 2530SOL    HW219227   0.024   2.440  14.486 -2.4244 -0.4206 -0.9436
 2531SOL     OW19228   0.456   0.196   7.099  0.1886 -0.5400 -0.1612
 2531SOL    HW119229   0.377   0.228   7.142 -0.5974 -1.1889 -1.1068
 2531SOL    HW219230   0.485   0.269   7.045  1.8928 -0.4569  0.8593
 2532SOL     OW19231   3.763   2.333   2.002  0.3402 -0.2911  0.5097
 2532SOL    HW119232   3.685   2.295   2.043  0.2939  2.6172  3.1566
 2532SOL    HW219233   3.830   2.265   2.008  1.2703  0.8930  3.6585
 2533SOL     OW19234   2.008   4.090   9.989  0.0863  0.2808  0.0767
 2533SOL    HW119235   2.081   4.109  10.047  0.1499 -0.3289  0.1974
 2533SOL    HW219236   1.963   4.023  10.041  1.2176 -0.5844 -0.0640
 2534SOL     OW19237   2.425   1.625  12.471 -0.2641  0.0532 -0.1441
 2534SOL    HW119238   2.433   1.700  12.531 -0.1200 -0.5694  0.6082
 2534SOL    HW219239   2.469   1.558  12.523 -2.2204 -1.2558 -0.1757
 2535SOL     OW19240   2.966   3.128  16.835 -0.4436 -0.1740 -0.1657
 2535SOL    HW119241   2.968   3.075  16.914  0.2697  0.9672  0.5823
 2535SOL    HW219242   3.015   3.207  16.859 -0.5592 -0.6859  1.7078
 2536SOL     OW19243   1.153   3.356   1.517  0.2635  0.0325  0.0461
 2536SOL    HW119244   1.145   3.275   1.465 -0.3378  0.7602 -1.0014
 2536SOL    HW219245   1.164   3.308   1.599 -1.1528 -0.4345 -0.0434
 2537SOL     OW19246   3.511   3.011  16.914  0.2668  0.2234  0.5326
 2537SOL    HW119247   3.478   2.934  16.867 -0.6690  1.3859 -0.7027
 2537SOL    HW219248   3.484   2.982  17.002  0.5362 -0.3250  0.4345
 2538SOL     OW19249   4.555   2.584  11.737 -0.6098  0.7681  0.4529
 2538SOL    HW119250   4.628   2.578  11.675 -0.6317 -0.8949  0.5982
 2538SOL    HW219251   4.488   2.593  11.669 -1.8959  0.6459  1.7106
 2539SOL     OW19252   1.866   2.717   4.199 -0.4989 -0.4928  0.6476
 2539SOL    HW119253   1.880   2.762   4.283  0.4059 -0.0180  0.2372
 2539SOL    HW219254   1.931   2.647   4.200  2.5852  2.4125  2.0159
 2540SOL     OW19255   3.578   2.638  17.130 -0.3121  0.0651 -0.4031
 2540SOL    HW119256   3.627   2.625  17.049 -1.1742  1.0947 -1.0830
 2540SOL    HW219257   3.516   2.565  17.126 -0.7739  0.4001  0.5607
 2541SOL     OW19258   1.758   2.055   7.303  0.7791 -0.0292 -0.5328
 2541SOL    HW119259   1.816   2.129   7.321  0.8183 -0.3931  0.8149
 2541SOL    HW219260   1.791   1.995   7.369  1.1305  2.4805  1.5829
 2542SOL     OW19261   3.283   1.516   4.057 -0.2224 -1.1458  0.2589
 2542SOL    HW119262   3.245   1.445   4.109  0.1607 -0.5737  1.3281
 2542SOL    HW219263   3.231   1.503   3.978 -0.6361 -1.4039  0.5770
 2543SOL     OW19264   1.219   2.268   2.004 -0.1693  0.0850 -0.2104
 2543SOL    HW119265   1.185   2.339   1.949 -1.1173  0.4676  0.8741
 2543SOL    HW219266   1.190   2.291   2.092 -2.4584 -0.7858 -0.7426
 2544SOL     OW19267   2.174   4.084   4.248  0.1258  0.1529  0.5633
 2544SOL    HW119268   2.130   4.164   4.276 -1.7477 -0.8193  0.3966
 2544SOL    HW219269   2.115   4.022   4.291 -0.9554  0.9816  0.3021
 2545SOL     OW19270   3.392   4.052   3.215 -0.2046 -0.1265  0.3956
 2545SOL    HW119271   3.384   4.143   3.186  0.1803  0.3720  1.8498
 2545SOL    HW219272   3.435   4.020   3.136 -0.6517  1.3474 -0.4436
 2546SOL     OW19273   0.273   2.881   0.267 -0.0656  0.8926 -0.1020
 2546SOL    HW119274   0.320   2.940   0.209  0.3017  0.7072  0.0039
 2546SOL    HW219275   0.311   2.903   0.352 -0.5140 -2.5715  1.0299
 2547SOL     OW19276   3.378   1.353   6.231  0.0749  0.4538 -0.1900
 2547SOL    HW119277   3.291   1.312   6.239  0.1866  0.4369  0.8491
 2547SOL    HW219278   3.418   1.330   6.315 -3.3556 -0.3681  1.2314
 2548SOL     OW19279   4.643   3.464  13.369  0.6958 -0.1614 -0.3236
 2548SOL    HW119280   4.655   3.404  13.296 -3.0892 -0.0423 -1.0403
 2548SOL    HW219281   4.552   3.443  13.393  0.7223  0.8150  0.6240
 2549SOL     OW19282   1.414   0.395   3.121  0.1597  0.0339  0.0605
 2549SOL    HW119283   1.342   0.445   3.161 -0.2601 -2.7572  2.8042
 2549SOL    HW219284   1.370   0.322   3.077 -0.0310 -1.2686  2.4104
 2550SOL     OW19285   4.563   3.682  14.279 -0.1780  0.2149  0.6542
 2550SOL    HW119286   4.617   3.658  14.204 -0.3807 -1.0570  0.9143
 2550SOL    HW219287   4.566   3.607  14.339 -0.2244 -0.9815 -0.8410
 2551SOL     OW19288   2.176   4.352   3.871  0.1222  0.0462 -0.5239
 2551SOL    HW119289   2.183   4.341   3.776 -0.8577 -1.0719 -0.4662
 2551SOL    HW219290   2.196   4.265   3.907 -0.6511  0.0971  0.0383
 2552SOL     OW19291   0.577   3.427   0.241 -0.4070  0.5429  0.7008
 2552SOL    HW119292   0.491   3.464   0.262  0.8100  5.0739 -2.2235
 2552SOL    HW219293   0.591   3.464   0.153  1.5978 -0.0026  0.7855
 2553SOL     OW19294   2.559   1.538   3.535 -0.3587 -0.2241  0.1817
 2553SOL    HW119295   2.552   1.572   3.624  1.0771  0.3594  0.0825
 2553SOL    HW219296   2.526   1.608   3.480 -0.1688  1.2469  1.9152
 2554SOL     OW19297   1.672   4.120  17.632  0.1842 -0.1126  0.1179
 2554SOL    HW119298   1.623   4.040  17.615  1.6185 -2.1898  5.5884
 2554SOL    HW219299   1.719   4.097  17.713  0.0383  1.8354  0.7617
 2555SOL     OW19300   0.896   4.444  10.577  0.1439 -0.1060  0.0631
 2555SOL    HW119301   0.969   4.410  10.629 -0.8529  0.2544  1.6819
 2555SOL    HW219302   0.943   4.420  10.496  0.5477  0.4266  0.1401
 2556SOL     OW19303   3.514   1.029  12.280 -0.1018  0.3311 -0.3236
 2556SOL    HW119304   3.527   0.945  12.324 -1.5465  0.7597  0.9186
 2556SOL    HW219305   3.419   1.028  12.269 -0.1678  0.9872  0.2214
 2557SOL     OW19306   3.400   0.149  10.929 -0.3465  0.5707 -0.2780
 2557SOL    HW119307   3.423   0.060  10.954  1.7619  1.2994  0.4097
 2557SOL    HW219308   3.374   0.126  10.840 -0.6873 -3.7576  0.9273
 2558SOL     OW19309   4.243   3.192  15.398 -0.5874  0.6390 -0.2359
 2558SOL    HW119310   4.164   3.225  15.354 -0.0529  0.3594 -1.3805
 2558SOL    HW219311   4.265   3.268  15.452  1.3776 -1.4056  1.8318
 2559SOL     OW19312   1.969   2.263   1.595 -0.0960  0.2817  0.1287
 2559SOL    HW119313   1.983   2.354   1.621  0.8838  0.0534  0.3717
 2559SOL    HW219314   2.059   2.234   1.609 -0.8954 -1.7308  1.0583
 2560SOL     OW19315   0.825   1.351   7.664  0.3726 -0.1962 -0.5109
 2560SOL    HW119316   0.802   1.355   7.572  0.0260  0.8075 -0.3838
 2560SOL    HW219317   0.919   1.338   7.674  0.3956  1.2623  1.1454
 2561SOL     OW19318   0.882   3.895   2.979  0.1365 -0.1984 -0.4397
 2561SOL    HW119319   0.795   3.859   2.965  0.5211 -1.2232 -0.1805
 2561SOL    HW219320   0.900   3.927   3.067 -1.6595 -0.2877 -0.0376
 2562SOL     OW19321   2.737   2.368   9.570  0.5786 -0.2708  0.3514
 2562SOL    HW119322   2.725   2.297   9.633 -0.7746 -2.1077 -2.0027
 2562SOL    HW219323   2.818   2.406   9.605  0.5492  0.1111 -0.0042
 2563SOL     OW19324   0.885   4.687   5.647  0.2082 -0.2808 -0.4638
 2563SOL    HW119325   0.963   4.637   5.672  1.2584  1.1473 -0.8738
 2563SOL    HW219326   0.833   4.619   5.605 -0.7361 -0.3353  0.8101
 2564SOL     OW19327   0.066   2.965   5.433  0.0808 -0.2461  0.2740
 2564SOL    HW119328   0.085   2.927   5.347 -1.0777  1.1834 -0.6208
 2564SOL    HW219329   4.709   2.968   5.423 -0.1516  2.3221  3.3627
 2565SOL     OW19330   1.749   4.299   6.301  0.0307  0.2053 -0.3484
 2565SOL    HW119331   1.696   4.219   6.301  0.0004  0.2252 -0.2169
 2565SOL    HW219332   1.838   4.280   6.328 -0.0764 -1.3137 -1.0134
 2566SOL     OW19333   1.584   0.915   4.521  0.2413 -0.2446 -0.3415
 2566SOL    HW119334   1.632   0.878   4.447 -0.5479  3.5063 -2.7272
 2566SOL    HW219335   1.552   0.998   4.486 -2.0625 -1.0785 -0.2712
 2567SOL     OW19336   3.171   2.291   0.803 -0.0739 -0.3318 -0.0894
 2567SOL    HW119337   3.130   2.205   0.817 -0.8432  0.0064 -0.2715
 2567SOL    HW219338   3.264   2.277   0.785 -0.6268 -0.5923 -2.6831
 2568SOL     OW19339   4.319   0.089   6.026  0.4388 -0.3398 -0.2716
 2568SOL    HW119340   4.344   4.736   6.042  2.4469  0.4654  1.1981
 2568SOL    HW219341   4.251   0.107   6.090  1.1119 -2.4433  1.0307
 2569SOL     OW19342   3.586   1.936  14.745  0.3110 -0.5612  0.6030
 2569SOL    HW119343   3.606   1.882  14.669 -0.4594 -0.2642  0.1888
 2569SOL    HW219344   3.623   1.883  14.815  0.6439 -1.2658 -0.1208
 2570SOL     OW19345   4.083   1.486   5.265  0.2488 -0.2096 -0.0160
 2570SOL    HW119346   3.998   1.465   5.227  0.4500  1.2693 -1.3201
 2570SOL    HW219347   4.117   1.531   5.187  0.1589  0.8937  0.5864
 2571SOL     OW19348   2.403   0.687   9.337 -0.3306 -0.4247 -0.5819
 2571SOL    HW119349   2.483   0.634   9.333  0.5184  0.6291  2.2518
 2571SOL    HW219350   2.340   0.639   9.391 -1.3182 -1.4251 -2.6485
 2572SOL     OW19351   4.418   3.963   9.486 -0.4699  0.3955  0.4365
 2572SOL    HW119352   4.383   3.906   9.554 -0.4963 -1.8635 -1.4967
 2572SOL    HW219353   4.462   3.901   9.428  1.8200  2.5008 -0.0995
 2573SOL     OW19354   0.671   1.506   3.663  0.3788  0.4985 -0.4059
 2573SOL    HW119355   0.640   1.435   3.606 -0.6625  1.1830 -0.6958
 2573SOL    HW219356   0.685   1.579   3.603  1.8962  1.3322  0.9648
 2574SOL     OW19357   4.282   3.556   4.270  0.3087  0.2186 -0.1750
 2574SOL    HW119358   4.360   3.609   4.255 -2.4872  3.9817 -1.2631
 2574SOL    HW219359   4.287   3.546   4.365 -0.7314  0.8315 -0.0524
 2575SOL     OW19360   1.973   3.863  14.190 -0.2022 -0.1345 -0.5075
 2575SOL    HW119361   1.885   3.830  14.207 -0.6612 -0.5449 -3.7489
 2575SOL    HW219362   1.965   3.907  14.106  0.9816  1.0255  0.0018
 2576SOL     OW19363   2.531   0.882   1.072 -0.2407  0.2985  0.4874
 2576SOL    HW119364   2.474   0.831   1.129  1.2103 -1.5704  0.2953
 2576SOL    HW219365   2.468   0.887   1.000 -0.7857 -1.8338  0.8060
 2577SOL     OW19366   2.370   1.058   7.654  0.2246 -0.4286  0.8538
 2577SOL    HW119367   2.348   0.994   7.586 -0.6899  1.0929 -0.2808
 2577SOL    HW219368   2.459   1.080   7.628 -0.2113  1.1405  0.7238
 2578SOL     OW19369   1.346   1.792   4.001  0.0910  0.7030  0.6295
 2578SOL    HW119370   1.335   1.799   4.096  2.7524  2.2969  0.8414
 2578SOL    HW219371   1.338   1.886   3.981 -0.8621  0.6080  0.5895
 2579SOL     OW19372   0.022   2.928  14.346 -0.0694 -0.4623  0.2272
 2579SOL    HW119373   0.037   2.834  14.359  1.8638  0.1906  2.7571
 2579SOL    HW219374   4.669   2.929  14.314 -0.2466 -0.4179  0.7250
 2580SOL     OW19375   2.978   0.536   6.342 -0.0178 -0.1013  0.3284
 2580SOL    HW119376   2.962   0.461   6.284 -1.9441 -1.4314  2.5687
 2580SOL    HW219377   2.902   0.589   6.317  0.3172 -0.4671 -1.4125
 2581SOL     OW19378   3.002   2.418   7.489  0.0344  0.0127 -0.0997
 2581SOL    HW119379   2.982   2.487   7.552 -0.1451  0.3310 -0.5095
 2581SOL    HW219380   3.065   2.363   7.537 -0.5769  1.0670  1.9224
 2582SOL     OW19381   4.555   1.174   2.107 -0.0127  0.1458 -0.2611
 2582SOL    HW119382   4.491   1.245   2.106  2.4167  2.3324 -0.7569
 2582SOL    HW219383   4.616   1.198   2.177 -1.8222  2.3193  0.5513
 2583SOL     OW19384   2.573   2.491   7.937  0.3751 -0.1589  0.1223
 2583SOL    HW119385   2.580   2.452   7.851 -0.4067  0.7472 -0.3553
 2583SOL    HW219386   2.660   2.466   7.968 -0.2636 -0.4131  1.7334
 2584SOL     OW19387   0.399   3.806   8.449  0.4437 -0.2006 -0.0021
 2584SOL    HW119388   0.357   3.728   8.485  0.2080 -0.1221 -0.1109
 2584SOL    HW219389   0.351   3.875   8.495  0.4726 -0.3035  0.1838
 2585SOL     OW19390   1.815   1.608   4.232  0.1206  0.7371  0.5959
 2585SOL    HW119391   1.833   1.683   4.288  0.9857  1.3629 -0.5116
 2585SOL    HW219392   1.745   1.568   4.284  0.7896  0.1190  1.0212
 2586SOL     OW19393   0.521   3.090   5.598  0.4725  0.0278 -0.2020
 2586SOL    HW119394   0.522   3.049   5.511  1.6782  0.0649 -0.2038
 2586SOL    HW219395   0.444   3.145   5.581  0.3920  0.1925  0.6979
 2587SOL     OW19396   2.057   4.558  15.855  0.6314  0.0043 -0.0121
 2587SOL    HW119397   2.026   4.649  15.856  1.4127  0.2862 -1.6437
 2587SOL    HW219398   2.152   4.570  15.853  0.4917  0.3296 -3.6083
 2588SOL     OW19399   1.153   0.666   4.557  0.3913  0.3316  0.3459
 2588SOL    HW119400   1.079   0.679   4.616  0.3401 -1.1472  0.5963
 2588SOL    HW219401   1.216   0.722   4.602  1.6974  0.6232 -1.8281
 2589SOL     OW19402   0.165   0.950   4.492  0.5585 -0.6987  0.1989
 2589SOL    HW119403   0.176   1.037   4.454  0.3338 -0.4279  0.7571
 2589SOL    HW219404   0.239   0.943   4.552  0.4372 -1.2561  0.2876
 2590SOL     OW19405   2.871   1.650   0.687 -0.5536 -0.3635 -0.4652
 2590SOL    HW119406   2.861   1.712   0.759 -0.9855 -1.2147  0.2176
 2590SOL    HW219407   2.792   1.671   0.638  0.3921  0.7409 -1.4941
 2591SOL     OW19408   3.048   0.829   0.077  0.3566  0.1864 -0.0948
 2591SOL    HW119409   2.967   0.779   0.077  0.9228 -0.7241  0.9270
 2591SOL    HW219410   3.058   0.837  17.732 -1.5990  3.3976 -0.0356
 2592SOL     OW19411   3.379   1.115   8.713 -0.1410  0.7310 -0.3268
 2592SOL    HW119412   3.397   1.133   8.805 -2.4869 -0.9672  0.4895
 2592SOL    HW219413   3.458   1.076   8.676  0.3618  0.3180  1.2166
 2593SOL     OW19414   2.131   3.366   6.441  0.2696  0.1127  0.0725
 2593SOL    HW119415   2.203   3.332   6.388  0.1942  0.2348 -0.1067
 2593SOL    HW219416   2.061   3.310   6.408 -0.3577  0.9158  0.0418
 2594SOL     OW19417   0.362   2.177   7.768  0.0533  0.2344  0.3583
 2594SOL    HW119418   0.451   2.150   7.744 -0.8764 -3.3222  0.8477
 2594SOL    HW219419   0.374   2.254   7.824 -0.3159  0.7974 -0.3475
 2595SOL     OW19420   2.058   0.561   8.792  0.4602  0.0205  1.0265
 2595SOL    HW119421   2.122   0.560   8.721  0.7796  3.7083  1.2578
 2595SOL    HW219422   2.060   0.471   8.827 -1.2710 -0.6897 -0.7548
 2596SOL     OW19423   2.096   0.416   3.933  0.0486 -0.0937 -0.7841
 2596SOL    HW119424   2.086   0.457   3.847  3.3809  0.0927 -1.0654
 2596SOL    HW219425   2.033   0.470   3.980  1.8732 -0.9047  2.5678
 2597SOL     OW19426   1.512   1.668   5.273 -0.1768  0.4617  0.1574
 2597SOL    HW119427   1.573   1.740   5.290 -3.2381  3.0750  0.0951
 2597SOL    HW219428   1.443   1.691   5.335 -0.0020  1.0695  0.1228
 2598SOL     OW19429   0.657   0.126  10.049  0.3428  0.3166 -0.1925
 2598SOL    HW119430   0.657   0.034  10.076 -1.3007  0.2242 -0.5258
 2598SOL    HW219431   0.620   0.160  10.131  1.2302  1.4572 -0.2711
 2599SOL     OW19432   0.335   2.521   0.636 -0.2338 -0.3049  0.3443
 2599SOL    HW119433   0.377   2.585   0.693  1.5645 -0.6979 -0.5554
 2599SOL    HW219434   0.253   2.568   0.619 -1.3192 -1.9650  0.9712
 2600SOL     OW19435   0.842   4.084   4.974  0.1439  0.3902  0.3286
 2600SOL    HW119436   0.927   4.040   4.981  0.1809  0.3177 -0.5014
 2600SOL    HW219437   0.870   4.155   4.917 -1.4072 -0.2503 -1.2513
 2601SOL     OW19438   4.049   0.655  15.414  0.1007 -0.2087 -0.0065
 2601SOL    HW119439   4.128   0.636  15.465  0.8288 -1.4457 -1.5825
 2601SOL    HW219440   4.075   0.730  15.360  1.5947 -1.3517 -0.8579
 2602SOL     OW19441   4.407   3.916   7.997 -0.4964 -0.4709  0.3921
 2602SOL    HW119442   4.331   3.885   7.946 -0.0227  1.4109 -1.4785
 2602SOL    HW219443   4.436   3.987   7.940  0.3985  1.3327  3.0970
 2603SOL     OW19444   3.450   1.866   6.334  0.9671 -0.1439  0.6511
 2603SOL    HW119445   3.532   1.817   6.344  1.4221  0.4752 -0.0570
 2603SOL    HW219446   3.427   1.901   6.420 -0.2987 -1.5863  0.9139
 2604SOL     OW19447   1.684   0.588   5.539 -0.3100  0.1739  0.0830
 2604SOL    HW119448   1.759   0.538   5.506  0.0657 -0.5787  2.0681
 2604SOL    HW219449   1.684   0.655   5.471  1.3347  0.5383  0.4308
 2605SOL     OW19450   4.174   4.514   1.677 -0.4440 -0.3995  0.0095
 2605SOL    HW119451   4.153   4.495   1.585  1.6018  1.7594 -0.9323
 2605SOL    HW219452   4.189   4.426   1.711  0.2886  0.5867  2.2218
 2606SOL     OW19453   2.805   0.457   3.907 -0.0704  1.1417  0.0746
 2606SOL    HW119454   2.889   0.422   3.879 -0.0848  0.7630  0.4992
 2606SOL    HW219455   2.791   0.391   3.976 -2.0465  0.8658 -0.6010
 2607SOL     OW19456   0.408   3.596   2.443 -0.6890  0.5025 -0.4121
 2607SOL    HW119457   0.406   3.597   2.538  2.7667  1.2649 -0.3395
 2607SOL    HW219458   0.493   3.562   2.415 -0.8120  0.9698 -1.3881
 2608SOL     OW19459   0.614   3.354   4.831 -0.0753  0.3843 -0.3720
 2608SOL    HW119460   0.707   3.333   4.823 -0.0267  0.2518  0.5394
 2608SOL    HW219461   0.623   3.418   4.902 -1.3943  0.4439 -0.2609
 2609SOL     OW19462   2.381   2.984   2.882 -0.4906  0.2143  0.4488
 2609SOL    HW119463   2.433   2.908   2.857  1.0368  1.5200 -0.3351
 2609SOL    HW219464   2.292   2.955   2.862 -0.3033  2.1514 -3.1821
 2610SOL     OW19465   1.533   0.516   1.838 -0.0648  0.5620 -0.1058
 2610SOL    HW119466   1.493   0.584   1.784 -0.9649 -0.5059 -0.7914
 2610SOL    HW219467   1.453   0.489   1.882 -1.0642  0.4730 -1.9516
 2611SOL     OW19468   4.484   0.435  17.046 -0.0356  0.1266  0.8461
 2611SOL    HW119469   4.530   0.517  17.028  0.4933 -0.0631  1.2987
 2611SOL    HW219470   4.422   0.431  16.974 -0.0138  0.4684  0.8119
 2612SOL     OW19471   3.595   2.410   5.196 -0.6340 -0.2573 -0.1109
 2612SOL    HW119472   3.630   2.355   5.126  0.0261 -2.8102  2.2555
 2612SOL    HW219473   3.677   2.432   5.241 -0.0004 -1.2985 -0.7491
 2613SOL     OW19474   1.502   3.690   9.610 -0.0048  0.5364  0.1475
 2613SOL    HW119475   1.490   3.785   9.603  0.8002  0.5067 -1.5541
 2613SOL    HW219476   1.410   3.670   9.628  0.3849 -0.1769  1.3326
 2614SOL     OW19477   2.944   2.816   4.759  0.3207 -0.2671 -0.1946
 2614SOL    HW119478   2.956   2.755   4.831  2.4550 -0.8218 -1.0092
 2614SOL    HW219479   3.034   2.839   4.737  0.3663  0.1220  0.4188
 2615SOL     OW19480   2.236   0.143   6.788 -0.4075 -0.4235  0.0388
 2615SOL    HW119481   2.146   0.116   6.804 -0.2943 -1.0199 -0.3324
 2615SOL    HW219482   2.244   0.236   6.766  0.4271 -0.7451 -1.0246
 2616SOL     OW19483   0.960   1.835  12.347 -0.3185 -0.3123 -0.1520
 2616SOL    HW119484   0.949   1.753  12.299 -2.5955 -1.0425  1.5992
 2616SOL    HW219485   0.977   1.892  12.272  0.0123  0.4874  0.5321
 2617SOL     OW19486   0.889   0.293   1.657  0.0561 -0.1598 -0.1941
 2617SOL    HW119487   0.800   0.266   1.679 -0.3930  1.5101 -0.0041
 2617SOL    HW219488   0.870   0.322   1.568 -0.9457 -1.0955 -0.2882
 2618SOL     OW19489   3.638   0.263   8.458 -0.0291 -0.4431 -0.1588
 2618SOL    HW119490   3.601   0.317   8.527  4.2307  3.5492 -1.0058
 2618SOL    HW219491   3.730   0.276   8.482 -0.8853  1.0908  2.2548
 2619SOL     OW19492   0.241   1.055  14.723  0.5908  0.0165  0.8579
 2619SOL    HW119493   0.170   1.043  14.660  0.6904 -1.7505  1.0659
 2619SOL    HW219494   0.210   1.013  14.803 -0.1030  1.9388  1.5931
 2620SOL     OW19495   2.510   4.488   0.798 -0.0403  0.8001 -0.1914
 2620SOL    HW119496   2.591   4.507   0.750  1.1953 -1.0108  1.1773
 2620SOL    HW219497   2.521   4.543   0.875 -0.7367 -0.3524  0.7301
 2621SOL     OW19498   1.167   2.204  16.531 -0.0867  0.2697 -0.3520
 2621SOL    HW119499   1.087   2.216  16.582 -0.0216  1.8671 -0.6270
 2621SOL    HW219500   1.204   2.293  16.535  0.3436 -0.0463  2.5983
 2622SOL     OW19501   0.204   0.283   8.422  0.5387 -0.0231  0.3859
 2622SOL    HW119502   0.118   0.239   8.421  1.4076 -1.7032 -2.0637
 2622SOL    HW219503   0.250   0.230   8.486  1.8447 -1.3821 -1.6713
 2623SOL     OW19504   0.818   0.430   7.842  0.7936  0.2836 -0.2467
 2623SOL    HW119505   0.899   0.411   7.795  1.2223 -0.5823  0.8467
 2623SOL    HW219506   0.761   0.385   7.780 -1.9856  0.6481  2.0286
 2624SOL     OW19507   2.684   0.804   0.294 -0.1304 -0.0980  0.1279
 2624SOL    HW119508   2.768   0.828   0.332 -1.2032  0.6307  2.0411
 2624SOL    HW219509   2.628   0.875   0.325  3.1187  2.1276  0.8434
 2625SOL     OW19510   0.179   0.472   4.022  0.3355  0.8947 -0.3221
 2625SOL    HW119511   0.089   0.505   4.023 -0.6931 -1.9218 -0.7385
 2625SOL    HW219512   0.166   0.425   3.939  1.6956 -0.2275  0.1119
 2626SOL     OW19513   4.408   3.265   1.179  0.1943 -0.6660 -0.0185
 2626SOL    HW119514   4.391   3.276   1.086 -0.5840 -0.9254  0.0917
 2626SOL    HW219515   4.494   3.306   1.177 -0.0016 -0.2856 -0.5656
 2627SOL     OW19516   1.652   3.922   7.370 -0.3704 -0.1636  0.1297
 2627SOL    HW119517   1.737   3.936   7.329 -1.0775 -2.0374 -1.9768
 2627SOL    HW219518   1.668   3.972   7.450  0.5397  0.0233 -0.1763
 2628SOL     OW19519   1.181   0.204   3.935  0.6093 -0.8828  0.1683
 2628SOL    HW119520   1.115   0.138   3.956 -0.8331 -0.0783 -1.8304
 2628SOL    HW219521   1.118   0.272   3.913  0.4503 -1.1637 -0.2480
 2629SOL     OW19522   3.548   3.876   1.184 -0.0446  0.1815 -0.5730
 2629SOL    HW119523   3.607   3.904   1.255 -0.5430  0.4598 -0.2680
 2629SOL    HW219524   3.497   3.957   1.174 -2.3232 -1.1443  0.4026
 2630SOL     OW19525   2.459   4.209  11.386  0.7696  0.7124  0.0417
 2630SOL    HW119526   2.526   4.244  11.445  0.2792  0.8821  0.4965
 2630SOL    HW219527   2.452   4.119  11.419 -0.6326 -0.2530 -2.9084
 2631SOL     OW19528   3.956   3.405   0.378 -0.3155 -0.2520 -0.2221
 2631SOL    HW119529   3.867   3.421   0.347 -0.0017  1.0845 -0.4452
 2631SOL    HW219530   4.008   3.445   0.308  1.4857 -2.2646 -0.0303
 2632SOL     OW19531   2.181   3.629   4.335 -0.4650 -0.1235 -0.1468
 2632SOL    HW119532   2.092   3.636   4.300 -1.2376 -1.2982  1.5797
 2632SOL    HW219533   2.240   3.672   4.273 -0.0122 -0.2362  0.2091
 2633SOL     OW19534   2.879   3.932   8.478  0.2779  0.3825 -0.3256
 2633SOL    HW119535   2.918   3.870   8.540  1.6921  0.9030 -0.6994
 2633SOL    HW219536   2.864   3.871   8.405  2.5460 -1.9090  1.1073
 2634SOL     OW19537   4.348   2.641  15.414  0.0282  0.2361 -0.4487
 2634SOL    HW119538   4.297   2.573  15.459 -0.5599  0.5073 -0.7193
 2634SOL    HW219539   4.426   2.596  15.380 -1.5208 -0.7330 -2.7307
 2635SOL     OW19540   3.482   3.682   1.504 -0.1475  0.5170  0.5169
 2635SOL    HW119541   3.571   3.714   1.492  0.3985 -1.2114 -0.0824
 2635SOL    HW219542   3.478   3.621   1.430 -2.9333  0.0897  1.0084
 2636SOL     OW19543   4.628   2.547   1.395  0.0625 -0.2000  0.0964
 2636SOL    HW119544   4.594   2.485   1.459  2.4110 -2.6875 -1.0767
 2636SOL    HW219545   4.721   2.523   1.399  0.1649 -0.4200 -3.4198
 2637SOL     OW19546   3.653   3.399  16.979  0.4495 -0.7065  0.9424
 2637SOL    HW119547   3.703   3.326  17.015  0.4817 -0.2836  1.7349
 2637SOL    HW219548   3.721   3.465  16.970  1.4647 -2.1760 -2.0540
 2638SOL     OW19549   3.499   1.517   8.949  0.0101 -0.0053  0.4090
 2638SOL    HW119550   3.510   1.450   8.882  1.3615  0.2905  0.3314
 2638SOL    HW219551   3.458   1.586   8.896 -0.1170  1.0411  1.8923
 2639SOL     OW19552   2.932   4.223  13.900 -0.6925  0.0606  0.5858
 2639SOL    HW119553   2.904   4.227  13.808  0.6684  0.8441  0.2060
 2639SOL    HW219554   2.895   4.308  13.923 -0.9848  0.2764 -0.6335
 2640SOL     OW19555   1.875   0.917   7.259  0.4633  0.1164  0.3610
 2640SOL    HW119556   1.852   0.963   7.340  0.1549 -1.5397  1.2210
 2640SOL    HW219557   1.864   0.991   7.199  2.1842  1.1518  1.3031
 2641SOL     OW19558   3.340   1.308  10.088 -0.3677  0.1079 -0.1994
 2641SOL    HW119559   3.412   1.356  10.048 -0.1754  1.3550  1.6432
 2641SOL    HW219560   3.385   1.243  10.143 -0.3194 -1.0347 -1.5707
 2642SOL     OW19561   3.181   3.979   4.899  0.2519  0.4643  0.0245
 2642SOL    HW119562   3.101   3.939   4.865 -0.5412  1.0190  1.2614
 2642SOL    HW219563   3.212   4.022   4.819  4.2437  0.1319  1.3724
 2643SOL     OW19564   3.397   1.138   1.938 -0.0634  0.4347 -0.4752
 2643SOL    HW119565   3.485   1.113   1.910  0.2571  1.7814 -0.6976
 2643SOL    HW219566   3.359   1.173   1.857 -2.3106 -0.0305  0.3684
 2644SOL     OW19567   0.374   1.191   5.404 -0.0026 -0.1787 -0.4155
 2644SOL    HW119568   0.383   1.234   5.319 -0.4198  0.8992  0.0818
 2644SOL    HW219569   0.287   1.153   5.394  0.4561 -1.0244 -1.1838
 2645SOL     OW19570   0.219   1.655   8.755 -0.5604  0.3831 -0.4324
 2645SOL    HW119571   0.180   1.587   8.700  1.3780  0.0556 -1.4395
 2645SOL    HW219572   0.291   1.676   8.695 -1.5757 -0.4764 -1.9582
 2646SOL     OW19573   4.263   1.581   0.341  0.2441 -0.3693  0.0493
 2646SOL    HW119574   4.188   1.566   0.399 -0.9192  0.5558 -1.2159
 2646SOL    HW219575   4.338   1.583   0.400 -0.2969 -0.5898  0.7493
 2647SOL     OW19576   2.862   2.482   7.993  0.1887  0.5054 -0.0461
 2647SOL    HW119577   2.878   2.414   8.058 -0.2082  0.3012 -0.1626
 2647SOL    HW219578   2.917   2.559   8.008  0.1070  0.3503  1.0119
 2648SOL     OW19579   0.291   3.481   7.535 -0.1335  0.6320 -0.0898
 2648SOL    HW119580   0.226   3.451   7.471  0.0132  0.3066 -0.0855
 2648SOL    HW219581   0.375   3.455   7.499 -0.0607 -0.2822  0.7314
 2649SOL     OW19582   0.302   0.763  14.720  0.2647  0.1654  0.6602
 2649SOL    HW119583   0.292   0.739  14.628  0.4374  2.3360  0.0784
 2649SOL    HW219584   0.390   0.801  14.717 -0.3670  1.7636  1.8719
 2650SOL     OW19585   3.326   1.646   7.768 -0.5446 -0.1172  0.1078
 2650SOL    HW119586   3.278   1.601   7.838 -1.1727 -1.1153 -0.9599
 2650SOL    HW219587   3.376   1.716   7.809 -2.7217 -0.5678  3.5456
 2651SOL     OW19588   0.030   2.498  10.023 -0.4013  0.2178 -0.2299
 2651SOL    HW119589   0.076   2.582  10.026 -2.1060  1.0697  3.0063
 2651SOL    HW219590   4.688   2.543   9.995 -1.4730 -1.2063  0.4562
 2652SOL     OW19591   0.140   1.775   1.695  0.0822  0.0401  0.1035
 2652SOL    HW119592   0.206   1.732   1.641 -1.1429 -1.9637  0.2231
 2652SOL    HW219593   0.079   1.711   1.731 -1.2197  0.1342 -1.9072
 2653SOL     OW19594   3.169   2.132  10.675  0.2806 -0.5192  0.5710
 2653SOL    HW119595   3.136   2.213  10.636  0.2940 -1.5417 -1.5747
 2653SOL    HW219596   3.258   2.131  10.641 -0.6193 -0.6674 -1.7896
 2654SOL     OW19597   3.698   3.023   0.486  0.3655  0.2414 -0.2623
 2654SOL    HW119598   3.787   3.058   0.480  0.4727 -0.0610 -0.4777
 2654SOL    HW219599   3.704   2.958   0.416  2.6093 -1.8404  1.9150
 2655SOL     OW19600   1.227   4.115   8.189 -0.4889 -0.8022  0.0303
 2655SOL    HW119601   1.212   4.045   8.125  1.8412  0.1167 -1.5228
 2655SOL    HW219602   1.167   4.087   8.258 -3.6957  0.1416 -2.3787
 2656SOL     OW19603   1.049   2.546   4.220 -0.6912  0.0945 -0.2983
 2656SOL    HW119604   1.091   2.461   4.233  1.1071  1.0932  0.3679
 2656SOL    HW219605   1.026   2.577   4.307 -0.0528 -1.7510  0.5228
 2657SOL     OW19606   3.464   0.592   7.670  0.2561 -0.0397 -0.2258
 2657SOL    HW119607   3.427   0.507   7.646 -0.6167  0.7690 -1.7657
 2657SOL    HW219608   3.428   0.642   7.597 -0.8143 -2.8177 -1.5829
 2658SOL     OW19609   3.367   4.372   7.294 -0.4339 -0.2695  0.2432
 2658SOL    HW119610   3.392   4.298   7.239  4.0489 -0.4529  2.5017
 2658SOL    HW219611   3.275   4.386   7.273 -0.4739 -0.0400  0.5809
 2659SOL     OW19612   1.464   2.317   7.784 -0.4608 -0.1588  0.4482
 2659SOL    HW119613   1.394   2.288   7.843 -0.5100  0.4758  0.6955
 2659SOL    HW219614   1.407   2.340   7.710 -0.3582 -0.5101  0.2564
 2660SOL     OW19615   3.011   0.372   8.153  0.1107  0.5296  0.0084
 2660SOL    HW119616   2.920   0.342   8.141  0.7536 -1.0258 -1.0228
 2660SOL    HW219617   3.039   0.370   8.062 -0.4870 -2.4862 -0.1429
 2661SOL     OW19618   3.769   3.728   6.686 -0.5273 -0.2238  0.1615
 2661SOL    HW119619   3.830   3.740   6.614 -0.5833  3.1751  0.6803
 2661SOL    HW219620   3.816   3.740   6.769 -0.9654 -0.7037  0.4810
 2662SOL     OW19621   4.647   0.638   9.785 -0.1853  0.2316  0.1470
 2662SOL    HW119622   4.690   0.560   9.821 -1.5297 -1.4406 -1.8295
 2662SOL    HW219623   4.717   0.687   9.742  2.1610 -2.7281  0.5615
 2663SOL     OW19624   2.604   0.646   6.962  0.0380  0.2300 -0.1301
 2663SOL    HW119625   2.691   0.671   6.992 -1.6905  1.5888  3.6542
 2663SOL    HW219626   2.579   0.730   6.925 -2.2604  0.0775  1.0845
 2664SOL     OW19627   1.782   1.209   3.026 -0.3017 -0.6714 -0.4640
 2664SOL    HW119628   1.760   1.207   3.119 -0.6751  0.0204 -0.5401
 2664SOL    HW219629   1.875   1.185   3.023 -0.1308  0.2714 -2.7501
 2665SOL     OW19630   2.142   4.505   1.130  0.5645 -0.5677  0.5553
 2665SOL    HW119631   2.122   4.431   1.187 -0.9238 -1.1095 -0.6687
 2665SOL    HW219632   2.219   4.472   1.082 -0.0404 -0.4189 -0.5331
 2666SOL     OW19633   3.999   2.162   6.010  0.0200 -0.5134 -0.1120
 2666SOL    HW119634   3.981   2.236   6.068  0.7046  0.4228 -1.0861
 2666SOL    HW219635   3.953   2.095   6.061  1.0892 -1.8820 -0.9675
 2667SOL     OW19636   3.008   1.864   2.873 -0.2297  0.3972  0.5510
 2667SOL    HW119637   3.047   1.907   2.949  0.7521 -2.5708  1.7560
 2667SOL    HW219638   2.922   1.906   2.880 -0.2141  0.2026  1.9690
 2668SOL     OW19639   1.023   0.306   4.504  0.1907  0.1400  0.5411
 2668SOL    HW119640   0.982   0.344   4.581 -3.2519 -0.0628 -1.1966
 2668SOL    HW219641   1.103   0.360   4.501  0.3683 -0.1080  0.7970
 2669SOL     OW19642   3.832   4.582   6.717 -0.2696  0.1074  0.1131
 2669SOL    HW119643   3.825   4.487   6.714 -0.3837  0.0648  2.0821
 2669SOL    HW219644   3.924   4.605   6.731  0.3436 -2.4560  0.2793
 2670SOL     OW19645   2.336   3.752  13.763 -0.1487 -0.4386 -0.2162
 2670SOL    HW119646   2.427   3.736  13.788 -0.2718 -1.2191 -0.2560
 2670SOL    HW219647   2.351   3.843  13.738  1.1576 -0.3637  0.8368
 2671SOL     OW19648   2.117   1.264   5.431  0.3907  0.4189 -0.0049
 2671SOL    HW119649   2.148   1.254   5.521  1.6364  2.3359 -0.2105
 2671SOL    HW219650   2.031   1.301   5.448  0.1857 -0.3930  0.7408
 2672SOL     OW19651   2.626   3.403   7.652  0.2137  0.1617  0.0003
 2672SOL    HW119652   2.562   3.372   7.589 -1.0141  0.5501  1.0570
 2672SOL    HW219653   2.577   3.463   7.708 -0.3075 -2.2280  2.0936
 2673SOL     OW19654   1.827   0.208   5.761 -0.0627  0.2795  0.1395
 2673SOL    HW119655   1.858   0.197   5.851 -1.0003 -0.2800  0.4020
 2673SOL    HW219656   1.733   0.190   5.768  0.0098 -0.0144  0.3820
 2674SOL     OW19657   4.118   0.009  11.093  0.2327 -1.0002  0.1739
 2674SOL    HW119658   4.094   0.095  11.058 -2.2092 -0.8416  2.2468
 2674SOL    HW219659   4.214   0.012  11.100  0.3761 -0.3794 -2.2811
 2675SOL     OW19660   2.113   4.420   5.167  0.0207  0.2546  0.6112
 2675SOL    HW119661   2.207   4.421   5.147 -0.3174  0.5368 -0.9968
 2675SOL    HW219662   2.070   4.412   5.082 -0.7388 -0.4795  1.0769
 2676SOL     OW19663   3.735   4.300  16.643  0.2307  0.0103  0.0968
 2676SOL    HW119664   3.644   4.309  16.613 -0.1232 -0.8175  0.9123
 2676SOL    HW219665   3.753   4.211  16.612  1.3587  0.6594 -1.1182
 2677SOL     OW19666   1.059   0.181   8.393 -0.4055  0.6104 -0.2919
 2677SOL    HW119667   0.999   0.148   8.327  0.2722 -1.9668  0.3795
 2677SOL    HW219668   1.069   0.271   8.363 -1.1362  0.7475 -0.1116
 2678SOL     OW19669   2.562   0.363  10.488  0.2752  0.8721 -0.4630
 2678SOL    HW119670   2.613   0.283  10.500 -0.0379  0.9274  1.2743
 2678SOL    HW219671   2.585   0.413  10.565 -0.5128 -0.4574  0.6499
 2679SOL     OW19672   4.257   1.909   5.238 -0.2016 -0.1480 -0.1791
 2679SOL    HW119673   4.213   1.829   5.267  0.0778  0.1420  1.0764
 2679SOL    HW219674   4.339   1.899   5.286 -1.1218 -0.1627  1.4125
 2680SOL     OW19675   0.294   1.456   4.951 -0.1389  0.2319 -0.1633
 2680SOL    HW119676   0.226   1.492   4.893  1.2564 -1.3164 -2.7935
 2680SOL    HW219677   0.357   1.524   4.928 -0.4894  1.1690  1.7332
 2681SOL     OW19678   4.078   2.716   1.870  0.5899  0.0031 -0.2247
 2681SOL    HW119679   4.014   2.749   1.933 -0.0639 -0.3083 -0.7268
 2681SOL    HW219680   4.157   2.722   1.924  0.7426 -2.0229 -0.2487
 2682SOL     OW19681   4.185   1.876  14.173  0.4155  0.2187  0.1063
 2682SOL    HW119682   4.179   1.891  14.078 -1.2775  0.7699  0.2981
 2682SOL    HW219683   4.160   1.783  14.177 -3.7717  1.2427 -1.9896
 2683SOL     OW19684   2.215   0.142   8.742 -0.4005 -0.0835 -0.2484
 2683SOL    HW119685   2.140   0.195   8.770  2.7306  4.1760  0.1347
 2683SOL    HW219686   2.168   0.066   8.708 -1.0406  1.0114 -1.8239
 2684SOL     OW19687   0.367   4.456   5.923 -0.6740  0.0067 -0.4363
 2684SOL    HW119688   0.430   4.472   5.853 -0.4509  0.2336 -0.1869
 2684SOL    HW219689   0.381   4.363   5.938  1.9196  0.1440 -2.2244
 2685SOL     OW19690   2.397   0.797  15.556 -0.1598  0.1107  0.7686
 2685SOL    HW119691   2.469   0.821  15.498  0.0855 -4.1442 -0.6808
 2685SOL    HW219692   2.341   0.757  15.489  1.1821  0.9228 -0.8469
 2686SOL     OW19693   0.704   0.021   1.526 -0.2610 -0.2809  0.6980
 2686SOL    HW119694   0.684   0.037   1.434  0.5752 -1.4708  0.3156
 2686SOL    HW219695   0.798   0.002   1.520 -0.5888 -1.8881  0.6291
 2687SOL     OW19696   0.437   2.431   3.770 -0.1780 -0.0283  0.3293
 2687SOL    HW119697   0.533   2.423   3.766 -0.3302 -0.8702 -1.9827
 2687SOL    HW219698   0.428   2.489   3.694 -0.0567 -1.8522 -1.0789
 2688SOL     OW19699   2.986   2.082  11.762 -0.3350 -0.0173  0.5495
 2688SOL    HW119700   2.934   2.023  11.708  0.1416 -0.3112  0.4140
 2688SOL    HW219701   3.039   2.024  11.817 -1.3501 -1.1810  0.3075
 2689SOL     OW19702   1.518   2.743   3.478 -0.0490 -0.0643 -0.3296
 2689SOL    HW119703   1.567   2.684   3.420  0.2849 -2.7164  2.6972
 2689SOL    HW219704   1.590   2.779   3.530  2.3358 -1.6970 -2.5050
 2690SOL     OW19705   0.422   1.352   6.427 -0.4670 -0.4618  0.1432
 2690SOL    HW119706   0.396   1.352   6.335 -1.7522  1.4280  0.4930
 2690SOL    HW219707   0.399   1.444   6.442  1.0802  0.1255 -1.0643
 2691SOL     OW19708   2.340   0.544   1.681 -0.6209 -0.4742 -0.5995
 2691SOL    HW119709   2.313   0.620   1.733 -0.5210 -0.1602 -1.0083
 2691SOL    HW219710   2.289   0.559   1.602  0.5848  0.2738 -1.2278
 2692SOL     OW19711   1.444   2.270   6.795  0.5305 -0.3437 -0.1944
 2692SOL    HW119712   1.514   2.334   6.787  0.1304  0.1764  0.5753
 2692SOL    HW219713   1.477   2.207   6.858  1.4145 -0.2032 -0.5219
 2693SOL     OW19714   0.400   1.742   1.048  0.4216  0.2399  0.2303
 2693SOL    HW119715   0.397   1.735   0.952  1.0686 -0.5498  0.2715
 2693SOL    HW219716   0.348   1.666   1.073  0.2181  0.1421 -0.4692
 2694SOL     OW19717   0.784   2.947   8.392  0.4148  0.2843 -0.6058
 2694SOL    HW119718   0.841   2.942   8.315  1.2625  0.5865 -0.0077
 2694SOL    HW219719   0.779   3.043   8.399 -0.0010  0.2233 -0.0892
 2695SOL     OW19720   0.534   2.194   0.846 -0.0935  0.0904  0.0670
 2695SOL    HW119721   0.539   2.180   0.752 -0.0316  1.5370 -0.1476
 2695SOL    HW219722   0.501   2.110   0.879 -2.2407  0.1691 -1.9739
 2696SOL     OW19723   4.344   2.077   2.269  0.0798  0.2913 -0.6369
 2696SOL    HW119724   4.364   1.983   2.268 -1.2706 -0.0473  1.7179
 2696SOL    HW219725   4.299   2.070   2.354  1.3850  0.8849  0.1074
 2697SOL     OW19726   0.244   3.504   9.942 -0.1637 -0.4666 -0.2170
 2697SOL    HW119727   0.314   3.474   9.884  1.8513 -0.3438  2.1454
 2697SOL    HW219728   0.277   3.472  10.026 -1.5753  0.6374  0.7592
 2698SOL     OW19729   2.703   1.554  11.342 -0.1647  0.1080  0.4679
 2698SOL    HW119730   2.767   1.594  11.401 -0.8234 -0.7539  1.7782
 2698SOL    HW219731   2.679   1.637  11.302  1.0756 -0.2659 -1.0545
 2699SOL     OW19732   4.471   2.347   1.544  0.6085  0.0570  0.3589
 2699SOL    HW119733   4.376   2.346   1.537  0.6148  1.1223  0.2193
 2699SOL    HW219734   4.497   2.273   1.489  1.7018  1.0424 -0.4336
 2700SOL     OW19735   4.138   1.273   1.301 -0.4156  0.1209 -0.3573
 2700SOL    HW119736   4.108   1.284   1.211  0.6161 -0.4574 -0.7758
 2700SOL    HW219737   4.101   1.353   1.338  0.1678 -0.3462  1.2612
 2701SOL     OW19738   1.204   4.539   4.469 -0.4299  0.0059 -0.1060
 2701SOL    HW119739   1.130   4.543   4.529  0.5131  1.1595  0.9758
 2701SOL    HW219740   1.205   4.630   4.439 -1.4951  0.5027  1.3600
 2702SOL     OW19741   4.566   4.104  16.406 -0.5126 -0.2529  0.1030
 2702SOL    HW119742   4.556   4.060  16.491 -0.2078 -0.4839  0.0199
 2702SOL    HW219743   4.559   4.033  16.343  0.2295 -2.1183  2.1162
 2703SOL     OW19744   3.894   2.839   4.338 -0.3147 -0.0830  0.4693
 2703SOL    HW119745   3.949   2.763   4.354 -1.7238 -0.9618  1.1504
 2703SOL    HW219746   3.905   2.868   4.247 -1.4588 -1.3901 -0.0811
 2704SOL     OW19747   3.120   3.047   2.646 -0.0466  0.0788 -0.0164
 2704SOL    HW119748   3.158   3.098   2.718  1.3707 -0.0743 -0.6581
 2704SOL    HW219749   3.167   2.965   2.658  1.1833  0.8318  0.3549
 2705SOL     OW19750   3.567   1.460   9.998  0.0490  0.5665 -0.3269
 2705SOL    HW119751   3.655   1.481  10.029  0.0105 -0.5096  0.5144
 2705SOL    HW219752   3.579   1.472   9.904  0.2197  1.2573 -0.2200
 2706SOL     OW19753   4.504   4.269   4.919 -0.8255  0.1598 -0.2060
 2706SOL    HW119754   4.529   4.249   4.829  1.0490  0.4147  0.2379
 2706SOL    HW219755   4.470   4.357   4.901 -0.4436  0.4975  0.6819
 2707SOL     OW19756   0.533   4.032  12.056  0.0701 -0.0054  0.1500
 2707SOL    HW119757   0.535   4.093  11.982 -0.6452 -0.6612 -0.4189
 2707SOL    HW219758   0.439   4.018  12.071  0.4714 -3.0918 -0.1934
 2708SOL     OW19759   2.778   0.223   8.028  0.1854  0.5367  0.2675
 2708SOL    HW119760   2.723   0.155   8.066 -0.4494  1.8717  1.7554
 2708SOL    HW219761   2.703   0.266   7.987  0.4812 -0.5767 -1.4510
 2709SOL     OW19762   4.505   1.075  10.417  0.3749  0.4897 -0.5174
 2709SOL    HW119763   4.595   1.083  10.386  1.2330 -2.0238  1.3263
 2709SOL    HW219764   4.469   1.010  10.357  1.2008 -0.2194 -0.2428
 2710SOL     OW19765   2.364   3.077   1.463 -0.8379 -0.2919 -0.0594
 2710SOL    HW119766   2.437   3.093   1.523 -0.8396 -1.2859  0.2108
 2710SOL    HW219767   2.372   3.139   1.391 -0.5974  1.1297  1.1907
 2711SOL     OW19768   1.439   1.519   4.670  0.5342  0.3369  0.0890
 2711SOL    HW119769   1.425   1.518   4.764 -0.9745  1.5583 -0.1249
 2711SOL    HW219770   1.533   1.527   4.655  0.3846 -0.2630 -1.1920
 2712SOL     OW19771   3.988   2.981   1.673  0.9195 -0.2727 -0.3266
 2712SOL    HW119772   4.053   3.038   1.715  1.2904 -0.8222 -0.1478
 2712SOL    HW219773   3.910   3.036   1.677  0.3684 -1.0604 -0.3359
 2713SOL     OW19774   1.105   3.694   3.105  0.0948  0.4749  0.4220
 2713SOL    HW119775   1.020   3.738   3.096 -0.3402 -0.6485 -0.9695
 2713SOL    HW219776   1.078   3.616   3.056  1.1839  0.0677  0.4691
 2714SOL     OW19777   3.964   1.555   8.500  0.3256 -0.7114  0.6307
 2714SOL    HW119778   3.937   1.489   8.564  1.6264 -0.1300  1.7932
 2714SOL    HW219779   3.881   1.547   8.454 -0.2691  1.3283  1.3444
 2715SOL     OW19780   1.051   2.289   4.293 -0.4180 -0.4801 -0.0337
 2715SOL    HW119781   0.963   2.252   4.307 -0.9360  0.3000 -1.2867
 2715SOL    HW219782   1.106   2.211   4.286  0.9970  0.3692  1.6362
 2716SOL     OW19783   1.283   4.432   7.242  0.3084 -0.5376  0.1882
 2716SOL    HW119784   1.294   4.519   7.203 -3.7919  0.1441  0.5598
 2716SOL    HW219785   1.219   4.387   7.187 -2.1527  1.7654  1.1271
 2717SOL     OW19786   4.549   0.708   9.331  0.8249  0.1230  0.6148
 2717SOL    HW119787   4.503   0.647   9.273  0.4247  1.6614 -0.7109
 2717SOL    HW219788   4.526   0.681   9.419 -1.9405  0.1958 -0.0739
 2718SOL     OW19789   0.737   4.480  16.129 -0.2815 -0.0941 -0.3260
 2718SOL    HW119790   0.705   4.545  16.066 -2.0124 -1.1168 -0.5030
 2718SOL    HW219791   0.820   4.471  16.083  1.2032  0.4637  2.3080
 2719SOL     OW19792   3.825   2.677  17.234 -0.4748 -0.4412  0.3141
 2719SOL    HW119793   3.833   2.581  17.234  1.5362 -0.2787  1.2170
 2719SOL    HW219794   3.733   2.682  17.207 -0.2406 -2.4641 -0.9034
 2720SOL     OW19795   3.525   2.084   4.105 -0.4566 -0.5032  0.6117
 2720SOL    HW119796   3.466   2.158   4.117 -1.2742 -0.7463 -2.0653
 2720SOL    HW219797   3.563   2.082   4.193 -1.8504  0.9593  1.2497
 2721SOL     OW19798   4.012   1.014   7.247 -0.7276  0.2826  0.1165
 2721SOL    HW119799   3.997   0.971   7.331 -1.0266  0.8072  0.3284
 2721SOL    HW219800   4.076   1.080   7.274  1.5347 -2.2157  0.8514
 2722SOL     OW19801   2.326   0.298   3.666  0.0550  0.0868 -0.1170
 2722SOL    HW119802   2.405   0.344   3.695  1.3848 -2.1338 -0.1747
 2722SOL    HW219803   2.362   0.229   3.610 -0.5957  0.7260 -1.3373
 2723SOL     OW19804   0.125   0.230  14.818 -0.4391  0.0330 -0.8303
 2723SOL    HW119805   0.111   0.318  14.853  0.6615 -0.2345  0.3005
 2723SOL    HW219806   0.220   0.233  14.813 -0.3528  0.4471  0.9317
 2724SOL     OW19807   3.637   0.926   1.367 -0.3298 -0.1467 -0.0598
 2724SOL    HW119808   3.697   0.990   1.404 -0.1133  0.1780 -0.9641
 2724SOL    HW219809   3.706   0.859   1.364  1.6303  1.8136  1.0346
 2725SOL     OW19810   3.591   4.018   5.380  0.8304  0.3423  0.0224
 2725SOL    HW119811   3.608   4.032   5.473  1.6431  0.8880 -0.2138
 2725SOL    HW219812   3.567   3.925   5.380  0.1208  0.5331  0.5307
 2726SOL     OW19813   2.683   1.875   8.964 -0.4364  0.5590  0.0331
 2726SOL    HW119814   2.709   1.839   9.049 -1.6058  0.6876  0.4513
 2726SOL    HW219815   2.682   1.969   8.983 -0.9241  1.0096 -2.2378
 2727SOL     OW19816   3.896   0.461   5.947 -0.5787  0.2456  0.6205
 2727SOL    HW119817   3.928   0.462   5.857 -1.0859 -0.4106  0.4231
 2727SOL    HW219818   3.801   0.449   5.934 -0.7511  1.4634  0.7770
 2728SOL     OW19819   1.778   1.098   9.223 -0.0817 -0.0384  0.3599
 2728SOL    HW119820   1.836   1.097   9.147 -1.0653  3.3013 -0.4347
 2728SOL    HW219821   1.821   1.161   9.281 -2.0090 -0.1006  1.8419
 2729SOL     OW19822   0.914   3.629   9.883  0.0704  0.4034  0.0769
 2729SOL    HW119823   0.869   3.563   9.830 -1.2394  1.3215  0.0584
 2729SOL    HW219824   0.954   3.576   9.952 -0.4038  0.8781  0.7114
 2730SOL     OW19825   3.202   1.656   4.307 -0.1248  0.1861  0.3451
 2730SOL    HW119826   3.164   1.576   4.270 -0.2778  0.6874 -0.5898
 2730SOL    HW219827   3.256   1.622   4.379  0.2518 -0.1848 -0.1099
 2731SOL     OW19828   2.121   2.273   4.798 -0.2527 -0.5448  0.1856
 2731SOL    HW119829   2.103   2.179   4.789  1.3081 -1.0421  2.3786
 2731SOL    HW219830   2.105   2.305   4.709  2.0656  1.6144  0.5313
 2732SOL     OW19831   2.944   4.049   9.368 -0.0475 -0.4088 -0.0568
 2732SOL    HW119832   2.945   4.057   9.463  0.0686 -0.9514 -0.0125
 2732SOL    HW219833   3.034   4.077   9.355 -0.6091  1.1616 -0.6383
 2733SOL     OW19834   4.379   4.308   4.614  0.4089 -0.2158 -0.0592
 2733SOL    HW119835   4.425   4.366   4.553  0.1965 -0.5789 -0.5670
 2733SOL    HW219836   4.289   4.339   4.601  0.4762  0.0349  0.0758
 2734SOL     OW19837   3.860   1.549   8.895  0.3249 -0.2400  0.1363
 2734SOL    HW119838   3.864   1.460   8.859 -0.4636 -0.4651  0.6009
 2734SOL    HW219839   3.817   1.613   8.838  0.6197  0.9771  1.2909
 2735SOL     OW19840   3.847   0.797   1.666 -0.1202  0.1322 -0.0079
 2735SOL    HW119841   3.844   0.892   1.657 -0.5079  0.0804 -0.3981
 2735SOL    HW219842   3.937   0.777   1.638  0.5425  0.5411  1.8595
 2736SOL     OW19843   1.333   2.043   1.874 -0.5370  0.0790 -0.3066
 2736SOL    HW119844   1.379   1.991   1.940 -0.9507 -0.1674 -0.2137
 2736SOL    HW219845   1.303   2.125   1.914  0.1992  1.5891 -2.8314
 2737SOL     OW19846   1.489   0.222   5.533  0.5522 -0.5949  0.7139
 2737SOL    HW119847   1.554   0.251   5.469  0.8583  1.2372  1.8676
 2737SOL    HW219848   1.466   0.135   5.501  1.3849  0.5811 -3.1551
 2738SOL     OW19849   0.379   3.217   0.340  0.2724  0.2399  0.0272
 2738SOL    HW119850   0.342   3.216   0.252 -0.4869 -1.5851  0.3794
 2738SOL    HW219851   0.299   3.235   0.390  0.5731  0.3484  0.4712
 2739SOL     OW19852   4.623   2.509   2.445  0.0926 -0.0054  0.2314
 2739SOL    HW119853   4.592   2.451   2.375  0.2142  1.3615 -0.9670
 2739SOL    HW219854   4.616   2.452   2.521 -0.1329 -1.2389 -0.7086
 2740SOL     OW19855   2.490   3.173  15.173  0.0503  0.2024 -0.3688
 2740SOL    HW119856   2.516   3.134  15.256 -0.1513 -1.9449 -1.3027
 2740SOL    HW219857   2.576   3.204  15.142  0.4644 -1.4573 -0.9080
 2741SOL     OW19858   4.292   0.188   3.146  0.2799 -0.0931 -0.1295
 2741SOL    HW119859   4.366   0.133   3.172 -0.8267 -1.1582  0.7470
 2741SOL    HW219860   4.247   0.134   3.082  1.3082  0.8774 -1.6757
 2742SOL     OW19861   3.300   2.489   6.081 -0.0912  0.6198 -0.0788
 2742SOL    HW119862   3.383   2.529   6.055 -1.1045  1.9349 -1.2990
 2742SOL    HW219863   3.243   2.566   6.087  2.6065  2.5206  1.2258
 2743SOL     OW19864   0.386   0.619   7.829  0.3074 -0.4820 -0.1241
 2743SOL    HW119865   0.308   0.634   7.883  0.6554 -1.0577  0.5357
 2743SOL    HW219866   0.420   0.545   7.880 -0.2308 -1.5312 -1.2660
 2744SOL     OW19867   4.589   4.383   2.962 -0.1723 -0.4438 -0.0168
 2744SOL    HW119868   4.656   4.391   2.894 -2.8849  4.0504 -2.1430
 2744SOL    HW219869   4.643   4.415   3.034 -1.1347  0.3904  0.3378
 2745SOL     OW19870   1.026   1.643   6.972  0.4107 -0.5981  0.5985
 2745SOL    HW119871   0.948   1.681   6.931 -0.7378 -0.8639  2.5618
 2745SOL    HW219872   1.058   1.724   7.011 -1.0713  0.3788 -0.1824
 2746SOL     OW19873   2.324   0.394   7.843  0.0508  0.5148  0.1020
 2746SOL    HW119874   2.290   0.483   7.841 -3.0453 -0.6798 -1.7774
 2746SOL    HW219875   2.309   0.376   7.750  1.5573 -0.2706  0.0163
 2747SOL     OW19876   4.569   4.617   2.635  0.5240  0.5183 -0.0851
 2747SOL    HW119877   4.515   4.605   2.713  0.8917 -0.4777  0.0169
 2747SOL    HW219878   4.519   4.557   2.580  0.3671  0.5353  0.0393
 2748SOL     OW19879   1.296   2.829   9.098  0.2459  0.4817  0.0945
 2748SOL    HW119880   1.235   2.851   9.168 -1.3078 -0.4142 -0.9594
 2748SOL    HW219881   1.241   2.807   9.022  1.6340 -1.4084 -0.3558
 2749SOL     OW19882   2.842   3.891  13.626 -0.0124 -0.2302 -0.0348
 2749SOL    HW119883   2.846   3.833  13.702 -1.3560 -0.3434 -0.0609
 2749SOL    HW219884   2.840   3.818  13.565  1.9962 -0.7266  0.4878
 2750SOL     OW19885   0.158   1.733   2.117  0.3210 -0.3934  0.0844
 2750SOL    HW119886   0.141   1.698   2.204 -0.7738 -1.2252 -0.4740
 2750SOL    HW219887   0.184   1.658   2.063 -1.9987 -0.4922 -0.8916
 2751SOL     OW19888   0.773   0.005  14.767  0.2395  0.5348  0.0183
 2751SOL    HW119889   0.695   4.716  14.816  0.2354  0.0572 -0.2470
 2751SOL    HW219890   0.780   0.095  14.800  1.9063  0.5138 -0.2834
 2752SOL     OW19891   1.030   3.543  13.087 -0.1823  0.3002  0.0300
 2752SOL    HW119892   1.102   3.482  13.073  0.1119  1.2776 -2.8910
 2752SOL    HW219893   1.023   3.550  13.182  1.6720  1.3211  0.0934
 2753SOL     OW19894   3.367   4.496  17.437  0.3119 -1.0550  0.1421
 2753SOL    HW119895   3.415   4.494  17.519 -1.6147  1.4330  1.3474
 2753SOL    HW219896   3.430   4.503  17.365 -0.4503 -1.1733 -0.5485
 2754SOL     OW19897   0.475   2.250   4.566 -0.7459 -0.4642 -0.2415
 2754SOL    HW119898   0.383   2.262   4.591 -0.4614  1.6778 -0.2380
 2754SOL    HW219899   0.499   2.329   4.518  3.5142 -2.2047 -1.0195
 2755SOL     OW19900   0.999   2.694  17.538 -0.5790  0.0493 -0.0639
 2755SOL    HW119901   0.937   2.626  17.514  1.3570 -1.4217 -0.8830
 2755SOL    HW219902   0.954   2.745  17.606 -2.1449  1.4650 -2.1816
 2756SOL     OW19903   3.890   1.545  10.625 -0.6653 -0.3642  0.0081
 2756SOL    HW119904   3.797   1.524  10.619 -0.5351 -0.7002 -0.8220
 2756SOL    HW219905   3.922   1.478  10.685  1.2780  1.1689  0.6774
 2757SOL     OW19906   4.470   4.178   3.099 -1.0571 -0.1232 -0.5342
 2757SOL    HW119907   4.553   4.132   3.114 -0.6046  1.0841  0.7040
 2757SOL    HW219908   4.497   4.225   3.020  1.7155  0.0026  0.4851
 2758SOL     OW19909   1.852   2.451   8.310 -0.9409  0.3412 -0.5750
 2758SOL    HW119910   1.814   2.526   8.265 -0.0114  1.4857  0.5520
 2758SOL    HW219911   1.771   2.406   8.335 -1.8267  2.0169 -0.3892
 2759SOL     OW19912   4.151   0.817   5.646  0.4118 -0.2915 -0.1237
 2759SOL    HW119913   4.168   0.863   5.729  2.2411 -1.3850  0.0991
 2759SOL    HW219914   4.225   0.756   5.643  1.7105  1.2702  0.1257
 2760SOL     OW19915   3.311   1.637   2.156  0.7844 -0.1082 -0.7657
 2760SOL    HW119916   3.220   1.666   2.161  2.0527  3.7767  0.3132
 2760SOL    HW219917   3.333   1.660   2.247 -2.1104  0.0734 -0.1095
 2761SOL     OW19918   1.902   0.394   9.074 -0.2902 -0.4129  0.1201
 2761SOL    HW119919   1.902   0.323   9.139 -1.1565  0.1897  0.7761
 2761SOL    HW219920   1.961   0.461   9.109  0.2047  0.3749 -2.1849
 2762SOL     OW19921   4.414   0.970   8.090  0.1951  0.6120  0.6001
 2762SOL    HW119922   4.472   0.894   8.092 -2.5319 -1.4309  1.9978
 2762SOL    HW219923   4.333   0.922   8.108 -0.2546  0.3336 -2.0571
 2763SOL     OW19924   4.373   1.762   1.191  0.1787 -0.0171  0.1750
 2763SOL    HW119925   4.341   1.676   1.217  1.7605 -1.3067 -2.2424
 2763SOL    HW219926   4.290   1.808   1.203  0.9540  1.0361  1.6415
 2764SOL     OW19927   4.003   2.627  10.082  0.3430 -0.3069  0.1481
 2764SOL    HW119928   3.969   2.653   9.996  0.6919 -1.7077 -0.4020
 2764SOL    HW219929   4.097   2.645  10.075 -0.0495  1.6542 -0.3719
 2765SOL     OW19930   1.966   4.116  10.346 -0.0282 -0.0437  0.0255
 2765SOL    HW119931   2.058   4.092  10.332 -0.2026 -0.3613 -0.5587
 2765SOL    HW219932   1.971   4.138  10.439  0.7339 -0.2522  0.0316
 2766SOL     OW19933   3.505   0.483   7.272  0.2629  0.5943  0.4587
 2766SOL    HW119934   3.445   0.557   7.266  0.2875  0.6363  0.7146
 2766SOL    HW219935   3.562   0.503   7.199 -1.0620  2.6811 -0.0156
 2767SOL     OW19936   0.005   3.792  11.658  0.3377  0.8358  0.2362
 2767SOL    HW119937   0.057   3.809  11.579 -1.1608  4.1981 -0.0391
 2767SOL    HW219938   0.029   3.864  11.717  2.0844  0.3382  0.1267
 2768SOL     OW19939   3.082   1.782   2.166 -0.0242 -0.6106 -0.3738
 2768SOL    HW119940   3.045   1.840   2.232  1.0815  1.5789 -1.7031
 2768SOL    HW219941   3.024   1.799   2.092 -0.0617 -0.6248 -0.3482
 2769SOL     OW19942   4.516   3.313   3.859  0.1324  0.3615  0.1324
 2769SOL    HW119943   4.495   3.325   3.766  0.9815  0.4318 -0.0462
 2769SOL    HW219944   4.610   3.297   3.868 -0.0318 -0.0008  1.2174
 2770SOL     OW19945   2.860   0.876   6.026 -0.0104  0.1456  0.2501
 2770SOL    HW119946   2.772   0.875   5.988  0.9341  0.0318 -1.8899
 2770SOL    HW219947   2.850   0.806   6.090  2.7482 -2.2510 -1.9865
 2771SOL     OW19948   4.017   3.188   2.618 -0.2783 -0.4221  0.0063
 2771SOL    HW119949   4.059   3.264   2.577 -1.2947  0.0573 -0.1542
 2771SOL    HW219950   4.044   3.205   2.708  0.8294  2.3576 -0.8320
 2772SOL     OW19951   3.890   4.398   9.519 -0.3574 -0.2950  0.2274
 2772SOL    HW119952   3.911   4.410   9.426 -0.6000  1.4124  0.3898
 2772SOL    HW219953   3.829   4.325   9.511 -0.2723 -0.4230  0.7514
 2773SOL     OW19954   2.738   2.218   7.822 -0.4314  0.0637 -0.6612
 2773SOL    HW119955   2.810   2.248   7.877 -2.3900  1.0220  1.4153
 2773SOL    HW219956   2.702   2.144   7.871  2.0807  0.8680  2.4441
 2774SOL     OW19957   2.571   2.136   6.818  0.3720 -0.7647 -0.4882
 2774SOL    HW119958   2.609   2.111   6.734  1.8661 -0.7718  0.1991
 2774SOL    HW219959   2.507   2.066   6.831 -0.2157 -0.4005 -1.3987
 2775SOL     OW19960   2.277   3.715  11.446  0.2037  0.0488  0.1824
 2775SOL    HW119961   2.325   3.714  11.363  0.2723 -4.0495  0.2335
 2775SOL    HW219962   2.306   3.798  11.484  0.2018  0.7205 -1.2900
 2776SOL     OW19963   1.863   3.556   4.573  0.0996 -0.0730 -0.4915
 2776SOL    HW119964   1.943   3.592   4.613 -0.2826 -1.3348  1.3952
 2776SOL    HW219965   1.892   3.480   4.523  0.9599  0.1739 -0.3807
 2777SOL     OW19966   2.131   1.377   1.506  0.1129 -0.0094  0.5362
 2777SOL    HW119967   2.126   1.348   1.415  0.3619 -0.3917  0.6482
 2777SOL    HW219968   2.088   1.462   1.493 -2.0446 -1.0216  1.2045
 2778SOL     OW19969   4.507   2.240   5.659 -0.1312  0.2885  0.0150
 2778SOL    HW119970   4.491   2.222   5.567 -0.9447 -0.2800  0.2726
 2778SOL    HW219971   4.416   2.261   5.678  0.2489  0.5796  1.5992
 2779SOL     OW19972   1.627   3.211   4.457  0.0970  0.2792 -0.3239
 2779SOL    HW119973   1.664   3.209   4.369 -1.1574 -1.4490 -0.8224
 2779SOL    HW219974   1.707   3.196   4.507  0.0000  1.7532  0.2562
 2780SOL     OW19975   3.118   1.126  10.341  0.0536 -0.6987  0.2271
 2780SOL    HW119976   3.027   1.153  10.327  0.4175  0.8046  0.6698
 2780SOL    HW219977   3.152   1.195  10.399  2.0639 -0.8148 -0.8507
 2781SOL     OW19978   1.077   1.123   7.443 -0.4274  1.0232  0.3023
 2781SOL    HW119979   1.105   1.215   7.434  1.1950  0.4998  0.0309
 2781SOL    HW219980   0.983   1.127   7.427 -0.7417 -4.5859  0.9894
 2782SOL     OW19981   2.183   3.305   2.312 -0.2471  0.1648  0.4534
 2782SOL    HW119982   2.157   3.219   2.277  0.9824  0.3494 -0.9482
 2782SOL    HW219983   2.263   3.312   2.259  0.0144  0.9451  0.9601
 2783SOL     OW19984   1.860   1.693  14.269 -0.5394  0.4276  0.3101
 2783SOL    HW119985   1.766   1.677  14.269 -0.0847 -2.3050  2.1279
 2783SOL    HW219986   1.878   1.642  14.189 -0.2781  0.0959  0.5778
 2784SOL     OW19987   0.347   2.845  13.590  0.0716 -0.7300 -0.9051
 2784SOL    HW119988   0.441   2.829  13.599 -0.3690 -1.4322  2.5771
 2784SOL    HW219989   0.335   2.886  13.505 -0.3685 -1.0005 -0.9730
 2785SOL     OW19990   4.302   2.732   5.351  0.1649  0.3672  0.8110
 2785SOL    HW119991   4.290   2.746   5.445  0.1009  0.5020  0.7822
 2785SOL    HW219992   4.252   2.651   5.340  1.7177 -0.3285 -1.0634
 2786SOL     OW19993   1.804   3.030  12.499 -0.2008 -0.7733 -0.5726
 2786SOL    HW119994   1.849   3.110  12.524 -1.0384 -0.7481  0.8299
 2786SOL    HW219995   1.718   3.063  12.525 -0.1983 -1.5598  0.4636
 2787SOL     OW19996   3.020   2.460   6.291  0.3740  0.3579  0.1606
 2787SOL    HW119997   2.948   2.424   6.342  0.6821 -1.2717 -0.5696
 2787SOL    HW219998   3.062   2.383   6.253  0.9233 -0.5923  2.6840
 2788SOL     OW19999   0.918   2.595  12.100 -0.3016 -0.2662  0.3436
 2788SOL    HW120000   1.002   2.638  12.120  0.4278 -1.3880 -0.3264
 2788SOL    HW220001   0.937   2.546  12.020  0.0290 -1.3955  1.1189
 2789SOL     OW20002   3.244   3.731   2.569  0.5785 -0.1745  0.0800
 2789SOL    HW120003   3.337   3.754   2.568  0.6153 -0.3537 -0.6615
 2789SOL    HW220004   3.221   3.783   2.492  0.5678  1.5363  1.2366
 2790SOL     OW20005   3.128   2.287   8.809 -0.3204  0.7503  0.4310
 2790SOL    HW120006   3.209   2.264   8.853 -1.2254  0.8938  2.1719
 2790SOL    HW220007   3.106   2.367   8.857 -1.1723  0.7388  0.0720
 2791SOL     OW20008   1.656   2.180   3.672  0.2002 -0.1465 -0.5081
 2791SOL    HW120009   1.561   2.180   3.659 -0.1386  1.5595  1.9005
 2791SOL    HW220010   1.680   2.203   3.582 -0.2045 -1.3601 -0.9255
 2792SOL     OW20011   1.488   2.065   7.505 -0.4009  0.1757 -0.4560
 2792SOL    HW120012   1.548   1.992   7.488  1.9477  2.3240 -1.4781
 2792SOL    HW220013   1.551   2.134   7.525 -0.3649 -0.4647  1.6850
 2793SOL     OW20014   2.074   2.834   7.092  0.1944  0.0363 -0.4789
 2793SOL    HW120015   2.036   2.892   7.159 -1.5985 -1.4203 -0.2350
 2793SOL    HW220016   2.165   2.832   7.122 -0.1418  2.0539  0.6866
 2794SOL     OW20017   0.172   0.569   5.431  0.4221 -0.4252  0.1069
 2794SOL    HW120018   0.185   0.625   5.508  0.7311  0.0969 -0.3272
 2794SOL    HW220019   0.176   0.642   5.369  0.8562 -1.5157 -1.1551
 2795SOL     OW20020   0.657   3.556  14.257  0.2813  0.5223  0.3890
 2795SOL    HW120021   0.590   3.494  14.284  1.0977 -0.7588 -0.5143
 2795SOL    HW220022   0.728   3.491  14.255  2.3701  2.8041 -0.0941
 2796SOL     OW20023   0.726   3.787   7.911  0.0626  0.1115  0.5498
 2796SOL    HW120024   0.643   3.833   7.925  0.1561  0.6854 -0.7932
 2796SOL    HW220025   0.783   3.857   7.945  2.1304  0.3037 -3.3577
 2797SOL     OW20026   2.891   0.246  14.838  0.0774  0.2192 -0.0557
 2797SOL    HW120027   2.836   0.234  14.761  0.6955 -2.0274 -0.1516
 2797SOL    HW220028   2.975   0.264  14.795 -1.2544 -2.4748 -3.7461
 2798SOL     OW20029   3.725   2.862  14.371  0.5111  0.0552  0.2163
 2798SOL    HW120030   3.631   2.880  14.370  0.9180  2.2146 -1.0695
 2798SOL    HW220031   3.744   2.843  14.463 -0.1921 -0.1829  0.3067
 2799SOL     OW20032   0.311   1.575  16.701 -0.1245  0.1073 -0.1030
 2799SOL    HW120033   0.358   1.595  16.620  1.2704  1.7508  1.1026
 2799SOL    HW220034   0.279   1.487  16.680  0.9850 -0.2338 -0.3459
 2800SOL     OW20035   4.321   3.952   5.430 -0.3275 -0.3826  0.1209
 2800SOL    HW120036   4.301   3.983   5.342 -2.2307 -1.1066  0.2958
 2800SOL    HW220037   4.413   3.929   5.418  0.1383  0.9363  1.2885
 2801SOL     OW20038   2.093   3.705  10.945  0.4639 -0.2393 -0.1179
 2801SOL    HW120039   2.140   3.643  10.889  0.3151  0.3439 -0.8891
 2801SOL    HW220040   2.156   3.776  10.958 -1.6174  1.3038  1.4835
 2802SOL     OW20041   2.930   2.711   3.158  0.2442  0.2676  0.3244
 2802SOL    HW120042   2.979   2.754   3.087 -0.7914 -0.2352 -0.7010
 2802SOL    HW220043   2.889   2.634   3.118  0.2409  0.5292 -0.1822
 2803SOL     OW20044   3.403   1.741   4.886  0.8812 -0.3889 -0.3845
 2803SOL    HW120045   3.449   1.657   4.878  0.2572 -0.5565 -2.4012
 2803SOL    HW220046   3.415   1.765   4.977 -1.2506 -0.1143 -0.1787
 2804SOL     OW20047   3.211   3.965   8.079 -0.2712  0.1582  0.2511
 2804SOL    HW120048   3.236   4.030   8.144 -0.3004  0.4056  0.0144
 2804SOL    HW220049   3.171   4.020   8.012 -0.2246  0.0509  0.1359
 2805SOL     OW20050   0.000   1.450   2.208  0.3594 -0.0643 -0.0198
 2805SOL    HW120051   0.070   1.484   2.265  2.0434 -1.5145 -1.2326
 2805SOL    HW220052   0.054   1.382   2.168 -0.0648  0.3352 -1.2536
 2806SOL     OW20053   1.820   2.491   9.723 -0.1178 -0.4413  0.2817
 2806SOL    HW120054   1.896   2.439   9.750 -0.7718 -2.7161 -2.2261
 2806SOL    HW220055   1.858   2.510   9.637 -0.3699 -2.7418 -0.3343
 2807SOL     OW20056   4.675   1.603   1.887 -0.1904 -0.1841  0.3638
 2807SOL    HW120057   4.608   1.540   1.861  0.6570 -0.6615 -0.6511
 2807SOL    HW220058   4.732   1.553   1.945  0.0290 -2.3581 -1.7435
 2808SOL     OW20059   0.482   0.085  14.722 -0.1510  0.0140 -0.1216
 2808SOL    HW120060   0.504   0.067  14.813 -0.8274  1.7778  0.3832
 2808SOL    HW220061   0.433   0.005  14.704  2.8810 -2.3512  2.1025
 2809SOL     OW20062   1.356   2.613   4.571  0.7193 -0.0609 -0.0098
 2809SOL    HW120063   1.333   2.621   4.663 -1.2022  0.8322 -0.5577
 2809SOL    HW220064   1.351   2.705   4.543 -0.9126 -0.7552 -1.9610
 2810SOL     OW20065   3.528   2.780   4.878 -0.0809 -0.1147  0.3327
 2810SOL    HW120066   3.490   2.817   4.957 -2.2829  1.1092 -1.3106
 2810SOL    HW220067   3.487   2.694   4.870 -0.9259  0.3770 -0.5217
 2811SOL     OW20068   1.234   1.623   1.637 -0.3594 -0.1278 -0.0720
 2811SOL    HW120069   1.268   1.586   1.718  0.7812 -0.9436 -0.9238
 2811SOL    HW220070   1.263   1.714   1.643 -0.0920 -0.2791  0.9239
 2812SOL     OW20071   3.038   4.705   7.991 -0.2137  0.2287 -0.0224
 2812SOL    HW120072   3.109   0.028   8.012  0.7270 -0.4550 -1.2162
 2812SOL    HW220073   2.994   4.690   8.075  1.0237 -1.1107  0.3997
 2813SOL     OW20074   3.869   2.701  17.526 -0.4063 -0.2328  0.6861
 2813SOL    HW120075   3.894   2.609  17.517 -1.6447 -0.7121  2.2522
 2813SOL    HW220076   3.878   2.720  17.432 -0.1450 -0.8274  0.5906
 2814SOL     OW20077   3.713   1.844   8.464 -0.5581  0.1925  0.3376
 2814SOL    HW120078   3.643   1.907   8.484 -1.3868 -0.5814 -0.1764
 2814SOL    HW220079   3.746   1.896   8.391  1.9718 -1.0443  0.6106
 2815SOL     OW20080   1.182   3.660  12.195 -0.2274 -0.4904  0.8479
 2815SOL    HW120081   1.220   3.572  12.189 -0.5368 -0.6906  1.8508
 2815SOL    HW220082   1.147   3.664  12.283  0.0402  0.0846  0.9287
 2816SOL     OW20083   1.873   1.552  13.010 -0.0142  0.5767 -0.1229
 2816SOL    HW120084   1.845   1.466  12.977 -0.9225 -0.0210  2.1954
 2816SOL    HW220085   1.816   1.565  13.086  0.5695 -1.4143  0.6620
 2817SOL     OW20086   3.154   1.322   5.284  0.5721 -0.3484 -0.0863
 2817SOL    HW120087   3.101   1.308   5.205  0.7451  1.7936 -0.5878
 2817SOL    HW220088   3.237   1.352   5.248  2.0195 -2.7441  1.2399
 2818SOL     OW20089   2.398   0.712   7.721 -0.1434  0.6570 -0.2857
 2818SOL    HW120090   2.362   0.667   7.798 -0.5656 -0.8917 -1.3877
 2818SOL    HW220091   2.415   0.803   7.744  1.8816 -0.4797  2.7982
 2819SOL     OW20092   3.315   4.607   0.755  0.1498  0.2713  0.0001
 2819SOL    HW120093   3.296   4.655   0.675  1.0226  0.5458 -0.0442
 2819SOL    HW220094   3.233   4.557   0.748  0.1515  0.0943  1.2074
 2820SOL     OW20095   0.556   3.196   1.867 -0.5169 -0.1964  0.8895
 2820SOL    HW120096   0.559   3.189   1.772  1.7341 -1.3631  1.0490
 2820SOL    HW220097   0.467   3.173   1.895 -1.1786  0.8029 -0.4347
 2821SOL     OW20098   4.547   0.486   7.901  0.0372 -0.1136  0.2731
 2821SOL    HW120099   4.633   0.445   7.905 -0.1274 -0.3211  1.6549
 2821SOL    HW220100   4.513   0.456   7.985 -1.3276  0.9467  0.1112
 2822SOL     OW20101   3.836   3.860  10.856  0.7218  0.0026 -0.0996
 2822SOL    HW120102   3.886   3.941  10.852 -1.1978  1.3315  3.1773
 2822SOL    HW220103   3.800   3.862  10.944  0.1452  0.7752 -0.3495
 2823SOL     OW20104   3.714   3.462   7.481 -0.0354 -0.1423  0.2020
 2823SOL    HW120105   3.671   3.442   7.398 -0.3647 -1.6037  0.7243
 2823SOL    HW220106   3.746   3.374   7.503 -1.0166 -0.9917 -1.7734
 2824SOL     OW20107   3.142   2.619   2.662  0.5664  0.0597  0.1336
 2824SOL    HW120108   3.103   2.577   2.738  0.0963  0.6691  0.2300
 2824SOL    HW220109   3.063   2.629   2.608 -0.5971 -1.2890  1.6015
 2825SOL     OW20110   2.111   1.954   0.516 -0.4097  0.2948  1.3362
 2825SOL    HW120111   2.170   2.028   0.498  1.1051 -1.5450 -1.2850
 2825SOL    HW220112   2.039   1.964   0.454  1.4864 -1.5291 -1.1649
 2826SOL     OW20113   4.003   1.623   6.626  0.3454 -0.1402 -0.0420
 2826SOL    HW120114   4.095   1.646   6.614  0.2078  0.5872  0.3500
 2826SOL    HW220115   3.985   1.633   6.719 -4.3113 -2.2180 -0.6975
 2827SOL     OW20116   3.916   2.358   6.192  0.0694  0.0464  0.0047
 2827SOL    HW120117   3.966   2.383   6.270  0.0578 -0.0872  0.0542
 2827SOL    HW220118   3.827   2.356   6.227  0.0735 -1.1525 -0.0486
 2828SOL     OW20119   3.312   3.229   7.501  0.3822 -0.2297 -0.1157
 2828SOL    HW120120   3.364   3.149   7.489  0.8920  0.4129 -2.0843
 2828SOL    HW220121   3.372   3.282   7.553  1.1885 -0.0924 -1.1860
 2829SOL     OW20122   2.470   0.661   7.387  0.1927  0.4870 -0.4408
 2829SOL    HW120123   2.505   0.583   7.430 -2.8631  0.0986  1.2980
 2829SOL    HW220124   2.444   0.632   7.299 -0.0240 -1.9430  0.4406
 2830SOL     OW20125   4.113   4.493   2.825 -0.3368 -0.3706  0.1355
 2830SOL    HW120126   4.169   4.415   2.821 -1.0951 -0.8789 -0.6843
 2830SOL    HW220127   4.138   4.522   2.737  1.0987 -1.6520  0.1144
 2831SOL     OW20128   0.800   2.952   3.627  0.1605 -0.5334  0.4348
 2831SOL    HW120129   0.803   3.045   3.647 -0.0351 -0.0455 -1.8475
 2831SOL    HW220130   0.772   2.924   3.715 -0.5227  0.6116  0.5824
 2832SOL     OW20131   0.289   3.789  15.094  0.2984 -0.1596  0.4430
 2832SOL    HW120132   0.255   3.798  15.183  0.2868 -2.8654  0.6988
 2832SOL    HW220133   0.281   3.878  15.058  1.1162 -0.6260 -0.9209
 2833SOL     OW20134   3.100   0.764   7.944 -0.3798  0.3353  0.4702
 2833SOL    HW120135   3.111   0.856   7.923  1.5755 -0.1485 -0.5750
 2833SOL    HW220136   3.093   0.726   7.856  1.8301  1.4747 -0.1857
 2834SOL     OW20137   3.203   3.656   1.057  0.3358 -0.2140 -0.1965
 2834SOL    HW120138   3.155   3.648   0.975  1.1094 -1.3145 -0.5509
 2834SOL    HW220139   3.282   3.706   1.035 -0.4877  0.4534 -1.6283
 2835SOL     OW20140   3.748   3.044   7.397 -0.5129  0.0228  0.2192
 2835SOL    HW120141   3.833   3.006   7.377 -0.5146 -1.3681  2.8400
 2835SOL    HW220142   3.727   3.085   7.313  1.7673 -0.7874 -0.7456
 2836SOL     OW20143   2.403   3.440   1.705  0.2908  0.0225  0.1643
 2836SOL    HW120144   2.321   3.472   1.743  0.6049  0.5199  0.4272
 2836SOL    HW220145   2.399   3.346   1.724  1.7246 -0.0026  0.2803
 2837SOL     OW20146   1.630   1.670  12.788 -0.7782  0.0792  0.5871
 2837SOL    HW120147   1.600   1.727  12.717 -0.5317 -0.7214 -0.1612
 2837SOL    HW220148   1.670   1.735  12.846 -0.5803  1.5985 -1.2267
 2838SOL     OW20149   0.782   2.924   1.942  0.4970 -0.5776 -0.4116
 2838SOL    HW120150   0.695   2.919   1.904 -0.2305 -1.7801  1.4099
 2838SOL    HW220151   0.829   2.861   1.887 -0.9419  0.1910 -2.4846
 2839SOL     OW20152   3.052   2.019   7.950 -0.0658  0.6297  0.4469
 2839SOL    HW120153   3.024   1.997   8.039 -0.7851  2.5509  0.6881
 2839SOL    HW220154   3.065   2.113   7.961  1.8059  0.0922  2.7209
 2840SOL     OW20155   3.045   2.165   5.205  0.9218 -0.1253 -0.2331
 2840SOL    HW120156   3.100   2.096   5.243 -1.2106 -1.1067  1.0956
 2840SOL    HW220157   3.039   2.225   5.279  1.4411 -1.0644  0.5781
 2841SOL     OW20158   1.500   4.111   8.852  0.0084 -0.3442  0.7903
 2841SOL    HW120159   1.435   4.047   8.880 -1.8150  1.0085 -0.3114
 2841SOL    HW220160   1.519   4.079   8.764  0.1776  2.7082 -0.2977
 2842SOL     OW20161   0.174   0.702   5.676  0.8025  0.9166 -0.1373
 2842SOL    HW120162   0.180   0.723   5.769 -1.3585 -1.2273  0.4812
 2842SOL    HW220163   0.186   0.785   5.630 -1.7715  1.4388  0.1584
 2843SOL     OW20164   0.446   2.213   2.579 -0.6235 -0.0977 -0.2580
 2843SOL    HW120165   0.415   2.279   2.640  1.9258 -0.5295  1.5281
 2843SOL    HW220166   0.539   2.230   2.564 -0.0514 -1.0768  2.1125
 2844SOL     OW20167   0.537   3.870   5.454 -0.1048  0.0464  0.0199
 2844SOL    HW120168   0.557   3.830   5.539  0.7505  0.6254  0.0990
 2844SOL    HW220169   0.444   3.888   5.464 -0.3232  0.8351 -3.4432
 2845SOL     OW20170   4.680   2.159   8.477  0.5210 -0.5889 -0.2857
 2845SOL    HW120171   4.644   2.074   8.453 -0.2592  0.4393 -2.7455
 2845SOL    HW220172   4.711   2.149   8.567  2.0013 -1.3418 -0.8772
 2846SOL     OW20173   2.441   3.040  16.804  0.2723  0.3475 -0.5008
 2846SOL    HW120174   2.413   3.131  16.807 -1.3789 -0.2384  2.0802
 2846SOL    HW220175   2.532   3.050  16.774  0.4537  0.6815  0.1451
 2847SOL     OW20176   1.840   3.504  17.378 -0.5320 -0.3374 -0.4102
 2847SOL    HW120177   1.762   3.529  17.428  0.0763  0.1091  0.3065
 2847SOL    HW220178   1.905   3.560  17.420 -0.9910  1.3164 -1.8869
 2848SOL     OW20179   2.856   0.643   0.039 -0.4217 -0.2815 -0.1737
 2848SOL    HW120180   2.836   0.601  17.705  0.3407  1.9507 -1.4674
 2848SOL    HW220181   2.825   0.588   0.112 -1.5363  2.0768  1.1387
 2849SOL     OW20182   2.827   4.075  16.523  0.2441  0.6333 -0.1509
 2849SOL    HW120183   2.920   4.093  16.529  0.4708 -1.3645  2.3023
 2849SOL    HW220184   2.831   3.985  16.491  1.7774  0.4003  0.7302
 2850SOL     OW20185   1.899   2.422   6.008 -0.2193  0.0296 -0.1069
 2850SOL    HW120186   1.993   2.419   5.987  0.1297 -0.4261  1.4958
 2850SOL    HW220187   1.857   2.349   5.963 -1.0516 -0.7535  1.9467
 2851SOL     OW20188   4.275   3.194   2.807  0.1894  0.6366 -0.1827
 2851SOL    HW120189   4.330   3.116   2.818  0.4757  0.4163 -3.0462
 2851SOL    HW220190   4.236   3.212   2.892  0.3313 -2.2808  0.5008
 2852SOL     OW20191   4.313   2.099   3.478 -0.1856  0.1994 -0.0470
 2852SOL    HW120192   4.293   2.145   3.560  1.3841  1.1384 -0.1880
 2852SOL    HW220193   4.320   2.180   3.427 -0.3843 -1.0499 -2.0448
 2853SOL     OW20194   4.179   2.933   2.912  0.1923 -0.0040  0.6218
 2853SOL    HW120195   4.147   3.011   2.958  0.2312  1.9996 -2.6802
 2853SOL    HW220196   4.142   2.866   2.970  1.5858  0.3244  1.8778
 2854SOL     OW20197   3.347   3.553   4.373 -0.4216  0.3547 -0.1789
 2854SOL    HW120198   3.397   3.626   4.339 -0.1695  0.9424  1.4202
 2854SOL    HW220199   3.419   3.510   4.419  0.4335  0.3452 -1.5377
 2855SOL     OW20200   4.478   2.069   4.628 -0.2913  0.2250  0.2199
 2855SOL    HW120201   4.516   2.019   4.700 -0.4113 -2.9055 -1.8474
 2855SOL    HW220202   4.386   2.049   4.643 -0.0888 -1.4249 -0.6739
 2856SOL     OW20203   1.807   4.682   4.358  0.5192  0.0337  0.4411
 2856SOL    HW120204   1.713   4.695   4.371  0.4967 -0.7278  1.0228
 2856SOL    HW220205   1.812   4.616   4.290  0.3836  0.0123  0.4519
 2857SOL     OW20206   3.650   1.264   3.812 -0.3882  0.0973 -0.3283
 2857SOL    HW120207   3.679   1.352   3.788 -0.2183  0.5213  1.4155
 2857SOL    HW220208   3.581   1.280   3.876 -1.3168  0.8084 -1.5043
 2858SOL     OW20209   0.522   2.177   3.591  0.6854 -0.8678 -0.3101
 2858SOL    HW120210   0.433   2.155   3.620  0.6434 -1.0419 -0.5682
 2858SOL    HW220211   0.561   2.204   3.675  3.6649  0.3250 -2.0984
 2859SOL     OW20212   0.246   0.015   6.484  0.2380  0.0604  0.1952
 2859SOL    HW120213   0.315   4.689   6.473 -0.5799 -0.5800 -1.1537
 2859SOL    HW220214   0.181   4.721   6.421  1.5649 -1.1437 -0.5464
 2860SOL     OW20215   3.373   2.074   6.155  0.2704 -0.0691 -0.2402
 2860SOL    HW120216   3.404   2.000   6.207  0.5619 -1.0792 -1.8612
 2860SOL    HW220217   3.459   2.093   6.117  0.3079  1.6603  0.6811
 2861SOL     OW20218   2.364   2.444   2.785 -0.1401  0.2929 -0.0745
 2861SOL    HW120219   2.287   2.390   2.805  0.3601 -0.7019 -0.8999
 2861SOL    HW220220   2.390   2.405   2.703 -1.2321 -1.8711  0.6079
 2862SOL     OW20221   1.889   4.239   3.132  0.1034  0.3166  0.1172
 2862SOL    HW120222   1.842   4.323   3.128 -0.4230 -0.0228 -0.6731
 2862SOL    HW220223   1.834   4.190   3.072  4.0299 -3.7959 -0.1170
 2863SOL     OW20224   0.077   1.200   8.637 -0.2286  0.0545  0.1747
 2863SOL    HW120225   0.119   1.128   8.588  0.6309  0.7765 -0.1510
 2863SOL    HW220226   0.023   1.158   8.704  0.5717  0.8862  1.3337
 2864SOL     OW20227   2.693   0.037   2.520  0.3408  0.3137  0.2803
 2864SOL    HW120228   2.690   4.704   2.584  3.2318 -0.9777 -1.0035
 2864SOL    HW220229   2.670   0.109   2.579  1.0710  0.4509  0.4014
 2865SOL     OW20230   3.365   3.789   6.927 -0.5196  0.0379 -0.1626
 2865SOL    HW120231   3.338   3.843   6.852  0.2298  1.7592  0.8094
 2865SOL    HW220232   3.408   3.719   6.877 -2.1545 -0.6426 -0.6305
 2866SOL     OW20233   0.361   3.391  11.217  0.1782  0.2634 -0.3832
 2866SOL    HW120234   0.370   3.303  11.255  0.9129 -0.0435 -1.2813
 2866SOL    HW220235   0.436   3.436  11.256  0.6766 -0.0250 -1.0157
 2867SOL     OW20236   0.110   0.518  12.431 -0.1343 -0.4007 -0.4156
 2867SOL    HW120237   0.130   0.482  12.345  1.9736  0.5921 -0.3449
 2867SOL    HW220238   0.194   0.517  12.478 -1.2809 -0.9523  1.6217
 2868SOL     OW20239   1.533   0.448   6.715 -0.4697 -0.0048  0.0105
 2868SOL    HW120240   1.456   0.499   6.691 -0.6572 -0.5759 -0.5960
 2868SOL    HW220241   1.584   0.504   6.774 -0.9990 -0.9844  1.3913
 2869SOL     OW20242   1.146   0.175  14.515 -0.3709 -0.2028  0.1093
 2869SOL    HW120243   1.142   0.169  14.610  0.2300 -0.2177  0.1325
 2869SOL    HW220244   1.054   0.176  14.489 -0.1679 -0.7522 -0.6333
 2870SOL     OW20245   1.564   1.642   7.070 -0.0107  0.2430  0.3757
 2870SOL    HW120246   1.481   1.674   7.106 -0.6045 -0.3240 -0.4913
 2870SOL    HW220247   1.620   1.719   7.079 -0.7061  0.5739  2.0554
 2871SOL     OW20248   2.633   1.946   3.369 -0.4404  0.0594  0.4855
 2871SOL    HW120249   2.682   1.974   3.292 -0.0639 -1.6340  0.1248
 2871SOL    HW220250   2.679   1.993   3.439  0.7292 -2.5990  1.5041
 2872SOL     OW20251   4.706   1.392   7.468 -0.0965  0.4822 -0.1328
 2872SOL    HW120252   0.003   1.334   7.400  1.6637  1.5031 -0.1030
 2872SOL    HW220253   0.042   1.432   7.513 -0.9609  2.0695 -0.1225
 2873SOL     OW20254   3.158   0.907   7.180 -0.0926  0.8043  0.5340
 2873SOL    HW120255   3.216   0.977   7.150  2.8057 -0.8264  2.2807
 2873SOL    HW220256   3.074   0.952   7.170  0.7019  1.7721 -1.7070
 2874SOL     OW20257   0.007   0.084   3.834  0.2440  0.1351  1.2953
 2874SOL    HW120258   4.716   0.131   3.756  2.2524 -1.2295 -0.2495
 2874SOL    HW220259   0.026   0.002   3.789 -0.5569 -0.5956  2.2800
 2875SOL     OW20260   4.678   2.373  15.523 -0.1589 -0.4160 -0.3820
 2875SOL    HW120261   4.642   2.284  15.527 -1.3670  0.0722 -0.1687
 2875SOL    HW220262   4.605   2.427  15.553 -1.1094 -1.4301 -0.8633
 2876SOL     OW20263   3.295   2.634   8.606  0.0640  1.0543 -0.0777
 2876SOL    HW120264   3.364   2.567   8.603 -0.9159  0.1388 -1.8729
 2876SOL    HW220265   3.218   2.578   8.615  1.3021 -0.8128 -0.9924
 2877SOL     OW20266   0.575   4.707   1.278  0.4626  0.0776 -0.3540
 2877SOL    HW120267   0.495   4.656   1.291  0.7671 -1.0845 -3.2083
 2877SOL    HW220268   0.631   4.635   1.249 -0.4071 -1.3297  1.4801
 2878SOL     OW20269   1.964   4.354   3.396  0.1794 -0.0715 -0.6374
 2878SOL    HW120270   1.984   4.444   3.423 -1.6743  0.7500 -1.9817
 2878SOL    HW220271   1.946   4.374   3.304  0.6042 -1.1650 -0.9590
 2879SOL     OW20272   4.535   0.103   3.221 -0.8109  0.9265 -0.1113
 2879SOL    HW120273   4.582   0.044   3.279 -0.5394  1.0353 -0.2234
 2879SOL    HW220274   4.612   0.155   3.198 -1.8991  1.9270 -1.5315
 2880SOL     OW20275   4.613   0.184   1.978 -0.1108  0.2184  0.1436
 2880SOL    HW120276   4.608   0.225   1.892  0.6554  1.6936  0.8157
 2880SOL    HW220277   4.700   0.208   2.010 -0.1755 -1.0034  1.2472
 2881SOL     OW20278   1.103   1.113   9.349  0.2866  0.2047 -0.1593
 2881SOL    HW120279   1.155   1.185   9.385 -1.0907  1.4768 -0.6883
 2881SOL    HW220280   1.115   1.114   9.254  0.5834  1.4883 -0.1070
 2882SOL     OW20281   3.268   3.418   2.918  0.1948  0.5095  0.3180
 2882SOL    HW120282   3.191   3.445   2.867  1.1315 -1.2291 -2.0352
 2882SOL    HW220283   3.333   3.396   2.851 -1.5761  0.7996 -1.5232
 2883SOL     OW20284   0.797   0.957  12.571 -0.6012 -0.0891 -0.1969
 2883SOL    HW120285   0.843   0.880  12.536 -1.3730 -1.8589  2.6974
 2883SOL    HW220286   0.864   0.984  12.633 -0.3474 -0.1469 -0.4482
 2884SOL     OW20287   2.492   3.235   5.844 -0.5702 -0.1264 -0.3173
 2884SOL    HW120288   2.434   3.302   5.880 -1.1167  0.2133 -1.8351
 2884SOL    HW220289   2.553   3.219   5.916 -0.2284 -2.2806 -1.0967
 2885SOL     OW20290   3.452   3.549   6.453  0.1983  0.3476 -0.6941
 2885SOL    HW120291   3.428   3.509   6.536 -0.1235 -0.1232 -1.0173
 2885SOL    HW220292   3.484   3.632   6.489 -0.1997  0.0502  0.3461
 2886SOL     OW20293   3.434   3.221   7.846 -0.2807 -0.1795  0.8213
 2886SOL    HW120294   3.430   3.291   7.780 -1.7001 -2.0077 -1.0527
 2886SOL    HW220295   3.428   3.273   7.925 -0.9519  1.9678 -0.6390
 2887SOL     OW20296   0.736   1.553  10.397  0.1521 -0.3653  0.1983
 2887SOL    HW120297   0.737   1.509  10.312  0.8312  1.9530 -0.9863
 2887SOL    HW220298   0.684   1.489  10.446 -1.2833  0.1367 -0.6775
 2888SOL     OW20299   1.116   3.909   9.229  0.1873  0.5995 -0.6093
 2888SOL    HW120300   1.027   3.874   9.224  0.5102 -0.5408  1.4695
 2888SOL    HW220301   1.175   3.843   9.192 -0.8819  0.1695 -1.5259
 2889SOL     OW20302   3.853   3.277   8.534  0.0242  0.0807 -0.4634
 2889SOL    HW120303   3.839   3.371   8.547 -0.4476 -0.2154  1.1492
 2889SOL    HW220304   3.764   3.245   8.545  0.2744 -1.1179 -1.9386
 2890SOL     OW20305   3.585   2.855   5.694  0.5308 -0.0677  0.7697
 2890SOL    HW120306   3.555   2.872   5.784 -0.2573 -1.5851  0.7947
 2890SOL    HW220307   3.505   2.877   5.646  0.2574  0.9916  1.6952
 2891SOL     OW20308   3.927   4.156  15.051 -0.1829  0.5201  0.0706
 2891SOL    HW120309   3.884   4.101  14.984  0.8075 -1.8818  1.4017
 2891SOL    HW220310   3.997   4.191  14.997  0.2332  0.8086  0.8052
 2892SOL     OW20311   3.765   3.178   7.099  0.5530  0.2296 -0.3148
 2892SOL    HW120312   3.833   3.163   7.033  2.1550 -0.8580  1.5683
 2892SOL    HW220313   3.720   3.094   7.101  1.4540 -0.2410  0.2094
 2893SOL     OW20314   2.929   2.269   1.197  0.0949  0.3766  0.1496
 2893SOL    HW120315   2.933   2.180   1.233  2.4571  0.0382 -0.9426
 2893SOL    HW220316   2.963   2.317   1.272 -0.4339 -0.9345  1.2129
 2894SOL     OW20317   0.488   3.764   6.527  0.5541  0.8228  0.1107
 2894SOL    HW120318   0.525   3.772   6.440 -1.2223 -1.8381 -0.9254
 2894SOL    HW220319   0.493   3.849   6.570  1.0609  1.2088 -0.7329
 2895SOL     OW20320   3.503   0.631   3.837  0.0959  0.0887  0.4362
 2895SOL    HW120321   3.415   0.595   3.842 -0.3032  1.1487  0.9749
 2895SOL    HW220322   3.501   0.702   3.901 -2.2317 -2.2409  2.8705
 2896SOL     OW20323   0.136   0.262   9.428 -0.4583  0.0018  0.3500
 2896SOL    HW120324   0.115   0.259   9.334  1.2299 -0.2969 -0.0156
 2896SOL    HW220325   0.200   0.194   9.447 -0.9727 -0.0443  1.8790
 2897SOL     OW20326   3.957   2.372   1.285 -0.4531  0.1862  0.5445
 2897SOL    HW120327   3.907   2.389   1.205 -1.4750  1.4382  1.4489
 2897SOL    HW220328   3.912   2.437   1.339 -0.2453  1.6536 -1.0466
 2898SOL     OW20329   0.057   3.923   7.413 -0.4860  0.2842  0.0048
 2898SOL    HW120330   0.104   4.004   7.394  0.3091  0.0716  1.1060
 2898SOL    HW220331   0.122   3.883   7.471  0.9767  0.3323 -1.5955
 2899SOL     OW20332   0.633   4.680   2.342 -0.1761 -0.1714 -0.1750
 2899SOL    HW120333   0.725   4.705   2.346  0.0009 -0.8852  0.2755
 2899SOL    HW220334   0.603   0.029   2.315  2.0164  1.0586  1.3251
 2900SOL     OW20335   0.335   4.033   6.168 -0.1167 -0.4207 -0.3933
 2900SOL    HW120336   0.423   4.007   6.194  0.2312 -1.8858 -3.0947
 2900SOL    HW220337   0.279   3.967   6.210 -0.1712  0.8758  1.5999
 2901SOL     OW20338   4.220   3.725   5.125 -0.2528 -0.0335  0.2230
 2901SOL    HW120339   4.222   3.630   5.141 -0.7301 -0.2362 -0.8855
 2901SOL    HW220340   4.168   3.731   5.045 -0.7672  2.0756  0.7255
 2902SOL     OW20341   1.654   1.811   5.563  0.3662  0.0824  0.2422
 2902SOL    HW120342   1.619   1.876   5.502  2.2378  0.0152 -0.9111
 2902SOL    HW220343   1.741   1.794   5.527 -1.2797 -0.0690 -3.7170
 2903SOL     OW20344   2.019   2.008   7.517  0.1699 -0.5201  0.6190
 2903SOL    HW120345   2.048   1.922   7.488 -1.1203 -0.2502 -1.4661
 2903SOL    HW220346   2.077   2.074   7.478 -2.5437  0.9484 -0.9339
 2904SOL     OW20347   0.640   2.328   2.721 -0.6194 -0.0499  0.1877
 2904SOL    HW120348   0.632   2.416   2.684 -0.2110 -0.3103 -0.5222
 2904SOL    HW220349   0.591   2.335   2.803 -2.9413  0.8882 -1.2835
 2905SOL     OW20350   2.285   3.336   8.231  0.1442  0.2014 -0.4709
 2905SOL    HW120351   2.195   3.303   8.221  1.8549 -3.5165 -3.5083
 2905SOL    HW220352   2.275   3.418   8.181 -2.6181  0.0004 -0.2391
 2906SOL     OW20353   2.873   1.063  16.234 -0.2239 -0.3779  0.2199
 2906SOL    HW120354   2.932   1.003  16.188  2.7173  0.5483  2.8153
 2906SOL    HW220355   2.792   1.054  16.182 -0.0096  1.9729 -0.5226
 2907SOL     OW20356   4.498   3.888   8.373  0.7080 -0.3003 -0.2258
 2907SOL    HW120357   4.470   3.820   8.433  0.4647  0.7651  0.8771
 2907SOL    HW220358   4.490   3.835   8.294  1.7074 -0.7052 -0.0572
 2908SOL     OW20359   4.322   0.729   4.123  0.6239  0.0380 -0.7338
 2908SOL    HW120360   4.341   0.636   4.129 -0.0971  0.0302  1.4906
 2908SOL    HW220361   4.276   0.718   4.040 -0.8023  2.1080 -0.2179
 2909SOL     OW20362   0.290   2.008   3.039  0.1551  0.0702 -0.5170
 2909SOL    HW120363   0.265   1.956   2.963 -0.3301 -0.2197 -0.1586
 2909SOL    HW220364   0.204   2.047   3.057 -0.4357 -1.6522  0.4587
 2910SOL     OW20365   1.183   3.920  12.495  0.3951  0.0854  0.1907
 2910SOL    HW120366   1.241   3.925  12.571 -3.0187  1.4680  2.7134
 2910SOL    HW220367   1.094   3.908  12.525  0.9798  0.2988  1.9839
 2911SOL     OW20368   3.024   3.553   6.859  0.1592 -0.2116  0.2006
 2911SOL    HW120369   3.002   3.544   6.952 -1.3490  0.1587 -0.1230
 2911SOL    HW220370   2.948   3.600   6.824  0.2126  0.7759  1.4018
 2912SOL     OW20371   1.755   0.828   1.844 -0.1790  0.4635 -0.2718
 2912SOL    HW120372   1.750   0.747   1.895 -0.0791  0.6822  0.0874
 2912SOL    HW220373   1.757   0.889   1.917  0.3188 -0.7455  0.7265
 2913SOL     OW20374   3.609   1.315  10.944 -1.1335  0.3147 -0.6001
 2913SOL    HW120375   3.698   1.300  10.977 -2.0509 -0.2428  1.6376
 2913SOL    HW220376   3.557   1.312  11.024 -1.7346 -1.0688 -1.0451
 2914SOL     OW20377   2.637   3.066   3.134  0.0061  0.4996 -0.1094
 2914SOL    HW120378   2.681   3.118   3.067 -1.0059 -0.8767 -1.8428
 2914SOL    HW220379   2.595   3.000   3.077 -1.5379 -0.4101  2.0667
 2915SOL     OW20380   0.550   1.533   6.087  0.3318 -0.0265 -0.3841
 2915SOL    HW120381   0.531   1.623   6.062  0.2171  0.0602  0.0256
 2915SOL    HW220382   0.462   1.500   6.106  0.5201  0.2057  0.9067
 2916SOL     OW20383   0.319   2.925   9.797 -0.0417 -0.1580 -0.1034
 2916SOL    HW120384   0.340   2.987   9.867 -1.2944  1.7829 -1.4256
 2916SOL    HW220385   0.344   2.843   9.839 -0.3458  0.7046  1.7302
 2917SOL     OW20386   2.150   1.885   4.891  0.0670  0.2965  0.2624
 2917SOL    HW120387   2.108   1.895   4.976 -2.4780 -0.9368 -0.8507
 2917SOL    HW220388   2.243   1.881   4.913  0.1425  1.3983  0.1392
 2918SOL     OW20389   1.258   1.976  14.770 -0.4579 -0.0710 -0.2352
 2918SOL    HW120390   1.226   2.049  14.823  1.4506  0.1675  0.5704
 2918SOL    HW220391   1.318   2.018  14.709 -1.8569  1.1577 -0.7568
 2919SOL     OW20392   4.323   4.062   5.987 -0.0046 -0.2241 -0.4507
 2919SOL    HW120393   4.295   4.112   6.064  2.0343 -1.0792  0.8524
 2919SOL    HW220394   4.405   4.025   6.020  1.8495  1.2508 -3.4291
 2920SOL     OW20395   2.874   0.861   8.372 -0.4417 -0.0148 -0.5720
 2920SOL    HW120396   2.801   0.902   8.325  1.1347 -0.0185 -2.9794
 2920SOL    HW220397   2.900   0.791   8.313  1.6679  0.7868 -0.6046
 2921SOL     OW20398   0.592   1.125   6.223  0.1436 -0.4365  0.5147
 2921SOL    HW120399   0.550   1.074   6.154 -1.6191  2.2444 -0.3897
 2921SOL    HW220400   0.673   1.149   6.178 -1.0246  0.0486 -1.3399
 2922SOL     OW20401   2.271   3.546   4.880 -0.1741  0.5581 -0.9186
 2922SOL    HW120402   2.255   3.481   4.948  0.1042 -0.5790 -1.9585
 2922SOL    HW220403   2.233   3.623   4.923 -2.3123 -1.1625  0.3019
 2923SOL     OW20404   2.619   3.805  11.551 -0.4231  0.2153 -0.3162
 2923SOL    HW120405   2.624   3.751  11.472 -0.3459 -0.2924  0.0318
 2923SOL    HW220406   2.661   3.749  11.616 -0.2964 -2.2994 -2.5433
 2924SOL     OW20407   3.288   2.245  16.521  0.0018  0.2892  0.1773
 2924SOL    HW120408   3.310   2.311  16.455  0.8700 -1.2669 -1.1005
 2924SOL    HW220409   3.194   2.228  16.518 -0.0514  0.2704  1.6711
 2925SOL     OW20410   3.683   3.159   3.833  0.1696 -0.4198 -1.0932
 2925SOL    HW120411   3.760   3.147   3.778  1.1793 -1.4905  0.5573
 2925SOL    HW220412   3.613   3.149   3.768  0.6512 -3.8379 -1.1066
 2926SOL     OW20413   0.581   1.025  17.600  0.0172  0.0905 -0.5262
 2926SOL    HW120414   0.523   1.090  17.561  0.5628 -0.4959 -2.2844
 2926SOL    HW220415   0.519   0.982  17.660 -1.5285  2.0168 -0.7310
 2927SOL     OW20416   1.141   1.606  10.271  0.1655 -0.1483 -0.7079
 2927SOL    HW120417   1.057   1.596  10.225  0.3640 -2.4452 -0.5482
 2927SOL    HW220418   1.198   1.591  10.196 -0.1024  0.7415 -1.0978
 2928SOL     OW20419   0.411   1.662  16.473  0.2210  0.1281 -0.4601
 2928SOL    HW120420   0.366   1.689  16.393  0.7329  0.4155 -0.6494
 2928SOL    HW220421   0.466   1.739  16.489  0.7243 -1.1163  3.8803
 2929SOL     OW20422   1.063   1.448  16.823 -0.1780  0.1471 -0.0274
 2929SOL    HW120423   1.031   1.375  16.876 -0.0482  0.6033  0.6771
 2929SOL    HW220424   1.019   1.517  16.873 -1.1377  0.8122 -1.7861
 2930SOL     OW20425   1.184   1.314   3.025  0.3948 -0.2258  0.9210
 2930SOL    HW120426   1.262   1.260   3.032  0.3854 -0.2061  1.1755
 2930SOL    HW220427   1.115   1.251   3.046  0.4002 -0.7325 -0.5822
 2931SOL     OW20428   4.187   0.044  14.863 -0.5956  0.4991  0.1331
 2931SOL    HW120429   4.220   4.723  14.932  0.0115  1.3483  0.5695
 2931SOL    HW220430   4.261   0.104  14.854 -0.1665 -0.0980 -0.3573
 2932SOL     OW20431   3.535   0.233   6.291  0.1118 -0.2102  0.5087
 2932SOL    HW120432   3.463   0.296   6.280  0.0128 -0.3827  0.1602
 2932SOL    HW220433   3.568   0.224   6.201 -0.5154 -0.2711  0.2830
 2933SOL     OW20434   1.515   1.916   8.952  0.4725  0.1805  0.1881
 2933SOL    HW120435   1.564   1.847   8.908  0.5988  0.0628  0.5138
 2933SOL    HW220436   1.468   1.867   9.019 -0.1194 -1.7610 -1.6787
 2934SOL     OW20437   0.735   4.256   1.472 -0.0005 -0.7129  0.5490
 2934SOL    HW120438   0.680   4.299   1.406 -0.0134  1.4208  1.9650
 2934SOL    HW220439   0.674   4.260   1.546 -0.3377 -2.6470  0.3722
 2935SOL     OW20440   4.391   2.500  11.461 -0.3903  0.1576  0.0869
 2935SOL    HW120441   4.341   2.419  11.465 -0.5037  0.1720 -0.9508
 2935SOL    HW220442   4.351   2.556  11.394  2.4928  2.2120  0.1134
 2936SOL     OW20443   1.862   3.642   6.272  0.8802  0.3932 -0.0001
 2936SOL    HW120444   1.954   3.665   6.259  0.6711 -0.3154 -2.7062
 2936SOL    HW220445   1.847   3.660   6.365  4.4596 -0.3568  0.7057
 2937SOL     OW20446   2.686   3.330   1.031 -0.0359  0.0776  0.2513
 2937SOL    HW120447   2.633   3.250   1.034 -0.3332  0.2148 -1.1102
 2937SOL    HW220448   2.642   3.387   1.094  0.6057  0.6619  0.1623
 2938SOL     OW20449   0.331   0.951  12.515  0.4389 -0.1050 -0.4063
 2938SOL    HW120450   0.349   0.870  12.468  0.0756 -0.4332  0.0290
 2938SOL    HW220451   0.421   0.981  12.525  1.4505 -2.8735 -1.1611
 2939SOL     OW20452   3.096   1.679   2.654 -0.4980 -0.7608  0.3827
 2939SOL    HW120453   3.072   1.594   2.692 -1.0072 -0.8665 -0.1753
 2939SOL    HW220454   3.063   1.744   2.716 -1.4112  0.6611 -1.6293
 2940SOL     OW20455   3.956   0.626   9.734 -0.6979 -0.1189 -0.1934
 2940SOL    HW120456   4.035   0.665   9.695 -0.8118 -0.8364 -1.1494
 2940SOL    HW220457   3.978   0.533   9.727  0.7595  0.0823  1.6395
 2941SOL     OW20458   4.052   2.244   1.771  0.0869  1.0161  0.0868
 2941SOL    HW120459   4.105   2.248   1.851 -0.5136 -0.4343  0.5531
 2941SOL    HW220460   4.075   2.326   1.726 -0.5079 -0.3030 -2.6256
 2942SOL     OW20461   0.235   1.876   3.948  0.4299  0.1620 -0.2427
 2942SOL    HW120462   0.319   1.830   3.944  0.7028  0.8094 -1.6829
 2942SOL    HW220463   0.187   1.827   3.882  0.1156  1.1775 -0.7618
 2943SOL     OW20464   2.580   1.230   5.357  0.1610  0.2344 -0.4764
 2943SOL    HW120465   2.545   1.221   5.269 -2.0097  0.1738  0.3754
 2943SOL    HW220466   2.675   1.236   5.349  0.0411  0.7991 -1.4679
 2944SOL     OW20467   0.077   3.837   4.190  0.2703  0.1580  0.5066
 2944SOL    HW120468   0.043   3.769   4.249 -1.4204  0.1559 -0.4724
 2944SOL    HW220469   0.119   3.894   4.255 -2.4762  1.7703  0.8392
 2945SOL     OW20470   1.512   4.558  10.019 -0.0997  0.2384  0.5040
 2945SOL    HW120471   1.565   4.483  10.046 -0.3518  0.3088  1.1759
 2945SOL    HW220472   1.568   4.636  10.017 -0.7772  0.7721  1.9526
 2946SOL     OW20473   0.456   2.998  17.592 -0.4893 -0.2030 -0.3229
 2946SOL    HW120474   0.432   3.038  17.509 -0.4735  1.2611  0.3671
 2946SOL    HW220475   0.443   2.907  17.569  1.8963 -0.5661 -0.2912
 2947SOL     OW20476   3.845   3.157   0.698  0.0564 -0.4393 -0.1548
 2947SOL    HW120477   3.917   3.164   0.636  0.5990  3.2325  0.9239
 2947SOL    HW220478   3.866   3.068   0.728  0.8430 -0.0312  0.5083
 2948SOL     OW20479   1.747   4.493   7.931  0.0208  0.1731  0.1341
 2948SOL    HW120480   1.795   4.412   7.950 -0.1532 -0.1182 -0.6353
 2948SOL    HW220481   1.712   4.477   7.843 -1.1419  3.8131 -0.0650
 2949SOL     OW20482   4.525   1.627   1.492  0.1766 -0.0423  0.6843
 2949SOL    HW120483   4.485   1.597   1.411  1.1684  0.7065 -0.0803
 2949SOL    HW220484   4.455   1.608   1.554 -1.3219 -0.5692 -1.1596
 2950SOL     OW20485   0.302   0.544   3.656 -0.1744 -0.4514  0.2047
 2950SOL    HW120486   0.291   0.631   3.694  0.2533  0.1114 -0.9603
 2950SOL    HW220487   0.246   0.495   3.716 -0.1843 -0.0648  0.5082
 2951SOL     OW20488   2.907   1.425   2.843 -0.7263 -0.3000 -0.5638
 2951SOL    HW120489   2.841   1.380   2.895 -1.3659 -1.2924 -2.2389
 2951SOL    HW220490   2.887   1.514   2.873 -0.9604 -0.7474  0.6215
 2952SOL     OW20491   1.176   4.231   7.071 -0.4873  0.3539 -0.2806
 2952SOL    HW120492   1.183   4.210   6.978 -3.8172 -1.5281 -0.0931
 2952SOL    HW220493   1.175   4.143   7.109  0.5182  0.5982  0.3084
 2953SOL     OW20494   1.867   0.436   6.727  0.5607 -0.9115  0.2014
 2953SOL    HW120495   1.808   0.467   6.796  0.7189  0.5993 -0.3373
 2953SOL    HW220496   1.876   0.514   6.672 -0.1713 -0.6304  0.4786
 2954SOL     OW20497   2.156   3.823  15.959  0.6637 -0.4165  0.2812
 2954SOL    HW120498   2.070   3.787  15.982  0.9708 -2.2330 -1.4435
 2954SOL    HW220499   2.173   3.783  15.874  0.0579  1.6031 -0.7817
 2955SOL     OW20500   1.035   1.119   8.300 -0.2534 -0.1038  0.8284
 2955SOL    HW120501   1.024   1.081   8.387  0.5552 -2.0260  0.1001
 2955SOL    HW220502   0.959   1.177   8.294 -0.1581 -0.1992 -1.3612
 2956SOL     OW20503   4.226   0.196   9.727 -0.0810  0.0015 -0.0328
 2956SOL    HW120504   4.155   0.257   9.746 -1.6932 -1.8013 -0.2775
 2956SOL    HW220505   4.195   0.110   9.753  1.1757 -0.0435  1.3403
 2957SOL     OW20506   1.086   2.198   8.238  0.0839 -0.1169 -0.1053
 2957SOL    HW120507   1.036   2.242   8.307  0.4456 -1.7641  1.1792
 2957SOL    HW220508   1.112   2.270   8.181  1.2834 -0.4423  0.0497
 2958SOL     OW20509   3.485   3.005   7.473 -0.3151 -0.1480 -0.1817
 2958SOL    HW120510   3.567   3.006   7.425 -0.2398 -0.0914 -0.0516
 2958SOL    HW220511   3.446   2.920   7.454 -0.8254 -0.3242  1.5966
 2959SOL     OW20512   4.003   2.207  10.590  0.0701  0.6654 -0.4602
 2959SOL    HW120513   3.982   2.123  10.551 -2.6136  0.0824  2.2371
 2959SOL    HW220514   4.098   2.203  10.585  0.2591  2.0356  2.0488
 2960SOL     OW20515   1.342   0.620   5.920 -0.8304 -0.0466 -0.4451
 2960SOL    HW120516   1.275   0.608   5.853 -1.6285 -1.8707  0.6809
 2960SOL    HW220517   1.340   0.539   5.972  0.8881  0.5347  0.5300
 2961SOL     OW20518   0.871   3.768   2.621 -0.2057 -0.4037  0.0326
 2961SOL    HW120519   0.881   3.859   2.650 -1.2782 -0.5642  0.9215
 2961SOL    HW220520   0.920   3.727   2.692 -1.8740 -2.7462 -0.1711
 2962SOL     OW20521   3.424   2.431   1.022  0.3777 -0.8980 -0.2513
 2962SOL    HW120522   3.331   2.433   1.002  0.7062 -2.0212 -1.8832
 2962SOL    HW220523   3.421   2.398   1.112  1.9223  1.0204  0.5056
 2963SOL     OW20524   2.924   4.302   2.491  0.2218 -0.0420 -0.0365
 2963SOL    HW120525   2.928   4.302   2.395  1.7506 -0.0443  0.0283
 2963SOL    HW220526   2.828   4.309   2.493  0.1455 -1.5151  1.0492
 2964SOL     OW20527   3.827   4.161   2.923  0.2237 -0.0141  0.3900
 2964SOL    HW120528   3.853   4.243   2.964 -0.8136  0.7373 -0.4558
 2964SOL    HW220529   3.815   4.185   2.831 -1.1142 -1.5067  0.1821
 2965SOL     OW20530   2.439   4.047  16.955  0.2662  0.3428  0.2069
 2965SOL    HW120531   2.372   4.098  16.910 -0.3820 -0.4240  0.2933
 2965SOL    HW220532   2.505   4.065  16.888 -1.8991 -0.5634 -2.1794
 2966SOL     OW20533   1.928   1.985   6.608  0.8640  0.5542 -0.1647
 2966SOL    HW120534   1.993   2.002   6.677  2.7639 -0.6852 -1.6245
 2966SOL    HW220535   1.956   2.054   6.548 -1.4465 -0.7601 -2.7108
 2967SOL     OW20536   4.612   0.440   6.857 -0.2530 -0.0754  0.2845
 2967SOL    HW120537   4.579   0.452   6.947 -2.8702 -0.4180 -0.6368
 2967SOL    HW220538   4.687   0.500   6.858  0.0150 -0.4058 -0.1922
 2968SOL     OW20539   0.370   2.882   2.709 -0.4570 -0.3942  0.0918
 2968SOL    HW120540   0.279   2.853   2.699  0.6556 -3.6885 -0.4697
 2968SOL    HW220541   0.371   2.923   2.796 -0.0829  0.0921 -0.1414
 2969SOL     OW20542   0.103   0.492   3.276  0.3025 -0.6301 -0.6453
 2969SOL    HW120543   0.095   0.570   3.331 -1.5034 -1.0330 -0.3151
 2969SOL    HW220544   0.167   0.523   3.213  1.0951  0.9611  0.9649
 2970SOL     OW20545   0.418   4.578  10.615  0.8414  0.0089  0.0986
 2970SOL    HW120546   0.462   4.496  10.592  0.5390  0.4429 -2.0050
 2970SOL    HW220547   0.397   4.594  10.523  3.8382  1.0705 -0.3847
 2971SOL     OW20548   2.582   2.069   5.569 -0.0103 -0.1946 -0.0785
 2971SOL    HW120549   2.541   2.145   5.610  0.7782 -0.2086  0.7208
 2971SOL    HW220550   2.672   2.096   5.555  0.3754 -1.4627 -0.0752
 2972SOL     OW20551   3.121   1.136   1.482  0.2371  0.0464 -1.0103
 2972SOL    HW120552   3.087   1.048   1.498 -1.0866  0.6350 -0.5373
 2972SOL    HW220553   3.148   1.144   1.573  0.2929 -1.4987 -0.8943
 2973SOL     OW20554   3.528   2.938   1.670  0.0735  0.7351  0.0417
 2973SOL    HW120555   3.499   2.980   1.751  0.2598 -1.3291  1.1950
 2973SOL    HW220556   3.594   3.003   1.648  2.4389 -1.3526  0.8834
 2974SOL     OW20557   0.106   0.536   7.388 -0.0954  0.3712  0.2041
 2974SOL    HW120558   0.151   0.490   7.459 -0.7226 -1.9328 -0.8950
 2974SOL    HW220559   0.117   0.475   7.314 -1.5516  0.4757 -0.1020
 2975SOL     OW20560   1.553   0.488   5.780 -0.2766 -0.1056 -0.4314
 2975SOL    HW120561   1.534   0.565   5.833 -1.0237 -0.5122 -0.1154
 2975SOL    HW220562   1.613   0.524   5.715 -1.2223 -1.5805 -2.1008
 2976SOL     OW20563   1.565   4.400   1.905  0.3495  0.0424  0.4655
 2976SOL    HW120564   1.584   4.487   1.941 -1.4939  1.2880 -1.5188
 2976SOL    HW220565   1.644   4.355   1.934  0.8188 -0.2059 -1.1632
 2977SOL     OW20566   3.838   4.711   3.310 -0.3310  0.0815  0.1218
 2977SOL    HW120567   3.876   4.631   3.274  0.2808 -0.9252  2.9591
 2977SOL    HW220568   3.768   4.679   3.367  0.3955 -1.5140  0.1244
 2978SOL     OW20569   3.028   1.352   9.441 -0.0453 -0.5537 -0.5662
 2978SOL    HW120570   3.099   1.394   9.490 -1.6051  0.6982  0.6487
 2978SOL    HW220571   3.068   1.293   9.377  0.1083  0.8777 -1.7898
 2979SOL     OW20572   1.951   3.481  11.104  0.5712 -0.0261 -0.2670
 2979SOL    HW120573   1.956   3.522  11.190  0.4755 -0.2984 -0.1307
 2979SOL    HW220574   2.001   3.539  11.047 -0.5943  0.9947 -0.2533
 2980SOL     OW20575   2.427   4.654  12.896  0.4841 -0.0722  0.5889
 2980SOL    HW120576   2.419   4.694  12.810 -0.1739  0.2032  0.7789
 2980SOL    HW220577   2.427   4.563  12.865  0.2789  0.4002 -0.7503
 2981SOL     OW20578   3.380   1.222   7.258 -0.9621  0.3673 -0.6072
 2981SOL    HW120579   3.474   1.240   7.269 -0.5856 -0.8337 -1.9546
 2981SOL    HW220580   3.364   1.146   7.314 -3.4290  0.2842 -1.4198
 2982SOL     OW20581   0.149   1.157   6.992  0.1718 -0.5028 -0.7455
 2982SOL    HW120582   0.241   1.180   6.983  0.3260 -1.5133 -1.5833
 2982SOL    HW220583   0.151   1.068   6.959  0.9949 -0.3727 -1.0325
 2983SOL     OW20584   2.644   0.726   2.007  0.1990  0.0271 -0.5716
 2983SOL    HW120585   2.717   0.722   2.070  0.5415  2.0709 -0.8515
 2983SOL    HW220586   2.659   0.666   1.934 -0.7847 -0.6846 -0.1865
 2984SOL     OW20587   4.495   0.807   6.249 -0.9496 -0.2121 -0.3427
 2984SOL    HW120588   4.437   0.732   6.251  0.8195 -1.6307 -3.1365
 2984SOL    HW220589   4.580   0.783   6.212 -1.0134 -0.9133 -0.0338
 2985SOL     OW20590   4.661   3.030  13.259 -0.0765  0.0933 -0.4531
 2985SOL    HW120591   4.665   3.120  13.227  0.1633 -0.5708 -2.3092
 2985SOL    HW220592   4.573   3.010  13.225 -0.4865 -3.0520  2.4873
 2986SOL     OW20593   1.829   2.539  15.548 -0.1154 -0.0148 -0.5681
 2986SOL    HW120594   1.819   2.559  15.455 -0.2153  0.1658 -0.5178
 2986SOL    HW220595   1.919   2.506  15.540 -0.1235 -0.4414  1.2461
 2987SOL     OW20596   2.154   2.717   9.340 -0.7799 -0.6346  0.5738
 2987SOL    HW120597   2.144   2.810   9.363 -0.4030  0.3873 -3.4517
 2987SOL    HW220598   2.128   2.676   9.423  0.6263  0.8855  1.7572
 2988SOL     OW20599   0.781   4.401   4.359  0.4647 -0.1360  1.1462
 2988SOL    HW120600   0.715   4.398   4.290  2.5064  0.6244 -0.8640
 2988SOL    HW220601   0.760   4.329   4.419 -1.4590 -0.3453  0.2001
 2989SOL     OW20602   0.582   0.074   2.943 -0.4987 -0.4105 -0.3023
 2989SOL    HW120603   0.508   0.018   2.919  0.0897 -1.3273 -0.0115
 2989SOL    HW220604   0.605   0.034   3.027 -0.1613 -0.2211 -0.3051
 2990SOL     OW20605   4.232   2.666  14.827  0.2320 -0.0432 -0.1711
 2990SOL    HW120606   4.227   2.571  14.819  0.1610  0.2019 -2.9784
 2990SOL    HW220607   4.269   2.674  14.915  1.1032 -0.4449 -0.5036
 2991SOL     OW20608   4.235   3.044  13.730 -0.8384 -0.0430  0.2907
 2991SOL    HW120609   4.150   3.046  13.775 -1.0845 -0.2418 -0.1674
 2991SOL    HW220610   4.249   3.138  13.726 -3.7458  0.4260  1.0731
 2992SOL     OW20611   3.210   0.724   6.707  0.4068 -0.0260 -0.2724
 2992SOL    HW120612   3.167   0.806   6.683 -2.5967 -1.5411 -0.0145
 2992SOL    HW220613   3.157   0.710   6.785  0.4392 -1.3862 -0.5024
 2993SOL     OW20614   3.415   2.803  13.512  0.1370 -0.2379  0.8520
 2993SOL    HW120615   3.358   2.870  13.547 -0.8659 -0.4959 -0.2991
 2993SOL    HW220616   3.356   2.730  13.531 -0.7731  0.0594 -0.8920
 2994SOL     OW20617   3.865   3.196   4.815  0.2140 -0.1701 -0.0984
 2994SOL    HW120618   3.865   3.236   4.729 -2.3851 -1.3523 -0.6680
 2994SOL    HW220619   3.788   3.139   4.804  0.5875 -0.6633 -0.1810
 2995SOL     OW20620   2.807   3.516  16.624 -0.1303 -0.5629  0.3157
 2995SOL    HW120621   2.746   3.444  16.639 -2.0033  0.8440 -0.5733
 2995SOL    HW220622   2.755   3.565  16.561 -2.3418 -0.6235  2.0889
 2996SOL     OW20623   1.168   3.173  16.961  0.1491  0.2176 -0.4897
 2996SOL    HW120624   1.130   3.246  16.912  0.1848  0.9472  0.5821
 2996SOL    HW220625   1.163   3.103  16.895 -2.3691 -0.3843  0.3426
 2997SOL     OW20626   0.635   3.509   0.745 -0.0191  0.2546 -0.0069
 2997SOL    HW120627   0.718   3.555   0.728  0.5421 -0.6601  0.2844
 2997SOL    HW220628   0.620   3.458   0.666  0.6910  0.0993 -0.0418
 2998SOL     OW20629   1.695   3.170   3.408 -0.2632 -0.1181 -0.1483
 2998SOL    HW120630   1.714   3.168   3.314 -2.4433  0.0942 -0.6078
 2998SOL    HW220631   1.660   3.089   3.443  0.0414 -0.2028 -0.0442
 2999SOL     OW20632   1.239   0.812   8.562  0.0155 -0.1048  0.2603
 2999SOL    HW120633   1.270   0.736   8.611  1.2629 -1.4249 -2.5743
 2999SOL    HW220634   1.302   0.880   8.587 -2.4144  1.9853  0.6477
 3000SOL     OW20635   3.079   1.354   3.319  0.4490  0.1272 -0.1544
 3000SOL    HW120636   3.033   1.271   3.312 -2.7744  1.6345  3.3352
 3000SOL    HW220637   3.033   1.393   3.393  1.5195  2.7978 -0.8867
 3001SOL     OW20638   0.212   2.279   0.109 -0.0926  0.2623  0.1112
 3001SOL    HW120639   0.209   2.356   0.052  0.6774  1.0416  1.1248
 3001SOL    HW220640   0.261   2.312   0.184 -0.6761  0.5695  0.3614
 3002SOL     OW20641   1.149   2.745  12.043  0.1728 -0.1178  0.0214
 3002SOL    HW120642   1.242   2.726  12.032  0.2862 -1.3417  3.1348
 3002SOL    HW220643   1.133   2.794  11.962  0.0709  0.1404  0.2000
 3003SOL     OW20644   3.768   4.083  14.575  0.1669 -0.0084  0.3152
 3003SOL    HW120645   3.785   4.021  14.645 -3.0409 -0.3325  0.8000
 3003SOL    HW220646   3.856   4.119  14.568 -0.3549  0.8446 -1.8094
 3004SOL     OW20647   2.826   1.141  10.765  0.3088 -0.2865  0.1550
 3004SOL    HW120648   2.871   1.225  10.767 -0.0791 -0.0151 -2.1698
 3004SOL    HW220649   2.749   1.165  10.713  0.1990  1.1572  0.9914
 3005SOL     OW20650   0.856   4.642   7.279 -0.3854 -0.1498 -0.6162
 3005SOL    HW120651   0.930   4.702   7.285 -1.4070  1.1426 -1.0063
 3005SOL    HW220652   0.785   4.707   7.279 -0.9964 -0.8031 -0.4437
 3006SOL     OW20653   4.681   1.627   6.558  0.0750 -0.5466 -0.3504
 3006SOL    HW120654   0.025   1.624   6.508  0.0896  1.3257 -0.4273
 3006SOL    HW220655   4.642   1.541   6.544  0.6959 -0.5301 -2.1843
 3007SOL     OW20656   1.973   2.638   4.827  0.3900  0.2861  0.1298
 3007SOL    HW120657   1.927   2.686   4.897 -2.2110 -1.6153 -0.2881
 3007SOL    HW220658   1.915   2.666   4.756  1.6539 -0.1033 -1.0551
 3008SOL     OW20659   0.090   0.855   5.914  0.3334  0.6925 -0.0217
 3008SOL    HW120660   0.185   0.863   5.925  0.5668 -0.3736 -1.2381
 3008SOL    HW220661   0.061   0.934   5.958  0.6957  1.4869 -1.2181
 3009SOL     OW20662   3.521   4.657   5.054 -0.7348  0.1690  0.2441
 3009SOL    HW120663   3.490   4.567   5.066 -1.3280  0.1521 -1.4396
 3009SOL    HW220664   3.443   4.710   5.040 -0.1408  0.7530 -0.8287
 3010SOL     OW20665   1.592   3.475  13.948 -0.1367  0.2228 -0.8524
 3010SOL    HW120666   1.592   3.540  13.877  0.4649 -1.0593 -2.0093
 3010SOL    HW220667   1.575   3.395  13.899  2.6024 -0.2557 -0.9823
 3011SOL     OW20668   1.896   0.690   2.770 -0.0146  0.5376 -0.0701
 3011SOL    HW120669   1.821   0.708   2.713  0.9693 -1.1375 -1.8916
 3011SOL    HW220670   1.879   0.745   2.847  0.5530  2.4164 -1.2779
 3012SOL     OW20671   1.535   0.660   1.122  0.0262  0.8497 -0.0638
 3012SOL    HW120672   1.527   0.754   1.104  1.3917  0.9401 -0.1619
 3012SOL    HW220673   1.502   0.657   1.212 -1.3662  2.0156 -0.5265
 3013SOL     OW20674   3.879   2.239   7.701  0.1460 -0.8548 -0.0656
 3013SOL    HW120675   3.936   2.299   7.653 -0.3793  0.2424  0.7039
 3013SOL    HW220676   3.803   2.262   7.647 -1.1044 -0.2185  2.0001
 3014SOL     OW20677   0.699   2.534   3.818 -0.5084  0.1826  0.0131
 3014SOL    HW120678   0.786   2.516   3.783 -1.1823 -1.6789 -0.7379
 3014SOL    HW220679   0.703   2.630   3.820  1.2813  0.1385 -1.4081
 3015SOL     OW20680   2.818   3.504   8.154  0.3172 -0.4604 -0.9457
 3015SOL    HW120681   2.844   3.550   8.074  0.6378 -1.2937 -1.3318
 3015SOL    HW220682   2.764   3.564   8.205  0.3702 -0.2640 -1.1209
 3016SOL     OW20683   3.647   3.957   4.561  0.0952 -0.6684 -0.0360
 3016SOL    HW120684   3.659   4.004   4.478 -0.0303 -2.6359 -1.1789
 3016SOL    HW220685   3.620   4.034   4.612  0.5138 -0.3307 -0.3198
 3017SOL     OW20686   1.265   3.080   2.519 -0.0877 -0.4793  0.5572
 3017SOL    HW120687   1.326   3.151   2.497 -0.8159  0.3952  1.3913
 3017SOL    HW220688   1.322   3.033   2.580  1.3725  0.1722 -0.2710
 3018SOL     OW20689   3.731   4.034  16.570 -0.1987  0.3568  1.1625
 3018SOL    HW120690   3.772   3.971  16.511  0.9889  1.9719  0.2524
 3018SOL    HW220691   3.639   4.015  16.552 -0.4198 -0.3819  3.1369
 3019SOL     OW20692   2.647   2.008   5.958 -0.2963 -0.3459 -0.7477
 3019SOL    HW120693   2.616   2.094   5.928 -2.6809 -1.0820 -0.3776
 3019SOL    HW220694   2.742   2.014   5.943  0.0633 -0.2870  1.5612
 3020SOL     OW20695   1.423   0.620  15.905 -0.0107 -0.3139 -0.3533
 3020SOL    HW120696   1.421   0.699  15.959  1.4251  0.0777 -0.8563
 3020SOL    HW220697   1.381   0.647  15.823 -1.2618 -0.2889  0.2951
 3021SOL     OW20698   3.760   3.269   9.383  0.0896 -0.2424 -0.2257
 3021SOL    HW120699   3.694   3.216   9.338 -0.3272  0.4756 -0.4527
 3021SOL    HW220700   3.835   3.210   9.374 -1.7198 -2.3057 -1.9910
 3022SOL     OW20701   0.507   4.497   9.252 -0.1192  0.9182  0.4441
 3022SOL    HW120702   0.484   4.440   9.325 -1.9004 -1.2052 -1.7635
 3022SOL    HW220703   0.496   4.584   9.289  2.9339 -0.5749  4.8264
 3023SOL     OW20704   3.903   1.659   7.690  0.1908 -0.3204 -0.4180
 3023SOL    HW120705   3.942   1.573   7.705 -1.6200 -0.8085  1.4332
 3023SOL    HW220706   3.810   1.637   7.696 -0.1125  1.3643  0.9731
 3024SOL     OW20707   3.986   1.175   4.185 -0.2810  0.0622  0.6567
 3024SOL    HW120708   4.066   1.130   4.214  1.2739  1.8578 -0.8791
 3024SOL    HW220709   4.000   1.155   4.093  0.7931 -0.9945  1.0489
 3025SOL     OW20710   2.157   2.961   7.695  0.6549  0.4445  0.3788
 3025SOL    HW120711   2.200   2.892   7.746 -0.2181  2.2890  3.6029
 3025SOL    HW220712   2.165   2.928   7.605 -1.6301 -0.1783  0.3782
 3026SOL     OW20713   3.902   1.193   3.536 -0.0050  0.1311  0.6949
 3026SOL    HW120714   3.851   1.220   3.612 -0.7189 -1.2551  0.7083
 3026SOL    HW220715   3.951   1.124   3.582 -1.3316 -2.1961 -1.4020
 3027SOL     OW20716   0.128   2.491  17.674  0.4970  0.4399  0.7179
 3027SOL    HW120717   0.137   2.569  17.728 -1.7094  0.1637  1.4788
 3027SOL    HW220718   0.182   2.513  17.597  1.8021 -0.8852  1.2437
 3028SOL     OW20719   4.228   1.492   4.403  0.1503  0.0237 -0.5312
 3028SOL    HW120720   4.267   1.541   4.476 -0.1505 -1.2099  0.4532
 3028SOL    HW220721   4.234   1.404   4.439 -0.7305  0.9285  1.8559
 3029SOL     OW20722   2.839   0.881  11.012 -0.1854 -0.0995 -0.2358
 3029SOL    HW120723   2.837   0.976  11.009  1.4076 -0.0868 -0.5817
 3029SOL    HW220724   2.761   0.883  11.068 -0.9162 -0.6244 -1.2082
 3030SOL     OW20725   2.861   2.117   3.774 -0.3008 -0.4560 -0.2095
 3030SOL    HW120726   2.766   2.122   3.778 -0.2727 -0.0256 -0.0744
 3030SOL    HW220727   2.860   2.106   3.679 -0.1668  0.9430 -0.3685
 3031SOL     OW20728   0.328   2.039   0.885 -0.0022  0.1106  0.3743
 3031SOL    HW120729   0.300   2.127   0.864  0.8111  0.7261  1.8302
 3031SOL    HW220730   0.250   2.012   0.934 -0.3557 -2.3253 -1.5415
 3032SOL     OW20731   0.662   4.580   1.747 -0.5524 -0.9534 -0.3838
 3032SOL    HW120732   0.757   4.582   1.751 -0.4753 -0.4297 -2.4215
 3032SOL    HW220733   0.641   4.652   1.689  0.3477  0.5900  1.2093
 3033SOL     OW20734   0.821   2.005  16.637  0.4638  0.2570 -0.1779
 3033SOL    HW120735   0.857   2.093  16.651  1.2275 -0.2746  1.2521
 3033SOL    HW220736   0.886   1.957  16.688 -0.0370 -1.3197 -1.0148
 3034SOL     OW20737   3.147   0.452   0.303  0.1218  0.4303  0.3367
 3034SOL    HW120738   3.065   0.501   0.303 -0.6708 -0.8912  1.0641
 3034SOL    HW220739   3.191   0.518   0.250 -0.6619  1.0148  0.4166
 3035SOL     OW20740   2.731   3.812   3.713 -0.1990  0.8735  0.1375
 3035SOL    HW120741   2.642   3.804   3.749 -0.0896  1.7614  0.6097
 3035SOL    HW220742   2.716   3.795   3.620  1.2010  0.1280  0.0536
 3036SOL     OW20743   4.014   0.969   1.847  0.3901  0.1082  0.3884
 3036SOL    HW120744   4.107   0.973   1.868  0.2475 -0.9748  1.2138
 3036SOL    HW220745   4.020   0.882   1.806  1.9267 -0.0638  0.9775
 3037SOL     OW20746   0.716   3.653   3.818 -0.2360 -0.1416  0.3177
 3037SOL    HW120747   0.628   3.690   3.830 -0.3156  0.2675 -1.5961
 3037SOL    HW220748   0.710   3.572   3.869  2.4226  0.3689  1.4584
 3038SOL     OW20749   1.417   1.655   8.357 -0.0252  0.1428 -0.0745
 3038SOL    HW120750   1.463   1.734   8.386  0.4382 -0.1052 -0.1401
 3038SOL    HW220751   1.431   1.588   8.424  1.9151  0.9640  0.3606
 3039SOL     OW20752   1.210   3.897   3.479  0.1200 -0.2630  0.1871
 3039SOL    HW120753   1.219   3.832   3.549  1.2754 -0.2862  0.0127
 3039SOL    HW220754   1.263   3.851   3.415  2.0638  2.2944 -0.0420
 3040SOL     OW20755   4.098   2.520   5.982  0.0688  0.4884  0.4205
 3040SOL    HW120756   4.043   2.552   6.053  0.5825  1.5820  0.3225
 3040SOL    HW220757   4.112   2.609   5.949  0.1236  0.1099 -0.5588
 3041SOL     OW20758   2.488   3.883   3.469 -0.3446 -0.4651 -0.3434
 3041SOL    HW120759   2.459   3.795   3.445 -1.3809 -0.6214  1.4106
 3041SOL    HW220760   2.474   3.878   3.564  2.2333  0.5198  0.0705
 3042SOL     OW20761   4.116   1.806   2.818 -0.2932  0.0137  0.0201
 3042SOL    HW120762   4.031   1.789   2.777 -0.7060 -1.9539  1.7168
 3042SOL    HW220763   4.107   1.740   2.886 -0.5081 -0.5693 -0.5716
 3043SOL     OW20764   1.000   1.122   8.569  0.6953 -0.1652  0.0085
 3043SOL    HW120765   0.943   1.156   8.638 -1.1934  2.2733 -2.7930
 3043SOL    HW220766   1.084   1.147   8.608  0.5451  2.7499 -1.5593
 3044SOL     OW20767   2.834   2.469   3.063  0.0245  0.3271 -0.7572
 3044SOL    HW120768   2.758   2.450   3.009 -0.7118  1.5437 -0.1417
 3044SOL    HW220769   2.877   2.384   3.067  0.1706  0.5378  1.9172
 3045SOL     OW20770   0.405   3.421  15.847 -0.2307  0.0262  0.2131
 3045SOL    HW120771   0.463   3.460  15.782  0.0563 -3.4586 -1.6239
 3045SOL    HW220772   0.321   3.458  15.818 -1.0851 -0.5644  1.9150
 3046SOL     OW20773   2.619   2.854   2.360 -0.2436  0.4282 -0.0411
 3046SOL    HW120774   2.710   2.879   2.371 -0.1832  0.3787 -0.4536
 3046SOL    HW220775   2.623   2.761   2.338 -1.4357  0.4108 -0.2154
 3047SOL     OW20776   1.716   3.764   4.481 -0.2073  0.6632 -0.3388
 3047SOL    HW120777   1.641   3.721   4.439  0.8676 -0.2716 -1.2814
 3047SOL    HW220778   1.767   3.686   4.504 -1.9124 -0.4931 -0.4721
 3048SOL     OW20779   3.174   4.108   7.271  0.2968 -0.3497  0.0711
 3048SOL    HW120780   3.131   4.073   7.349 -0.4501 -1.1531 -0.7003
 3048SOL    HW220781   3.264   4.103   7.302  0.4351  2.1293  0.0085
 3049SOL     OW20782   4.350   2.792  12.950 -0.3883 -0.1973 -0.8802
 3049SOL    HW120783   4.347   2.859  13.019 -2.8768 -1.0519 -0.1357
 3049SOL    HW220784   4.400   2.827  12.877 -0.4070 -2.6884 -2.0672
 3050SOL     OW20785   2.737   0.652  11.135  0.0810 -0.0216  0.1120
 3050SOL    HW120786   2.807   0.693  11.085 -1.1333 -0.0781 -1.6519
 3050SOL    HW220787   2.679   0.619  11.066 -1.8912  1.6048  1.0219
 3051SOL     OW20788   0.821   3.129   5.485  0.2443 -0.4413 -0.4397
 3051SOL    HW120789   0.728   3.130   5.507  1.0608  0.2553  2.9308
 3051SOL    HW220790   0.838   3.204   5.543 -0.3139 -0.7350  0.1043
 3052SOL     OW20791   4.089   1.552  13.757  0.4746 -0.0442 -0.1162
 3052SOL    HW120792   4.134   1.469  13.742 -1.2765 -1.2876  1.5127
 3052SOL    HW220793   3.998   1.525  13.748  0.0437  1.2455  0.2780
 3053SOL     OW20794   1.499   0.965   5.297  0.1087  0.3014 -0.3361
 3053SOL    HW120795   1.492   1.031   5.228 -1.1216  0.3646 -0.1500
 3053SOL    HW220796   1.570   0.911   5.260 -2.3006 -1.8855 -1.7441
 3054SOL     OW20797   4.479   1.956   4.310  0.2501  0.1418  0.5348
 3054SOL    HW120798   4.386   1.953   4.332  0.1791  2.4589  0.5308
 3054SOL    HW220799   4.520   1.997   4.387 -1.6962 -0.4885  1.9112
 3055SOL     OW20800   3.965   1.798   7.924  0.1124  0.3448  0.0758
 3055SOL    HW120801   3.942   1.889   7.905  1.1336  0.6060  0.0739
 3055SOL    HW220802   3.928   1.746   7.853 -0.8466 -1.6103  2.0256
 3056SOL     OW20803   3.520   1.750   0.626  0.1340  0.0380  0.2825
 3056SOL    HW120804   3.526   1.778   0.717 -1.8480 -0.1095  0.4659
 3056SOL    HW220805   3.450   1.684   0.624  2.1598 -2.1162  0.1272
 3057SOL     OW20806   3.736   4.196  13.197 -0.2318 -0.0998 -0.2297
 3057SOL    HW120807   3.762   4.248  13.121  2.4006  1.0463  1.4297
 3057SOL    HW220808   3.782   4.241  13.268 -0.5021 -0.8064  0.3862
 3058SOL     OW20809   3.351   2.368   5.121 -0.3060  0.0484 -0.0413
 3058SOL    HW120810   3.427   2.393   5.174 -0.9128  0.1752  0.7619
 3058SOL    HW220811   3.359   2.273   5.125  0.8661  0.1359 -0.3825
 3059SOL     OW20812   1.578   3.582  15.016  0.3857  0.4971  0.0800
 3059SOL    HW120813   1.605   3.631  14.939 -1.5643 -0.4410 -1.2018
 3059SOL    HW220814   1.497   3.631  15.032  1.3298  2.2661 -0.6447
 3060SOL     OW20815   3.638   4.305   6.965 -0.4280  0.2350  0.1584
 3060SOL    HW120816   3.659   4.321   6.873  0.3888 -0.5489  0.2063
 3060SOL    HW220817   3.590   4.222   6.966 -0.9770  0.5519  0.0611
 3061SOL     OW20818   2.667   2.439   2.853 -0.4417 -0.3987 -0.4201
 3061SOL    HW120819   2.665   2.509   2.789  0.3376  0.3345  0.3484
 3061SOL    HW220820   2.572   2.428   2.855 -0.5143  0.2974  0.2219
 3062SOL     OW20821   4.259   4.260   7.674  0.2834  0.1815  0.0224
 3062SOL    HW120822   4.174   4.248   7.716  0.5443 -1.9000 -0.0367
 3062SOL    HW220823   4.231   4.274   7.584  0.9087 -0.4229 -0.2699
 3063SOL     OW20824   3.684   2.107   9.405  0.5142  0.5733 -0.0792
 3063SOL    HW120825   3.752   2.173   9.422  0.6166  0.6428 -0.7616
 3063SOL    HW220826   3.621   2.127   9.474  0.2920  1.2904 -0.4921
 3064SOL     OW20827   1.050   1.254   2.509  0.2668  0.0098  0.3639
 3064SOL    HW120828   0.975   1.311   2.491  0.8778  0.3666 -1.0562
 3064SOL    HW220829   1.036   1.175   2.457 -2.3523 -0.3721  1.6725
 3065SOL     OW20830   2.928   1.004   9.971 -0.0551  0.1905 -0.0792
 3065SOL    HW120831   2.932   0.911   9.946  2.8543  0.8611 -2.1311
 3065SOL    HW220832   3.018   1.033   9.954  0.8230 -2.6772 -0.4017
 3066SOL     OW20833   3.222   3.139   2.922  0.5104 -0.0942  0.5950
 3066SOL    HW120834   3.246   3.230   2.907  0.6223 -0.3139 -0.5325
 3066SOL    HW220835   3.270   3.128   3.004  1.5879  1.2521  0.1378
 3067SOL     OW20836   1.998   3.177   2.795 -0.4849 -0.3249  0.2777
 3067SOL    HW120837   2.052   3.174   2.874  0.6873  2.2915 -0.4219
 3067SOL    HW220838   2.053   3.144   2.724  1.0007  0.1579  1.1926
 3068SOL     OW20839   2.054   0.996   4.239  0.3636 -0.0966 -0.1339
 3068SOL    HW120840   2.128   0.985   4.298 -0.9302  2.0236  1.8911
 3068SOL    HW220841   2.023   0.907   4.218  0.8887 -0.1194 -0.7993
 3069SOL     OW20842   1.929   3.374   2.368 -0.1547  0.2703 -0.0565
 3069SOL    HW120843   1.887   3.293   2.338  2.4425 -1.2208  0.2910
 3069SOL    HW220844   2.019   3.366   2.337 -0.3214 -0.8913 -0.2618
 3070SOL     OW20845   0.633   0.421  10.312  0.0693 -0.0252 -0.3636
 3070SOL    HW120846   0.596   0.419  10.400  1.0160 -1.2470  0.0038
 3070SOL    HW220847   0.640   0.516  10.308  0.1025  0.0913  3.0922
 3071SOL     OW20848   3.932   2.307  12.659 -0.0109  0.3975  0.3403
 3071SOL    HW120849   3.927   2.212  12.645  1.6315  0.6430 -1.8715
 3071SOL    HW220850   4.025   2.322  12.670  0.2665  1.5279 -3.4223
 3072SOL     OW20851   2.613   3.467   3.898 -0.1419 -0.5529  0.0620
 3072SOL    HW120852   2.561   3.434   3.972 -0.4927 -0.1743 -0.0205
 3072SOL    HW220853   2.703   3.453   3.930 -0.3770  1.3600  1.5448
 3073SOL     OW20854   0.244   4.042  14.934 -0.1119 -0.2432 -0.0562
 3073SOL    HW120855   0.244   4.039  14.838  0.3677  0.9840 -0.0965
 3073SOL    HW220856   0.212   4.132  14.940  0.7067 -0.0246  0.9142
 3074SOL     OW20857   3.094   0.795  11.639 -0.0682  0.4050  0.7975
 3074SOL    HW120858   3.021   0.795  11.700  1.1193  0.3214  2.2322
 3074SOL    HW220859   3.138   0.716  11.669  0.9652 -0.0742 -1.9125
 3075SOL     OW20860   2.468   0.998   3.047  0.8501  0.2172  0.2598
 3075SOL    HW120861   2.487   1.027   2.957  1.7739 -0.4729  0.2297
 3075SOL    HW220862   2.558   1.001   3.080  1.4511  0.5778 -1.3819
 3076SOL     OW20863   2.552   2.616   3.287 -0.1622 -0.8952  0.2093
 3076SOL    HW120864   2.534   2.603   3.380  2.0300  2.1632  1.0455
 3076SOL    HW220865   2.625   2.678   3.282 -2.0772  1.4402  1.6983
 3077SOL     OW20866   2.707   3.606   2.302  0.4390 -0.3624 -0.1999
 3077SOL    HW120867   2.744   3.651   2.377  1.5636 -0.1107 -0.8982
 3077SOL    HW220868   2.670   3.684   2.261 -0.0797 -0.7088 -0.3851
 3078SOL     OW20869   3.423   1.842   3.463  0.1348 -0.2489 -0.5279
 3078SOL    HW120870   3.361   1.915   3.449 -0.9313 -0.7436  1.7079
 3078SOL    HW220871   3.416   1.821   3.556 -0.7033  1.4067 -0.2096
 3079SOL     OW20872   0.021   2.877   4.454  0.3447 -0.3279  0.4919
 3079SOL    HW120873   0.042   2.918   4.538 -0.8072  1.0133  0.1280
 3079SOL    HW220874   4.668   2.854   4.472  0.3951  0.2657  1.4871
 3080SOL     OW20875   4.664   1.957  16.506 -0.2826  0.2179  0.4960
 3080SOL    HW120876   0.014   1.994  16.504 -0.5966  0.9572  0.2940
 3080SOL    HW220877   4.673   1.908  16.588 -1.0778 -1.7791 -0.6078
 3081SOL     OW20878   1.608   2.968   6.010 -0.0164  0.4862 -0.1028
 3081SOL    HW120879   1.517   2.953   5.986  0.0840  1.3457 -0.9908
 3081SOL    HW220880   1.592   3.030   6.081  1.3131  1.4103 -0.6132
 3082SOL     OW20881   0.415   3.059   0.106 -0.0731  0.0552 -0.0896
 3082SOL    HW120882   0.411   3.049   0.011 -1.0627  0.5615 -0.0975
 3082SOL    HW220883   0.496   3.109   0.112  0.3293 -0.4862 -0.9250
 3083SOL     OW20884   1.451   1.396   3.874 -0.0645 -0.4400  0.1174
 3083SOL    HW120885   1.409   1.482   3.869 -1.9063 -1.3490 -0.3056
 3083SOL    HW220886   1.514   1.425   3.940  0.2525  2.6330 -1.5443
 3084SOL     OW20887   1.461   4.431   5.443  0.1176  0.4149 -0.1840
 3084SOL    HW120888   1.552   4.401   5.450 -0.7719 -2.3755 -0.3385
 3084SOL    HW220889   1.408   4.390   5.512 -1.5229  2.0857 -0.4803
 3085SOL     OW20890   0.255   2.115   4.991  0.2500  0.2507 -0.0438
 3085SOL    HW120891   0.306   2.082   4.917 -0.7163  1.1982 -1.1403
 3085SOL    HW220892   0.300   2.199   5.003 -2.2673  1.5664  0.2516
 3086SOL     OW20893   3.793   0.334   6.904  0.5392 -0.1877  0.2553
 3086SOL    HW120894   3.828   0.294   6.825  2.1876  0.2297  0.7618
 3086SOL    HW220895   3.700   0.317   6.892  0.6632  0.5667 -1.8424
 3087SOL     OW20896   3.214   3.575   6.680 -0.1984  0.8811 -0.2590
 3087SOL    HW120897   3.284   3.513   6.702  0.5672  1.7685 -0.1730
 3087SOL    HW220898   3.160   3.570   6.759  1.9132 -1.7514  1.0307
 3088SOL     OW20899   3.799   2.758   1.992  0.6137 -0.3732  0.7351
 3088SOL    HW120900   3.733   2.817   2.026 -1.2560 -1.8175 -0.3917
 3088SOL    HW220901   3.754   2.719   1.917 -1.4162  0.4923  1.5244
 3089SOL     OW20902   2.685   1.989   6.611  0.0137  0.4226 -0.3447
 3089SOL    HW120903   2.675   1.912   6.667 -1.3750  0.4121 -0.6111
 3089SOL    HW220904   2.687   1.950   6.524  0.2994 -0.4240  0.0468
 3090SOL     OW20905   1.281   0.915   6.470  0.8042  0.2756  0.0145
 3090SOL    HW120906   1.276   0.957   6.384 -3.3168  1.1014  0.6699
 3090SOL    HW220907   1.200   0.865   6.482  1.5859 -1.0082 -0.0819
 3091SOL     OW20908   1.055   3.496   6.066 -0.1411 -0.6220  0.3149
 3091SOL    HW120909   1.033   3.528   5.979  1.3108  0.9554  0.5266
 3091SOL    HW220910   0.972   3.472   6.107 -2.3658  1.9871 -2.6544
 3092SOL     OW20911   4.027   3.799  14.414 -0.3672  0.1332  0.5717
 3092SOL    HW120912   4.034   3.706  14.436 -1.1526  0.0879  0.5972
 3092SOL    HW220913   4.022   3.796  14.318 -1.1999  0.2256  0.6145
 3093SOL     OW20914   1.221   2.126   8.914  0.5756 -0.0006 -0.0539
 3093SOL    HW120915   1.206   2.221   8.910 -0.9818 -0.1571  1.9819
 3093SOL    HW220916   1.217   2.114   9.008 -1.2012  1.2107  0.0365
 3094SOL     OW20917   1.773   0.298   3.823 -1.5897  0.1048  0.0401
 3094SOL    HW120918   1.715   0.228   3.794  0.6641 -0.9429 -1.9239
 3094SOL    HW220919   1.853   0.259   3.788 -1.8719  1.0261 -1.6271
 3095SOL     OW20920   2.262   3.724   5.973 -0.0422  0.4435 -0.2132
 3095SOL    HW120921   2.348   3.705   6.010 -1.0653 -1.3476  1.2354
 3095SOL    HW220922   2.228   3.795   6.027 -2.5403 -0.1386 -1.0159
 3096SOL     OW20923   1.759   3.598   9.645  0.0841  0.0957  1.0518
 3096SOL    HW120924   1.681   3.655   9.643 -0.9438 -1.4015 -1.0261
 3096SOL    HW220925   1.792   3.631   9.562  0.5587 -1.8933  0.4513
 3097SOL     OW20926   2.696   1.594   8.861 -0.0242  0.1278  0.8326
 3097SOL    HW120927   2.782   1.553   8.873 -0.5883 -1.8305 -1.7114
 3097SOL    HW220928   2.710   1.689   8.860 -1.0153  0.2493 -0.3376
 3098SOL     OW20929   2.334   2.861   7.196  0.0344  0.1650  0.0163
 3098SOL    HW120930   2.368   2.949   7.209 -0.4917  0.2549  0.7598
 3098SOL    HW220931   2.416   2.824   7.162 -1.0849 -0.8491 -1.5875
 3099SOL     OW20932   2.651   3.418   5.046  0.2690 -0.3766  0.5913
 3099SOL    HW120933   2.719   3.452   5.104  0.6312  2.0601 -1.2469
 3099SOL    HW220934   2.695   3.429   4.961  0.4355  1.9322  0.9860
 3100SOL     OW20935   4.457   3.169  17.577  0.5714  0.3416 -0.4230
 3100SOL    HW120936   4.396   3.101  17.606  0.8315  0.7131  1.0049
 3100SOL    HW220937   4.441   3.160  17.483  1.3802 -0.2214 -0.5131
 3101SOL     OW20938   2.663   4.571   2.695  0.1196  0.7384  0.5341
 3101SOL    HW120939   2.750   4.564   2.733  0.7847 -0.5309 -1.2333
 3101SOL    HW220940   2.617   4.604   2.772 -1.8222 -3.3362  1.1297
 3102SOL     OW20941   2.720   2.619  17.295 -0.9953  0.0347 -0.4508
 3102SOL    HW120942   2.779   2.557  17.337 -2.0002 -1.4358 -1.2259
 3102SOL    HW220943   2.761   2.692  17.342  1.5656 -0.5839 -1.6666
 3103SOL     OW20944   1.894   2.110   8.369  0.1100  0.3365 -0.1255
 3103SOL    HW120945   1.849   2.052   8.306 -0.5104 -0.2652  0.8764
 3103SOL    HW220946   1.947   2.166   8.313  1.2398 -0.0013  0.6244
 3104SOL     OW20947   4.505   2.201  13.130 -0.0160  0.1899 -0.0759
 3104SOL    HW120948   4.535   2.274  13.184 -2.3985  2.9473 -2.4736
 3104SOL    HW220949   4.526   2.128  13.188 -1.4469 -0.7738 -0.7687
 3105SOL     OW20950   4.133   2.525   2.946  0.6395  0.3132  0.2848
 3105SOL    HW120951   4.219   2.500   2.980  0.3225 -0.6583  0.3765
 3105SOL    HW220952   4.149   2.498   2.855  2.5583  0.2844  0.6139
 3106SOL     OW20953   1.907   1.228   4.066 -0.2391 -0.4952  0.1724
 3106SOL    HW120954   1.958   1.164   4.116 -2.8044 -2.0500  0.7595
 3106SOL    HW220955   1.942   1.306   4.110  0.6332 -0.2073 -1.0318
 3107SOL     OW20956   0.558   4.007   2.072  0.1681 -0.0998 -0.1329
 3107SOL    HW120957   0.609   3.942   2.024 -0.2395 -2.3336  2.4621
 3107SOL    HW220958   0.469   3.974   2.059  0.7066 -0.7627 -2.1504
 3108SOL     OW20959   0.472   2.487   5.363  0.2552 -0.4221  0.0176
 3108SOL    HW120960   0.402   2.513   5.424  0.0019  2.2926 -1.4250
 3108SOL    HW220961   0.531   2.562   5.368 -0.1267 -0.0144 -1.5442
 3109SOL     OW20962   0.723   1.937   2.528 -0.1317  0.5900  0.2899
 3109SOL    HW120963   0.710   1.873   2.598  1.4703 -0.6316 -0.5285
 3109SOL    HW220964   0.752   2.010   2.583  1.2563  0.1537  0.1550
 3110SOL     OW20965   1.250   2.716   3.457 -0.6279  0.3902 -0.3077
 3110SOL    HW120966   1.345   2.725   3.458 -0.5054 -0.8208 -1.7180
 3110SOL    HW220967   1.233   2.644   3.397  0.0747  0.5740 -0.7317
 3111SOL     OW20968   4.222   2.938   4.523 -0.4341  0.2990 -0.2361
 3111SOL    HW120969   4.201   2.848   4.498 -0.6565  0.3489 -0.2350
 3111SOL    HW220970   4.238   2.975   4.437  0.3246 -1.5783 -0.9142
 3112SOL     OW20971   1.807   1.755   6.845  0.4741 -0.3339 -0.3857
 3112SOL    HW120972   1.791   1.813   6.920 -0.5490 -1.8373  0.5636
 3112SOL    HW220973   1.721   1.718   6.823 -0.8284  2.2680  0.2471
 3113SOL     OW20974   1.944   3.765   8.443  0.9110 -0.1601  0.6872
 3113SOL    HW120975   1.849   3.757   8.434  0.8554  1.1189  0.1861
 3113SOL    HW220976   1.966   3.674   8.422 -0.6346 -0.9316  2.3598
 3114SOL     OW20977   4.212   2.383   8.883  0.2423 -0.1560  0.2762
 3114SOL    HW120978   4.260   2.337   8.953 -1.6167  0.1218  1.7394
 3114SOL    HW220979   4.135   2.326   8.881 -0.7003  1.0959  0.9097
 3115SOL     OW20980   4.156   2.219   3.947 -0.6163  0.4585  0.6672
 3115SOL    HW120981   4.061   2.219   3.959 -0.4709 -0.6295  1.7828
 3115SOL    HW220982   4.183   2.189   4.034  0.3055 -1.0605 -0.1388
 3116SOL     OW20983   4.546   2.621   9.843  0.6161  0.0972  0.0320
 3116SOL    HW120984   4.519   2.632   9.752  1.2257 -0.0848 -0.1761
 3116SOL    HW220985   4.513   2.704   9.877 -1.3112 -0.8834  0.5293
 3117SOL     OW20986   3.775   4.248   5.046  0.4277  0.5067  0.1419
 3117SOL    HW120987   3.838   4.219   4.979  0.5085 -1.8419  1.2382
 3117SOL    HW220988   3.729   4.166   5.066  0.3172  0.7104  0.7139
 3118SOL     OW20989   1.255   4.619  10.384 -0.6842  0.2676  0.3255
 3118SOL    HW120990   1.209   4.691  10.340 -0.2338  0.7140  0.5690
 3118SOL    HW220991   1.195   4.547  10.369  0.2923 -0.3983 -0.3578
 3119SOL     OW20992   3.214   3.568   4.782  0.4812 -0.3572 -0.0125
 3119SOL    HW120993   3.152   3.610   4.841  0.6806 -0.1137  0.0253
 3119SOL    HW220994   3.294   3.572   4.834  1.4956 -0.0428 -1.5813
 3120SOL     OW20995   1.080   4.048   1.532 -0.2876 -0.1916  0.8726
 3120SOL    HW120996   1.141   3.979   1.560 -0.3456 -1.6877 -2.7747
 3120SOL    HW220997   1.130   4.109   1.586 -2.1761  0.9620  1.2680
 3121SOL     OW20998   3.681   0.533   7.065  0.2233 -0.0588  0.2965
 3121SOL    HW120999   3.744   0.466   7.036  0.3594 -0.8636  2.4279
 3121SOL    HW221000   3.660   0.571   6.980 -1.5129 -0.8240  0.3931
 3122SOL     OW21001   3.961   3.128   0.454  0.1903  0.3752  0.7855
 3122SOL    HW121002   3.983   3.215   0.421 -2.5956  0.6243 -0.3263
 3122SOL    HW221003   3.992   3.071   0.383 -1.7133 -0.4655  0.6335
 3123SOL     OW21004   4.022   1.300   3.306  0.2421  0.3146 -0.1495
 3123SOL    HW121005   3.942   1.326   3.260 -1.2988 -2.1453  1.1448
 3123SOL    HW221006   3.985   1.259   3.384  2.0009 -1.0458 -0.0289
 3124SOL     OW21007   1.798   3.185   1.772 -0.1320 -0.0391  0.2194
 3124SOL    HW121008   1.892   3.183   1.753 -0.9568 -1.9510 -3.5505
 3124SOL    HW221009   1.752   3.167   1.690  0.1529 -1.8877  0.4566
 3125SOL     OW21010   2.418   3.850   5.611  0.5063  0.1381  0.1291
 3125SOL    HW121011   2.456   3.841   5.523 -1.1330  1.1470 -0.6805
 3125SOL    HW221012   2.490   3.857   5.673  2.1045  1.2507 -1.8194
 3126SOL     OW21013   1.486   4.150   3.061  0.4906 -0.3399  0.3399
 3126SOL    HW121014   1.577   4.133   3.083  0.1709 -0.4542  1.6159
 3126SOL    HW221015   1.494   4.188   2.974 -1.9217 -0.2527  0.1378
 3127SOL     OW21016   1.555   0.209   4.629  0.2504 -0.2241 -0.3344
 3127SOL    HW121017   1.621   0.181   4.692 -0.5231  1.0624  1.0577
 3127SOL    HW221018   1.480   0.192   4.685  0.3892  0.7608  0.1595
 3128SOL     OW21019   2.757   4.032   2.387  0.3212 -0.5582  0.3826
 3128SOL    HW121020   2.744   4.115   2.431  0.1832 -0.6173  0.4531
 3128SOL    HW221021   2.833   3.998   2.434 -0.5996 -1.7316  1.0147
 3129SOL     OW21022   3.896   0.366   8.512  0.2156 -0.0991 -0.2531
 3129SOL    HW121023   3.940   0.427   8.454 -0.1459 -1.3944 -1.8969
 3129SOL    HW221024   3.857   0.422   8.578 -0.4095 -0.1224 -0.6050
 3130SOL     OW21025   0.399   2.515   2.341  0.7140  0.7118 -0.5280
 3130SOL    HW121026   0.307   2.536   2.357  0.3949 -1.8369  0.8991
 3130SOL    HW221027   0.405   2.458   2.264  0.4474  1.0639 -0.8095
 3131SOL     OW21028   1.367   3.121  13.025  0.1218  0.2871  0.3653
 3131SOL    HW121029   1.458   3.148  13.014 -0.4118  1.0833 -2.0913
 3131SOL    HW221030   1.360   3.073  13.108  0.4284  0.8516  0.7140
 3132SOL     OW21031   0.861   1.918   6.932  0.2467 -0.0103  0.5966
 3132SOL    HW121032   0.863   1.994   6.990  0.7860 -0.4119  1.0972
 3132SOL    HW221033   0.882   1.955   6.846 -0.4772 -2.0049 -0.4343
 3133SOL     OW21034   0.575   3.483   8.453  0.0225  0.1134 -0.3199
 3133SOL    HW121035   0.565   3.549   8.384  1.3103 -0.2870 -0.9011
 3133SOL    HW221036   0.582   3.402   8.401  1.2570 -0.0448  0.0990
 3134SOL     OW21037   2.033   0.195   2.104  0.3684  0.0244 -0.6567
 3134SOL    HW121038   2.106   0.216   2.162 -0.4266 -1.7663  1.0163
 3134SOL    HW221039   2.083   0.218   2.026 -0.7060 -0.7137 -1.5690
 3135SOL     OW21040   0.437   1.223   5.762 -0.1140 -0.6016 -0.2986
 3135SOL    HW121041   0.423   1.310   5.724  0.1028 -0.1029  0.7545
 3135SOL    HW221042   0.532   1.212   5.756  0.3639  2.9651  0.6046
 3136SOL     OW21043   3.109   3.044   0.342 -0.3290 -0.9487 -0.0681
 3136SOL    HW121044   3.058   3.117   0.376  0.5808 -0.8524  1.0824
 3136SOL    HW221045   3.145   3.072   0.258  0.7708  1.2839  1.1461
 3137SOL     OW21046   3.203   1.388   9.866 -0.1359 -0.0770 -0.1998
 3137SOL    HW121047   3.252   1.362   9.945  1.0408  4.1955  0.4795
 3137SOL    HW221048   3.114   1.393   9.900  0.1506  0.4780  0.4540
 3138SOL     OW21049   4.165   0.867  15.256 -0.1250 -0.0259 -0.3200
 3138SOL    HW121050   4.253   0.840  15.229  0.7515  1.1234  1.3703
 3138SOL    HW221051   4.176   0.962  15.255  1.2006 -0.1647  1.2195
 3139SOL     OW21052   2.415   4.556   2.103 -0.5673 -0.2453  0.7059
 3139SOL    HW121053   2.323   4.546   2.127 -0.8192  0.0729 -0.1597
 3139SOL    HW221054   2.458   4.598   2.178  0.6297  1.6589 -1.0280
 3140SOL     OW21055   0.731   4.077   5.606 -0.3844 -0.3027 -0.2370
 3140SOL    HW121056   0.667   4.127   5.656  2.2317 -0.2904  3.0224
 3140SOL    HW221057   0.673   4.014   5.563 -0.7853 -0.6890  0.8675
 3141SOL     OW21058   2.330   4.347   2.689 -0.3466  0.2569  0.0599
 3141SOL    HW121059   2.349   4.399   2.767  1.7220 -0.4586  0.0424
 3141SOL    HW221060   2.373   4.268   2.722  0.2184  0.7259  0.4435
 3142SOL     OW21061   2.282   0.389   7.320  0.5185  0.8408  0.1012
 3142SOL    HW121062   2.188   0.405   7.325 -0.3645 -2.5313 -5.0716
 3142SOL    HW221063   2.323   0.451   7.259 -0.9923  2.3776  0.6679
 3143SOL     OW21064   3.610   2.885   8.270  0.0208 -0.4592  0.1030
 3143SOL    HW121065   3.548   2.839   8.213 -0.5632 -0.6327  0.8908
 3143SOL    HW221066   3.693   2.856   8.231 -0.0631 -0.6721  0.0849
 3144SOL     OW21067   3.614   2.285   7.555  0.0333  0.0575 -0.1249
 3144SOL    HW121068   3.577   2.365   7.518 -0.2205  0.4887  1.0520
 3144SOL    HW221069   3.568   2.292   7.639 -0.4447 -1.6681 -0.2357
 3145SOL     OW21070   1.173   0.816   6.892  0.1378  0.3356 -0.0804
 3145SOL    HW121071   1.186   0.831   6.985 -0.7542 -0.4263  0.1706
 3145SOL    HW221072   1.077   0.817   6.891  0.1671  1.0140 -2.0001
 3146SOL     OW21073   0.136   2.118   3.626 -0.2638  0.0901  0.5066
 3146SOL    HW121074   0.066   2.074   3.578 -0.9034  0.4070  1.1416
 3146SOL    HW221075   0.137   2.073   3.711  1.6081 -1.2591 -0.2538
 3147SOL     OW21076   0.919   3.190   5.029  0.3950 -0.3532  0.3250
 3147SOL    HW121077   0.993   3.137   5.057  0.2125 -0.9040 -0.2343
 3147SOL    HW221078   0.954   3.280   5.027  2.7144 -1.3089 -2.4507
 3148SOL     OW21079   3.925   4.063   6.780  0.1884  0.5496 -0.2213
 3148SOL    HW121080   4.017   4.036   6.780  0.1049  0.2660 -0.7969
 3148SOL    HW221081   3.927   4.137   6.841 -0.1943 -0.3024  0.8257
 3149SOL     OW21082   3.679   2.288   0.632  0.0040 -0.3944  0.5369
 3149SOL    HW121083   3.629   2.315   0.554  0.7449  1.4001  0.6687
 3149SOL    HW221084   3.678   2.193   0.633 -1.2037 -0.4011 -0.3413
 3150SOL     OW21085   4.674   0.721   2.309 -0.6598 -0.4444  0.3384
 3150SOL    HW121086   4.714   0.797   2.266  0.2704 -0.1376  1.7617
 3150SOL    HW221087   4.586   0.729   2.271  0.2745 -0.3253 -1.8099
 3151SOL     OW21088   2.874   1.483   0.180 -0.3147  0.1751 -0.9651
 3151SOL    HW121089   2.890   1.499   0.087  1.2635 -1.6886 -1.0086
 3151SOL    HW221090   2.954   1.448   0.218 -1.9865 -0.1348  2.2179
 3152SOL     OW21091   2.351   0.824   4.657 -0.2042 -0.2564 -0.2265
 3152SOL    HW121092   2.379   0.741   4.618  0.9036  0.8757 -1.8456
 3152SOL    HW221093   2.417   0.823   4.726  0.0283 -1.2332 -0.4651
 3153SOL     OW21094   0.237   2.645   4.073  0.4579  0.3055  0.5595
 3153SOL    HW121095   0.172   2.701   4.115 -0.9840 -0.8079 -0.1589
 3153SOL    HW221096   0.230   2.565   4.125  0.8072  0.1848  0.4163
 3154SOL     OW21097   1.653   0.564  14.302  0.0787  0.5836  0.2751
 3154SOL    HW121098   1.615   0.491  14.253  0.8479 -0.7189  1.5996
 3154SOL    HW221099   1.696   0.511  14.369 -1.6366  0.4950  1.3080
 3155SOL     OW21100   1.176   0.635  12.469 -0.8324 -0.1059 -0.1802
 3155SOL    HW121101   1.222   0.677  12.541  3.9096  0.7472 -3.6843
 3155SOL    HW221102   1.184   0.540  12.480  0.3515 -0.1808 -1.7070
 3156SOL     OW21103   2.138   0.340   8.351 -0.3677  0.7173 -0.4197
 3156SOL    HW121104   2.138   0.261   8.404  1.0295  1.4270  0.6246
 3156SOL    HW221105   2.128   0.301   8.264  0.1501 -0.6599  0.1461
 3157SOL     OW21106   1.278   4.678   5.660  0.4442  0.2496  0.2985
 3157SOL    HW121107   1.304   4.699   5.571  1.1099 -1.0730  0.1820
 3157SOL    HW221108   1.362   4.673   5.706  0.9418 -2.4500 -0.9463
 3158SOL     OW21109   3.635   0.676   1.782 -0.9753 -0.4689 -0.1240
 3158SOL    HW121110   3.704   0.633   1.832 -0.7705  2.5058  2.1396
 3158SOL    HW221111   3.695   0.719   1.721 -3.0822  1.7197 -0.6596
 3159SOL     OW21112   1.396   1.784  15.817 -0.2390 -0.2803 -0.0256
 3159SOL    HW121113   1.362   1.702  15.783  0.6134 -0.0529 -1.4472
 3159SOL    HW221114   1.486   1.775  15.787  0.3651  3.2405  0.7068
 3160SOL     OW21115   1.058   0.728   4.275 -0.6466 -0.3260 -0.2681
 3160SOL    HW121116   1.108   0.711   4.354  1.8736  1.1333 -1.5538
 3160SOL    HW221117   1.106   0.807   4.252  0.1565 -0.9360 -0.6797
 3161SOL     OW21118   2.982   1.990   9.083 -0.2753  0.2912 -0.3029
 3161SOL    HW121119   2.914   2.039   9.130  1.2544 -0.0293  2.1897
 3161SOL    HW221120   3.034   2.068   9.062 -0.4952  0.3454 -0.6613
 3162SOL     OW21121   3.747   3.860   2.211  0.0954 -0.4823 -0.3266
 3162SOL    HW121122   3.723   3.772   2.180  2.7820 -0.6747 -1.7948
 3162SOL    HW221123   3.840   3.868   2.191 -0.2441 -0.5010 -1.9181
 3163SOL     OW21124   0.733   4.280  10.812 -0.1429  0.3634  0.1090
 3163SOL    HW121125   0.640   4.255  10.819 -0.3533  0.8140 -0.9817
 3163SOL    HW221126   0.754   4.284  10.718  3.2173 -2.0151  0.7616
 3164SOL     OW21127   2.971   0.535   4.274 -0.6071 -0.2052  0.8038
 3164SOL    HW121128   3.028   0.471   4.316 -0.4862 -0.4005  0.3490
 3164SOL    HW221129   2.989   0.609   4.332  0.6652  0.2998 -0.2339
 3165SOL     OW21130   0.050   4.276  17.024 -0.4548  0.0805 -0.0661
 3165SOL    HW121131   0.068   4.301  16.933 -0.3287 -0.2805 -0.1417
 3165SOL    HW221132   0.043   4.358  17.072  0.0588 -0.7003  1.3337
 3166SOL     OW21133   2.808   0.239  14.587 -0.0368 -0.0455  0.4003
 3166SOL    HW121134   2.811   0.328  14.554 -0.0323 -0.6976 -1.3657
 3166SOL    HW221135   2.717   0.218  14.567 -0.0121  1.2145 -1.0223
 3167SOL     OW21136   1.033   1.761   9.672 -0.2490 -0.6193  0.3966
 3167SOL    HW121137   0.941   1.788   9.670 -0.3066 -0.8624 -0.3038
 3167SOL    HW221138   1.082   1.840   9.654 -1.6627 -0.1179 -1.3356
 3168SOL     OW21139   2.323   1.445   0.909  0.5579  0.0872  0.0136
 3168SOL    HW121140   2.261   1.486   0.849  2.8351 -0.0350 -2.4150
 3168SOL    HW221141   2.400   1.453   0.854  0.1614 -1.0334 -0.6922
 3169SOL     OW21142   0.595   2.107   7.382 -0.4103 -0.0682 -0.2708
 3169SOL    HW121143   0.633   2.193   7.399 -1.5993  0.6004 -0.9789
 3169SOL    HW221144   0.572   2.107   7.289  3.2893 -1.1085 -1.1889
 3170SOL     OW21145   1.231   2.726  17.413  0.0964 -0.5104 -0.4094
 3170SOL    HW121146   1.259   2.657  17.474 -1.5185  0.2525  1.2092
 3170SOL    HW221147   1.140   2.734  17.443  0.7063 -0.8543  1.5343
 3171SOL     OW21148   4.617   2.669   5.515 -0.1694  0.2275  0.3109
 3171SOL    HW121149   4.567   2.750   5.500 -0.1852  0.4816  1.6790
 3171SOL    HW221150   4.561   2.593   5.499  0.8642 -0.5319  0.3531
 3172SOL     OW21151   2.985   3.117  10.184  0.1403 -0.0501 -0.3022
 3172SOL    HW121152   2.956   3.123  10.276  0.6932 -0.2998 -0.1115
 3172SOL    HW221153   3.078   3.133  10.197 -0.1140 -1.2413  3.2416
 3173SOL     OW21154   0.493   0.149   6.649  0.3023  0.6412  0.3667
 3173SOL    HW121155   0.471   0.057   6.658  1.4828  0.4257  1.1087
 3173SOL    HW221156   0.476   0.177   6.559  1.3122  0.8712  0.2411
 3174SOL     OW21157   2.286   1.456  11.558  0.2983  0.2737 -0.2928
 3174SOL    HW121158   2.310   1.451  11.465 -1.5685 -1.6576 -0.6664
 3174SOL    HW221159   2.352   1.411  11.612 -0.3086  0.4462  0.5899
 3175SOL     OW21160   1.814   0.135   2.292  0.4255  0.5142  0.2115
 3175SOL    HW121161   1.865   0.184   2.357 -0.2218  1.5177 -0.0401
 3175SOL    HW221162   1.874   0.149   2.219 -2.4900 -0.6607 -2.3655
 3176SOL     OW21163   1.764   1.162   4.891 -0.5026  0.1103  0.3718
 3176SOL    HW121164   1.729   1.150   4.980  5.4642 -0.4707  2.6910
 3176SOL    HW221165   1.833   1.096   4.885 -1.3781 -0.8228  0.5285
 3177SOL     OW21166   4.688   1.049  10.003  0.3626 -0.5302 -0.1087
 3177SOL    HW121167   0.044   1.067  10.013  0.3927 -0.3308 -0.7617
 3177SOL    HW221168   4.669   0.986  10.073  1.7014 -0.1185  0.6334
 3178SOL     OW21169   3.256   2.068   0.485  0.2613  0.4482 -0.1720
 3178SOL    HW121170   3.168   2.069   0.522  0.1510 -0.9642 -0.3779
 3178SOL    HW221171   3.304   2.014   0.548 -1.5782  0.1237  0.9264
 3179SOL     OW21172   0.866   3.792   9.205 -0.1855  0.2614 -0.1178
 3179SOL    HW121173   0.828   3.735   9.272 -0.8758  0.7031 -0.1355
 3179SOL    HW221174   0.843   3.739   9.129 -0.3913  0.2941 -0.0765
 3180SOL     OW21175   3.620   1.807   7.020 -0.4865 -0.0819  0.1364
 3180SOL    HW121176   3.621   1.896   6.985  1.6634  0.6737  2.0402
 3180SOL    HW221177   3.573   1.817   7.103 -0.4893 -1.9463  0.3387
 3181SOL     OW21178   1.246   2.187   5.099  0.3385  0.1418  0.4514
 3181SOL    HW121179   1.242   2.115   5.036  2.2874  2.8958 -2.8052
 3181SOL    HW221180   1.331   2.174   5.142  0.4130 -3.1598 -0.6909
 3182SOL     OW21181   1.160   3.389   4.654 -0.1526 -0.1123 -0.2543
 3182SOL    HW121182   1.192   3.314   4.604  0.3933  0.5419 -0.8891
 3182SOL    HW221183   1.221   3.378   4.726  0.8087  1.3754 -0.8434
 3183SOL     OW21184   0.897   0.781   4.669  0.8691  0.5812  0.4865
 3183SOL    HW121185   0.812   0.802   4.707  0.8044 -0.8186  1.1173
 3183SOL    HW221186   0.861   0.750   4.586 -0.5405  0.7288  1.0462
 3184SOL     OW21187   4.055   4.333   2.005  0.2329  0.5828  0.7496
 3184SOL    HW121188   4.040   4.266   1.938  0.4761  0.6751  0.6024
 3184SOL    HW221189   3.996   4.402   1.976 -0.4941 -0.4736 -0.2908
 3185SOL     OW21190   0.455   3.092  10.462 -0.7216  0.3532  0.6323
 3185SOL    HW121191   0.543   3.070  10.434 -1.7740 -1.2409 -1.4096
 3185SOL    HW221192   0.464   3.173  10.512  2.8575  1.8318 -2.5174
 3186SOL     OW21193   0.894   0.727  12.434  0.0730 -0.2248 -0.3612
 3186SOL    HW121194   0.906   0.634  12.453  1.8373  0.3160  1.2062
 3186SOL    HW221195   0.985   0.746  12.411 -0.3272 -0.1161 -1.8674
 3187SOL     OW21196   1.325   4.368   2.039  0.2604  0.2540  0.7053
 3187SOL    HW121197   1.407   4.368   1.990 -0.1311 -0.2768  0.0565
 3187SOL    HW221198   1.358   4.373   2.129 -1.6559  1.5569  1.3440
 3188SOL     OW21199   1.478   3.974  12.653  0.2499  0.1475  0.5623
 3188SOL    HW121200   1.521   4.047  12.608  0.7418 -1.5713 -1.7200
 3188SOL    HW221201   1.555   3.922  12.677 -0.5572 -1.2273  0.1289
 3189SOL     OW21202   1.614   0.501   5.124 -0.2455  0.3066  0.1751
 3189SOL    HW121203   1.609   0.569   5.057  2.1453  2.6854  2.4022
 3189SOL    HW221204   1.606   0.436   5.054 -0.5690  0.3330  0.1893
 3190SOL     OW21205   0.514   3.914   9.642 -0.6261  0.4155  0.0240
 3190SOL    HW121206   0.451   3.896   9.712 -0.2207  0.4668  0.4086
 3190SOL    HW221207   0.461   3.950   9.571 -2.6199 -1.3371  0.6241
 3191SOL     OW21208   3.958   1.271   6.755 -0.3244  0.3304 -0.5692
 3191SOL    HW121209   3.954   1.180   6.784  1.8578  0.2238 -0.5314
 3191SOL    HW221210   3.977   1.324   6.833 -0.7015 -0.1774 -0.1345
 3192SOL     OW21211   0.956   1.914  14.948  0.3428 -0.0877  0.3598
 3192SOL    HW121212   0.893   1.890  14.880 -0.4458  0.1954  0.9885
 3192SOL    HW221213   1.018   1.842  14.941  0.1206 -0.2497  0.0354
 3193SOL     OW21214   3.140   3.538  15.771  0.2797 -0.1882  0.3166
 3193SOL    HW121215   3.140   3.580  15.857  2.0302  0.2866  0.0683
 3193SOL    HW221216   3.088   3.459  15.787  1.1635 -0.7240  0.5449
 3194SOL     OW21217   3.415   3.772   3.630 -0.0074  0.3978 -0.0197
 3194SOL    HW121218   3.451   3.827   3.560 -2.9500 -0.7464 -2.3788
 3194SOL    HW221219   3.320   3.779   3.626  0.1082  1.2729 -1.1982
 3195SOL     OW21220   4.448   0.755   4.418 -0.0719  0.4822 -0.7370
 3195SOL    HW121221   4.463   0.786   4.329  3.2635  2.0435  0.3802
 3195SOL    HW221222   4.462   0.660   4.413  0.9517  0.4884  2.0248
 3196SOL     OW21223   3.269   1.719   2.884 -0.4504  0.7252 -0.2206
 3196SOL    HW121224   3.219   1.653   2.931  0.1559 -0.9070 -1.8747
 3196SOL    HW221225   3.195   1.754   2.834 -2.0267 -1.4075  0.6410
 3197SOL     OW21226   1.880   1.312   9.693  0.0924 -0.0047  0.3882
 3197SOL    HW121227   1.889   1.267   9.777 -2.4494  1.0808  1.2725
 3197SOL    HW221228   1.832   1.242   9.649 -0.5896  0.6976  0.0082
 3198SOL     OW21229   3.245   0.989   2.121  0.3239  0.4554 -0.1451
 3198SOL    HW121230   3.155   1.015   2.099 -0.3967 -1.2303  0.8290
 3198SOL    HW221231   3.300   0.992   2.043  1.2800 -0.7645  0.4897
 3199SOL     OW21232   0.514   2.882   6.015 -0.0010  0.2832  0.0865
 3199SOL    HW121233   0.569   2.930   5.953  0.7549  1.0553  1.3545
 3199SOL    HW221234   0.451   2.945   6.048 -0.6316 -0.0662 -0.4599
 3200SOL     OW21235   0.271   4.003   8.558 -0.4226  0.5364 -0.0320
 3200SOL    HW121236   0.248   4.066   8.627 -1.9609 -1.5048  1.3344
 3200SOL    HW221237   0.213   4.028   8.486 -1.3480 -0.2321  0.4500
 3201SOL     OW21238   2.952   4.509   6.185 -0.0652 -0.6216  0.0982
 3201SOL    HW121239   2.985   4.598   6.199  0.3509 -0.4910 -1.6485
 3201SOL    HW221240   3.024   4.458   6.147  1.1660  1.2781 -0.1663
 3202SOL     OW21241   0.093   4.623   2.792  0.4435  0.6300 -0.1931
 3202SOL    HW121242   0.077   4.530   2.810  0.2884  0.6661 -0.1500
 3202SOL    HW221243   0.009   4.668   2.789 -0.6282 -1.3508  0.4177
 3203SOL     OW21244   1.075   3.365   4.058 -0.3181 -0.1875 -0.3959
 3203SOL    HW121245   1.045   3.290   4.007  0.7487  0.6324 -2.2279
 3203SOL    HW221246   1.080   3.330   4.147 -0.6466 -1.7065 -0.9771
 3204SOL     OW21247   2.744   3.474  13.755 -0.1279  0.0191  0.3275
 3204SOL    HW121248   2.786   3.413  13.815  1.0602 -0.1910 -0.7119
 3204SOL    HW221249   2.649   3.467  13.767  0.3732 -3.3859  2.0787
 3205SOL     OW21250   0.913   1.539   7.967  0.1012  0.0369  0.2456
 3205SOL    HW121251   0.821   1.558   7.983  0.0203  0.6044 -0.8721
 3205SOL    HW221252   0.924   1.453   8.007  1.6932 -0.7266 -1.8886
 3206SOL     OW21253   0.991   3.338   4.317  0.1627  0.1121  0.1987
 3206SOL    HW121254   1.067   3.339   4.375  1.2409 -0.5616 -1.1836
 3206SOL    HW221255   0.941   3.272   4.363  0.7970  0.7910  1.8709
 3207SOL     OW21256   3.340   2.632  11.921  0.7092 -0.0470 -0.4108
 3207SOL    HW121257   3.412   2.569  11.910  0.4966 -0.6863  1.8954
 3207SOL    HW221258   3.334   2.628  12.016  1.4703 -2.5910 -0.4654
 3208SOL     OW21259   0.904   1.723   4.756  0.1349  0.6622  0.3598
 3208SOL    HW121260   0.959   1.661   4.803  0.7211  0.2897 -0.8099
 3208SOL    HW221261   0.840   1.732   4.826  0.2985  0.0212  0.5850
 3209SOL     OW21262   2.435   4.351   5.157 -0.0174  0.2860  0.4525
 3209SOL    HW121263   2.384   4.272   5.174 -1.4804  1.8912  3.5414
 3209SOL    HW221264   2.521   4.309   5.149 -0.4263 -0.4581  0.0994
 3210SOL     OW21265   4.653   1.904  11.374  0.3789 -0.1622 -0.1145
 3210SOL    HW121266   4.659   1.946  11.289  1.5362 -0.3611 -0.1377
 3210SOL    HW221267   4.730   1.932  11.424  1.2276 -0.3567 -1.3208
 3211SOL     OW21268   0.532   0.198   5.663 -0.1988  0.6393 -0.2030
 3211SOL    HW121269   0.535   0.132   5.732 -0.5535  2.1270  1.2197
 3211SOL    HW221270   0.584   0.152   5.597  0.9266  0.9090  0.4863
 3212SOL     OW21271   3.659   2.498   3.817  0.3189 -0.1910 -0.0231
 3212SOL    HW121272   3.627   2.423   3.767  3.4682  0.6341 -3.2635
 3212SOL    HW221273   3.703   2.448   3.886  1.3622 -1.8760 -1.8980
 3213SOL     OW21274   3.444   4.112  15.550  0.5388  0.1149 -0.0867
 3213SOL    HW121275   3.506   4.183  15.530 -1.4411  2.0687  0.6621
 3213SOL    HW221276   3.503   4.049  15.590 -0.5863 -1.1359 -0.4131
 3214SOL     OW21277   4.116   0.122   7.343  0.4665  0.0169 -0.0263
 3214SOL    HW121278   4.199   0.075   7.336  0.7378  0.5229 -0.1692
 3214SOL    HW221279   4.128   0.153   7.433  1.6150  0.9011 -0.4767
 3215SOL     OW21280   2.439   4.661   8.765  0.4487  0.1396  0.0351
 3215SOL    HW121281   2.375   4.719   8.724 -0.8628  0.2087  2.1999
 3215SOL    HW221282   2.400   4.671   8.852  1.5553  1.9613  0.3075
 3216SOL     OW21283   1.114   1.236   4.331  0.0691  0.2189 -0.4349
 3216SOL    HW121284   1.188   1.200   4.281 -1.2884 -0.7321 -1.7679
 3216SOL    HW221285   1.119   1.179   4.408  4.5533  0.7895 -0.3110
 3217SOL     OW21286   4.166   2.677   2.326  0.7013  0.0010 -0.2871
 3217SOL    HW121287   4.189   2.591   2.291  2.4763 -0.0190  0.9333
 3217SOL    HW221288   4.071   2.679   2.319  0.7418  0.3027 -0.7390
 3218SOL     OW21289   4.042   1.933   0.335 -0.8063 -0.4697  0.8939
 3218SOL    HW121290   4.134   1.910   0.335 -0.6905  0.0488 -1.9339
 3218SOL    HW221291   4.052   2.028   0.349 -1.4621 -0.2036 -0.4678
 3219SOL     OW21292   0.857   1.156   7.104  0.1152  0.5270 -0.3314
 3219SOL    HW121293   0.816   1.119   7.025 -0.4367  2.2347 -0.8561
 3219SOL    HW221294   0.813   1.241   7.097 -1.0753 -0.0339  0.3881
 3220SOL     OW21295   0.332   0.206   7.831 -0.1512  0.9504 -0.0969
 3220SOL    HW121296   0.295   0.194   7.918  1.0932 -0.2660  0.2607
 3220SOL    HW221297   0.323   0.117   7.797  1.2532  1.1295 -0.9453
 3221SOL     OW21298   1.200   0.051  14.806 -0.0731 -0.4065 -0.2307
 3221SOL    HW121299   1.286   0.012  14.790  1.2400  2.2196  0.4183
 3221SOL    HW221300   1.161   4.708  14.840  2.2352 -0.7093  1.6260
 3222SOL     OW21301   2.125   0.402   1.195  0.2253 -0.4393  0.0639
 3222SOL    HW121302   2.044   0.352   1.205  0.8297 -1.3790  0.3159
 3222SOL    HW221303   2.164   0.373   1.112  1.5876 -2.3542  1.3740
 3223SOL     OW21304   4.142   3.386   6.213  0.6573 -0.5011  0.0531
 3223SOL    HW121305   4.217   3.439   6.185  0.3691 -0.9725 -1.5866
 3223SOL    HW221306   4.078   3.454   6.194 -0.2594 -0.7830  2.0813
 3224SOL     OW21307   4.285   3.320   6.658  0.3032  0.4933  0.5143
 3224SOL    HW121308   4.349   3.390   6.646 -1.0850  1.5298 -0.8565
 3224SOL    HW221309   4.248   3.324   6.746 -1.1515  1.1670 -0.1166
 3225SOL     OW21310   2.959   1.228   9.744 -0.1903  0.4766 -0.6638
 3225SOL    HW121311   2.895   1.162   9.771  0.2678 -0.7438 -2.5956
 3225SOL    HW221312   3.004   1.180   9.675 -1.7640 -1.7907 -0.1044
 3226SOL     OW21313   2.498   3.227   2.942 -0.8076 -0.0710 -0.0292
 3226SOL    HW121314   2.452   3.146   2.920  2.3656 -1.6601 -0.8117
 3226SOL    HW221315   2.544   3.238   2.859  1.2142  0.7753  1.2296
 3227SOL     OW21316   0.621   0.646   7.389 -0.0409  0.1236 -0.4406
 3227SOL    HW121317   0.534   0.611   7.371 -1.3555  2.5542  1.2307
 3227SOL    HW221318   0.668   0.567   7.416 -3.0139 -1.8462 -0.9992
 3228SOL     OW21319   1.608   3.824   7.042 -0.0957  0.7140  0.0326
 3228SOL    HW121320   1.649   3.895   6.992 -0.3746  0.6244 -0.3181
 3228SOL    HW221321   1.687   3.774   7.062 -0.4665  0.5499  1.0647
 3229SOL     OW21322   1.775   2.756  10.779 -0.3391 -1.0044  0.7986
 3229SOL    HW121323   1.706   2.706  10.822 -1.4281 -0.7296 -0.6495
 3229SOL    HW221324   1.738   2.842  10.800 -0.0592 -0.5396 -0.6448
 3230SOL     OW21325   3.838   3.232   7.613 -0.1449 -0.6654 -0.0766
 3230SOL    HW121326   3.915   3.187   7.648 -1.1540 -0.0665  2.9336
 3230SOL    HW221327   3.769   3.168   7.596 -1.4009  0.9541 -0.9843
 3231SOL     OW21328   0.001   4.325   5.843  0.3646  0.2839  0.0157
 3231SOL    HW121329   0.030   4.383   5.772 -0.7400  0.9651  0.1275
 3231SOL    HW221330   0.077   4.266   5.849  1.3077  1.6679  1.7701
 3232SOL     OW21331   1.701   4.665   1.929 -0.3962  0.4235  0.5795
 3232SOL    HW121332   1.791   4.645   1.956 -0.1815 -0.1885 -0.5977
 3232SOL    HW221333   1.714   0.021   1.917  0.7690  0.2325  0.3194
 3233SOL     OW21334   3.313   3.718   2.958  0.1499 -0.1419 -0.6530
 3233SOL    HW121335   3.334   3.718   3.052 -0.8564 -2.2452 -0.4400
 3233SOL    HW221336   3.295   3.627   2.936  1.2102 -0.9660  1.8913
 3234SOL     OW21337   2.814   2.665   1.274  0.1681  0.3977 -0.4437
 3234SOL    HW121338   2.749   2.612   1.229  0.2318 -0.9825  1.0758
 3234SOL    HW221339   2.848   2.606   1.341  3.0463  0.2150 -2.0486
 3235SOL     OW21340   1.958   3.592   2.049 -0.0474  0.3338 -0.0516
 3235SOL    HW121341   1.878   3.593   2.102  0.3223  1.2211  0.4874
 3235SOL    HW221342   1.923   3.556   1.968  1.8415 -1.7512  0.0667
 3236SOL     OW21343   2.080   2.046   2.037  0.2217  0.0786 -0.4084
 3236SOL    HW121344   2.012   2.017   2.098 -2.1850  0.0310 -3.0763
 3236SOL    HW221345   2.149   1.981   2.024 -0.2223  0.0962 -2.9715
 3237SOL     OW21346   4.323   3.497   9.679  0.0332  0.0083  0.1643
 3237SOL    HW121347   4.272   3.497   9.760 -0.9312  1.5057 -0.4339
 3237SOL    HW221348   4.255   3.529   9.620  2.2526  1.4775 -1.6040
 3238SOL     OW21349   1.049   3.052   4.069 -0.2164  0.1096  0.4444
 3238SOL    HW121350   1.068   2.997   3.993  0.8959  2.2416 -0.8121
 3238SOL    HW221351   1.113   3.029   4.136 -1.1859 -1.7978  0.7345
 3239SOL     OW21352   1.260   2.580   0.855  0.2259 -0.1481 -0.0814
 3239SOL    HW121353   1.288   2.671   0.863 -2.8911  0.9255 -1.5089
 3239SOL    HW221354   1.342   2.537   0.879  0.5787 -0.1344 -1.2429
 3240SOL     OW21355   3.221   0.187   8.921  0.1251 -0.2141  0.7382
 3240SOL    HW121356   3.158   0.246   8.880  1.3833  1.7188  1.6140
 3240SOL    HW221357   3.158   0.121   8.948 -0.2459 -0.2327 -0.1606
 3241SOL     OW21358   4.498   0.150  10.706  0.0594  0.5217  0.3919
 3241SOL    HW121359   4.541   0.103  10.778  1.3804  0.6816 -0.3125
 3241SOL    HW221360   4.513   0.102  10.625  1.2670  1.1172  0.2797
 3242SOL     OW21361   3.425   1.930   1.680 -0.3305  0.2861 -0.0512
 3242SOL    HW121362   3.474   2.011   1.669  1.5192 -1.0299 -1.4011
 3242SOL    HW221363   3.493   1.863   1.689  0.2081  0.7494 -0.7067
 3243SOL     OW21364   4.259   2.601  11.222  0.1365  0.1203 -0.0309
 3243SOL    HW121365   4.188   2.538  11.220 -0.0223  0.3031 -0.2645
 3243SOL    HW221366   4.333   2.553  11.183  0.2704 -0.7986  1.3754
 3244SOL     OW21367   3.136   1.199  14.601  0.0690  0.0509  0.4666
 3244SOL    HW121368   3.199   1.168  14.666 -1.5528 -4.8792 -0.2915
 3244SOL    HW221369   3.189   1.263  14.553  0.9070 -0.2794  0.9496
 3245SOL     OW21370   0.227   2.272  15.864 -0.1586 -0.0414 -0.2015
 3245SOL    HW121371   0.185   2.299  15.782  0.7389 -0.4359 -0.7946
 3245SOL    HW221372   0.233   2.350  15.919  1.3990 -0.4649  0.2559
 3246SOL     OW21373   1.055   1.480  14.006 -0.2914 -0.3478  0.6773
 3246SOL    HW121374   1.104   1.543  13.952 -0.3964 -1.8021 -1.1200
 3246SOL    HW221375   1.073   1.514  14.093  1.5887 -1.3639  0.6929
 3247SOL     OW21376   1.922   2.520   9.467 -0.0004 -0.1795  0.4076
 3247SOL    HW121377   1.852   2.455   9.453 -0.8567  1.1794 -1.6486
 3247SOL    HW221378   2.000   2.466   9.460 -0.5681 -0.9753  0.1916
 3248SOL     OW21379   3.605   3.615  12.071  0.3142 -0.8561 -0.1579
 3248SOL    HW121380   3.523   3.595  12.116  0.6500 -3.3722 -0.6190
 3248SOL    HW221381   3.668   3.597  12.141  0.2975 -0.8025 -0.1295
 3249SOL     OW21382   0.183   0.436   5.813  0.2958  0.9295 -0.1047
 3249SOL    HW121383   0.182   0.520   5.767 -0.4117  0.4350 -0.9980
 3249SOL    HW221384   0.090   0.413   5.808 -0.1570  2.2755  2.3008
 3250SOL     OW21385   1.701   3.281   8.936 -0.5822  0.1090 -0.3818
 3250SOL    HW121386   1.787   3.281   8.895  0.8358  1.1594  2.6061
 3250SOL    HW221387   1.654   3.218   8.882  1.2247 -2.8580  1.5435
 3251SOL     OW21388   4.273   2.542   8.225  0.7530 -0.6916  0.4255
 3251SOL    HW121389   4.218   2.619   8.211  1.7263 -0.2293 -0.8346
 3251SOL    HW221390   4.217   2.506   8.294 -0.9962 -0.6719 -0.9820
 3252SOL     OW21391   3.845   1.457  11.128 -0.1198  0.4624 -0.3886
 3252SOL    HW121392   3.826   1.478  11.220  0.4157  3.4307 -0.9661
 3252SOL    HW221393   3.855   1.547  11.097  0.7351  0.7360  0.6629
 3253SOL     OW21394   3.974   1.753   4.711 -0.0300  0.5529  0.0731
 3253SOL    HW121395   3.936   1.771   4.797  0.5075 -0.4103  0.5018
 3253SOL    HW221396   4.001   1.662   4.716 -0.3495  0.5101  1.1034
 3254SOL     OW21397   0.930   1.364  17.284  0.6405 -0.3791  0.5001
 3254SOL    HW121398   0.993   1.422  17.241  2.2275 -2.0847  0.5249
 3254SOL    HW221399   0.861   1.360  17.218  1.9325  0.1648 -0.8915
 3255SOL     OW21400   2.291   3.523   9.891 -0.3906  0.0771  0.7996
 3255SOL    HW121401   2.353   3.453   9.873  1.8804  2.7781 -1.9229
 3255SOL    HW221402   2.207   3.477   9.880 -0.6756  0.9144 -0.6161
 3256SOL     OW21403   1.714   0.400  15.060  0.0219 -0.6136  0.0176
 3256SOL    HW121404   1.753   0.465  15.001 -1.4581 -2.0038 -2.4736
 3256SOL    HW221405   1.777   0.365  15.123 -0.8600 -3.4824 -0.6846
 3257SOL     OW21406   1.997   4.144  10.647  0.1186  0.1823 -0.2752
 3257SOL    HW121407   2.077   4.189  10.677  1.0178 -2.4339  1.2922
 3257SOL    HW221408   1.944   4.147  10.727 -1.3080 -0.6079 -1.1915
 3258SOL     OW21409   2.385   0.459   7.588  0.6100  0.6372  0.0944
 3258SOL    HW121410   2.334   0.424   7.515 -0.8381  0.4199  1.2081
 3258SOL    HW221411   2.358   0.550   7.583 -0.3242  0.2431 -2.0355
 3259SOL     OW21412   3.304   3.426  16.739  0.2936  0.0658  0.2051
 3259SOL    HW121413   3.368   3.492  16.768  1.0392  0.0561 -1.4135
 3259SOL    HW221414   3.350   3.345  16.762 -3.1095 -1.4920  1.4778
 3260SOL     OW21415   1.575   0.610   3.126 -0.6730  0.0426 -0.0114
 3260SOL    HW121416   1.524   0.530   3.117  0.5330 -0.7967  0.5177
 3260SOL    HW221417   1.501   0.669   3.114  0.0535  1.3823  2.0667
 3261SOL     OW21418   3.488   2.943   4.579 -0.0550 -0.3047 -0.2457
 3261SOL    HW121419   3.577   2.912   4.563 -0.3064 -1.2051  0.1202
 3261SOL    HW221420   3.432   2.868   4.559 -1.5126  0.2292  1.7903
 3262SOL     OW21421   1.410   4.586  16.507  0.0614  0.2709  0.3560
 3262SOL    HW121422   1.399   4.587  16.412 -0.2353 -1.9007  0.3855
 3262SOL    HW221423   1.491   4.536  16.512  1.0511  1.7630 -0.5353
 3263SOL     OW21424   0.178   2.740   4.660 -0.6884 -0.2385 -0.0019
 3263SOL    HW121425   0.197   2.783   4.576 -1.8657 -1.2410 -0.7871
 3263SOL    HW221426   0.119   2.670   4.631 -1.8807 -0.1155  2.1756
 3264SOL     OW21427   1.426   2.133  17.334 -0.4151 -0.4979 -0.0849
 3264SOL    HW121428   1.372   2.131  17.413  0.6115 -1.4233  0.5889
 3264SOL    HW221429   1.481   2.210  17.349  1.0305 -1.3329 -1.0818
 3265SOL     OW21430   1.952   4.237   4.288 -0.2978  0.4979 -0.1381
 3265SOL    HW121431   1.963   4.317   4.237 -0.6704  0.7501  0.1701
 3265SOL    HW221432   1.869   4.215   4.245  0.6448  0.7742 -2.0726
 3266SOL     OW21433   3.810   3.398   5.675 -0.3987 -0.2138  0.2055
 3266SOL    HW121434   3.817   3.485   5.635 -0.3031 -1.2770 -2.0752
 3266SOL    HW221435   3.895   3.404   5.719 -0.3106  0.8581 -0.1029
 3267SOL     OW21436   2.445   2.485   8.713 -0.5483 -0.2558 -0.7168
 3267SOL    HW121437   2.364   2.525   8.744 -1.2555 -1.7785 -0.5793
 3267SOL    HW221438   2.419   2.394   8.728 -0.0239 -0.2991 -0.1049
 3268SOL     OW21439   1.613   1.514  13.634 -0.1503  0.5399  0.2277
 3268SOL    HW121440   1.519   1.514  13.618 -0.1931  0.7179  0.4765
 3268SOL    HW221441   1.653   1.467  13.560 -1.4008  0.2663 -0.2687
 3269SOL     OW21442   4.492   0.746   5.088  0.0584 -0.5715  0.2386
 3269SOL    HW121443   4.464   0.732   4.998  0.2642  0.2138  0.0500
 3269SOL    HW221444   4.586   0.733   5.105  0.4204  0.3860 -1.0572
 3270SOL     OW21445   3.359   1.017  12.541 -0.0617 -0.0070 -0.4332
 3270SOL    HW121446   3.429   0.953  12.536 -0.4602 -0.5450  0.9411
 3270SOL    HW221447   3.303   0.969  12.603  0.8706 -0.2837  0.1977
 3271SOL     OW21448   2.327   0.688   6.705  0.3777  0.5041  0.2653
 3271SOL    HW121449   2.245   0.722   6.668 -0.5630 -1.4935  0.4948
 3271SOL    HW221450   2.359   0.765   6.751  0.0571  0.7833  0.0213
 3272SOL     OW21451   0.091   3.379  16.161  0.2304  0.2805 -0.0009
 3272SOL    HW121452   0.106   3.474  16.157 -1.4441  0.6282  2.0094
 3272SOL    HW221453   0.176   3.343  16.139  0.8498  0.2203  2.5555
 3273SOL     OW21454   2.618   0.052   5.413 -0.3268  0.3941  0.0652
 3273SOL    HW121455   2.614   4.712   5.356 -1.5765  0.1738  0.4382
 3273SOL    HW221456   2.535   0.035   5.459  0.8407  0.1151  2.0597
 3274SOL     OW21457   4.706   4.708  16.614 -0.1612  0.4583  0.4490
 3274SOL    HW121458   0.052   0.007  16.587 -0.1594  0.4187  0.4005
 3274SOL    HW221459   4.683   4.656  16.537 -0.0782 -2.0181  2.1207
 3275SOL     OW21460   3.218   4.009   3.454 -0.2008 -0.2147 -0.2508
 3275SOL    HW121461   3.146   4.072   3.444 -0.3010 -0.3417 -0.3333
 3275SOL    HW221462   3.270   4.017   3.374  1.1844  2.0478  0.8828
 3276SOL     OW21463   4.145   1.742   8.512  0.2413  0.3370 -0.0968
 3276SOL    HW121464   4.177   1.732   8.601  1.5842  2.5799 -0.3305
 3276SOL    HW221465   4.097   1.659   8.507 -0.5178  0.8218 -0.7289
 3277SOL     OW21466   1.924   0.094   4.578 -0.6013  0.3707 -0.2298
 3277SOL    HW121467   2.014   0.077   4.605 -0.2480 -0.1797 -1.8173
 3277SOL    HW221468   1.924   0.065   4.487 -0.6476  0.0442 -0.1227
 3278SOL     OW21469   0.682   0.881   3.233  0.2620  0.4270 -0.2938
 3278SOL    HW121470   0.640   0.819   3.293  0.7113  0.5296  0.1309
 3278SOL    HW221471   0.756   0.905   3.288 -0.1579 -1.0066  0.8945
 3279SOL     OW21472   0.188   2.756   0.592 -0.0738 -0.0065  0.1577
 3279SOL    HW121473   0.252   2.810   0.546 -0.3703  0.8577  0.7756
 3279SOL    HW221474   0.138   2.823   0.639 -1.1160 -0.2075 -0.6658
 3280SOL     OW21475   3.821   4.440   0.310  0.1480 -0.0530  0.0540
 3280SOL    HW121476   3.914   4.460   0.321 -0.3397  0.9816  2.2188
 3280SOL    HW221477   3.779   4.501   0.370 -0.6099  0.4490 -0.9678
 3281SOL     OW21478   1.798   0.863   5.542  0.2616 -0.2718  0.3370
 3281SOL    HW121479   1.731   0.800   5.568  0.5326 -0.5248  0.4073
 3281SOL    HW221480   1.783   0.881   5.449 -1.8326  0.0520  0.7316
 3282SOL     OW21481   4.123   0.206   3.601 -0.5399 -0.2427  0.5541
 3282SOL    HW121482   4.091   0.118   3.622 -0.8090 -0.6241 -1.5137
 3282SOL    HW221483   4.059   0.234   3.536  1.1180 -1.3199 -1.5280
 3283SOL     OW21484   4.580   3.530  15.533  0.3160 -0.2279  0.3972
 3283SOL    HW121485   4.598   3.469  15.604 -2.3063 -0.6446  0.6940
 3283SOL    HW221486   4.637   3.497  15.465 -1.5004  0.9768 -1.7021
 3284SOL     OW21487   2.168   3.110   6.076 -0.5644  0.0766  0.1559
 3284SOL    HW121488   2.138   3.193   6.039 -0.8588  0.0775  0.4019
 3284SOL    HW221489   2.215   3.149   6.150  0.1426  1.6383 -1.1070
 3285SOL     OW21490   4.586   4.519   9.283  0.0026 -0.9809 -0.2801
 3285SOL    HW121491   4.558   4.599   9.326  3.4927 -0.1593  0.4847
 3285SOL    HW221492   4.674   4.539   9.249 -0.4330 -1.6235 -1.8160
 3286SOL     OW21493   2.514   3.686   7.059 -0.7571 -0.8336  0.0277
 3286SOL    HW121494   2.470   3.736   7.127  2.4549 -1.3541  2.4802
 3286SOL    HW221495   2.600   3.684   7.100 -1.1115  2.4371  0.9344
 3287SOL     OW21496   1.130   2.290   7.798 -0.0924 -0.7517 -0.2553
 3287SOL    HW121497   1.076   2.249   7.866 -1.8370  1.0252 -0.5649
 3287SOL    HW221498   1.171   2.211   7.763 -2.1524 -0.9619 -2.1969
 3288SOL     OW21499   2.659   3.806  17.245 -0.2327  0.7430 -0.5600
 3288SOL    HW121500   2.629   3.726  17.288  1.7361  0.1725 -0.2559
 3288SOL    HW221501   2.668   3.785  17.153  0.0342  0.3166 -0.4325
 3289SOL     OW21502   3.416   4.679   6.295 -0.3972 -0.1766  0.2606
 3289SOL    HW121503   3.443   0.031   6.278 -0.8450 -0.4784 -2.0344
 3289SOL    HW221504   3.484   4.627   6.253  0.1151  2.3511 -1.9707
 3290SOL     OW21505   2.902   3.519   4.450 -0.2664  0.0377 -0.3902
 3290SOL    HW121506   2.985   3.474   4.465  0.0969  1.3275  1.4223
 3290SOL    HW221507   2.926   3.563   4.369 -0.3394 -0.6452 -0.7828
 3291SOL     OW21508   1.162   0.238   8.845 -0.3787  0.3108  0.7454
 3291SOL    HW121509   1.171   0.186   8.765 -0.6717  3.0014 -1.0625
 3291SOL    HW221510   1.248   0.280   8.851  0.3375 -1.1356  0.5016
 3292SOL     OW21511   2.005   2.020   8.853  0.2105  0.1199 -0.7215
 3292SOL    HW121512   1.954   2.040   8.775  1.3389 -1.0868 -1.7532
 3292SOL    HW221513   1.961   2.073   8.920  2.1252 -0.1975  0.8022
 3293SOL     OW21514   2.248   0.073  12.206 -0.3909 -0.1397  0.2161
 3293SOL    HW121515   2.311   0.035  12.268  1.2502  0.5000 -1.0425
 3293SOL    HW221516   2.183   0.003  12.199 -0.1428 -0.3440 -0.0456
 3294SOL     OW21517   0.425   1.691   2.486 -0.0704 -0.4820  0.0088
 3294SOL    HW121518   0.438   1.689   2.581 -1.8742  2.0080  0.2949
 3294SOL    HW221519   0.401   1.781   2.467  0.7627  0.0195  1.3159
 3295SOL     OW21520   1.669   1.534   1.370  0.6057 -0.1649 -0.3343
 3295SOL    HW121521   1.655   1.624   1.400  1.0373 -0.0840 -0.3639
 3295SOL    HW221522   1.761   1.519   1.392  0.8143 -0.5349 -1.4431
 3296SOL     OW21523   3.871   0.051   7.051  0.0023  0.4996 -0.6713
 3296SOL    HW121524   3.801   0.086   6.997 -1.7097 -0.6563  0.7948
 3296SOL    HW221525   3.922   0.131   7.062  0.2497  0.2897 -0.2723
 3297SOL     OW21526   2.103   4.589  12.150  0.0642  0.1619  0.3505
 3297SOL    HW121527   2.041   4.547  12.089 -0.3142  0.1487  0.7412
 3297SOL    HW221528   2.188   4.588  12.107  0.0929  0.6247  0.3968
 3298SOL     OW21529   3.085   4.484  14.527 -0.8403 -0.3294 -0.2198
 3298SOL    HW121530   3.130   4.481  14.442 -0.1427 -0.1232  0.1439
 3298SOL    HW221531   3.108   4.574  14.550  0.8967 -0.9505  0.4379
 3299SOL     OW21532   2.600   1.388  12.055  0.4041  0.7138  0.2098
 3299SOL    HW121533   2.579   1.456  12.118  0.5683  0.7096  0.2698
 3299SOL    HW221534   2.585   1.315  12.115  2.8170 -1.1129 -1.4065
 3300SOL     OW21535   3.399   4.196   6.123  0.0162 -1.1852 -0.3523
 3300SOL    HW121536   3.482   4.245   6.127 -1.4119  1.4085 -2.9035
 3300SOL    HW221537   3.421   4.106   6.147 -0.3547 -0.2975  3.2462
 3301SOL     OW21538   2.395   3.100   7.760 -0.0780 -0.1222 -0.7088
 3301SOL    HW121539   2.317   3.062   7.720  0.2788  0.2597 -1.7658
 3301SOL    HW221540   2.459   3.086   7.690 -1.1005  0.4385 -1.7428
 3302SOL     OW21541   3.154   1.837   9.241  0.2722  0.6132 -0.0187
 3302SOL    HW121542   3.086   1.882   9.190  0.0264 -0.9967 -1.1147
 3302SOL    HW221543   3.112   1.760   9.279  0.7704 -0.0521 -0.8094
 3303SOL     OW21544   4.614   1.892   2.911  0.4935  0.4376  1.0158
 3303SOL    HW121545   4.666   1.874   2.833  1.3756 -4.6587  2.7591
 3303SOL    HW221546   4.574   1.807   2.928  1.7991 -0.1184  1.3074
 3304SOL     OW21547   3.116   0.908  14.456  0.0041 -0.6486  0.1101
 3304SOL    HW121548   3.207   0.910  14.487  0.1187  1.0509 -0.3321
 3304SOL    HW221549   3.121   0.895  14.362 -0.4501  2.7185 -0.3971
 3305SOL     OW21550   3.979   1.117   5.018  0.2239 -0.1000  0.2548
 3305SOL    HW121551   4.064   1.078   5.040  0.4234  2.1816  3.6147
 3305SOL    HW221552   3.912   1.072   5.069  1.4104 -1.0213  1.0117
 3306SOL     OW21553   4.177   2.290   5.862  0.3636  0.3323 -0.0373
 3306SOL    HW121554   4.123   2.221   5.901  0.2957  2.0528  2.9583
 3306SOL    HW221555   4.149   2.362   5.919  0.6083 -0.0191  0.5256
 3307SOL     OW21556   1.444   0.375  15.020  0.1042 -0.3042 -0.4374
 3307SOL    HW121557   1.493   0.323  14.956  0.5168 -0.9533  0.4148
 3307SOL    HW221558   1.514   0.413  15.073 -0.9140  2.2488 -0.9389
 3308SOL     OW21559   1.345   2.944  13.257 -0.5211 -0.1764  0.0115
 3308SOL    HW121560   1.358   2.875  13.192  0.6583  0.1076 -0.0667
 3308SOL    HW221561   1.432   2.954  13.296 -0.4281 -2.2696  0.3341
 3309SOL     OW21562   3.095   1.558   9.075 -0.8386  0.2442 -0.6743
 3309SOL    HW121563   3.187   1.582   9.081 -0.9757  0.4596  0.6627
 3309SOL    HW221564   3.065   1.595   9.158  1.1807  1.5374 -0.5291
 3310SOL     OW21565   0.203   2.604  10.556  0.2026  0.0175 -0.0073
 3310SOL    HW121566   0.252   2.534  10.513 -0.3879 -1.7348  2.1626
 3310SOL    HW221567   0.269   2.626  10.622 -0.3819  0.2726  0.4893
 3311SOL     OW21568   0.422   0.130   8.586  0.1560  0.0798  0.0065
 3311SOL    HW121569   0.476   0.149   8.509 -1.7586 -0.0610 -1.3624
 3311SOL    HW221570   0.415   0.035   8.592 -1.5533  0.1944 -0.1947
 3312SOL     OW21571   3.867   0.717  14.719 -0.4236  0.1451 -0.0529
 3312SOL    HW121572   3.835   0.798  14.679  2.2282  1.3676  0.3116
 3312SOL    HW221573   3.806   0.667  14.666 -0.1639 -1.3392  1.0399
 3313SOL     OW21574   0.713   0.647   4.516 -0.6405  0.1847  0.0523
 3313SOL    HW121575   0.752   0.663   4.430  0.7819  0.3784  0.7376
 3313SOL    HW221576   0.631   0.597   4.507  0.3493 -1.8853  2.7780
 3314SOL     OW21577   2.315   2.905   3.575  0.7378  0.1337 -0.2379
 3314SOL    HW121578   2.295   2.817   3.608  1.6431  0.1203  0.2633
 3314SOL    HW221579   2.300   2.961   3.651 -2.3177 -2.0801  0.7862
 3315SOL     OW21580   2.935   4.006   5.489  0.0375 -0.1063  0.3847
 3315SOL    HW121581   3.024   4.004   5.452 -0.3458  0.2540 -0.5565
 3315SOL    HW221582   2.890   4.068   5.432 -0.4292  0.5221  1.4471
 3316SOL     OW21583   2.604   2.249  12.440 -0.1110  0.4145 -0.3769
 3316SOL    HW121584   2.567   2.182  12.382 -1.2731  0.9735 -0.2783
 3316SOL    HW221585   2.671   2.281  12.380  0.4515  2.1367  1.1684
 3317SOL     OW21586   2.992   0.948   8.823  0.6161 -0.0094 -0.3797
 3317SOL    HW121587   3.008   1.016   8.758 -0.2138  0.4482 -0.1003
 3317SOL    HW221588   2.932   0.990   8.884  1.8297  0.6708  0.3511
 3318SOL     OW21589   3.093   2.079   0.241  0.3528 -0.2162  0.0990
 3318SOL    HW121590   3.141   2.098   0.322 -0.8718  2.1245  0.2713
 3318SOL    HW221591   3.012   2.045   0.279  0.3764 -0.2621  0.1091
 3319SOL     OW21592   1.725   4.012   3.655 -0.4337  0.0034  0.8754
 3319SOL    HW121593   1.752   4.026   3.746 -1.5670 -1.0699  1.3774
 3319SOL    HW221594   1.734   4.102   3.625 -1.1356 -0.0848  0.3904
 3320SOL     OW21595   3.088   3.568  16.489  0.0431  0.0998  0.0590
 3320SOL    HW121596   3.036   3.556  16.409 -2.0374 -2.3582  1.7555
 3320SOL    HW221597   3.016   3.544  16.548 -0.9814  2.0160 -0.4346
 3321SOL     OW21598   3.107   3.226   6.478  0.1589  0.0949 -0.4025
 3321SOL    HW121599   3.105   3.322   6.483 -2.5055  0.0037  0.5935
 3321SOL    HW221600   3.126   3.211   6.385  1.9853 -1.9798  0.3133
 3322SOL     OW21601   2.069   4.678   8.654 -0.0971 -0.1557  0.1391
 3322SOL    HW121602   2.106   4.590   8.646  0.5992  0.0400  1.1348
 3322SOL    HW221603   1.975   4.663   8.662 -0.1475  0.0071 -0.1578
 3323SOL     OW21604   0.292   1.153   5.974 -0.3305 -0.4457  0.1384
 3323SOL    HW121605   0.329   1.171   5.887 -1.6124  1.9257  0.0931
 3323SOL    HW221606   0.355   1.086   6.000  1.2424  0.8230 -0.3258
 3324SOL     OW21607   4.673   2.402   3.718  0.3879  0.3728  0.6447
 3324SOL    HW121608   4.620   2.367   3.789 -0.8871  1.5273  0.2451
 3324SOL    HW221609   0.024   2.399   3.754 -0.2716  0.9938  2.3308
 3325SOL     OW21610   1.633   1.474   1.956  0.2789 -0.0045 -0.1082
 3325SOL    HW121611   1.677   1.518   1.883 -0.0371 -0.3340 -0.5015
 3325SOL    HW221612   1.680   1.391   1.958 -1.3810 -1.0137 -1.8697
 3326SOL     OW21613   4.188   2.040   2.054  0.1303  0.0160  0.1056
 3326SOL    HW121614   4.246   2.067   2.126 -2.6826  1.8630  1.6641
 3326SOL    HW221615   4.240   2.081   1.985 -0.6161 -0.2625 -0.6071
 3327SOL     OW21616   0.391   3.063   3.311  0.0913  0.6056 -0.3927
 3327SOL    HW121617   0.349   3.108   3.384 -0.0844 -2.1836  1.2355
 3327SOL    HW221618   0.345   2.979   3.317  2.3913 -0.6303 -0.1712
 3328SOL     OW21619   0.202   4.027   0.860  0.0723  0.2551  0.0145
 3328SOL    HW121620   0.118   3.983   0.851 -0.2136  0.7915  0.0649
 3328SOL    HW221621   0.250   3.987   0.787  1.4903  1.6053  0.2019
 3329SOL     OW21622   1.223   2.064   4.412 -0.0336  0.0327 -0.2656
 3329SOL    HW121623   1.289   2.101   4.471 -2.5195  0.4524  2.2497
 3329SOL    HW221624   1.184   1.991   4.460  3.1471 -0.6002  1.3245
 3330SOL     OW21625   2.153   3.668   5.234  0.5393 -0.0550 -0.0287
 3330SOL    HW121626   2.216   3.703   5.171 -1.7325  2.5466 -0.8709
 3330SOL    HW221627   2.128   3.586   5.192  2.0412 -0.5305  0.0075
 3331SOL     OW21628   0.899   3.648   8.104  0.1290  0.2600 -0.0154
 3331SOL    HW121629   0.865   3.626   8.018  1.4132  3.6616 -1.4006
 3331SOL    HW221630   0.927   3.563   8.136 -1.0502 -0.5303 -1.0861
 3332SOL     OW21631   1.004   3.847   0.241 -1.1328 -0.3661  0.0501
 3332SOL    HW121632   1.006   3.864   0.336 -2.0990  1.7911 -0.3165
 3332SOL    HW221633   0.925   3.794   0.236 -1.4414  0.3221 -2.1479
 3333SOL     OW21634   3.694   3.303   2.050  0.5594 -0.1447 -0.1047
 3333SOL    HW121635   3.626   3.351   2.098  0.4825  0.9280 -1.2801
 3333SOL    HW221636   3.728   3.244   2.117 -0.9430 -2.0888 -1.0917
 3334SOL     OW21637   0.463   4.347   2.095 -1.0198 -0.2484  0.7842
 3334SOL    HW121638   0.468   4.367   2.189 -1.3782  0.3125  0.6807
 3334SOL    HW221639   0.494   4.429   2.057 -0.6902  0.0077  1.6054
 3335SOL     OW21640   4.058   2.367  16.156 -0.7358 -0.3722  0.5455
 3335SOL    HW121641   4.086   2.374  16.065  2.3055 -0.3718  1.4935
 3335SOL    HW221642   3.975   2.414  16.144 -1.7975 -2.1209  1.0373
 3336SOL     OW21643   3.805   0.405  14.388  0.2853  0.0864 -0.1887
 3336SOL    HW121644   3.819   0.311  14.387  0.4896  0.1285 -1.0887
 3336SOL    HW221645   3.755   0.419  14.308 -0.3917 -2.1842 -0.1414
 3337SOL     OW21646   3.956   0.475  15.222  0.4735  0.5204 -0.2503
 3337SOL    HW121647   4.035   0.426  15.201 -0.7558 -1.1996 -0.8417
 3337SOL    HW221648   3.993   0.519  15.298  0.7114  0.0766 -0.1146
 3338SOL     OW21649   3.086   0.406  10.081 -0.0337 -0.7934 -0.1668
 3338SOL    HW121650   3.152   0.475  10.093 -0.9880  0.0558  0.2581
 3338SOL    HW221651   3.055   0.432   9.994  0.8622  1.4029  0.1662
 3339SOL     OW21652   1.414   1.441   8.513  0.7750 -0.5850 -0.0098
 3339SOL    HW121653   1.367   1.463   8.593  1.4103  0.3173  0.1155
 3339SOL    HW221654   1.495   1.399   8.542  1.3308  0.6245  0.1841
 3340SOL     OW21655   3.320   3.866   4.207 -0.0699 -0.0106 -0.2463
 3340SOL    HW121656   3.340   3.959   4.201 -1.0749  0.1201 -1.4736
 3340SOL    HW221657   3.293   3.864   4.299  0.8574 -0.4776  0.0079
 3341SOL     OW21658   3.968   3.495   3.726 -0.8137  0.7667  0.1036
 3341SOL    HW121659   4.040   3.437   3.749  0.0019  2.0635  0.8544
 3341SOL    HW221660   3.928   3.441   3.658  0.0456  0.6888 -0.3355
 3342SOL     OW21661   4.518   4.071   2.792 -0.1254  0.3666  0.9703
 3342SOL    HW121662   4.577   4.120   2.735 -0.1325 -0.3173  0.3668
 3342SOL    HW221663   4.436   4.094   2.748 -0.0709  0.3407  0.8549
 3343SOL     OW21664   4.151   1.609  14.278 -0.4142 -0.1569 -0.5808
 3343SOL    HW121665   4.118   1.547  14.212 -1.4474 -1.2314  0.9595
 3343SOL    HW221666   4.098   1.578  14.351  2.1330  1.1469  1.7927
 3344SOL     OW21667   2.067   1.625   2.734 -0.1935 -0.5995 -0.1612
 3344SOL    HW121668   2.057   1.628   2.829  1.0008 -0.3243 -0.0455
 3344SOL    HW221669   2.048   1.533   2.717  0.9151 -0.7177 -0.7289
 3345SOL     OW21670   2.147   1.247   7.254 -0.0473  0.2549 -0.7061
 3345SOL    HW121671   2.122   1.215   7.340 -0.3058 -0.8616 -1.2011
 3345SOL    HW221672   2.083   1.310   7.221 -1.3097 -1.6855 -1.9943
 3346SOL     OW21673   1.506   4.151  12.914 -0.0194 -0.0814 -0.0580
 3346SOL    HW121674   1.481   4.188  12.829  0.5962 -1.2787 -0.7665
 3346SOL    HW221675   1.530   4.230  12.962  2.4127 -0.3742 -0.8289
 3347SOL     OW21676   3.009   2.105   7.475  0.4826  0.2167 -0.9207
 3347SOL    HW121677   3.015   2.161   7.552 -0.1864  0.8802 -1.3554
 3347SOL    HW221678   3.097   2.067   7.483  1.3857  2.3874 -0.3915
 3348SOL     OW21679   0.198   0.865  16.041  0.4477  0.0615 -0.3120
 3348SOL    HW121680   0.187   0.914  16.122  0.5217  0.7011 -0.6796
 3348SOL    HW221681   0.292   0.884  16.028  0.1768  1.3438 -0.4408
 3349SOL     OW21682   4.532   2.959   3.699 -0.0063  0.3491 -0.0382
 3349SOL    HW121683   4.517   2.917   3.784  1.8104  1.6565  0.9132
 3349SOL    HW221684   4.624   2.983   3.711  0.2750  0.3214 -2.2432
 3350SOL     OW21685   2.972   3.292   8.446 -0.0730  0.1648 -0.1069
 3350SOL    HW121686   2.929   3.224   8.394 -0.5069  0.3932 -0.0380
 3350SOL    HW221687   3.062   3.260   8.438 -0.1878  0.1340 -1.3170
 3351SOL     OW21688   4.124   3.822  15.958 -0.0492 -0.1578  0.6134
 3351SOL    HW121689   4.054   3.756  15.956  0.8678 -1.0964 -0.7174
 3351SOL    HW221690   4.095   3.899  15.910  0.7373 -0.5404 -0.4835
 3352SOL     OW21691   1.009   4.210   7.828 -0.9397  0.1519  0.4159
 3352SOL    HW121692   0.943   4.238   7.765 -0.6259  1.3740  0.6180
 3352SOL    HW221693   1.089   4.220   7.777  0.3307 -0.6148  2.2487
 3353SOL     OW21694   3.754   3.625   2.428  0.2863 -0.5489 -0.0985
 3353SOL    HW121695   3.792   3.689   2.490  0.4809 -1.8323  1.1111
 3353SOL    HW221696   3.811   3.640   2.353  2.5857 -1.3780  1.4913
 3354SOL     OW21697   3.361   2.169   4.815  0.4079 -0.3093  0.4819
 3354SOL    HW121698   3.352   2.082   4.777  1.9815  0.5135 -1.7805
 3354SOL    HW221699   3.269   2.184   4.836 -0.0437  0.4946 -1.9939
 3355SOL     OW21700   3.767   1.991   9.730 -0.1541 -0.6272  0.3154
 3355SOL    HW121701   3.809   1.935   9.666  0.1660 -1.1106  0.9471
 3355SOL    HW221702   3.754   1.920   9.792  1.7005 -1.9347 -0.7981
 3356SOL     OW21703   3.610   0.833  10.022 -0.0708 -0.2512 -0.1838
 3356SOL    HW121704   3.650   0.753   9.991 -0.9498  0.0840 -2.1407
 3356SOL    HW221705   3.535   0.841   9.963 -0.2029 -0.6033 -0.0599
 3357SOL     OW21706   2.792   1.965   7.539 -0.4647  0.3984  0.2272
 3357SOL    HW121707   2.809   1.939   7.630  2.7550  1.1248 -0.1882
 3357SOL    HW221708   2.873   2.010   7.518  1.1686 -1.2441  2.9582
 3358SOL     OW21709   3.620   1.965   8.806  0.9126 -0.5012 -0.3533
 3358SOL    HW121710   3.573   2.004   8.732  0.1119 -1.1588 -0.1940
 3358SOL    HW221711   3.544   1.922   8.844  0.5213  0.5314  0.0326
 3359SOL     OW21712   4.611   3.280   7.269  0.3423  0.4023 -0.3643
 3359SOL    HW121713   4.549   3.271   7.341  1.9181 -1.3929  0.7544
 3359SOL    HW221714   4.556   3.334   7.211 -0.2263 -2.0871 -2.1404
 3360SOL     OW21715   3.619   2.572  17.621  0.0243 -0.6917  0.1234
 3360SOL    HW121716   3.571   2.545  17.543  1.1546 -0.5143 -0.6341
 3360SOL    HW221717   3.703   2.531  17.600  0.1764 -0.6407  0.6377
 3361SOL     OW21718   1.267   0.361   4.145 -0.0885 -0.1772  0.3682
 3361SOL    HW121719   1.248   0.287   4.087 -2.0035 -0.1744  0.9923
 3361SOL    HW221720   1.185   0.409   4.132 -0.9509 -2.0218 -0.9962
 3362SOL     OW21721   4.649   1.162   6.510  0.1856 -0.6663 -0.1594
 3362SOL    HW121722   0.004   1.180   6.498  0.7712 -3.3843  0.3359
 3362SOL    HW221723   4.633   1.070   6.530 -1.2816 -0.2340  0.6820
 3363SOL     OW21724   0.316   0.770   3.830 -0.2212 -0.1015 -0.7326
 3363SOL    HW121725   0.339   0.719   3.907  0.3788 -0.4335 -1.1353
 3363SOL    HW221726   0.299   0.853   3.874  1.4481  0.0152 -0.3141
 3364SOL     OW21727   3.461   0.887   2.825 -0.1132 -0.0510 -0.2880
 3364SOL    HW121728   3.384   0.833   2.842  1.3390 -1.4027  2.0336
 3364SOL    HW221729   3.502   0.890   2.912 -0.1501  1.1917 -0.3113
 3365SOL     OW21730   2.272   1.327   9.884  0.2383 -0.5484 -0.2644
 3365SOL    HW121731   2.302   1.268   9.953  0.6502  0.4155  0.3791
 3365SOL    HW221732   2.187   1.359   9.914  1.0010  0.5574  0.7265
 3366SOL     OW21733   2.043   3.019   4.254 -0.7703 -0.6104  0.2196
 3366SOL    HW121734   2.044   3.110   4.224 -0.9658 -0.5740  0.3233
 3366SOL    HW221735   2.065   2.962   4.180  2.9435  0.6688  0.3734
 3367SOL     OW21736   1.315   1.021  17.057  0.7256 -0.7176  0.1318
 3367SOL    HW121737   1.264   0.987  16.983 -2.0415  1.3767  1.0897
 3367SOL    HW221738   1.249   1.025  17.126 -0.6630 -0.1098 -1.2357
 3368SOL     OW21739   1.777   1.544   8.210  0.1966  0.2304  0.3832
 3368SOL    HW121740   1.809   1.604   8.143 -0.0506 -1.5115 -1.2773
 3368SOL    HW221741   1.763   1.601   8.286  0.6320 -0.0267  0.6539
 3369SOL     OW21742   3.486   0.786   9.360  0.2654  0.4623 -0.4370
 3369SOL    HW121743   3.532   0.836   9.292  0.9404  0.8247  0.2788
 3369SOL    HW221744   3.527   0.808   9.444  1.9092 -1.5961 -0.7065
 3370SOL     OW21745   2.942   2.936  17.040 -0.8236  0.2285 -0.8058
 3370SOL    HW121746   2.858   2.895  17.018 -1.4867 -0.1801  2.6012
 3370SOL    HW221747   2.921   2.995  17.112 -2.3721 -1.2104 -0.0817
 3371SOL     OW21748   4.278   1.264   9.487 -0.4863  0.1250  0.3834
 3371SOL    HW121749   4.329   1.317   9.427  0.7835 -2.1448 -0.5499
 3371SOL    HW221750   4.289   1.310   9.570  1.0438  0.8643 -0.2515
 3372SOL     OW21751   2.383   4.314  16.477 -0.1975 -0.0762 -0.0921
 3372SOL    HW121752   2.400   4.246  16.412  2.7115  1.4700 -0.9650
 3372SOL    HW221753   2.443   4.283  16.545  0.4151  1.9610  0.3224
 3373SOL     OW21754   2.317   3.598  15.500  0.8014 -0.7102 -0.2552
 3373SOL    HW121755   2.284   3.545  15.427 -0.2441  2.1604 -1.8634
 3373SOL    HW221756   2.350   3.673  15.451 -0.9653  1.8191  2.4161
 3374SOL     OW21757   3.403   1.702   9.506  0.2351  0.3109 -0.1418
 3374SOL    HW121758   3.490   1.716   9.468  0.6306  0.3738  0.7690
 3374SOL    HW221759   3.368   1.789   9.485  0.9775 -0.7115 -5.5460
 3375SOL     OW21760   2.007   4.154   6.636  0.1867  0.2821  0.2555
 3375SOL    HW121761   2.018   4.191   6.549  0.6183 -2.7733 -0.9849
 3375SOL    HW221762   2.011   4.060   6.621  3.0174  0.2408  1.2423
 3376SOL     OW21763   0.606   3.234   9.608 -0.1961 -0.5410 -0.5230
 3376SOL    HW121764   0.689   3.217   9.564  0.9886 -2.3838  2.4120
 3376SOL    HW221765   0.545   3.170   9.570 -2.5961  0.9397  0.8411
 3377SOL     OW21766   1.982   3.424   2.692  0.2740  0.5842  0.2780
 3377SOL    HW121767   1.984   3.339   2.736 -1.2212 -0.2000 -1.1320
 3377SOL    HW221768   1.978   3.407   2.597 -2.2704 -2.4048  0.9186
 3378SOL     OW21769   4.490   1.083  11.557 -0.0079 -0.1572 -0.0480
 3378SOL    HW121770   4.582   1.108  11.554  0.3715 -1.7033 -1.5602
 3378SOL    HW221771   4.466   1.098  11.465  0.1423 -2.5152 -0.4760
 3379SOL     OW21772   2.519   1.574   6.362  0.2485  0.3160  0.0026
 3379SOL    HW121773   2.563   1.658   6.349  0.3432 -0.0559 -2.2257
 3379SOL    HW221774   2.435   1.584   6.318  1.3690  0.6184 -2.1249
 3380SOL     OW21775   3.324   2.028   9.806 -0.3948  0.3288 -0.0605
 3380SOL    HW121776   3.321   2.052   9.899  3.2743  1.5600 -0.2423
 3380SOL    HW221777   3.347   1.936   9.820 -0.3647  0.1563 -1.2669
 3381SOL     OW21778   1.714   3.701   4.092 -0.5472  0.6611  0.1847
 3381SOL    HW121779   1.650   3.772   4.095 -0.1045  1.2034 -3.0101
 3381SOL    HW221780   1.655   3.631   4.063 -1.0154  2.1221 -2.4563
 3382SOL     OW21781   0.111   2.515   8.579 -0.5653  0.6305 -0.5745
 3382SOL    HW121782   0.057   2.447   8.620 -0.5036  0.0724 -1.4294
 3382SOL    HW221783   0.172   2.536   8.650  1.2647 -1.1745 -1.6202
 3383SOL     OW21784   3.865   1.524   1.811 -0.2615 -0.3092 -0.0156
 3383SOL    HW121785   3.784   1.523   1.863 -0.3956 -0.6453 -0.2370
 3383SOL    HW221786   3.924   1.483   1.874  0.6669 -0.1064 -0.7627
 3384SOL     OW21787   1.172   0.464  10.290  0.1468  0.3058  0.1095
 3384SOL    HW121788   1.204   0.380  10.323 -0.3015 -0.5005 -1.5291
 3384SOL    HW221789   1.209   0.472  10.202 -2.6102 -1.2725 -1.2063
 3385SOL     OW21790   3.226   3.170   8.404 -0.0773 -0.2290  0.0635
 3385SOL    HW121791   3.286   3.098   8.423  0.2440 -0.4369 -1.7394
 3385SOL    HW221792   3.229   3.165   8.309  2.3884  0.1080  0.1242
 3386SOL     OW21793   1.115   3.328  14.690 -0.6139  0.5507  0.2743
 3386SOL    HW121794   1.206   3.358  14.695 -0.3733 -0.2847  0.7630
 3386SOL    HW221795   1.080   3.368  14.769 -1.3863 -0.4813  0.4491
 3387SOL     OW21796   3.135   0.149   3.651  0.5948  0.1203  0.3292
 3387SOL    HW121797   3.144   0.180   3.561 -1.8592 -0.5104 -0.1192
 3387SOL    HW221798   3.126   0.054   3.639  0.3797  0.1000  0.6640
 3388SOL     OW21799   0.604   1.384   7.814  0.1706  0.0886  0.4431
 3388SOL    HW121800   0.586   1.301   7.860 -3.2025 -0.6003 -2.1285
 3388SOL    HW221801   0.693   1.379   7.782  0.2244 -0.7380  0.7135
 3389SOL     OW21802   4.014   0.367   2.274 -0.1329 -0.9308  0.4953
 3389SOL    HW121803   3.969   0.284   2.263  0.0533 -0.6215 -2.7165
 3389SOL    HW221804   3.964   0.412   2.341  0.2523  1.9841 -1.1693
 3390SOL     OW21805   1.754   1.149   0.007 -0.2160 -0.3208  0.0560
 3390SOL    HW121806   1.738   1.055  17.743 -1.0013 -0.2196  0.2463
 3390SOL    HW221807   1.712   1.171   0.091  1.4472  2.8523  0.0416
 3391SOL     OW21808   0.858   1.731   7.346  0.0932  0.1399 -0.1189
 3391SOL    HW121809   0.787   1.724   7.409 -1.2701  1.0185 -1.5555
 3391SOL    HW221810   0.936   1.685   7.379 -0.8559 -1.1352  0.3703
 3392SOL     OW21811   0.385   1.350   3.864  1.1073  0.3537  0.3072
 3392SOL    HW121812   0.437   1.426   3.891  0.3499  0.6562  0.9018
 3392SOL    HW221813   0.440   1.326   3.789  3.0950  1.5103  1.3841
 3393SOL     OW21814   2.184   3.143   7.240  1.0284  1.1855  0.1517
 3393SOL    HW121815   2.276   3.165   7.228  0.8205  1.7292 -0.4830
 3393SOL    HW221816   2.186   3.116   7.331  1.0474 -2.4282 -0.9231
 3394SOL     OW21817   1.917   3.843   2.545 -0.5387  0.6289  0.4970
 3394SOL    HW121818   1.924   3.845   2.450  0.4492  1.4940  0.5897
 3394SOL    HW221819   1.825   3.820   2.561 -0.6252  0.9885  0.5097
 3395SOL     OW21820   3.340   4.718   3.536  0.2729 -0.1383  0.0494
 3395SOL    HW121821   3.288   4.655   3.486 -0.7553  1.2855 -0.6536
 3395SOL    HW221822   3.405   0.007   3.471  0.4886 -0.0921  0.2821
 3396SOL     OW21823   0.467   3.740   7.124 -0.4563 -0.5043 -0.3794
 3396SOL    HW121824   0.374   3.738   7.146 -0.0350 -1.6373  1.3590
 3396SOL    HW221825   0.505   3.671   7.179 -0.5129 -3.0167 -3.5382
 3397SOL     OW21826   4.389   4.691   8.747  0.8699  0.6259  0.4348
 3397SOL    HW121827   4.462   4.701   8.687  1.3797 -0.3378  0.8959
 3397SOL    HW221828   4.373   0.045   8.770 -1.6253  0.7210 -1.6265
 3398SOL     OW21829   3.657   1.745   1.689 -1.3512 -0.1596 -0.1253
 3398SOL    HW121830   3.700   1.754   1.774 -2.8585  0.7604  0.5546
 3398SOL    HW221831   3.706   1.669   1.659 -1.3710  0.0059 -0.5903
 3399SOL     OW21832   2.209   3.388   6.850  0.3302  0.6623 -0.0443
 3399SOL    HW121833   2.295   3.367   6.814  0.0341  2.0472 -1.5661
 3399SOL    HW221834   2.234   3.441   6.926  3.0704  2.5556 -2.3231
 3400SOL     OW21835   4.204   2.792   1.619  0.1976  0.0265 -0.1178
 3400SOL    HW121836   4.154   2.871   1.599 -1.2896 -0.3301  2.2026
 3400SOL    HW221837   4.174   2.777   1.709  1.1490  1.0285  0.3529
 3401SOL     OW21838   4.658   1.662  15.260 -0.0524 -0.4934  0.7113
 3401SOL    HW121839   4.672   1.569  15.244  1.3223 -0.2272  0.4396
 3401SOL    HW221840   4.625   1.669  15.350 -0.4925  0.4343  0.4720
 3402SOL     OW21841   2.141   1.601   1.745 -0.3786 -0.4446 -0.4169
 3402SOL    HW121842   2.085   1.652   1.803 -1.0614 -1.4543 -0.2049
 3402SOL    HW221843   2.093   1.625   1.665 -1.3321  2.1171  0.9441
 3403SOL     OW21844   0.373   1.569  17.561  0.3701  0.0597 -0.8961
 3403SOL    HW121845   0.297   1.596  17.509  0.2360 -1.0862 -1.3001
 3403SOL    HW221846   0.322   1.526  17.629  2.7179 -0.2738  0.6307
 3404SOL     OW21847   3.626   3.219   5.814  0.0674 -0.3645 -0.2518
 3404SOL    HW121848   3.681   3.297   5.813  1.1781 -1.1098  1.2669
 3404SOL    HW221849   3.657   3.181   5.897 -2.8210 -0.3515  0.8618
 3405SOL     OW21850   4.628   1.349   6.717 -0.2052  0.5966 -0.0810
 3405SOL    HW121851   4.543   1.336   6.759 -0.6686 -0.2475 -1.3053
 3405SOL    HW221852   4.642   1.279   6.654  1.1164 -0.1983  1.1041
 3406SOL     OW21853   2.934   3.583   9.692  0.2424 -0.1962 -0.3798
 3406SOL    HW121854   2.917   3.642   9.766  1.0733  0.8841 -1.0472
 3406SOL    HW221855   2.885   3.631   9.625  0.6060  0.1793 -0.3779
 3407SOL     OW21856   2.255   2.445   7.412 -0.3103 -0.3037 -0.2100
 3407SOL    HW121857   2.249   2.350   7.403 -0.9561 -0.3019  0.1971
 3407SOL    HW221858   2.279   2.471   7.323 -3.2530 -1.5094 -1.3699
 3408SOL     OW21859   4.163   3.514   8.155 -0.0161 -0.1297  0.2546
 3408SOL    HW121860   4.069   3.513   8.170  0.1311 -1.9780  0.9305
 3408SOL    HW221861   4.207   3.484   8.234  0.7519  0.0205 -0.1127
 3409SOL     OW21862   2.736   3.337   5.384  0.2580  0.1618  0.6412
 3409SOL    HW121863   2.691   3.306   5.462  1.1582  0.3384  1.2347
 3409SOL    HW221864   2.771   3.257   5.345 -2.3217 -0.4717 -0.3323
 3410SOL     OW21865   2.387   1.709   4.160  0.3817 -0.0563  0.2115
 3410SOL    HW121866   2.407   1.723   4.067  2.6006 -0.0728  0.6741
 3410SOL    HW221867   2.474   1.675   4.184 -0.3933 -0.7339  2.0771
 3411SOL     OW21868   0.831   3.043   4.420  0.1421 -0.0522  0.0724
 3411SOL    HW121869   0.918   3.009   4.440 -0.8543 -1.1774  2.5004
 3411SOL    HW221870   0.777   2.979   4.467  0.5416 -1.7342 -1.7689
 3412SOL     OW21871   0.203   0.923   2.332 -0.1623  0.2156 -0.1377
 3412SOL    HW121872   0.236   0.894   2.417 -1.3060  1.5477  0.7651
 3412SOL    HW221873   0.131   0.980   2.358  0.2877 -0.7312  3.1003
 3413SOL     OW21874   1.388   0.174   8.472 -0.0221 -0.1446 -0.4303
 3413SOL    HW121875   1.297   0.147   8.471 -0.3384  0.8893  0.7824
 3413SOL    HW221876   1.425   0.145   8.556 -0.4449  0.4085 -0.0509
 3414SOL     OW21877   2.752   4.044   4.266  0.5462  0.5444  0.1064
 3414SOL    HW121878   2.847   4.041   4.281  0.8503 -0.2528 -1.9292
 3414SOL    HW221879   2.730   4.137   4.274 -1.8615 -0.1088  0.8930
 3415SOL     OW21880   1.761   3.036   7.595 -0.0638 -0.6043  0.2471
 3415SOL    HW121881   1.819   2.975   7.549  1.0988  1.0216 -0.4202
 3415SOL    HW221882   1.717   3.071   7.518  1.2078  1.9267  0.6745
 3416SOL     OW21883   1.920   1.640   5.200  0.4478  0.3357 -0.0810
 3416SOL    HW121884   1.857   1.589   5.150 -1.6772  3.0035 -0.0910
 3416SOL    HW221885   2.001   1.621   5.152 -0.8507 -1.0930 -1.6963
 3417SOL     OW21886   2.822   1.088   2.467  0.4255  0.0359 -0.5522
 3417SOL    HW121887   2.866   1.173   2.478  1.0134 -0.3352 -0.0616
 3417SOL    HW221888   2.891   1.028   2.438  0.4444  0.2486 -0.9521
 3418SOL     OW21889   0.468   3.914   3.969  0.1476  0.5944 -0.2801
 3418SOL    HW121890   0.436   3.824   3.955  0.0787  0.7109 -0.8705
 3418SOL    HW221891   0.493   3.917   4.061  0.6242  0.8021 -0.4185
 3419SOL     OW21892   4.123   3.774   8.425  0.8458 -0.3295 -0.0962
 3419SOL    HW121893   4.129   3.695   8.372  1.0533 -0.5887  0.3188
 3419SOL    HW221894   4.056   3.817   8.372  0.9083  0.3897  0.4024
 3420SOL     OW21895   0.427   0.302  17.211 -0.2663  0.0073 -0.1807
 3420SOL    HW121896   0.462   0.365  17.274 -0.8243  1.2643 -1.1187
 3420SOL    HW221897   0.473   0.224  17.241 -0.0905  0.5533  0.9459
 3421SOL     OW21898   3.945   1.878  12.200 -0.1545 -0.2563  0.4715
 3421SOL    HW121899   3.973   1.953  12.253  0.3817 -0.3066  0.2632
 3421SOL    HW221900   4.008   1.808  12.214  1.3353  1.1419  0.7255
 3422SOL     OW21901   4.039   4.557   2.410  0.1278  0.3731  0.2974
 3422SOL    HW121902   4.049   4.622   2.341  2.8930 -1.6548 -1.2038
 3422SOL    HW221903   4.099   4.582   2.480 -0.5384 -1.6961  1.6028
 3423SOL     OW21904   4.071   3.463   5.810  0.7947 -0.5428  0.7061
 3423SOL    HW121905   4.065   3.554   5.781 -1.0457 -0.3290  1.7389
 3423SOL    HW221906   4.165   3.447   5.811  0.7716 -0.8392 -1.5014
 3424SOL     OW21907   1.011   4.368   9.632 -0.4172  0.1186 -0.2466
 3424SOL    HW121908   0.999   4.441   9.693  1.1447 -1.1991  1.6477
 3424SOL    HW221909   1.070   4.408   9.568 -0.0641  1.3397  0.8346
 3425SOL     OW21910   1.321   1.214   8.239  0.6319  0.2128  0.3267
 3425SOL    HW121911   1.331   1.169   8.155 -0.6389 -0.2122  0.4046
 3425SOL    HW221912   1.234   1.180   8.261 -0.1508  1.0266 -1.5367
 3426SOL     OW21913   3.051   0.735   8.607  0.1566 -0.1084  0.0653
 3426SOL    HW121914   3.032   0.798   8.537 -0.3988 -1.5279 -1.0574
 3426SOL    HW221915   3.045   0.788   8.686  0.3550  2.2506 -1.5119
 3427SOL     OW21916   0.793   0.314   6.002  0.2725  0.2788 -1.1934
 3427SOL    HW121917   0.846   0.389   5.972  1.6634 -1.4377 -3.0794
 3427SOL    HW221918   0.774   0.266   5.921  0.9924  0.3855 -1.4321
 3428SOL     OW21919   4.006   2.828  16.302 -0.7227  0.7076  0.4612
 3428SOL    HW121920   4.052   2.744  16.303 -2.7073 -0.3833  0.4974
 3428SOL    HW221921   4.048   2.856  16.383 -1.9939  1.1319  0.9820
 3429SOL     OW21922   2.285   1.568   6.231 -0.6993  0.4745  0.0874
 3429SOL    HW121923   2.242   1.653   6.223 -0.8497  0.6420  2.7367
 3429SOL    HW221924   2.209   1.512   6.245  0.6148 -1.6340 -1.1897
 3430SOL     OW21925   3.969   0.946   2.980  0.7771  0.3816  0.4504
 3430SOL    HW121926   3.944   0.870   3.033 -0.5332  0.5757  0.1138
 3430SOL    HW221927   3.886   0.976   2.943  0.6058  1.1474  1.4558
 3431SOL     OW21928   2.711   4.642   2.266  0.1499 -0.7255 -0.0522
 3431SOL    HW121929   2.775   4.680   2.206  0.0594  0.7802  0.8155
 3431SOL    HW221930   2.711   4.712   2.330  2.4201 -1.9967  1.3507
 3432SOL     OW21931   0.512   1.836   0.813  0.2848 -0.0587  0.3494
 3432SOL    HW121932   0.451   1.905   0.836 -0.5379 -1.0852  1.2165
 3432SOL    HW221933   0.592   1.873   0.851  0.2147 -0.7986  1.2155
 3433SOL     OW21934   2.505   4.201   7.903 -0.2999 -0.0204  0.2518
 3433SOL    HW121935   2.561   4.273   7.875 -2.1392  1.0476 -0.7362
 3433SOL    HW221936   2.433   4.224   7.843 -0.9043  0.1244  1.0383
 3434SOL     OW21937   0.608   0.436   4.203  0.0491 -0.8089  0.3073
 3434SOL    HW121938   0.690   0.402   4.239 -1.2416 -1.7014  2.3609
 3434SOL    HW221939   0.642   0.524   4.189  1.4107 -1.5791 -1.2804
 3435SOL     OW21940   4.515   1.476  14.232 -0.0563  0.0321 -0.0132
 3435SOL    HW121941   4.608   1.483  14.253 -0.4904  1.1378  1.5749
 3435SOL    HW221942   4.517   1.500  14.140  1.9207 -0.7194 -0.1628
 3436SOL     OW21943   1.938   3.533   8.309  0.8531  0.0026 -0.6214
 3436SOL    HW121944   1.875   3.487   8.366 -0.3368  3.0057  0.4752
 3436SOL    HW221945   1.982   3.458   8.269  1.2609 -1.5335  2.6535
 3437SOL     OW21946   3.008   1.541   6.079 -0.0964  0.4855  0.0837
 3437SOL    HW121947   3.070   1.553   6.007  2.0039 -1.0610  1.6255
 3437SOL    HW221948   3.035   1.454   6.107  0.0063  0.3297 -0.4885
 3438SOL     OW21949   4.688   1.845   2.001 -0.2469  0.2483  0.3209
 3438SOL    HW121950   4.685   1.761   1.956  3.7109  0.4215 -0.2795
 3438SOL    HW221951   0.032   1.831   2.048 -0.8398  0.3335  1.3713
 3439SOL     OW21952   2.771   3.204   0.517  0.1719  0.4918 -0.3380
 3439SOL    HW121953   2.683   3.189   0.484  0.7732 -0.0818 -1.6877
 3439SOL    HW221954   2.768   3.152   0.597  0.0698  0.0480 -0.6300
 3440SOL     OW21955   1.614   3.285   4.982 -0.0204 -0.6093  0.5194
 3440SOL    HW121956   1.559   3.354   5.021  0.1959  0.7057 -1.5109
 3440SOL    HW221957   1.585   3.199   5.013 -1.2352  0.6834  3.0517
 3441SOL     OW21958   0.769   3.476  12.716 -0.4771  0.3435  0.2262
 3441SOL    HW121959   0.741   3.544  12.778 -0.8575  0.4701 -0.0837
 3441SOL    HW221960   0.819   3.418  12.773 -0.8678 -0.3741 -0.1567
 3442SOL     OW21961   2.060   0.850   8.509 -0.3540  0.2298 -1.2980
 3442SOL    HW121962   2.092   0.878   8.594 -1.6304 -0.4918 -0.5852
 3442SOL    HW221963   2.102   0.764   8.509 -2.4516 -0.7813 -1.0954
 3443SOL     OW21964   2.300   1.682   5.199  0.1766 -0.0580  0.3019
 3443SOL    HW121965   2.276   1.670   5.291 -0.6867  4.9477  0.6913
 3443SOL    HW221966   2.242   1.614   5.164  0.8087 -1.6222  2.2716
 3444SOL     OW21967   4.652   2.983   9.083 -0.3134 -0.5708  0.2334
 3444SOL    HW121968   4.586   2.918   9.057  0.3650 -1.4470  0.7172
 3444SOL    HW221969   4.618   3.005   9.170 -2.3601 -1.0078 -0.4383
 3445SOL     OW21970   2.729   1.358   3.253  0.5228 -0.0103  0.0372
 3445SOL    HW121971   2.636   1.352   3.235  0.1844  0.9070  1.4780
 3445SOL    HW221972   2.744   1.448   3.284 -1.9487  0.0125  1.1170
 3446SOL     OW21973   3.723   3.066   5.183  0.3598 -0.1649 -0.1973
 3446SOL    HW121974   3.690   3.135   5.241  0.8298 -0.8990  0.9445
 3446SOL    HW221975   3.760   3.112   5.108  2.8815 -1.7563  0.0885
 3447SOL     OW21976   0.022   4.050   8.118 -0.1588 -0.4696 -0.2501
 3447SOL    HW121977   0.022   4.101   8.037 -2.1008  1.6614  1.0947
 3447SOL    HW221978   0.019   3.961   8.083 -0.9875 -0.8960  0.9070
 3448SOL     OW21979   0.617   4.194   3.245 -0.2229 -0.8367  0.3218
 3448SOL    HW121980   0.696   4.141   3.255 -0.8061 -2.2482 -2.8040
 3448SOL    HW221981   0.656   4.249   3.178  0.1091 -0.0570  1.1473
 3449SOL     OW21982   3.350   3.320   1.509  0.2752 -0.0630 -0.2450
 3449SOL    HW121983   3.280   3.330   1.573 -0.1588 -0.0593 -0.7251
 3449SOL    HW221984   3.307   3.373   1.443 -1.2605  0.9715  1.6037
 3450SOL     OW21985   3.618   4.047   5.128 -0.0202  0.3208 -0.3198
 3450SOL    HW121986   3.598   4.056   5.222 -2.2982 -2.2010 -0.5551
 3450SOL    HW221987   3.559   3.972   5.115 -0.6431  0.3517  2.1790
 3451SOL     OW21988   0.732   1.759   8.910 -0.1379 -0.3147 -0.2206
 3451SOL    HW121989   0.767   1.789   8.994 -0.6189 -1.1721  0.2800
 3451SOL    HW221990   0.729   1.664   8.915 -1.6589 -0.1062  2.4897
 3452SOL     OW21991   4.657   3.102  14.838 -0.5058 -0.6852 -0.0589
 3452SOL    HW121992   4.596   3.050  14.889  1.0523  0.3461  2.8681
 3452SOL    HW221993   4.637   3.069  14.750 -0.8405 -0.1464 -0.1857
 3453SOL     OW21994   3.889   0.168  17.621  0.1785  0.4206  0.3592
 3453SOL    HW121995   3.969   0.186  17.670  1.6610  1.5908 -2.4518
 3453SOL    HW221996   3.849   0.104  17.679  0.9449 -0.9560 -0.6323
 3454SOL     OW21997   4.078   0.284   8.804 -0.6050  0.2928 -0.5023
 3454SOL    HW121998   4.066   0.283   8.899  1.3170 -0.2584 -0.2684
 3454SOL    HW221999   3.990   0.289   8.766 -1.1383 -3.4482  0.3238
 3455SOL     OW22000   2.572   1.848   6.176 -0.7767  0.3710 -0.3394
 3455SOL    HW122001   2.558   1.767   6.125 -1.6911 -0.6442  1.5353
 3455SOL    HW222002   2.607   1.908   6.110  0.7283  1.0905  1.1501
 3456SOL     OW22003   0.624   2.509  17.383 -0.0056 -0.1287 -0.1527
 3456SOL    HW122004   0.578   2.546  17.308 -0.0348 -1.5811 -0.8577
 3456SOL    HW222005   0.619   2.585  17.441  1.8417 -1.6274  1.9680
 3457SOL     OW22006   1.884   2.971  10.628  0.0257 -0.3257  0.4540
 3457SOL    HW122007   1.834   2.895  10.657  1.9719 -1.7699 -0.0083
 3457SOL    HW222008   1.969   2.958  10.670  0.0905 -0.1377  0.3802
 3458SOL     OW22009   0.313   1.983  16.381  0.2676  0.2020 -0.7722
 3458SOL    HW122010   0.289   2.064  16.335  0.1800  1.2980  1.2237
 3458SOL    HW222011   0.303   1.908  16.322 -0.2065 -0.2496 -0.1136
 3459SOL     OW22012   2.542   0.295   9.527  0.4770  0.0399  0.3187
 3459SOL    HW122013   2.552   0.200   9.517  2.8577  0.6587 -2.9132
 3459SOL    HW222014   2.567   0.326   9.441 -2.6013 -0.2296 -0.6870
 3460SOL     OW22015   3.379   3.603  14.436  0.3277 -0.1334  0.8439
 3460SOL    HW122016   3.445   3.556  14.487  1.1527  0.0667 -0.0445
 3460SOL    HW222017   3.295   3.564  14.462 -0.2745  0.2620 -0.4719
 3461SOL     OW22018   2.626   1.870   8.467  0.0773  0.0253  0.6961
 3461SOL    HW122019   2.689   1.897   8.534  0.1761  1.1604  0.1479
 3461SOL    HW222020   2.644   1.776   8.471 -1.8186 -0.3986 -0.6638
 3462SOL     OW22021   2.556   4.685   8.451  0.3095 -0.5170 -0.0966
 3462SOL    HW122022   2.582   0.028   8.496 -2.1771 -0.2201  0.8244
 3462SOL    HW222023   2.621   4.675   8.381  0.9595 -3.5431  0.9312
 3463SOL     OW22024   3.378   3.691   3.227 -0.3857  0.1777  0.0535
 3463SOL    HW122025   3.292   3.698   3.268 -0.5851 -1.2197 -0.1250
 3463SOL    HW222026   3.436   3.735   3.288 -2.7099  2.0240  0.9408
 3464SOL     OW22027   0.883   2.660   2.432 -0.2230  0.7366 -0.3182
 3464SOL    HW122028   0.796   2.682   2.399 -0.1226 -3.1898 -3.2196
 3464SOL    HW222029   0.894   2.584   2.376 -1.5600 -0.9046  1.6379
 3465SOL     OW22030   0.776   1.626   6.666  0.0091 -0.3228 -0.0451
 3465SOL    HW122031   0.754   1.679   6.589 -0.7241 -1.1661 -0.4082
 3465SOL    HW222032   0.702   1.650   6.721  0.5321  4.0524 -1.2460
 3466SOL     OW22033   2.637   1.525   7.250  0.0451 -0.3432  0.2179
 3466SOL    HW122034   2.686   1.606   7.264  0.0471 -0.3896  0.4719
 3466SOL    HW222035   2.640   1.513   7.155  2.7081  0.9529  0.1445
 3467SOL     OW22036   3.599   4.065  10.764  0.3337  0.6469  0.4410
 3467SOL    HW122037   3.693   4.063  10.777  0.1658 -3.1427  0.9434
 3467SOL    HW222038   3.567   4.072  10.854  1.2727 -1.3133  0.9093
 3468SOL     OW22039   4.463   1.026   3.571 -0.4534  0.4505 -0.3458
 3468SOL    HW122040   4.409   1.005   3.494 -0.5748 -0.2858 -0.0567
 3468SOL    HW222041   4.439   1.116   3.592  0.2721  0.8009 -1.0393
 3469SOL     OW22042   0.152   4.030   3.681 -0.2711  0.0645  0.0441
 3469SOL    HW122043   0.059   4.042   3.663 -0.3100  0.8444  0.7673
 3469SOL    HW222044   0.165   4.067   3.768  3.4572  1.3312 -1.0510
 3470SOL     OW22045   1.807   3.967   6.414 -0.0691 -0.0297 -0.1370
 3470SOL    HW122046   1.844   3.879   6.418 -0.4281 -0.0947  1.8085
 3470SOL    HW222047   1.786   3.982   6.506  0.7499 -0.3445  0.0959
 3471SOL     OW22048   1.384   2.190   8.328  0.5956  0.2958  0.1607
 3471SOL    HW122049   1.340   2.272   8.307  0.6921  0.1210 -0.7051
 3471SOL    HW222050   1.328   2.156   8.398  0.4361 -0.7564 -0.4945
 3472SOL     OW22051   0.139   4.617  16.927  0.1147 -0.7032 -0.4107
 3472SOL    HW122052   0.147   4.701  16.881 -0.5152 -0.4232 -0.0086
 3472SOL    HW222053   0.090   4.642  17.005 -0.8251  0.8857 -1.5049
 3473SOL     OW22054   3.501   2.709   6.341  0.4062 -0.2676 -0.6878
 3473SOL    HW122055   3.592   2.709   6.368 -0.0088 -0.1201  0.7245
 3473SOL    HW222056   3.485   2.615   6.334  2.2853 -0.7284  1.1114
 3474SOL     OW22057   1.117   1.508   1.966 -0.1699 -0.1602  0.2560
 3474SOL    HW122058   1.066   1.537   1.890  0.1695 -1.9404 -0.6652
 3474SOL    HW222059   1.204   1.531   1.932  0.4805 -0.4741  1.7118
 3475SOL     OW22060   1.487   2.223   6.197 -0.4912  0.0557  0.0701
 3475SOL    HW122061   1.502   2.316   6.179  1.3637 -0.0187  1.3099
 3475SOL    HW222062   1.554   2.196   6.259  1.5559 -0.3061 -2.2889
 3476SOL     OW22063   1.739   0.192  16.446 -0.1906 -0.3369  0.9003
 3476SOL    HW122064   1.792   0.205  16.368 -3.4152  0.2762 -1.1879
 3476SOL    HW222065   1.706   0.280  16.464 -2.2528 -0.9590  0.2115
 3477SOL     OW22066   3.137   0.425   6.836 -0.1729 -0.2437  0.0210
 3477SOL    HW122067   3.231   0.444   6.827 -0.1610  0.0823  0.9069
 3477SOL    HW222068   3.112   0.507   6.879  0.7273 -0.2488  0.5545
 3478SOL     OW22069   0.337   1.151   1.496  0.1515  0.9556 -0.2547
 3478SOL    HW122070   0.334   1.141   1.591  0.2737 -2.5450 -0.5894
 3478SOL    HW222071   0.250   1.178   1.467 -0.2820  1.5454  1.6361
 3479SOL     OW22072   1.797   1.990   6.029 -0.3012  0.1569 -0.0257
 3479SOL    HW122073   1.819   1.922   6.093  0.3094  0.8567  0.5102
 3479SOL    HW222074   1.827   2.065   6.081 -1.5456  1.1048 -0.6683
 3480SOL     OW22075   1.959   3.397   8.903 -0.0293 -0.3996 -0.4965
 3480SOL    HW122076   1.949   3.479   8.856 -1.3652  1.7539  3.5651
 3480SOL    HW222077   2.044   3.411   8.944 -0.7370  1.6798  0.2395
 3481SOL     OW22078   2.160   2.097   1.766  0.1626  0.3124 -0.2034
 3481SOL    HW122079   2.123   2.071   1.851 -2.2425 -1.4928 -1.7997
 3481SOL    HW222080   2.237   2.041   1.765  0.0095  0.0745  1.8315
 3482SOL     OW22081   0.446   1.739   1.875  0.3943 -0.4392  0.1699
 3482SOL    HW122082   0.515   1.683   1.912  1.4723 -0.2495 -1.5247
 3482SOL    HW222083   0.398   1.674   1.825 -1.6615  1.2508 -0.0666
 3483SOL     OW22084   2.161   3.541  11.639 -0.4491  1.1008 -0.3019
 3483SOL    HW122085   2.210   3.598  11.580  1.9247 -0.7642 -0.1039
 3483SOL    HW222086   2.230   3.523  11.702 -1.3658  0.4919  0.5364
 3484SOL     OW22087   4.729   1.952   6.252  0.1833  1.0286 -0.0916
 3484SOL    HW122088   4.698   2.005   6.179 -1.3395  0.5865  0.2242
 3484SOL    HW222089   0.080   1.984   6.264 -0.7970  3.8628 -0.3335
 3485SOL     OW22090   2.726   1.637  12.559 -0.7316  0.7148  0.6708
 3485SOL    HW122091   2.655   1.604  12.614 -0.9900  0.9114  0.4515
 3485SOL    HW222092   2.735   1.728  12.587  1.0585  0.5100  0.7507
 3486SOL     OW22093   3.603   4.713   9.593  0.9678  0.3024 -0.4622
 3486SOL    HW122094   3.688   4.670   9.594  1.0583  0.5143  2.6513
 3486SOL    HW222095   3.602   4.733   9.500 -1.0411  1.8216 -0.1385
 3487SOL     OW22096   1.909   2.459   3.625  0.0517  0.0025 -0.0752
 3487SOL    HW122097   1.833   2.475   3.682 -0.3561  0.8782 -0.8760
 3487SOL    HW222098   1.886   2.472   3.533  0.8641 -1.9325 -0.5666
 3488SOL     OW22099   3.661   4.120   9.188  0.3874  0.0370 -0.0310
 3488SOL    HW122100   3.634   4.209   9.163 -1.9709 -0.7232 -0.1783
 3488SOL    HW222101   3.719   4.094   9.116 -0.9234  0.0048 -1.0671
 3489SOL     OW22102   1.888   2.872  16.324 -0.1460 -0.3006  0.3070
 3489SOL    HW122103   1.817   2.860  16.387 -0.7580  0.3416 -0.2675
 3489SOL    HW222104   1.964   2.873  16.383 -0.8538  1.8788  1.2097
 3490SOL     OW22105   1.191   3.761   6.198  0.4411 -0.4483 -0.9803
 3490SOL    HW122106   1.127   3.812   6.148 -1.2913  0.3888  2.0741
 3490SOL    HW222107   1.182   3.672   6.162  0.2326  0.2696 -2.6775
 3491SOL     OW22108   4.480   1.844   6.048  0.0929 -0.0739 -0.0364
 3491SOL    HW122109   4.418   1.776   6.023  0.2886  0.5312 -2.2111
 3491SOL    HW222110   4.419   1.896   6.100  1.4848  0.3767  1.1385
 3492SOL     OW22111   4.705   3.217   8.008  0.2280  0.0545 -0.1768
 3492SOL    HW122112   4.665   3.251   7.927 -1.1349  5.3609  2.7170
 3492SOL    HW222113   4.719   3.129   7.973  0.2767  0.6803 -1.7564
 3493SOL     OW22114   2.263   4.592   3.966  0.4956  0.0418  0.7831
 3493SOL    HW122115   2.246   4.499   3.975 -0.8098  0.1589 -0.3447
 3493SOL    HW222116   2.219   4.612   3.883 -0.3495  1.3723  1.5607
 3494SOL     OW22117   4.189   0.708   2.155  0.3447 -0.7757 -0.4730
 3494SOL    HW122118   4.122   0.726   2.220  1.5087 -0.3899  0.6163
 3494SOL    HW222119   4.250   0.653   2.204  0.6868 -0.1915 -0.2479
 3495SOL     OW22120   4.446   1.820   7.285  0.7039 -0.0692 -0.0644
 3495SOL    HW122121   4.464   1.746   7.343  0.3895 -0.0967 -0.0011
 3495SOL    HW222122   4.447   1.773   7.201  0.0300  0.0830 -0.1598
 3496SOL     OW22123   4.402   1.660   3.289  0.7406  0.0225  0.3398
 3496SOL    HW122124   4.470   1.722   3.315  0.3080  0.7603 -0.2751
 3496SOL    HW222125   4.395   1.613   3.372  1.1630  1.3712  1.1422
 3497SOL     OW22126   2.069   2.925   4.919  0.0728 -0.3674  0.3095
 3497SOL    HW122127   2.074   2.867   4.995 -0.1280  0.0485  0.6398
 3497SOL    HW222128   2.103   2.864   4.854  0.8418  0.1465  0.2229
 3498SOL     OW22129   3.374   1.885   8.122  0.1191  0.0245  0.0169
 3498SOL    HW122130   3.371   1.793   8.148 -2.3664 -0.3240 -1.5315
 3498SOL    HW222131   3.286   1.915   8.144  1.1082  0.9244  2.7796
 3499SOL     OW22132   3.640   2.859   0.711  0.6663 -0.4914  0.0157
 3499SOL    HW122133   3.643   2.924   0.642  1.7039  0.3297  0.8378
 3499SOL    HW222134   3.640   2.928   0.777  0.6932 -0.0531 -0.4489
 3500SOL     OW22135   4.503   3.080   4.428  0.3771 -0.0961  0.0188
 3500SOL    HW122136   4.498   3.006   4.490  0.6728  1.6231  2.1013
 3500SOL    HW222137   4.538   3.051   4.344  0.8721  1.4964 -0.3197
 3501SOL     OW22138   3.340   0.846  17.713  0.5672 -0.1218 -0.5262
 3501SOL    HW122139   3.407   0.858   0.030  2.7731 -1.9354 -2.4217
 3501SOL    HW222140   3.296   0.774   0.007  2.5165 -1.9823 -1.6437
 3502SOL     OW22141   3.518   3.618   6.722 -0.0470 -0.1161  0.1506
 3502SOL    HW122142   3.554   3.535   6.754  0.5605 -0.2119 -0.7434
 3502SOL    HW222143   3.601   3.664   6.710  0.9192 -1.5370  1.3625
 3503SOL     OW22144   0.141   3.768   9.883  0.2579  0.4923  0.0658
 3503SOL    HW122145   0.196   3.691   9.897  0.4837  0.5054 -0.7506
 3503SOL    HW222146   0.210   3.832   9.866  0.3781  0.4786  0.4945
 3504SOL     OW22147   2.435   2.977   1.987  0.7316  0.0804  0.5436
 3504SOL    HW122148   2.434   2.896   1.936  0.1461  0.6302 -0.3199
 3504SOL    HW222149   2.526   3.001   1.973  0.6683 -0.0480 -0.0635
 3505SOL     OW22150   3.212   2.778   5.173  0.1787  0.1446  0.2731
 3505SOL    HW122151   3.306   2.784   5.157  0.0172 -1.5003 -1.1805
 3505SOL    HW222152   3.184   2.858   5.128 -2.5161 -0.5833  0.7019
 3506SOL     OW22153   4.707   2.953   2.510 -0.1658 -0.5238 -0.1680
 3506SOL    HW122154   0.016   2.895   2.450  0.0480 -1.2978  0.7444
 3506SOL    HW222155   4.667   2.887   2.566 -0.2483 -0.3798 -0.0579
 3507SOL     OW22156   4.505   3.619   3.450  0.8742 -0.2290 -0.0492
 3507SOL    HW122157   4.479   3.701   3.492  3.0254  0.6088 -0.3661
 3507SOL    HW222158   4.484   3.633   3.358  1.9080 -1.9447 -0.5446
 3508SOL     OW22159   4.671   3.553   8.663 -0.4477  0.0535 -0.4560
 3508SOL    HW122160   4.696   3.542   8.754  0.9253  1.3524 -0.6915
 3508SOL    HW222161   4.667   3.461   8.635  1.3235 -0.1061 -0.1785
 3509SOL     OW22162   2.027   3.574  11.347  0.2260  0.0723 -0.2860
 3509SOL    HW122163   1.953   3.610  11.396 -0.0527 -0.1039 -0.5724
 3509SOL    HW222164   2.093   3.608  11.407  2.0885 -0.1842 -2.1638
 3510SOL     OW22165   4.167   0.521  11.115  0.0168  0.0993 -0.0352
 3510SOL    HW122166   4.236   0.586  11.128  1.6124 -1.6479  0.0952
 3510SOL    HW222167   4.091   0.577  11.095 -0.0210  0.8742  2.1844
 3511SOL     OW22168   1.218   2.832   1.854  0.6621  0.7223 -0.1157
 3511SOL    HW122169   1.154   2.774   1.895  1.7839 -0.7131 -0.3893
 3511SOL    HW222170   1.303   2.791   1.869 -0.1518 -0.8455  0.1774
 3512SOL     OW22171   2.017   1.664   9.139 -0.2257  0.1546 -0.3748
 3512SOL    HW122172   1.991   1.581   9.100  1.4260 -0.9141  0.7735
 3512SOL    HW222173   2.094   1.650   9.194 -1.4822 -1.6554  0.9441
 3513SOL     OW22174   2.433   0.861   3.552 -0.1573 -0.1028 -0.2861
 3513SOL    HW122175   2.433   0.804   3.629  0.0090  1.4100  0.8262
 3513SOL    HW222176   2.349   0.822   3.525  0.5754 -0.2797 -2.3610
 3514SOL     OW22177   2.799   1.304   7.359 -0.5945  0.7515  0.3859
 3514SOL    HW122178   2.758   1.253   7.289 -0.0003  0.6076  0.1451
 3514SOL    HW222179   2.738   1.378   7.363 -0.2002  0.9836  1.9538
 3515SOL     OW22180   2.859   0.539   1.503 -0.7624 -0.3847 -0.3068
 3515SOL    HW122181   2.900   0.559   1.587 -0.8794 -0.1072 -0.3152
 3515SOL    HW222182   2.815   0.622   1.485 -1.8350 -1.1711 -1.3589
 3516SOL     OW22183   2.577   2.230   6.264  0.5827  0.1704 -0.1318
 3516SOL    HW122184   2.577   2.268   6.176 -0.6430 -0.1336 -0.2596
 3516SOL    HW222185   2.668   2.207   6.284  0.2205 -0.5672  0.6475
 3517SOL     OW22186   0.426   0.324   9.362 -0.1263  0.4753 -0.6369
 3517SOL    HW122187   0.507   0.273   9.357 -1.6802 -2.0740  0.6024
 3517SOL    HW222188   0.424   0.371   9.445  3.0345  1.5504 -1.1460
 3518SOL     OW22189   3.799   2.491   4.224 -0.0690  0.5124 -0.6794
 3518SOL    HW122190   3.762   2.431   4.159  1.4954 -0.8886 -0.2781
 3518SOL    HW222191   3.777   2.575   4.183  0.8133 -0.0980 -2.3778
 3519SOL     OW22192   0.415   3.709  16.976 -0.3864  0.4045 -0.2806
 3519SOL    HW122193   0.446   3.618  16.977 -0.2918  0.4458  0.4104
 3519SOL    HW222194   0.500   3.750  16.964 -0.7319  0.8504 -1.2101
 3520SOL     OW22195   1.360   2.954  16.388  0.2260 -0.5813 -0.2197
 3520SOL    HW122196   1.421   2.896  16.342  0.2479 -0.2425 -0.6139
 3520SOL    HW222197   1.350   2.912  16.473 -1.0270  1.0945  0.4652
 3521SOL     OW22198   1.551   3.883   3.177 -0.3216  0.0366  0.3313
 3521SOL    HW122199   1.482   3.830   3.217 -1.1883  1.2287  0.3961
 3521SOL    HW222200   1.585   3.924   3.256 -2.2408  1.2302  0.5355
 3522SOL     OW22201   3.714   1.258  17.432 -0.4631  0.0402 -0.6876
 3522SOL    HW122202   3.732   1.167  17.454 -0.2706  0.1960 -0.2117
 3522SOL    HW222203   3.677   1.297  17.511 -0.3328  0.6847 -0.9419
 3523SOL     OW22204   4.318   4.072   1.861  0.3017 -0.1328  0.1547
 3523SOL    HW122205   4.411   4.063   1.883  0.4454  1.3346  0.1713
 3523SOL    HW222206   4.271   4.059   1.943 -2.8993  1.3316 -1.4240
 3524SOL     OW22207   0.054   0.312   7.900 -0.0899 -0.1755  0.3458
 3524SOL    HW122208   0.082   0.233   7.946 -0.6486  0.0103  0.9901
 3524SOL    HW222209   0.117   0.376   7.935  0.2995 -0.7906  0.7625
 3525SOL     OW22210   1.614   1.416   8.051 -0.1399 -0.9386  0.1309
 3525SOL    HW122211   1.674   1.458   8.112  0.1080 -0.1949 -0.6208
 3525SOL    HW222212   1.525   1.419   8.086  0.0550 -0.4046  0.5922
 3526SOL     OW22213   2.893   0.936   0.398  0.6601  0.5602  0.6912
 3526SOL    HW122214   2.897   1.032   0.400  1.1244  0.6080 -2.3601
 3526SOL    HW222215   2.945   0.914   0.476 -0.9138 -0.4718  1.4525
 3527SOL     OW22216   3.468   1.332  14.809 -0.8074  0.3107 -0.2444
 3527SOL    HW122217   3.562   1.321  14.824 -1.3669 -0.5585  2.8311
 3527SOL    HW222218   3.461   1.426  14.792  1.1368  0.5716  0.3049
 3528SOL     OW22219   4.308   1.526   4.798 -0.1559 -0.0888  0.5775
 3528SOL    HW122220   4.346   1.562   4.718  0.7034 -1.2886  0.4417
 3528SOL    HW222221   4.390   1.522   4.848  1.2483  0.9163 -1.6450
 3529SOL     OW22222   3.248   1.079   1.179  0.8095 -0.4516 -0.0151
 3529SOL    HW122223   3.215   1.038   1.259  0.3570  0.1152  0.0869
 3529SOL    HW222224   3.270   1.013   1.113 -2.8852 -1.2430 -0.4128
 3530SOL     OW22225   0.651   4.610  12.970  0.3396  0.0818  0.1244
 3530SOL    HW122226   0.586   4.548  13.004 -1.1415  0.1164 -2.6112
 3530SOL    HW222227   0.598   4.652  12.902 -0.0754 -0.4126  0.1360
 3531SOL     OW22228   0.488   4.206   5.686  0.6710 -0.2657  0.8353
 3531SOL    HW122229   0.486   4.301   5.675 -0.5009 -0.2024  1.5897
 3531SOL    HW222230   0.497   4.196   5.781 -1.2070  2.4061  1.2857
 3532SOL     OW22231   3.874   1.421   7.842  0.1429  0.0997  0.0243
 3532SOL    HW122232   3.918   1.342   7.810  1.2827  1.2555 -1.2741
 3532SOL    HW222233   3.856   1.395   7.932  0.0676  0.3019  0.0678
 3533SOL     OW22234   1.034   3.422   5.561 -0.1646  0.2279 -0.0905
 3533SOL    HW122235   1.073   3.500   5.522  2.7158 -1.0619  0.1679
 3533SOL    HW222236   1.088   3.355   5.518 -0.6420 -0.9620  1.1505
 3534SOL     OW22237   0.339   1.331  14.797 -0.9759 -0.2791  0.0329
 3534SOL    HW122238   0.267   1.301  14.851 -0.0830 -0.4648  1.1158
 3534SOL    HW222239   0.334   1.279  14.717  0.2370  1.4801 -1.1955
 3535SOL     OW22240   2.502   2.698   4.624 -0.1214  0.1185  0.0131
 3535SOL    HW122241   2.432   2.654   4.673  1.3667 -1.3307  0.8515
 3535SOL    HW222242   2.570   2.631   4.631  0.6828  1.1855  2.3164
 3536SOL     OW22243   3.817   2.721   4.810  0.1250  0.4808 -0.6436
 3536SOL    HW122244   3.816   2.625   4.806 -1.4057  0.5011 -0.5623
 3536SOL    HW222245   3.722   2.729   4.812 -0.1360 -2.5454 -1.8049
 3537SOL     OW22246   0.731   0.870  10.575 -0.0976  0.3670 -0.4685
 3537SOL    HW122247   0.791   0.877  10.650  0.5956  2.2770 -1.1965
 3537SOL    HW222248   0.774   0.804  10.522  0.3965 -0.0623  0.4738
 3538SOL     OW22249   1.674   0.644   6.866  0.0525 -0.1915  0.4672
 3538SOL    HW122250   1.642   0.661   6.955 -1.1405 -0.9880  0.1862
 3538SOL    HW222251   1.766   0.668   6.879 -0.2943  0.8563  1.0104
 3539SOL     OW22252   1.801   3.781   3.029  0.0580  0.6281 -0.1728
 3539SOL    HW122253   1.785   3.694   3.065 -0.0071 -0.4608 -2.8655
 3539SOL    HW222254   1.744   3.840   3.079 -0.0515 -0.0477  0.4835
 3540SOL     OW22255   0.162   1.298   2.965 -0.4325 -0.2282 -0.3740
 3540SOL    HW122256   0.224   1.237   2.924 -0.0156  0.5211 -0.8665
 3540SOL    HW222257   0.163   1.364   2.895  0.6090 -0.5345 -0.6559
 3541SOL     OW22258   0.235   2.805   9.203  0.2130  0.0654 -0.0650
 3541SOL    HW122259   0.151   2.762   9.215 -0.3947  1.0484 -0.7907
 3541SOL    HW222260   0.274   2.782   9.287  1.0781  0.9537 -0.2193
 3542SOL     OW22261   2.170   2.357   6.009 -0.0451 -0.2374 -0.1015
 3542SOL    HW122262   2.254   2.395   6.035  0.5132 -1.2483 -0.4329
 3542SOL    HW222263   2.190   2.268   5.980  2.1732 -0.0343  0.8071
 3543SOL     OW22264   0.386   4.537   6.423 -0.3129  0.1338  0.2455
 3543SOL    HW122265   0.444   4.461   6.416 -1.3502 -0.9516  3.2735
 3543SOL    HW222266   0.356   4.543   6.333 -0.3349  1.4306  0.3350
 3544SOL     OW22267   4.281   2.911   4.844 -0.3020  0.0472 -0.5061
 3544SOL    HW122268   4.197   2.944   4.813  0.7978  2.5828 -0.8071
 3544SOL    HW222269   4.252   2.882   4.930  0.8297 -1.2264 -0.5693
 3545SOL     OW22270   3.738   0.838   7.561  0.0568  0.1671 -0.3163
 3545SOL    HW122271   3.674   0.839   7.490  1.7964  3.9178 -1.7810
 3545SOL    HW222272   3.743   0.932   7.580 -2.5505  0.1572  0.4577
 3546SOL     OW22273   4.655   3.191   2.375  0.4772 -0.3085  0.1900
 3546SOL    HW122274   4.572   3.213   2.417  0.0988 -1.9368  0.2976
 3546SOL    HW222275   4.660   3.099   2.403  1.4116  0.4128  2.3817
 3547SOL     OW22276   1.357   3.722   2.182 -0.0427 -0.1537  0.0409
 3547SOL    HW122277   1.331   3.700   2.092 -1.3511 -0.8172  0.5834
 3547SOL    HW222278   1.369   3.817   2.172 -3.9524  0.3836  0.6497
 3548SOL     OW22279   3.819   2.390   2.673 -0.4305 -0.0743  0.5805
 3548SOL    HW122280   3.894   2.332   2.682 -0.1447  0.1285 -0.5407
 3548SOL    HW222281   3.843   2.468   2.623 -2.2059  1.6201  2.3590
 3549SOL     OW22282   4.586   3.315   2.036  0.7176  0.5645  0.0333
 3549SOL    HW122283   4.540   3.366   2.103 -1.0217  0.4076 -1.0363
 3549SOL    HW222284   4.561   3.226   2.061 -1.1066  0.9572 -0.3815
 3550SOL     OW22285   0.459   3.712   7.681 -0.2103 -0.1525 -0.7805
 3550SOL    HW122286   0.527   3.647   7.700 -1.6818 -1.4041  0.2392
 3550SOL    HW222287   0.517   3.786   7.696 -1.4573  0.8891 -1.1651
 3551SOL     OW22288   0.508   0.723   8.166 -0.4880  0.5028 -0.1237
 3551SOL    HW122289   0.508   0.639   8.118 -1.7120 -0.1571  1.0493
 3551SOL    HW222290   0.595   0.711   8.205  0.1164 -0.9986 -1.9242
 3552SOL     OW22291   0.960   1.015   2.373 -0.4884 -0.0726  0.0468
 3552SOL    HW122292   0.975   0.952   2.443  2.5488  1.6485  0.9674
 3552SOL    HW222293   0.925   0.956   2.307 -1.2139  0.7463 -0.3034
 3553SOL     OW22294   2.400   0.957   4.024 -1.2049 -0.1261 -0.3650
 3553SOL    HW122295   2.341   1.013   3.973  2.6519  3.1700 -1.2185
 3553SOL    HW222296   2.417   0.889   3.960 -0.5375 -1.4839  1.2556
 3554SOL     OW22297   2.846   2.243   8.158  0.1648  0.3038 -0.1455
 3554SOL    HW122298   2.896   2.202   8.228 -0.8579  0.7424  0.8276
 3554SOL    HW222299   2.754   2.249   8.185  0.3525 -1.0562  0.7902
 3555SOL     OW22300   4.167   2.613   9.744  0.4590  0.6261 -0.0224
 3555SOL    HW122301   4.170   2.706   9.768  0.5854  0.4335  0.7024
 3555SOL    HW222302   4.210   2.572   9.819 -0.5482  0.3908  0.4234
 3556SOL     OW22303   3.165   0.173  13.629  0.1808  0.0413 -0.4846
 3556SOL    HW122304   3.177   0.153  13.536  0.1107 -1.7205 -0.0992
 3556SOL    HW222305   3.239   0.140  13.680  0.1078 -0.8589 -0.9599
 3557SOL     OW22306   2.030   0.168   4.956 -0.2080 -0.7579 -0.3839
 3557SOL    HW122307   2.047   0.173   5.050 -0.3522 -0.5708 -0.3661
 3557SOL    HW222308   2.115   0.197   4.923 -1.3259  3.2611  0.2060
 3558SOL     OW22309   1.284   4.696   7.127  0.2100  0.2697 -0.2240
 3558SOL    HW122310   1.221   4.733   7.189 -0.9032 -0.1404 -1.1323
 3558SOL    HW222311   1.244   4.705   7.041  1.0936  0.3258 -0.6247
 3559SOL     OW22312   1.014   1.963   0.644 -0.1139 -0.1403  0.1574
 3559SOL    HW122313   0.937   2.018   0.659  0.4156  0.7533 -0.3722
 3559SOL    HW222314   0.999   1.875   0.677 -1.6670 -0.1003 -0.4380
 3560SOL     OW22315   4.717   1.847   7.568  0.2894  0.3984  0.1172
 3560SOL    HW122316   0.063   1.877   7.534  0.0149  2.0663  0.8734
 3560SOL    HW222317   4.704   1.770   7.513  0.5550 -0.3692  1.1180
 3561SOL     OW22318   2.674   1.923  12.385  0.6296 -0.0832  0.4419
 3561SOL    HW122319   2.718   1.876  12.314  0.5150  1.1900 -0.4701
 3561SOL    HW222320   2.611   1.967  12.327 -0.2637 -3.2024 -0.9727
 3562SOL     OW22321   0.835   2.138   5.086 -0.2394  0.3593 -0.6179
 3562SOL    HW122322   0.797   2.217   5.124 -0.4254 -0.3258  0.6041
 3562SOL    HW222323   0.913   2.183   5.055 -1.1127  2.2662  0.0021
 3563SOL     OW22324   1.480   0.265   2.824 -0.1933 -0.3035  0.2403
 3563SOL    HW122325   1.547   0.313   2.872 -2.2404  3.1875 -0.4292
 3563SOL    HW222326   1.423   0.342   2.816 -2.2703 -1.9404 -0.9987
 3564SOL     OW22327   4.692   1.877   3.799 -0.0213  0.4872  0.6495
 3564SOL    HW122328   4.672   1.930   3.876 -1.1900  0.6675  0.2081
 3564SOL    HW222329   4.611   1.878   3.749  0.7142  0.1559 -0.5458
 3565SOL     OW22330   3.996   2.720   6.927  0.3307 -0.2053 -0.1301
 3565SOL    HW122331   3.970   2.787   6.864 -0.5742  1.1597  1.6593
 3565SOL    HW222332   4.077   2.692   6.886  0.2519  1.4176 -1.3733
 3566SOL     OW22333   2.894   1.963   2.295 -0.2404  0.1778  0.1122
 3566SOL    HW122334   2.847   1.953   2.378 -1.4774  0.2497 -0.5655
 3566SOL    HW222335   2.966   2.023   2.312  0.0950  0.8124 -3.5213
 3567SOL     OW22336   3.650   0.197   2.431  0.3186  0.0595  0.0881
 3567SOL    HW122337   3.716   0.164   2.370  1.3267  1.3242  0.4837
 3567SOL    HW222338   3.573   0.203   2.373  0.8242 -0.1327 -0.6044
 3568SOL     OW22339   0.200   2.913   8.214 -0.0871  0.2800 -0.0976
 3568SOL    HW122340   0.189   2.999   8.255 -2.3419  0.1110 -0.3643
 3568SOL    HW222341   0.113   2.873   8.212  0.1337 -0.1438 -1.0492
 3569SOL     OW22342   4.031   3.211   5.347 -0.2491 -0.0296 -0.0050
 3569SOL    HW122343   3.961   3.155   5.381  0.1767 -0.1854  0.6183
 3569SOL    HW222344   4.070   3.157   5.279 -0.9607 -1.4888  0.7339
 3570SOL     OW22345   2.020   1.017   4.856  0.1081 -0.1139  0.4717
 3570SOL    HW122346   2.092   1.080   4.851 -0.3147  0.3031 -0.5507
 3570SOL    HW222347   2.074   0.940   4.872  0.7311  0.4051  0.8408
 3571SOL     OW22348   4.386   0.117   8.212  0.1614  0.0612 -0.1966
 3571SOL    HW122349   4.360   0.059   8.140  0.1374  0.4886 -0.5381
 3571SOL    HW222350   4.369   0.058   8.286  0.9567  0.3150  0.1821
 3572SOL     OW22351   0.341   2.051  10.203 -0.7124  0.1347 -0.4122
 3572SOL    HW122352   0.261   2.011  10.170 -1.0589  0.6316 -0.1748
 3572SOL    HW222353   0.318   2.086  10.289 -0.6599  1.9335 -1.1237
 3573SOL     OW22354   3.652   0.786   9.609  0.7878 -0.1774  0.3650
 3573SOL    HW122355   3.737   0.828   9.602 -0.4095  2.2067  0.2658
 3573SOL    HW222356   3.683   0.699   9.636 -0.1035 -0.7291 -0.3735
 3574SOL     OW22357   0.746   3.201   6.072  0.3381 -0.5903  0.1667
 3574SOL    HW122358   0.764   3.294   6.060  0.4707 -0.5592  0.6081
 3574SOL    HW222359   0.710   3.170   5.989 -3.1085  0.5237  1.2535
 3575SOL     OW22360   3.236   1.162   2.554  0.4194  0.0076 -0.3313
 3575SOL    HW122361   3.282   1.191   2.632  1.2751 -2.1182 -0.0622
 3575SOL    HW222362   3.251   1.067   2.555  0.2982 -0.0602 -3.5616
 3576SOL     OW22363   2.478   0.946  12.767 -0.0998  0.3676  0.4726
 3576SOL    HW122364   2.573   0.937  12.755 -0.3080 -1.6729  0.3365
 3576SOL    HW222365   2.466   0.909  12.855  1.4154 -0.3374  0.3935
 3577SOL     OW22366   4.469   3.831   2.962 -0.4986 -0.2770  0.3113
 3577SOL    HW122367   4.523   3.901   2.924  0.2730 -1.7294 -1.2846
 3577SOL    HW222368   4.508   3.750   2.930  1.1544 -0.3511  2.5013
 3578SOL     OW22369   2.306   2.119   2.546  0.1699 -0.1193  0.1962
 3578SOL    HW122370   2.229   2.157   2.588  1.6466  0.6667  2.2388
 3578SOL    HW222371   2.305   2.031   2.585  1.1313 -0.2741 -0.1395
 3579SOL     OW22372   3.542   0.267   6.866 -0.9161  0.2957  0.1817
 3579SOL    HW122373   3.500   0.266   6.780  2.5536  1.1259 -1.5281
 3579SOL    HW222374   3.587   0.184   6.852 -0.3421  1.0814 -2.7493
 3580SOL     OW22375   1.468   1.733   6.470  0.1489  0.2655 -0.1475
 3580SOL    HW122376   1.505   1.756   6.385  0.0608 -0.2866 -0.3366
 3580SOL    HW222377   1.542   1.749   6.528  0.4946  1.7031 -0.9666
 3581SOL     OW22378   4.505   0.510   4.746 -0.0905 -0.0972 -0.4094
 3581SOL    HW122379   4.594   0.476   4.746  0.6687  1.9025  0.0409
 3581SOL    HW222380   4.468   0.456   4.815  0.0426  0.8758  0.4174
 3582SOL     OW22381   0.820   3.758   5.826  0.5282  0.1845 -0.8312
 3582SOL    HW122382   0.882   3.686   5.821  1.9942  1.3378  0.8611
 3582SOL    HW222383   0.848   3.795   5.910  0.6974 -1.7615 -0.0400
 3583SOL     OW22384   4.590   3.476  10.406 -0.2779 -0.2629 -0.3987
 3583SOL    HW122385   4.556   3.546  10.462 -1.8056  1.1581 -3.1079
 3583SOL    HW222386   4.602   3.523  10.324 -0.2343  1.9774  0.8737
 3584SOL     OW22387   0.080   4.283  12.843 -0.1107  0.5833 -0.2363
 3584SOL    HW122388   0.110   4.229  12.770  0.7385  1.3950 -0.4951
 3584SOL    HW222389   4.724   4.268  12.835 -0.5731  2.6539  1.3346
 3585SOL     OW22390   0.548   2.988   7.577 -0.0573  0.3195  0.0832
 3585SOL    HW122391   0.493   2.924   7.531  0.8976 -1.3858  1.3351
 3585SOL    HW222392   0.633   2.956   7.545 -0.0028 -0.1270  0.6754
 3586SOL     OW22393   3.095   1.647   7.345 -0.7040  0.1531  0.5393
 3586SOL    HW122394   3.157   1.685   7.407 -0.3977 -1.2474  1.0911
 3586SOL    HW222395   3.114   1.554   7.363  1.8052  0.8808  1.7015
 3587SOL     OW22396   2.730   2.873   0.263 -0.1836 -0.4140 -0.2846
 3587SOL    HW122397   2.753   2.786   0.296  1.1020 -0.0350 -0.1814
 3587SOL    HW222398   2.699   2.907   0.347  0.0623  0.8657 -0.7226
 3588SOL     OW22399   3.427   1.192   1.333 -0.3760  0.1429  0.1173
 3588SOL    HW122400   3.368   1.150   1.270  0.3071 -2.0469  0.9318
 3588SOL    HW222401   3.508   1.212   1.286 -0.2395  1.1965  0.8162
 3589SOL     OW22402   4.294   3.784   6.852  0.3178  0.4108 -0.2828
 3589SOL    HW122403   4.354   3.716   6.885 -0.6975 -0.6451 -0.5969
 3589SOL    HW222404   4.262   3.809   6.939 -1.0448 -1.3143 -0.2926
 3590SOL     OW22405   1.860   3.781   3.868  0.2535 -0.0073 -0.1863
 3590SOL    HW122406   1.835   3.693   3.838  0.9810  0.3497 -1.7956
 3590SOL    HW222407   1.793   3.798   3.935  0.9476 -0.2631  0.5769
 3591SOL     OW22408   2.980   2.222   3.062  0.1767  0.2811  0.6226
 3591SOL    HW122409   3.028   2.202   2.982  0.8070  2.8700  0.3594
 3591SOL    HW222410   3.046   2.257   3.121 -0.4061  0.5820  1.1060
 3592SOL     OW22411   4.179   0.897  11.211  0.3680 -0.2357 -0.1748
 3592SOL    HW122412   4.244   0.827  11.201  0.5402 -0.0718 -0.2093
 3592SOL    HW222413   4.162   0.926  11.121 -0.0643  0.0926  0.0166
 3593SOL     OW22414   1.745   2.013  14.500  0.1566 -0.2287  0.3211
 3593SOL    HW122415   1.818   1.979  14.552 -0.7651 -1.7613  0.6251
 3593SOL    HW222416   1.672   1.982  14.554 -1.2404 -1.2476 -2.1743
 3594SOL     OW22417   4.117   1.756   8.774 -0.5604  0.0261  0.0718
 3594SOL    HW122418   4.022   1.765   8.763 -0.5275 -1.2753 -1.1466
 3594SOL    HW222419   4.133   1.816   8.848  0.4981  0.0480 -0.1709
 3595SOL     OW22420   2.737   3.310   1.747 -0.0342  0.2069  0.2590
 3595SOL    HW122421   2.671   3.243   1.768  0.2070 -1.0524 -2.9209
 3595SOL    HW222422   2.798   3.311   1.821  2.1587  2.4262 -1.6036
 3596SOL     OW22423   2.642   1.032  11.757  0.4695 -0.6414 -0.2711
 3596SOL    HW122424   2.593   1.115  11.754 -0.7937 -1.4420 -2.1396
 3596SOL    HW222425   2.728   1.070  11.740  1.2043 -1.5219  1.4470
 3597SOL     OW22426   4.608   3.858   6.362 -0.3881  0.2552  0.0963
 3597SOL    HW122427   4.647   3.885   6.445 -1.9630  2.0018  0.2628
 3597SOL    HW222428   4.519   3.885   6.383 -2.2187 -3.6847 -2.5913
 3598SOL     OW22429   3.123   3.275   7.854  0.1683  0.1907  0.1018
 3598SOL    HW122430   3.175   3.349   7.884  0.5277  0.5516 -1.4153
 3598SOL    HW222431   3.073   3.237   7.926  1.3700  0.1861  0.9410
 3599SOL     OW22432   3.468   3.938   6.186  0.0361  0.0172  0.7161
 3599SOL    HW122433   3.531   3.954   6.257 -0.4983 -1.8440  1.5962
 3599SOL    HW222434   3.530   3.889   6.131 -0.9034 -1.6365  1.1355
 3600SOL     OW22435   1.539   4.594   5.770 -0.8463 -0.5846  0.0069
 3600SOL    HW122436   1.616   4.632   5.812  0.2715  0.2261 -2.7529
 3600SOL    HW222437   1.545   4.510   5.815 -0.4946 -0.1239  0.8252
 3601SOL     OW22438   1.865   1.342   5.163 -0.3120 -0.2999 -0.0777
 3601SOL    HW122439   1.830   1.261   5.199  1.6996 -1.0483  0.1871
 3601SOL    HW222440   1.959   1.323   5.165 -0.0332  1.1966  1.2245
 3602SOL     OW22441   3.730   2.584   7.362 -0.1482 -0.1672  0.2903
 3602SOL    HW122442   3.767   2.504   7.325 -0.5738 -0.2307  0.0028
 3602SOL    HW222443   3.641   2.579   7.327  0.3587  0.3215 -1.0579
 3603SOL     OW22444   3.680   3.982   6.373 -0.2619  0.1051  0.5233
 3603SOL    HW122445   3.749   3.973   6.307 -0.4909 -0.8689  0.4155
 3603SOL    HW222446   3.711   4.058   6.423  1.0695  0.7194 -1.2171
 3604SOL     OW22447   3.192   3.378   3.401 -0.2370  0.2864 -0.1341
 3604SOL    HW122448   3.159   3.296   3.439  2.9601 -0.5798  0.7899
 3604SOL    HW222449   3.247   3.351   3.328 -1.0716  0.5732 -0.8741
 3605SOL     OW22450   3.035   4.195   5.813  0.3448 -0.2914 -0.5411
 3605SOL    HW122451   3.082   4.140   5.876 -1.3476 -0.2339  0.8015
 3605SOL    HW222452   2.998   4.130   5.753  0.0318  1.1223 -1.8783
 3606SOL     OW22453   0.352   3.816  11.410  0.0398 -0.4272 -0.1063
 3606SOL    HW122454   0.356   3.816  11.314 -2.8525 -1.2374 -0.2219
 3606SOL    HW222455   0.273   3.763  11.408  1.1244 -2.0671  0.3534
 3607SOL     OW22456   2.658   1.960  13.362 -0.3616 -0.7614  0.2208
 3607SOL    HW122457   2.681   1.909  13.439  0.7451 -0.7877 -0.1199
 3607SOL    HW222458   2.730   1.936  13.303 -2.3574 -1.3927 -1.9712
 3608SOL     OW22459   0.294   4.284   6.583  0.1200 -0.2940 -0.4771
 3608SOL    HW122460   0.332   4.280   6.496  1.8621  1.4513  0.2033
 3608SOL    HW222461   0.230   4.354   6.568 -0.1305 -0.7993 -1.7874
 3609SOL     OW22462   0.691   2.312   5.909 -0.5087 -0.0433 -0.3444
 3609SOL    HW122463   0.649   2.313   5.823 -1.1862  0.8626 -0.0023
 3609SOL    HW222464   0.759   2.379   5.904 -0.0039 -0.6782 -2.0113
 3610SOL     OW22465   3.006   0.265   3.889 -0.2051 -0.2669  0.5224
 3610SOL    HW122466   3.050   0.229   3.813 -0.1160  1.0417 -0.0534
 3610SOL    HW222467   2.959   0.188   3.921 -1.5411 -0.5104 -2.0568
 3611SOL     OW22468   2.348   3.401  12.453 -0.1225  0.5454  0.0857
 3611SOL    HW122469   2.434   3.361  12.454  0.0660  0.9549  0.0231
 3611SOL    HW222470   2.368   3.495  12.447 -0.5672  0.5619 -1.0363
 3612SOL     OW22471   2.136   1.033   3.954  0.3338  0.6086 -0.1986
 3612SOL    HW122472   2.121   1.051   4.047 -0.3729 -0.1712 -0.1673
 3612SOL    HW222473   2.182   1.115   3.934 -1.2700  1.0347 -2.0885
 3613SOL     OW22474   0.953   2.064  13.376  0.2409  0.5048  0.1535
 3613SOL    HW122475   1.006   2.122  13.321 -1.4104  0.5227 -1.4421
 3613SOL    HW222476   1.009   1.987  13.386 -0.3492  0.1508  0.7622
 3614SOL     OW22477   3.390   3.777  16.766  0.8375  0.4671  0.0803
 3614SOL    HW122478   3.424   3.702  16.814 -0.5212  0.6850  1.3970
 3614SOL    HW222479   3.434   3.843  16.819  1.1812  1.3687 -1.3388
 3615SOL     OW22480   1.084   3.622  11.073 -0.8288  0.1733 -0.1174
 3615SOL    HW122481   1.108   3.530  11.075 -0.9848  0.1344 -0.0446
 3615SOL    HW222482   1.142   3.642  11.000 -0.6102  2.4529  0.6710
 3616SOL     OW22483   3.744   3.807  16.758  0.1957  0.2824  0.1854
 3616SOL    HW122484   3.711   3.825  16.670  1.4726 -3.8168 -1.1149
 3616SOL    HW222485   3.678   3.863  16.800  0.8565  1.9555 -1.0017
 3617SOL     OW22486   2.071   1.807  17.125 -0.1280 -0.7162 -0.3630
 3617SOL    HW122487   2.145   1.828  17.182  0.2062  0.0267 -1.0614
 3617SOL    HW222488   2.092   1.718  17.098 -1.2109 -1.8595  2.5974
 3618SOL     OW22489   1.807   2.424   2.478 -0.3266 -0.8509  0.4012
 3618SOL    HW122490   1.779   2.353   2.420 -3.4541  0.9743 -0.3083
 3618SOL    HW222491   1.754   2.496   2.445  0.3893 -0.6483 -0.3010
 3619SOL     OW22492   2.589   0.229   4.733  0.3579  0.1020 -0.0370
 3619SOL    HW122493   2.667   0.271   4.771 -1.3157  2.5641  0.6514
 3619SOL    HW222494   2.590   0.146   4.782 -0.7895  0.0438 -0.1204
 3620SOL     OW22495   3.993   0.969   4.802 -0.0715 -0.1081 -0.2084
 3620SOL    HW122496   3.922   0.929   4.852 -0.5042  0.5123 -0.3342
 3620SOL    HW222497   4.003   1.048   4.855  1.4259  0.6865 -1.6816
 3621SOL     OW22498   4.512   0.581   1.765 -0.2319 -0.8036 -0.2210
 3621SOL    HW122499   4.418   0.597   1.772  0.5815  2.2365  3.4391
 3621SOL    HW222500   4.542   0.671   1.765 -2.9312  0.0832 -0.7519
 3622SOL     OW22501   3.056   2.870   2.913 -0.0064  0.1720  0.2346
 3622SOL    HW122502   3.086   2.950   2.956 -2.3531  0.2309  1.7682
 3622SOL    HW222503   3.121   2.863   2.843 -0.0593  2.6148 -0.0603
 3623SOL     OW22504   3.582   1.385   2.831  0.1162  0.2430 -0.1995
 3623SOL    HW122505   3.584   1.479   2.851 -0.5050  0.0355  0.8303
 3623SOL    HW222506   3.573   1.352   2.920  0.5329  0.2476 -0.1591
 3624SOL     OW22507   1.980   0.089   7.653  0.3529 -0.2328  0.1358
 3624SOL    HW122508   1.902   0.034   7.650  0.9565 -1.1845  1.4877
 3624SOL    HW222509   1.937   0.173   7.673  0.0505 -0.2752 -0.3452
 3625SOL     OW22510   0.432   0.967   1.126 -0.1114  0.1868  0.3545
 3625SOL    HW122511   0.420   0.872   1.122 -0.2012  0.2592 -1.0846
 3625SOL    HW222512   0.370   0.995   1.058  1.5664  0.3604 -1.1181
 3626SOL     OW22513   0.479   0.184   3.470 -0.3165 -0.2244 -0.1677
 3626SOL    HW122514   0.564   0.158   3.434 -0.1356  0.5947 -0.3395
 3626SOL    HW222515   0.482   0.280   3.476  3.8132 -0.3690  0.0690
 3627SOL     OW22516   4.676   1.900   0.415 -0.1115  0.5591  0.8758
 3627SOL    HW122517   4.603   1.927   0.359  1.2276  1.4029 -0.4715
 3627SOL    HW222518   4.668   1.809   0.385 -0.4330  0.7203  0.4659
 3628SOL     OW22519   1.870   1.418   9.099 -0.3897  0.2792  0.3483
 3628SOL    HW122520   1.863   1.353   9.029 -0.2003  1.1007 -0.4279
 3628SOL    HW222521   1.777   1.438   9.110  0.1352  1.0694  3.2021
 3629SOL     OW22522   0.757   2.680   8.786 -0.6936  0.2905  0.6906
 3629SOL    HW122523   0.836   2.632   8.810  0.4414  1.2080 -1.1982
 3629SOL    HW222524   0.793   2.762   8.752 -0.4206  0.8220  2.2944
 3630SOL     OW22525   4.294   0.093   2.742 -0.8109  0.0639  0.0229
 3630SOL    HW122526   4.319   0.185   2.730 -0.2097  0.0675  1.2851
 3630SOL    HW222527   4.273   0.103   2.835 -1.5216 -3.0708  0.1836
 3631SOL     OW22528   1.374   1.475   8.172 -0.3991 -0.1600 -0.3244
 3631SOL    HW122529   1.410   1.533   8.239  1.0138 -0.5407 -0.7658
 3631SOL    HW222530   1.326   1.409   8.222  0.6899 -1.2182 -0.6833
 3632SOL     OW22531   0.712   3.126   5.203 -0.1292  0.0465  1.2936
 3632SOL    HW122532   0.753   3.139   5.289 -1.2582  0.2798  1.7898
 3632SOL    HW222533   0.779   3.146   5.138 -1.2029  0.6214  0.3757
 3633SOL     OW22534   0.947   2.716   5.368  0.1408  0.3609  0.2666
 3633SOL    HW122535   0.864   2.712   5.321  1.5071  1.1432 -2.1638
 3633SOL    HW222536   0.971   2.804   5.340  0.0897  0.8088  1.6092
 3634SOL     OW22537   1.240   3.845   1.624 -0.2529 -0.4547 -0.0898
 3634SOL    HW122538   1.178   3.773   1.612 -1.3828  0.2138  1.6489
 3634SOL    HW222539   1.313   3.816   1.570 -0.8892 -2.9141  0.3569
 3635SOL     OW22540   1.452   4.550   6.199 -0.0926  0.4488  0.2087
 3635SOL    HW122541   1.441   4.614   6.129  0.6906 -0.3968 -0.6857
 3635SOL    HW222542   1.396   4.474   6.180 -0.2751 -0.0625  2.7914
 3636SOL     OW22543   0.356   0.188   1.703  0.4006 -0.0194 -0.2796
 3636SOL    HW122544   0.265   0.203   1.679  1.2738  0.4314 -3.2230
 3636SOL    HW222545   0.368   0.108   1.652 -1.4299  0.4388 -1.3852
 3637SOL     OW22546   4.663   2.808   2.088 -0.7029 -0.2522  0.4645
 3637SOL    HW122547   4.603   2.736   2.105 -1.4308 -0.0846 -1.3934
 3637SOL    HW222548   4.624   2.831   2.004  2.1792 -1.2230 -1.1623
 3638SOL     OW22549   3.271   1.172   2.926  0.0654 -0.5295  0.1592
 3638SOL    HW122550   3.336   1.139   2.864 -1.9791 -2.1766 -1.1374
 3638SOL    HW222551   3.269   1.264   2.900  0.1664 -0.4724  0.3530
 3639SOL     OW22552   0.582   4.447   5.743 -0.0910  0.3596 -0.4648
 3639SOL    HW122553   0.641   4.463   5.670  0.7868  0.5911  0.2984
 3639SOL    HW222554   0.658   4.434   5.800  0.3094  3.1913 -0.3563
 3640SOL     OW22555   0.160   3.621   9.082  0.2184  0.5678  0.4189
 3640SOL    HW122556   0.116   3.672   9.013  2.2908 -0.5645 -1.7633
 3640SOL    HW222557   0.178   3.692   9.143  2.0508 -0.1610  0.7242
 3641SOL     OW22558   0.782   1.847  14.738  0.2024  0.4661  0.0484
 3641SOL    HW122559   0.707   1.834  14.796 -0.2641  0.7366 -0.4993
 3641SOL    HW222560   0.733   1.846  14.656 -0.2523  0.8387  0.3116
 3642SOL     OW22561   0.311   4.023  15.394  0.1654  0.1314 -0.5431
 3642SOL    HW122562   0.403   4.042  15.372  0.2857  1.0416  0.7215
 3642SOL    HW222563   0.272   4.110  15.405  0.7480  0.4151 -0.6590
 3643SOL     OW22564   3.689   1.050  14.880  0.7616  0.0218 -0.0355
 3643SOL    HW122565   3.756   1.034  14.814  0.0661 -1.7994 -0.2807
 3643SOL    HW222566   3.647   0.965  14.894  1.2724 -0.1836  0.2484
 3644SOL     OW22567   0.983   1.632  16.993 -0.4073 -0.1935  0.2794
 3644SOL    HW122568   0.901   1.617  17.041  0.0659  0.1653  1.2053
 3644SOL    HW222569   1.047   1.597  17.055 -1.7541  0.4630  2.0295
 3645SOL     OW22570   4.698   2.673   7.010  0.1169  0.1591  0.0413
 3645SOL    HW122571   4.731   2.591   7.048 -1.7103 -0.2378  0.7738
 3645SOL    HW222572   4.728   2.674   6.920 -0.7636  2.8327 -0.1912
 3646SOL     OW22573   0.211   0.104   5.536 -0.3430  0.2851 -0.1397
 3646SOL    HW122574   0.242   0.019   5.568  0.0887 -0.0207 -1.3505
 3646SOL    HW222575   0.156   0.072   5.464 -1.4253  0.7154  0.5015
 3647SOL     OW22576   0.835   2.997  10.794 -0.4402  0.5403  0.1228
 3647SOL    HW122577   0.855   3.090  10.787  2.3797 -0.0938 -0.3003
 3647SOL    HW222578   0.844   2.984  10.889 -3.1802 -1.2346  0.1390
 3648SOL     OW22579   3.952   4.159  10.096 -0.0696 -0.2098  0.0924
 3648SOL    HW122580   3.910   4.139  10.012  1.4251 -1.4828 -0.3402
 3648SOL    HW222581   4.046   4.164  10.082 -0.3595 -0.6403 -2.0153
 3649SOL     OW22582   1.016   2.870   4.509  0.3350 -0.7148  0.1744
 3649SOL    HW122583   0.981   2.781   4.514  1.2174 -1.0648 -0.0261
 3649SOL    HW222584   1.073   2.853   4.434 -1.5818  3.3463 -2.2052
 3650SOL     OW22585   4.460   2.667  13.626  0.5018 -0.2040  0.8070
 3650SOL    HW122586   4.487   2.745  13.676  3.5214 -0.0447 -1.1308
 3650SOL    HW222587   4.373   2.698  13.599  0.6741 -0.7997 -0.3914
 3651SOL     OW22588   3.687   2.536   9.346  0.0287  0.1551 -0.0348
 3651SOL    HW122589   3.690   2.582   9.430  1.1438  1.0929 -0.5979
 3651SOL    HW222590   3.597   2.502   9.349  0.6799 -1.6326 -0.6058
 3652SOL     OW22591   3.327   3.318   5.235  0.0662  0.2633  0.2366
 3652SOL    HW122592   3.318   3.227   5.262  1.5223 -0.5122 -1.8743
 3652SOL    HW222593   3.236   3.333   5.207  1.1486 -1.2515 -4.1181
 3653SOL     OW22594   2.108   1.545   1.113 -0.1045 -0.3222 -0.5952
 3653SOL    HW122595   2.186   1.592   1.142 -0.5003  0.3466 -0.6247
 3653SOL    HW222596   2.047   1.619   1.123 -0.7719 -0.8366 -0.8522
 3654SOL     OW22597   1.139   1.785   3.293 -0.0544 -0.2243  0.3541
 3654SOL    HW122598   1.141   1.692   3.270 -2.1772 -0.5320  1.3556
 3654SOL    HW222599   1.232   1.806   3.299  0.1500 -0.7042 -1.1537
 3655SOL     OW22600   3.109   3.856   5.874 -0.1081  0.1656 -0.2952
 3655SOL    HW122601   3.188   3.805   5.888  0.0851  0.8093  0.9256
 3655SOL    HW222602   3.120   3.929   5.935  3.3250 -0.0040 -0.7056
 3656SOL     OW22603   1.740   0.030  11.801  0.0492  0.5502 -0.1059
 3656SOL    HW122604   1.781   0.082  11.871 -0.2924 -0.1069  0.5893
 3656SOL    HW222605   1.651   0.024  11.835 -0.2070 -3.0405 -1.4021
 3657SOL     OW22606   4.271   2.200  14.269 -0.7631  0.2006  0.2109
 3657SOL    HW122607   4.300   2.280  14.225 -0.3221  0.1220  0.3581
 3657SOL    HW222608   4.209   2.233  14.334  0.5332  2.9687  0.0442
 3658SOL     OW22609   3.044   3.045  14.070  0.3265 -0.7084  0.2433
 3658SOL    HW122610   2.995   3.005  13.998  0.4714 -3.8111  1.8340
 3658SOL    HW222611   2.989   3.118  14.096 -1.0822 -2.3161  1.7423
 3659SOL     OW22612   2.837   2.599   1.765  0.0134  0.2147 -0.5337
 3659SOL    HW122613   2.855   2.505   1.775  1.7245  0.9893  3.5128
 3659SOL    HW222614   2.912   2.640   1.722 -0.2922 -1.8231 -3.0321
 3660SOL     OW22615   3.120   3.795   0.472 -0.4150  0.3185  0.1292
 3660SOL    HW122616   3.118   3.700   0.487  0.6674  0.3854  0.6842
 3660SOL    HW222617   3.145   3.795   0.380 -0.0419  0.1906  0.2299
 3661SOL     OW22618   0.556   1.329   6.759  0.3531 -0.7281  0.0604
 3661SOL    HW122619   0.483   1.385   6.732 -0.0550 -0.3042  2.0407
 3661SOL    HW222620   0.586   1.301   6.672 -0.3191  0.5471 -0.5897
 3662SOL     OW22621   1.242   1.673   4.957  0.7689 -0.3201  0.1941
 3662SOL    HW122622   1.167   1.617   4.939  0.4602  0.5112 -1.0747
 3662SOL    HW222623   1.313   1.618   4.991 -0.6126 -0.5131  2.7451
 3663SOL     OW22624   2.861   0.453  15.859  0.8101 -0.2344  0.1622
 3663SOL    HW122625   2.869   0.422  15.769  0.5880 -0.3998  0.1987
 3663SOL    HW222626   2.802   0.387  15.896 -2.6890  1.7506 -1.9031
 3664SOL     OW22627   2.245   1.252   6.269 -0.2811 -0.4566  0.3276
 3664SOL    HW122628   2.206   1.167   6.284  0.4429 -1.0065 -0.8641
 3664SOL    HW222629   2.322   1.235   6.322 -0.9204 -1.0957  1.0542
 3665SOL     OW22630   4.423   0.622  12.972 -0.5218  0.7025  0.2618
 3665SOL    HW122631   4.508   0.591  12.941 -2.2501 -1.2333 -2.5470
 3665SOL    HW222632   4.440   0.621  13.067  1.9982  0.4095 -0.1993
 3666SOL     OW22633   0.324   4.571   5.566 -0.1751  0.3615 -0.6629
 3666SOL    HW122634   0.324   4.481   5.534 -1.1887  0.1038  0.0500
 3666SOL    HW222635   0.401   4.604   5.520 -0.8216  2.0111 -0.5623
 3667SOL     OW22636   3.225   3.841   6.676 -0.3254 -0.0836  0.1007
 3667SOL    HW122637   3.207   3.860   6.583  1.2186 -0.8816 -0.3645
 3667SOL    HW222638   3.221   3.746   6.680 -0.0278  0.0254  2.6788
 3668SOL     OW22639   2.295   2.551  14.409  0.0611  0.0122 -0.0472
 3668SOL    HW122640   2.268   2.514  14.493  2.1780  1.5048  1.2783
 3668SOL    HW222641   2.245   2.633  14.406 -0.3284 -0.1627  1.8532
 3669SOL     OW22642   1.781   4.260   6.765  0.3925  0.0879 -0.4199
 3669SOL    HW122643   1.762   4.345   6.725 -2.2126 -0.3190 -0.0550
 3669SOL    HW222644   1.865   4.237   6.726  0.6940  0.0870  0.2179
 3670SOL     OW22645   3.784   3.973   3.208  0.6983 -0.2340 -0.2390
 3670SOL    HW122646   3.851   4.029   3.248 -0.7029 -0.2097  2.0427
 3670SOL    HW222647   3.801   3.973   3.114  1.3234 -0.1070 -0.1267
 3671SOL     OW22648   4.175   3.373   7.714 -0.1096 -0.5081 -0.0324
 3671SOL    HW122649   4.131   3.288   7.723  0.0650 -0.4983  0.8679
 3671SOL    HW222650   4.158   3.392   7.622 -0.4353 -0.1626  0.1018
 3672SOL     OW22651   0.054   4.442   6.125 -0.0858 -0.0825 -0.0265
 3672SOL    HW122652   0.032   4.501   6.053  2.3244  2.4689  1.3431
 3672SOL    HW222653   0.064   4.364   6.070  0.6035  0.3408 -0.5081
 3673SOL     OW22654   2.188   2.220  13.762  0.2994  0.0791 -0.6883
 3673SOL    HW122655   2.227   2.281  13.824 -1.1590  0.8481 -0.5325
 3673SOL    HW222656   2.133   2.162  13.814  0.9636 -0.8719 -1.0482
 3674SOL     OW22657   0.265   4.728   3.390  0.1118 -0.5832  0.2885
 3674SOL    HW122658   0.300   4.654   3.340 -1.1059 -1.9528  1.4892
 3674SOL    HW222659   0.343   0.045   3.397  0.4163 -1.1209  1.1239
 3675SOL     OW22660   4.531   2.150  16.332  0.1964  0.3782  0.5581
 3675SOL    HW122661   4.518   2.091  16.406 -1.1428 -0.3196 -0.2193
 3675SOL    HW222662   4.446   2.192  16.321  0.4738  0.4540 -1.3471
 3676SOL     OW22663   3.779   2.077   0.990  0.0571  0.3359 -0.3256
 3676SOL    HW122664   3.786   2.004   1.052  0.8716 -0.2386 -1.1040
 3676SOL    HW222665   3.831   2.147   1.029  0.6781 -0.7921  0.8831
 3677SOL     OW22666   2.788   4.611   7.374  0.2671  0.4114 -0.3219
 3677SOL    HW122667   2.701   4.619   7.412  0.8836 -0.4737  1.2981
 3677SOL    HW222668   2.791   4.525   7.331 -1.2408  0.7585 -1.1137
 3678SOL     OW22669   2.015   1.636   1.485  0.7302 -0.1390  0.2617
 3678SOL    HW122670   1.997   1.722   1.524  0.9701  0.7125 -1.4611
 3678SOL    HW222671   2.011   1.669   1.395 -0.9684 -1.4385 -0.1324
 3679SOL     OW22672   0.489   1.802   8.760  0.0683  0.0359  0.2413
 3679SOL    HW122673   0.571   1.759   8.784  0.8616  0.1397 -2.3257
 3679SOL    HW222674   0.470   1.755   8.679  1.4671 -0.7605  0.3708
 3680SOL     OW22675   1.460   1.790   0.113  0.4161 -0.3896 -0.2329
 3680SOL    HW122676   1.405   1.814   0.188 -0.5108 -0.2528 -0.9417
 3680SOL    HW222677   1.520   1.864   0.122 -0.4172  0.6031 -2.6558
 3681SOL     OW22678   2.591   3.455   4.342 -0.1488  0.1518 -0.1009
 3681SOL    HW122679   2.655   3.386   4.327  2.3955  2.0584  2.0269
 3681SOL    HW222680   2.644   3.532   4.365 -0.7825  0.9181 -1.2079
 3682SOL     OW22681   2.921   3.926   3.190  0.3105  0.4619  0.0036
 3682SOL    HW122682   2.961   3.937   3.104 -0.8563 -0.0464 -0.6090
 3682SOL    HW222683   2.827   3.937   3.176  0.1463 -1.2733 -0.2207
 3683SOL     OW22684   3.247   4.489   7.931 -0.2003  0.1534 -0.4436
 3683SOL    HW122685   3.171   4.547   7.935 -0.6454 -0.5705  1.3473
 3683SOL    HW222686   3.310   4.555   7.903 -1.0767  1.1997  0.0571
 3684SOL     OW22687   0.407   1.212   7.253  0.0189 -0.0304  0.5076
 3684SOL    HW122688   0.370   1.125   7.239  1.6944 -0.9619  1.8438
 3684SOL    HW222689   0.443   1.220   7.165  0.1086 -0.5114  0.5017
 3685SOL     OW22690   4.381   0.380   5.355  0.7138  0.4183  0.3320
 3685SOL    HW122691   4.344   0.400   5.441  1.4494  0.6033  0.5981
 3685SOL    HW222692   4.333   0.437   5.295 -3.1722 -3.5988 -0.4494
 3686SOL     OW22693   4.341   1.575   1.677  1.1054 -0.2910 -0.0330
 3686SOL    HW122694   4.271   1.511   1.690  1.6346 -0.5834  1.4163
 3686SOL    HW222695   4.317   1.646   1.736  0.5384  0.7599 -1.5480
 3687SOL     OW22696   1.483   2.612   8.264 -0.1917 -0.3783  0.0852
 3687SOL    HW122697   1.499   2.655   8.348 -2.9100  1.8141 -0.5568
 3687SOL    HW222698   1.517   2.675   8.201  3.0446 -1.3103  0.8803
 3688SOL     OW22699   2.397   4.070   7.116  0.0768  0.3821  0.0482
 3688SOL    HW122700   2.483   4.028   7.110  0.5342  1.0615  1.8155
 3688SOL    HW222701   2.395   4.074   7.212 -0.4515 -0.1400  0.0545
 3689SOL     OW22702   3.727   0.932   6.146  0.5467  0.5310  0.2594
 3689SOL    HW122703   3.818   0.962   6.147  0.3906  1.0296 -1.0502
 3689SOL    HW222704   3.731   0.882   6.227 -0.2986  2.5538  1.5515
 3690SOL     OW22705   2.183   2.676   5.476  0.5537  0.5210  0.9585
 3690SOL    HW122706   2.130   2.755   5.472 -1.3411 -0.8515 -0.6995
 3690SOL    HW222707   2.177   2.638   5.389  0.9729 -2.2855  2.1367
 3691SOL     OW22708   1.247   3.446   9.023 -0.2209 -0.5057 -0.4686
 3691SOL    HW122709   1.230   3.390   8.948  1.3202  0.1139 -1.2820
 3691SOL    HW222710   1.326   3.405   9.059 -1.3496 -0.5894  1.9442
 3692SOL     OW22711   3.851   0.204   6.274 -0.7428 -0.1667 -0.2344
 3692SOL    HW122712   3.861   0.284   6.326 -1.6970 -0.8432  0.9884
 3692SOL    HW222713   3.758   0.183   6.281  0.0297 -2.7964  1.9720
 3693SOL     OW22714   3.388   2.413   2.639 -0.1984 -0.0123  0.5886
 3693SOL    HW122715   3.320   2.480   2.647 -0.2119 -0.1978  1.9672
 3693SOL    HW222716   3.332   2.348   2.598 -0.2438  0.6588 -0.4290
 3694SOL     OW22717   1.218   0.142   9.362  0.3944 -0.4939 -0.5943
 3694SOL    HW122718   1.257   0.222   9.398 -1.2611  0.8638 -1.7913
 3694SOL    HW222719   1.249   0.082   9.429 -0.6709  0.5473  0.8297
 3695SOL     OW22720   4.216   0.143   7.836 -0.2644  0.2958  0.1956
 3695SOL    HW122721   4.264   0.084   7.893  0.3643 -0.3314 -0.9874
 3695SOL    HW222722   4.159   0.075   7.799  0.4490  0.0602 -0.4564
 3696SOL     OW22723   0.742   4.428  10.159  0.2022  0.5271 -0.3049
 3696SOL    HW122724   0.766   4.343  10.196  0.3748  0.7897  0.1832
 3696SOL    HW222725   0.673   4.455  10.220  0.3649 -1.0251  0.5732
 3697SOL     OW22726   4.412   3.155  17.317 -0.0113  0.1921 -0.4842
 3697SOL    HW122727   4.345   3.088  17.300 -1.7223  1.6777  0.4070
 3697SOL    HW222728   4.367   3.231  17.279 -0.3054 -0.1827 -0.8828
 3698SOL     OW22729   2.328   3.840   2.527  0.2951 -0.7174 -0.2793
 3698SOL    HW122730   2.308   3.923   2.484 -0.3972 -1.2290 -0.9471
 3698SOL    HW222731   2.272   3.776   2.482  0.4200 -2.0012  1.4002
 3699SOL     OW22732   0.783   3.187   9.382 -0.2130  0.3330  0.0240
 3699SOL    HW122733   0.746   3.254   9.325  0.8408  0.4833 -0.4661
 3699SOL    HW222734   0.813   3.123   9.318 -1.0515  0.0202 -0.0591
 3700SOL     OW22735   3.128   2.861   6.905  0.3219  0.3048  0.0972
 3700SOL    HW122736   3.133   2.771   6.939  2.4174  0.2143 -0.4116
 3700SOL    HW222737   3.201   2.859   6.842  0.8412 -1.0577  0.7433
 3701SOL     OW22738   2.390   1.724   2.455 -0.2883  0.1344  0.3098
 3701SOL    HW122739   2.424   1.645   2.497 -1.0042 -1.0326 -1.2879
 3701SOL    HW222740   2.445   1.749   2.381 -0.3096  0.5474  0.4357
 3702SOL     OW22741   1.440   0.909   3.733  0.4279  0.7337  0.5172
 3702SOL    HW122742   1.365   0.884   3.786 -1.3421  1.3035 -1.7130
 3702SOL    HW222743   1.415   1.002   3.729 -1.8153  0.1228  0.5766
 3703SOL     OW22744   4.073   3.282   8.724 -0.2173  0.1331 -0.3926
 3703SOL    HW122745   4.094   3.196   8.760  0.2931 -0.2428 -1.5674
 3703SOL    HW222746   4.001   3.262   8.664 -1.7641 -0.3601  1.6390
 3704SOL     OW22747   0.136   0.090   5.039 -0.0588  0.1818 -0.3985
 3704SOL    HW122748   0.166   0.035   5.111  0.4267 -0.1153 -0.8288
 3704SOL    HW222749   0.045   0.059   5.028  0.8234 -2.2426 -1.0010
 3705SOL     OW22750   3.817   2.419   5.540 -0.3258 -0.5438 -0.2120
 3705SOL    HW122751   3.875   2.462   5.603 -0.7586 -0.8492  0.3883
 3705SOL    HW222752   3.740   2.476   5.547  0.7653  0.7485  1.2850
 3706SOL     OW22753   0.457   4.353   8.712  0.0276  0.5238  0.2756
 3706SOL    HW122754   0.442   4.305   8.794 -1.6693  0.0916 -0.2891
 3706SOL    HW222755   0.541   4.391   8.735  0.1492  0.6123 -0.3236
 3707SOL     OW22756   3.649   3.959   8.003  0.0241 -0.1734 -0.0335
 3707SOL    HW122757   3.639   3.932   8.094 -0.2246  0.8000  0.2287
 3707SOL    HW222758   3.689   3.881   7.964 -0.7409 -0.7066  0.2540
 3708SOL     OW22759   1.719   4.561   1.382 -0.1286 -0.6307 -0.0827
 3708SOL    HW122760   1.812   4.577   1.373 -0.3320  0.6523  0.1263
 3708SOL    HW222761   1.717   4.537   1.475 -0.5185 -1.0239 -0.1894
 3709SOL     OW22762   2.440   1.151   6.403 -0.1317 -0.4030 -0.3585
 3709SOL    HW122763   2.426   1.064   6.365  0.5099 -0.2445 -0.9639
 3709SOL    HW222764   2.534   1.138   6.412  0.0046  1.9214  1.6113
 3710SOL     OW22765   1.731   3.566   2.739 -0.0693 -0.7358  1.0444
 3710SOL    HW122766   1.703   3.475   2.730 -0.0056 -0.7117  0.5681
 3710SOL    HW222767   1.825   3.554   2.724  0.5357 -0.3000  4.6927
 3711SOL     OW22768   2.050   0.494   5.932 -0.1011 -0.1721  0.6368
 3711SOL    HW122769   2.069   0.419   5.989 -2.5817 -1.6190 -0.4668
 3711SOL    HW222770   2.091   0.562   5.985 -2.3584  2.4083 -0.9082
 3712SOL     OW22771   1.370   1.691   2.789  0.0892  0.2264 -0.0794
 3712SOL    HW122772   1.319   1.636   2.730 -0.0464  1.8015 -1.4339
 3712SOL    HW222773   1.342   1.644   2.868  0.7920  2.8641  1.7362
 3713SOL     OW22774   4.213   1.248   6.294 -0.5744  0.0216 -0.4817
 3713SOL    HW122775   4.171   1.224   6.377 -1.0333  0.0280 -0.7114
 3713SOL    HW222776   4.137   1.221   6.242 -0.9489 -2.2680  1.2202
 3714SOL     OW22777   0.810   0.229   3.596  0.1763 -0.1436  0.4051
 3714SOL    HW122778   0.757   0.236   3.676  1.5280 -0.7953  1.3556
 3714SOL    HW222779   0.864   0.307   3.611  2.1091 -0.9277 -2.5511
 3715SOL     OW22780   2.515   3.968   4.574 -0.1761 -0.4671  0.4442
 3715SOL    HW122781   2.539   3.918   4.495 -0.8467 -1.6417  0.9803
 3715SOL    HW222782   2.427   4.000   4.556 -1.1316 -1.8494  2.7268
 3716SOL     OW22783   0.415   1.409   5.189  0.0540  0.5934  0.4379
 3716SOL    HW122784   0.480   1.365   5.134 -0.7283  0.8304 -0.6732
 3716SOL    HW222785   0.355   1.427   5.116 -0.1559  1.6584  0.8814
 3717SOL     OW22786   1.015   0.280  14.777  0.2665 -0.9964  1.1164
 3717SOL    HW122787   0.936   0.241  14.814 -0.5100  0.4118  0.8910
 3717SOL    HW222788   1.087   0.238  14.824  1.8807  2.8741  2.1005
 3718SOL     OW22789   0.991   3.542   7.163 -0.2455 -0.6047  0.2208
 3718SOL    HW122790   1.046   3.470   7.132  0.9209  1.2413 -1.9943
 3718SOL    HW222791   0.945   3.511   7.241 -0.8443 -2.4726 -0.8659
 3719SOL     OW22792   1.527   2.792   7.529  0.2180 -0.1406  0.2602
 3719SOL    HW122793   1.621   2.799   7.512  0.0775 -0.5359 -0.6616
 3719SOL    HW222794   1.529   2.705   7.570 -1.4717 -0.3789 -0.1973
 3720SOL     OW22795   3.748   0.230   4.572 -0.1818 -0.1943 -0.6101
 3720SOL    HW122796   3.805   0.224   4.648  0.7487  0.5597 -1.2487
 3720SOL    HW222797   3.810   0.245   4.501  0.5535 -2.1756 -0.3881
 3721SOL     OW22798   3.246   0.429  13.452  0.1284 -0.3975  0.5592
 3721SOL    HW122799   3.269   0.490  13.522 -1.1232  0.2423  0.4098
 3721SOL    HW222800   3.242   0.351  13.508 -0.8550 -1.9316 -1.6128
 3722SOL     OW22801   0.807   4.169  16.739  0.3530 -0.1666 -0.3318
 3722SOL    HW122802   0.889   4.125  16.719 -0.7860 -2.3623 -0.2608
 3722SOL    HW222803   0.741   4.102  16.717 -2.0969  2.0354  0.3343
 3723SOL     OW22804   2.359   3.633   4.619 -0.1016 -0.4592  0.3067
 3723SOL    HW122805   2.313   3.598   4.695  0.4076 -1.8437 -0.0265
 3723SOL    HW222806   2.447   3.603   4.641 -0.2960 -2.5718 -1.8501
 3724SOL     OW22807   2.840   3.766  10.711 -0.3789  0.2081 -0.0505
 3724SOL    HW122808   2.841   3.764  10.806  0.9211  0.6094 -0.0557
 3724SOL    HW222809   2.746   3.778  10.702 -0.5450 -0.9071  0.1584
 3725SOL     OW22810   3.659   2.191   3.402 -0.1838 -0.0735  0.3110
 3725SOL    HW122811   3.597   2.217   3.334  1.3100 -2.1479 -1.8332
 3725SOL    HW222812   3.728   2.151   3.349 -0.4536  1.4880 -1.2180
 3726SOL     OW22813   4.616   4.021   6.953 -0.0170  0.1053 -0.4525
 3726SOL    HW122814   4.593   3.939   6.996 -1.6250  0.1492 -1.2588
 3726SOL    HW222815   4.712   4.020   6.962 -0.1265 -0.0323  0.6596
 3727SOL     OW22816   2.716   0.541  12.578  0.0930  0.2856 -0.1663
 3727SOL    HW122817   2.671   0.538  12.663  1.1621 -0.2373  0.3862
 3727SOL    HW222818   2.643   0.577  12.529 -0.6872 -1.6904 -0.4501
 3728SOL     OW22819   0.460   3.815   3.158  0.0072 -0.4807 -1.0006
 3728SOL    HW122820   0.481   3.765   3.080  1.0948  0.3670 -1.2522
 3728SOL    HW222821   0.493   3.761   3.230 -1.2092  1.2492  0.8801
 3729SOL     OW22822   1.016   3.034   7.201  0.2437  0.3678 -0.1784
 3729SOL    HW122823   1.075   2.959   7.199 -0.5866 -0.2617 -1.2665
 3729SOL    HW222824   0.953   3.008   7.134 -2.0259  0.2994  1.9826
 3730SOL     OW22825   0.417   0.490   5.964  0.3622  0.7497 -0.0188
 3730SOL    HW122826   0.338   0.476   5.912  0.7645 -3.3349  0.4517
 3730SOL    HW222827   0.389   0.451   6.047  0.7421  2.2076  0.7806
 3731SOL     OW22828   4.163   3.991  13.417 -0.3345 -0.0025  0.6110
 3731SOL    HW122829   4.191   4.011  13.507  1.5568 -2.7804  0.6324
 3731SOL    HW222830   4.084   4.044  13.405  0.8380  1.7029  0.3818
 3732SOL     OW22831   4.148   0.800  10.036 -0.3128  0.3488 -0.3008
 3732SOL    HW122832   4.231   0.797   9.989 -0.2973  0.7250 -0.2973
 3732SOL    HW222833   4.153   0.718  10.085  1.2919  1.5643  1.5692
 3733SOL     OW22834   1.467   3.283   9.060  0.6496  0.0873 -0.3605
 3733SOL    HW122835   1.548   3.298   9.011  2.1844  0.6261  2.3301
 3733SOL    HW222836   1.476   3.191   9.086 -0.5685 -0.5010 -2.0117
 3734SOL     OW22837   2.034   3.287   5.827 -0.5090  0.0115  0.3709
 3734SOL    HW122838   2.094   3.362   5.828  0.9115 -1.0921 -3.1363
 3734SOL    HW222839   1.975   3.314   5.897 -0.6991 -1.5382  0.8050
 3735SOL     OW22840   3.624   1.415   1.182  0.2928  0.0339  0.2157
 3735SOL    HW122841   3.617   1.449   1.093 -3.1298 -1.4051 -0.0541
 3735SOL    HW222842   3.652   1.494   1.229 -0.5301 -0.5969  1.7806
 3736SOL     OW22843   4.073   0.315   7.982 -0.6468 -0.7487 -0.4260
 3736SOL    HW122844   4.134   0.252   7.944 -1.4461 -1.1505 -1.0280
 3736SOL    HW222845   4.034   0.252   8.044 -1.6861 -1.4862 -1.8462
 3737SOL     OW22846   4.417   0.189   3.537 -0.1333 -0.2962 -0.6266
 3737SOL    HW122847   4.325   0.207   3.556 -0.3937 -0.6360 -1.5801
 3737SOL    HW222848   4.410   0.095   3.524  1.6491 -0.3029 -1.5370
 3738SOL     OW22849   0.380   2.372  12.974  0.4528  0.2204  0.1900
 3738SOL    HW122850   0.388   2.390  13.067 -1.2195 -1.7058  0.7078
 3738SOL    HW222851   0.290   2.339  12.967  0.9442 -1.3769  1.4950
 3739SOL     OW22852   0.087   2.768  10.004  0.9281 -0.1906 -0.2120
 3739SOL    HW122853   0.097   2.787  10.097 -1.3514 -0.3759  0.0788
 3739SOL    HW222854   0.064   2.856   9.973 -4.2343 -0.9673  1.3854
 3740SOL     OW22855   4.367   3.775  14.507  0.2781  0.0131  0.1506
 3740SOL    HW122856   4.396   3.774  14.416  1.2571  1.5443  0.4285
 3740SOL    HW222857   4.313   3.697  14.514  0.5215 -0.1326  0.4227
 3741SOL     OW22858   2.977   3.347   0.635  0.0035 -0.5494 -0.8587
 3741SOL    HW122859   2.915   3.324   0.703  0.4590  1.4652  0.2485
 3741SOL    HW222860   2.928   3.303   0.565  0.5777  0.3305 -1.8297
 3742SOL     OW22861   1.751   1.938  14.188 -0.3360 -0.3277  0.2409
 3742SOL    HW122862   1.794   1.872  14.242  0.5965  0.1811  0.1362
 3742SOL    HW222863   1.677   1.974  14.237  0.4561  0.0980  1.1354
 3743SOL     OW22864   1.961   3.737   4.875 -0.2669 -0.4445 -0.2105
 3743SOL    HW122865   1.993   3.784   4.952 -1.1333  0.7371 -0.5636
 3743SOL    HW222866   1.925   3.795   4.807 -0.4278 -1.2055 -0.7770
 3744SOL     OW22867   1.581   2.473   6.907  0.1169 -0.3847 -0.7027
 3744SOL    HW122868   1.624   2.529   6.972 -1.5637 -0.1794  0.2384
 3744SOL    HW222869   1.607   2.521   6.828 -0.6314 -1.2412 -1.4725
 3745SOL     OW22870   0.777   3.930  13.412  0.0801  0.3485 -0.2303
 3745SOL    HW122871   0.853   3.882  13.446  0.3685  1.4021  0.6087
 3745SOL    HW222872   0.788   3.909  13.319  1.1111  0.7395 -0.2015
 3746SOL     OW22873   2.136   1.838   6.272  0.4542  0.4950 -0.5891
 3746SOL    HW122874   2.083   1.853   6.194 -0.3884  1.0811  0.1002
 3746SOL    HW222875   2.209   1.900   6.263 -0.4609  1.5253 -0.8275
 3747SOL     OW22876   2.997   4.043   2.614  0.0609 -0.2805  0.2061
 3747SOL    HW122877   2.943   4.111   2.657 -0.8962 -0.9476  0.0671
 3747SOL    HW222878   2.991   3.969   2.674 -1.9307  0.5819  1.1109
 3748SOL     OW22879   4.605   0.403  12.716  0.8368 -0.3632 -0.4539
 3748SOL    HW122880   4.633   0.449  12.795  2.4671 -2.3927  0.1348
 3748SOL    HW222881   4.674   0.338  12.704  0.5121 -0.8646  0.4334
 3749SOL     OW22882   3.911   2.102   3.272 -0.2221  0.0807  0.5404
 3749SOL    HW122883   3.929   2.184   3.225 -2.2708 -1.3730 -2.7412
 3749SOL    HW222884   4.002   2.077   3.292 -0.8345 -0.6680  2.3179
 3750SOL     OW22885   4.107   2.133   6.366  0.2299 -0.1362  0.1948
 3750SOL    HW122886   4.075   2.187   6.439  0.5310  0.9109 -0.4542
 3750SOL    HW222887   4.127   2.053   6.415 -1.5497 -1.1998 -0.8084
 3751SOL     OW22888   1.219   1.499   8.715 -0.0792  0.3343  0.2967
 3751SOL    HW122889   1.133   1.476   8.750  0.3381  1.6854  2.2087
 3751SOL    HW222890   1.207   1.583   8.671  3.5852  0.8682  0.3328
 3752SOL     OW22891   1.378   3.606   5.524 -0.2645 -0.0438 -0.1167
 3752SOL    HW122892   1.365   3.666   5.597  2.1277  1.4459 -0.9162
 3752SOL    HW222893   1.413   3.665   5.457  2.5889  0.2325  1.6270
 3753SOL     OW22894   3.512   3.747   8.371 -0.1745  0.0287  0.0008
 3753SOL    HW122895   3.451   3.750   8.297 -1.4064 -1.3689  0.9349
 3753SOL    HW222896   3.459   3.743   8.451  0.0549  0.0564  0.1520
 3754SOL     OW22897   2.727   3.674  11.339 -0.2595  0.6984  0.2040
 3754SOL    HW122898   2.716   3.580  11.324  1.8300  0.3072  1.1164
 3754SOL    HW222899   2.813   3.700  11.305 -0.6569  0.9179 -0.6336
 3755SOL     OW22900   3.637   1.295   7.313 -0.2929  0.3861 -0.5423
 3755SOL    HW122901   3.711   1.261   7.263  1.8839  3.4433  0.5425
 3755SOL    HW222902   3.646   1.390   7.305  3.9942 -0.1564 -2.4529
 3756SOL     OW22903   3.246   4.226   7.641  0.3340  0.4569  0.0075
 3756SOL    HW122904   3.172   4.284   7.622  0.3231  0.5214  0.2432
 3756SOL    HW222905   3.204   4.183   7.716  1.4363  0.2942  0.5253
 3757SOL     OW22906   1.726   4.536   3.518 -0.8977  0.0784  0.3091
 3757SOL    HW122907   1.762   4.622   3.537 -3.0316  1.2565 -0.9224
 3757SOL    HW222908   1.639   4.561   3.487 -0.7606  1.2880  0.9367
 3758SOL     OW22909   2.953   3.191  13.712  0.2145 -0.2869 -0.1813
 3758SOL    HW122910   2.930   3.252  13.782 -1.2742  1.1889 -1.9826
 3758SOL    HW222911   2.957   3.104  13.753 -0.8576 -0.5741 -0.6636
 3759SOL     OW22912   1.890   2.191   6.212  0.3225  0.1396 -0.3932
 3759SOL    HW122913   1.962   2.195   6.274  0.4026 -1.9581 -0.3411
 3759SOL    HW222914   1.922   2.264   6.160  3.2577 -0.6584  0.2965
 3760SOL     OW22915   4.423   2.921   9.451 -0.0844 -0.1532  0.1627
 3760SOL    HW122916   4.460   3.000   9.410  1.0411  0.0073  1.4856
 3760SOL    HW222917   4.504   2.870   9.458 -0.2984 -0.9699 -3.4536
 3761SOL     OW22918   1.762   1.308  17.545 -0.0806 -0.2402 -0.2914
 3761SOL    HW122919   1.824   1.373  17.579 -0.3218  0.5905 -1.4554
 3761SOL    HW222920   1.747   1.248  17.618  0.0436 -2.6874 -2.2841
 3762SOL     OW22921   4.465   0.106  16.537 -0.1748  0.5522 -0.2445
 3762SOL    HW122922   4.535   0.049  16.569  0.4637  1.2949 -0.3255
 3762SOL    HW222923   4.520   0.178  16.506 -0.2859  0.1298 -1.4103
 3763SOL     OW22924   0.416   0.417   7.346 -0.4023 -0.0106 -0.1139
 3763SOL    HW122925   0.352   0.350   7.322 -0.8868 -0.4289  2.3383
 3763SOL    HW222926   0.457   0.381   7.424 -2.1056 -0.4026  0.5996
 3764SOL     OW22927   2.855   1.249  10.089 -0.5164  0.0535  0.0810
 3764SOL    HW122928   2.876   1.166  10.049  1.3751 -0.0306  1.2517
 3764SOL    HW222929   2.857   1.308  10.014  0.9587  0.0300  0.0982
 3765SOL     OW22930   3.405   2.786   3.920  0.2181  0.1637  0.4736
 3765SOL    HW122931   3.323   2.819   3.958 -0.3838  1.3405 -1.8725
 3765SOL    HW222932   3.469   2.827   3.977  1.1698 -1.3154  0.4782
 3766SOL     OW22933   4.101   2.589  16.409 -0.5849 -0.1210 -0.7188
 3766SOL    HW122934   4.067   2.499  16.406 -0.3432 -0.2297 -0.2246
 3766SOL    HW222935   4.160   2.581  16.483 -1.4157 -1.4987 -0.1940
 3767SOL     OW22936   2.887   4.587   7.075 -0.0583 -0.1845 -0.3398
 3767SOL    HW122937   2.889   4.627   6.988  2.2474 -2.2506 -1.2295
 3767SOL    HW222938   2.813   4.636   7.111 -0.0044  0.9995 -1.8281
 3768SOL     OW22939   3.809   3.540  12.250 -0.0579  0.2224  0.4910
 3768SOL    HW122940   3.878   3.598  12.283 -1.1668  0.9307  1.5741
 3768SOL    HW222941   3.819   3.466  12.310  1.4435 -0.2865 -0.3765
 3769SOL     OW22942   4.622   0.412   5.864 -0.0882 -0.1696 -0.4437
 3769SOL    HW122943   4.601   0.353   5.791 -1.7412 -0.4141  0.2374
 3769SOL    HW222944   4.535   0.411   5.903 -0.0253 -2.1043 -0.3106
 3770SOL     OW22945   0.140   2.573   2.387  0.8989 -0.1339  0.4921
 3770SOL    HW122946   0.048   2.550   2.404  0.0414  1.5991 -1.8426
 3770SOL    HW222947   0.127   2.660   2.349  1.5120 -1.6821 -3.2696
 3771SOL     OW22948   0.927   1.483   1.204  0.3968  0.2389  0.0330
 3771SOL    HW122949   1.015   1.483   1.167  0.0518 -0.8235 -0.7609
 3771SOL    HW222950   0.919   1.397   1.246 -0.8040 -1.1717 -3.0946
 3772SOL     OW22951   0.803   2.713   6.783  0.1361 -0.0058  0.4077
 3772SOL    HW122952   0.788   2.645   6.717  1.3749  0.4197 -0.3112
 3772SOL    HW222953   0.784   2.666   6.864 -0.1020 -1.1503 -0.3127
 3773SOL     OW22954   2.433   0.737   3.853 -0.1044 -0.3347  0.0459
 3773SOL    HW122955   2.519   0.718   3.816 -0.0245  1.9920 -0.9787
 3773SOL    HW222956   2.413   0.671   3.919 -1.2504 -1.8880 -1.8426
 3774SOL     OW22957   0.118   1.014  12.229 -0.3690 -0.0027  0.2077
 3774SOL    HW122958   0.033   1.057  12.232 -0.5079 -0.2598 -0.1141
 3774SOL    HW222959   0.136   0.985  12.319 -1.0977 -0.4036  0.2228
 3775SOL     OW22960   4.725   3.479   4.091  0.2185 -0.5115 -0.3215
 3775SOL    HW122961   4.704   3.418   4.162 -2.4420 -0.6839 -1.2464
 3775SOL    HW222962   4.644   3.528   4.107  1.3601  1.0204  0.7775
 3776SOL     OW22963   0.557   3.007  17.136 -0.1269  0.5603 -0.6096
 3776SOL    HW122964   0.610   3.003  17.216 -0.1916 -3.9158 -0.7629
 3776SOL    HW222965   0.472   2.966  17.151  0.5903 -0.1522  1.4853
 3777SOL     OW22966   3.519   1.459  12.438  0.1334 -0.1759 -0.3509
 3777SOL    HW122967   3.563   1.378  12.463  0.0456  0.4362  1.8437
 3777SOL    HW222968   3.428   1.433  12.452  0.3436 -0.3355  0.7380
 3778SOL     OW22969   3.431   1.697  10.916  0.0593  0.0590 -0.4896
 3778SOL    HW122970   3.482   1.777  10.904  0.1954  0.1350  0.6011
 3778SOL    HW222971   3.456   1.666  11.003 -2.0548 -2.8341 -0.9185
 3779SOL     OW22972   4.595   4.457  11.203 -0.1303 -0.1202 -0.4631
 3779SOL    HW122973   4.646   4.504  11.269 -0.4170  1.3985 -1.3312
 3779SOL    HW222974   4.650   4.486  11.130  0.9856 -1.9825 -0.3576
 3780SOL     OW22975   0.591   2.207  10.621  0.3259  0.2438 -0.0147
 3780SOL    HW122976   0.613   2.119  10.589  1.0823  0.1539  0.7143
 3780SOL    HW222977   0.681   2.229  10.648 -0.6973  3.8074  0.4472
 3781SOL     OW22978   1.585   4.663   4.977  0.1196  0.2416  0.3980
 3781SOL    HW122979   1.534   4.582   4.968  1.4946 -0.3623 -2.2453
 3781SOL    HW222980   1.613   4.667   4.885  2.4956  1.1160  1.1784
 3782SOL     OW22981   4.200   3.646   4.588  0.7330 -0.2459 -0.0124
 3782SOL    HW122982   4.189   3.561   4.631 -2.0354 -1.0858 -2.3962
 3782SOL    HW222983   4.110   3.663   4.562  1.1975 -0.9171 -2.1015
 3783SOL     OW22984   1.822   1.900   8.598  1.2164 -0.0858  0.6325
 3783SOL    HW122985   1.745   1.955   8.615  1.5760 -0.0062  1.9632
 3783SOL    HW222986   1.875   1.960   8.545  0.9930 -0.8570 -0.4691
 3784SOL     OW22987   3.802   4.642   2.811 -0.6574 -0.0026 -0.2491
 3784SOL    HW122988   3.773   4.711   2.871 -0.3664 -0.5436  0.5174
 3784SOL    HW222989   3.734   4.646   2.744  0.0376  0.6636 -0.9167
 3785SOL     OW22990   1.880   4.694   0.507  0.0049 -0.1804 -0.5802
 3785SOL    HW122991   1.892   4.599   0.503  2.2786  0.0699 -0.1905
 3785SOL    HW222992   1.941   4.725   0.575 -0.3447  0.3859 -0.5281
 3786SOL     OW22993   0.184   0.443   1.853  0.5120  0.3074 -0.3863
 3786SOL    HW122994   0.137   0.369   1.815  1.4476  0.3777 -1.6727
 3786SOL    HW222995   0.269   0.435   1.809  0.2116  3.2184 -1.4856
 3787SOL     OW22996   1.113   1.607   5.690  0.0910  0.0318 -0.3761
 3787SOL    HW122997   1.020   1.606   5.714  0.9706 -3.7463  2.8013
 3787SOL    HW222998   1.134   1.683   5.744  0.2175  1.1905 -2.0651
 3788SOL     OW22999   4.194   3.226   0.814 -0.3407  0.0131  0.2623
 3788SOL    HW123000   4.138   3.152   0.792  0.3398 -0.2877 -0.4906
 3788SOL    HW223001   4.170   3.300   0.759 -1.6607  1.2940  2.5814
 3789SOL     OW23002   0.597   4.727  10.270  0.0944  0.2511 -0.0735
 3789SOL    HW123003   0.525   4.675  10.305  0.8769 -0.0092  1.1609
 3789SOL    HW223004   0.622   0.036  10.349 -0.7520 -0.4933  0.6446
 3790SOL     OW23005   1.248   4.082  11.804 -1.1135 -0.5323 -0.2230
 3790SOL    HW123006   1.273   4.167  11.840  0.3249 -1.0379 -0.0517
 3790SOL    HW223007   1.180   4.051  11.864 -1.8070  0.6545 -0.3818
 3791SOL     OW23008   3.948   2.037   2.475 -0.0157  0.3224  0.2490
 3791SOL    HW123009   3.910   1.969   2.418  0.7354 -0.3047  0.4906
 3791SOL    HW223010   3.913   2.120   2.443 -1.2698  0.1311  1.1051
 3792SOL     OW23011   2.804   3.163   4.819 -0.5245  0.1353 -0.0947
 3792SOL    HW123012   2.892   3.200   4.809 -0.8905  0.2784 -2.6661
 3792SOL    HW223013   2.757   3.205   4.747 -1.5989 -2.5837 -0.9617
 3793SOL     OW23014   0.385   0.918   8.034 -0.4462 -0.1018 -0.3831
 3793SOL    HW123015   0.441   0.939   7.958  1.8653  0.8340  1.5763
 3793SOL    HW223016   0.424   0.836   8.063  0.0091 -0.3563 -1.7259
 3794SOL     OW23017   2.843   4.304   0.629  0.0671 -0.2297 -0.5799
 3794SOL    HW123018   2.773   4.349   0.677  1.1963 -0.0960  0.9390
 3794SOL    HW223019   2.805   4.307   0.541 -2.1082  1.9290  0.4226
 3795SOL     OW23020   1.987   2.838  10.369  0.1072  0.4209 -0.0515
 3795SOL    HW123021   2.070   2.861  10.410 -0.5604 -0.5023  1.8500
 3795SOL    HW223022   1.947   2.770  10.424  1.7945 -2.0981 -1.9447
 3796SOL     OW23023   1.434   2.329   0.682 -0.3188  0.0534 -0.4140
 3796SOL    HW123024   1.454   2.392   0.752  1.8492 -1.8198  0.6223
 3796SOL    HW223025   1.409   2.251   0.730 -0.9815  0.1625 -0.5712
 3797SOL     OW23026   4.734   2.005   1.695  0.8045  0.0340 -0.2116
 3797SOL    HW123027   0.057   1.931   1.691 -1.3269 -1.6902 -0.5923
 3797SOL    HW223028   0.049   2.068   1.645  2.2773  1.1869  2.7722
 3798SOL     OW23029   2.277   0.952   2.058  0.2615  0.1333 -0.2259
 3798SOL    HW123030   2.308   1.041   2.072  0.0486  0.1087  0.4320
 3798SOL    HW223031   2.198   0.965   2.005 -0.5323  0.7217  1.0830
 3799SOL     OW23032   1.430   0.843   0.371 -0.0121  0.4033  0.4289
 3799SOL    HW123033   1.397   0.794   0.296 -0.2645  2.6810 -0.9424
 3799SOL    HW223034   1.362   0.909   0.380 -0.3954  0.0667 -0.0592
 3800SOL     OW23035   1.317   0.138  15.971  0.2660 -0.1637  0.2100
 3800SOL    HW123036   1.307   0.043  15.982 -0.7020 -0.3279 -2.0506
 3800SOL    HW223037   1.405   0.140  15.933  0.3543 -1.0702  0.3616
 3801SOL     OW23038   2.329   1.635   1.294  0.2947  0.1803  0.1358
 3801SOL    HW123039   2.392   1.565   1.313 -0.9697 -0.9666  0.0909
 3801SOL    HW223040   2.326   1.675   1.382 -3.7920 -0.7150  0.3814
 3802SOL     OW23041   3.539   2.534   2.113  0.1792  0.2085 -0.3276
 3802SOL    HW123042   3.559   2.591   2.038  2.5096 -0.7011 -0.4037
 3802SOL    HW223043   3.603   2.463   2.118  1.5458  1.3084 -1.7836
 3803SOL     OW23044   3.981   0.033   5.803 -0.2064 -0.0867  0.3911
 3803SOL    HW123045   3.987   4.692   5.748 -2.2084  0.0362  0.0170
 3803SOL    HW223046   4.072   0.062   5.791 -0.5282  0.0304 -1.8322
 3804SOL     OW23047   1.335   2.961  16.036  0.4646  0.1091  0.4263
 3804SOL    HW123048   1.425   2.989  16.054  0.8291  0.4317 -1.9743
 3804SOL    HW223049   1.284   3.036  16.069  1.4054  2.4270 -3.3932
 3805SOL     OW23050   3.857   3.400   6.018 -0.2404 -0.4279  0.7615
 3805SOL    HW123051   3.785   3.451   5.981 -0.2174 -1.1212 -0.2356
 3805SOL    HW223052   3.929   3.419   5.958 -1.6946 -0.9889 -1.1393
 3806SOL     OW23053   3.908   0.896   8.596 -0.3838  0.0857 -0.1598
 3806SOL    HW123054   3.926   0.962   8.529  2.1732 -0.7248 -0.2593
 3806SOL    HW223055   3.985   0.898   8.652  1.1681 -0.4467 -2.3096
 3807SOL     OW23056   1.580   3.456   5.314 -0.1480 -0.9268  0.0406
 3807SOL    HW123057   1.652   3.517   5.300 -0.7934 -0.0651  0.4509
 3807SOL    HW223058   1.597   3.436   5.406 -3.2703  1.5730  1.1556
 3808SOL     OW23059   3.505   4.400   8.552  0.1607 -0.2669 -0.2025
 3808SOL    HW123060   3.419   4.421   8.517  0.5954  1.1647 -0.4051
 3808SOL    HW223061   3.485   4.381   8.644  0.0361 -0.0931 -0.1944
 3809SOL     OW23062   0.772   3.824   4.105  0.4613 -0.3970 -0.3871
 3809SOL    HW123063   0.823   3.743   4.103  0.1778 -0.4376 -4.2036
 3809SOL    HW223064   0.690   3.789   4.139  2.4396 -2.9796  1.6927
 3810SOL     OW23065   1.964   4.191   0.523  0.5767  0.1717  0.3471
 3810SOL    HW123066   1.930   4.176   0.435 -0.6123  3.9917  0.1505
 3810SOL    HW223067   1.958   4.103   0.559  2.1363  0.0788  0.4054
 3811SOL     OW23068   2.608   2.734   3.853  0.5761 -0.0313 -0.5829
 3811SOL    HW123069   2.527   2.766   3.893 -0.4239  0.4650 -2.9920
 3811SOL    HW223070   2.675   2.797   3.877  0.4124  0.1347 -0.5582
 3812SOL     OW23071   2.885   1.480  10.506  0.2299 -0.2450 -0.5025
 3812SOL    HW123072   2.948   1.487  10.579 -1.9195 -0.5563  1.3786
 3812SOL    HW223073   2.901   1.390  10.480  1.3207  0.2873 -1.6857
 3813SOL     OW23074   0.315   4.639   2.934 -0.0146  0.9709  0.0457
 3813SOL    HW123075   0.230   4.645   2.892 -0.8290 -0.1959  1.5143
 3813SOL    HW223076   0.345   4.566   2.881 -1.7271 -1.0616  1.8607
 3814SOL     OW23077   0.751   1.133   3.452  0.3534 -0.0629  0.3123
 3814SOL    HW123078   0.665   1.100   3.423  0.5531 -1.6165  1.4674
 3814SOL    HW223079   0.731   1.225   3.467  0.9695  0.2452 -0.7809
 3815SOL     OW23080   2.363   4.175   6.596 -0.3360  0.0377  0.2608
 3815SOL    HW123081   2.361   4.189   6.691 -1.0259 -0.9692  0.3932
 3815SOL    HW223082   2.289   4.231   6.573  0.2148  0.7606  0.2524
 3816SOL     OW23083   2.605   4.323  11.583 -0.1378 -0.0084 -0.4535
 3816SOL    HW123084   2.652   4.361  11.656 -0.9226  0.9857 -0.4710
 3816SOL    HW223085   2.625   4.389  11.517 -0.2232  1.5667  1.1101
 3817SOL     OW23086   1.904   2.275   7.407 -0.3786 -0.0742 -0.3366
 3817SOL    HW123087   1.955   2.307   7.481  0.6209  2.0326 -1.9524
 3817SOL    HW223088   1.935   2.332   7.336  1.0369  1.2172  1.3333
 3818SOL     OW23089   1.228   2.818   2.730  0.4038  0.5484 -0.7606
 3818SOL    HW123090   1.140   2.852   2.710 -0.3307 -1.0241 -0.1854
 3818SOL    HW223091   1.229   2.826   2.826 -0.5565  1.6735 -0.8408
 3819SOL     OW23092   3.814   4.065   8.876  0.4949  0.0282 -0.5061
 3819SOL    HW123093   3.803   3.971   8.867 -1.5172  0.4354 -2.2244
 3819SOL    HW223094   3.852   4.096   8.794  0.9842  0.6901 -0.0351
 3820SOL     OW23095   2.450   0.830   2.371 -0.1226 -0.3800 -0.3663
 3820SOL    HW123096   2.367   0.876   2.362  0.1054 -0.0935 -0.9715
 3820SOL    HW223097   2.423   0.750   2.416 -1.7485  1.1285  1.3305
 3821SOL     OW23098   0.051   3.238  12.188  0.6324 -0.3839 -0.6697
 3821SOL    HW123099   0.081   3.222  12.098 -2.3249  0.7929 -1.8682
 3821SOL    HW223100   0.002   3.159  12.213 -1.1098  0.7598 -0.4581
 3822SOL     OW23101   4.243   4.587   8.972 -0.4258 -0.2364 -0.2286
 3822SOL    HW123102   4.305   4.608   8.903  0.5494  0.4072  0.8516
 3822SOL    HW223103   4.169   4.646   8.956 -0.3017 -0.2292 -0.7517
 3823SOL     OW23104   0.980   1.547   9.231 -0.4251 -0.3845 -0.5451
 3823SOL    HW123105   1.040   1.503   9.291 -1.0057 -0.7144 -0.2095
 3823SOL    HW223106   1.037   1.618   9.202 -2.0384  0.3749 -1.8515
 3824SOL     OW23107   1.368   1.982   6.546 -0.3456  0.2193  0.2002
 3824SOL    HW123108   1.440   1.985   6.608 -0.3581  0.4805  0.2037
 3824SOL    HW223109   1.390   1.899   6.505 -1.4921  0.4028 -0.7834
 3825SOL     OW23110   0.449   3.093   5.175  0.4207 -0.4669 -0.5753
 3825SOL    HW123111   0.417   3.039   5.103  1.1698 -1.5708 -0.0779
 3825SOL    HW223112   0.540   3.106   5.148  0.6508 -1.5091 -0.2886
 3826SOL     OW23113   4.126   2.781   5.886 -0.1269 -0.7162  0.3607
 3826SOL    HW123114   4.069   2.854   5.908  0.9313 -0.3205  1.7338
 3826SOL    HW223115   4.214   2.804   5.915  0.4902 -0.3750 -1.7324
 3827SOL     OW23116   0.237   0.168   4.788 -0.1821  0.1618  0.2590
 3827SOL    HW123117   0.325   0.132   4.781  0.3620  1.4066  0.6348
 3827SOL    HW223118   0.207   0.123   4.867  0.8579  1.4310  1.3814
 3828SOL     OW23119   3.394   1.118   9.445  0.0263 -0.0885  0.3270
 3828SOL    HW123120   3.428   1.190   9.497 -0.3647  1.1827 -1.1561
 3828SOL    HW223121   3.334   1.167   9.389  1.5522  0.5576 -0.7466
 3829SOL     OW23122   3.308   3.443   1.981 -0.2871  0.5568 -0.1288
 3829SOL    HW123123   3.275   3.531   1.994  3.6819  2.0235 -0.0742
 3829SOL    HW223124   3.364   3.460   1.905 -1.2613 -0.3209 -1.0343
 3830SOL     OW23125   0.521   3.969  10.430 -0.1650 -0.2192 -0.5017
 3830SOL    HW123126   0.525   3.948  10.336  0.6774 -0.1929 -0.4742
 3830SOL    HW223127   0.469   3.898  10.467  0.7745 -0.1725  0.9257
 3831SOL     OW23128   4.735   4.100   3.082  0.0053 -0.4313  0.1349
 3831SOL    HW123129   0.063   4.082   3.150 -0.5048 -0.9584  0.4864
 3831SOL    HW223130   0.041   4.064   3.005 -2.3359  0.3665 -1.5670
 3832SOL     OW23131   2.385   2.000   6.340  0.3008  0.3638  0.2877
 3832SOL    HW123132   2.407   2.076   6.287 -1.0942  1.3800  1.1550
 3832SOL    HW223133   2.463   1.952   6.313 -0.3755 -0.1929 -0.6633
 3833SOL     OW23134   2.854   2.826   5.725  0.2745  0.1891  0.0872
 3833SOL    HW123135   2.763   2.851   5.709  0.3937  0.6496  0.1473
 3833SOL    HW223136   2.892   2.836   5.638 -1.7414  2.5086 -0.5284
 3834SOL     OW23137   3.922   2.156   4.148  0.1624  0.7331 -0.1993
 3834SOL    HW123138   3.995   2.183   4.204 -1.4444  0.9251  1.7813
 3834SOL    HW223139   3.884   2.091   4.208  1.6323  0.6163  0.6009
 3835SOL     OW23140   3.313   1.939  11.390  0.3660 -0.0882 -0.4870
 3835SOL    HW123141   3.272   1.934  11.303  0.5476 -2.3233 -0.4514
 3835SOL    HW223142   3.350   2.027  11.389  0.1278  0.0064 -0.9150
 3836SOL     OW23143   3.827   1.911   1.196  0.1541  0.0296  0.7530
 3836SOL    HW123144   3.901   1.950   1.243 -0.7849  0.8950  1.5192
 3836SOL    HW223145   3.751   1.910   1.254  0.5274 -0.1850  1.2483
 3837SOL     OW23146   1.119   3.280   8.824 -0.6546 -0.2409 -0.1421
 3837SOL    HW123147   1.035   3.324   8.816 -0.3819  0.1235 -1.0152
 3837SOL    HW223148   1.162   3.304   8.742 -0.2562  1.0991  0.4474
 3838SOL     OW23149   3.991   2.290   5.352 -0.6223  0.4746  0.3003
 3838SOL    HW123150   4.032   2.222   5.404 -0.2414  0.0389 -0.5583
 3838SOL    HW223151   3.915   2.321   5.401 -0.4152 -1.2697  1.7087
 3839SOL     OW23152   3.729   3.998  11.360 -0.1110 -0.4195  0.0383
 3839SOL    HW123153   3.663   3.935  11.390  1.2642 -0.6567  2.6145
 3839SOL    HW223154   3.794   3.980  11.427  1.6562  1.9502 -1.0598
 3840SOL     OW23155   1.478   3.142   3.655 -0.0657  0.5116  0.0260
 3840SOL    HW123156   1.412   3.095   3.705  0.5623 -0.7653 -0.3339
 3840SOL    HW223157   1.445   3.140   3.565  1.0216 -1.8373 -0.3276
 3841SOL     OW23158   3.894   4.712   9.550 -0.0030  0.5096 -0.5068
 3841SOL    HW123159   3.966   4.650   9.554 -1.9749 -1.7281  0.7113
 3841SOL    HW223160   3.887   4.729   9.456 -2.5519 -0.0859 -0.4287
 3842SOL     OW23161   2.871   0.561   9.115 -0.7168 -0.2031 -0.4928
 3842SOL    HW123162   2.925   0.578   9.193 -1.2652 -0.1338 -0.1295
 3842SOL    HW223163   2.912   0.489   9.067  2.5657 -0.8162  3.1735
 3843SOL     OW23164   3.324   4.018  12.239 -0.5665  0.2058  0.1022
 3843SOL    HW123165   3.236   4.055  12.226 -0.4651 -0.0639 -1.3633
 3843SOL    HW223166   3.390   4.087  12.226  1.2242 -1.6582 -0.6959
 3844SOL     OW23167   2.817   3.992   7.839 -0.2516 -0.2057  0.5288
 3844SOL    HW123168   2.752   4.000   7.909  0.7322 -0.9455  1.5253
 3844SOL    HW223169   2.893   4.014   7.893  0.5007  1.0023 -0.9923
 3845SOL     OW23170   4.359   4.609   8.373  0.2336  0.2107 -0.7329
 3845SOL    HW123171   4.302   4.600   8.449 -0.1819 -0.8266 -1.1543
 3845SOL    HW223172   4.370   4.516   8.351 -0.7248  0.3092 -1.6286
 3846SOL     OW23173   0.454   4.149  13.640  0.3202  0.5251  0.2986
 3846SOL    HW123174   0.402   4.091  13.696  0.2447  0.2989 -0.0078
 3846SOL    HW223175   0.433   4.226  13.693 -0.2915  0.9219 -0.5332
 3847SOL     OW23176   0.770   0.061   4.773 -0.4713  0.1677 -0.3208
 3847SOL    HW123177   0.716   0.103   4.706  0.1736  3.4336  1.2177
 3847SOL    HW223178   0.703   0.077   4.839  0.6176 -1.3588  1.1660
 3848SOL     OW23179   2.490   4.626   8.077 -0.2587  0.5956 -0.4339
 3848SOL    HW123180   2.457   4.537   8.069 -0.0209  0.2760  2.1739
 3848SOL    HW223181   2.429   4.659   8.143 -0.6750  1.0295 -1.0312
 3849SOL     OW23182   1.417   3.417  15.152 -0.2381  0.0424 -0.1627
 3849SOL    HW123183   1.476   3.468  15.097 -0.3038 -0.7748 -0.9812
 3849SOL    HW223184   1.471   3.405  15.230 -1.5256  2.9738  1.1842
 3850SOL     OW23185   4.519   4.447   3.468  0.0023  0.1705 -0.2524
 3850SOL    HW123186   4.445   4.421   3.413 -0.2322  0.9968 -0.3346
 3850SOL    HW223187   4.520   4.543   3.462 -2.7393  0.1913 -0.4019
 3851SOL     OW23188   2.403   1.318   6.063  0.2407 -0.1444  0.0792
 3851SOL    HW123189   2.337   1.371   6.018  0.0517  0.1687  0.7081
 3851SOL    HW223190   2.346   1.284   6.132 -1.8603 -1.4291 -2.3316
 3852SOL     OW23191   1.648   1.978   6.592  0.0001  0.4608 -0.4497
 3852SOL    HW123192   1.738   1.986   6.624  0.9018 -1.8755 -2.4033
 3852SOL    HW223193   1.647   2.043   6.522 -1.2653  1.6019  0.6222
 3853SOL     OW23194   2.035   0.766   1.716 -0.7714  0.5015  0.5906
 3853SOL    HW123195   1.939   0.768   1.720 -0.8782 -0.3163 -1.8509
 3853SOL    HW223196   2.061   0.756   1.625  1.3828 -2.0783  1.4827
 3854SOL     OW23197   4.424   3.267   9.942 -0.4925 -0.2163  0.0403
 3854SOL    HW123198   4.515   3.273   9.971 -0.6289  2.7982 -0.1529
 3854SOL    HW223199   4.417   3.310   9.856  0.4284 -0.1962 -0.0213
 3855SOL     OW23200   3.313   3.135   9.924  0.6773 -0.5077  0.3080
 3855SOL    HW123201   3.332   3.071   9.855  2.1458  1.4288 -1.0923
 3855SOL    HW223202   3.226   3.100   9.941  1.1840 -1.6097  0.6048
 3856SOL     OW23203   1.677   2.580  15.965  0.5871  0.4513 -0.0728
 3856SOL    HW123204   1.711   2.525  16.035  0.3059  0.9934  0.4851
 3856SOL    HW223205   1.710   2.666  15.991  0.5099  0.2852  0.5668
 3857SOL     OW23206   2.328   0.859   8.965  0.4367 -0.3564 -0.7845
 3857SOL    HW123207   2.409   0.879   8.918 -0.0207  3.2339 -0.0241
 3857SOL    HW223208   2.269   0.934   8.966 -1.7811 -2.1467  0.8730
 3858SOL     OW23209   0.444   4.599   6.662  0.4645 -0.0694 -0.1562
 3858SOL    HW123210   0.413   4.591   6.571  0.0307 -2.6828  0.2469
 3858SOL    HW223211   0.502   4.526   6.682  0.0651 -0.0001  1.2091
 3859SOL     OW23212   2.985   0.114   8.387  0.5859  0.0507 -0.4453
 3859SOL    HW123213   2.943   0.143   8.306 -1.7911 -1.0268  0.3842
 3859SOL    HW223214   3.077   0.138   8.376  0.6013 -0.1130 -0.6710
 3860SOL     OW23215   1.790   0.669   3.274  0.9387  0.0508  0.6477
 3860SOL    HW123216   1.860   0.617   3.233  2.1097  0.8014  1.6706
 3860SOL    HW223217   1.714   0.625   3.237  0.4538  2.5095 -1.2941
 3861SOL     OW23218   2.791   4.102   5.116  0.3644  0.7095  0.3131
 3861SOL    HW123219   2.755   4.137   5.198 -1.5068 -1.9096  0.6021
 3861SOL    HW223220   2.836   4.024   5.147  0.0312 -0.4252 -2.0170
 3862SOL     OW23221   1.526   0.291   4.947  0.0031  0.4183  0.1654
 3862SOL    HW123222   1.603   0.295   4.890  0.1814  1.0662  0.4568
 3862SOL    HW223223   1.464   0.225   4.916 -0.3649 -0.3751  2.6088
 3863SOL     OW23224   4.631   4.020   5.021  0.1735  0.3108 -0.0162
 3863SOL    HW123225   4.722   4.036   4.994  0.4404 -0.2627  0.5292
 3863SOL    HW223226   4.578   4.086   4.977 -2.2285 -2.2930 -1.0005
 3864SOL     OW23227   2.109   3.787   7.416 -0.5832 -0.3250 -0.5103
 3864SOL    HW123228   2.069   3.705   7.446  0.8328 -0.3500  1.3004
 3864SOL    HW223229   2.096   3.777   7.322  2.8466  1.2951 -1.1642
 3865SOL     OW23230   0.295   0.820  13.276  0.3373 -0.0382 -0.2253
 3865SOL    HW123231   0.217   0.826  13.222  1.7361  1.4267 -2.0753
 3865SOL    HW223232   0.274   0.737  13.320 -0.4794 -0.8543 -2.1368
 3866SOL     OW23233   3.037   0.952   2.358  0.6593 -0.8926 -0.0685
 3866SOL    HW123234   3.126   0.984   2.343  0.1048  0.8018  0.3803
 3866SOL    HW223235   3.011   0.950   2.266  3.1753  0.8819 -0.8263
 3867SOL     OW23236   4.133   2.755   3.655  0.3360 -0.3944 -0.3078
 3867SOL    HW123237   4.119   2.688   3.722 -2.4850  3.0762  2.5877
 3867SOL    HW223238   4.223   2.744   3.623 -0.0881 -0.6467 -1.4316
 3868SOL     OW23239   1.318   1.282   1.641  0.6540 -0.4097  0.6492
 3868SOL    HW123240   1.381   1.351   1.663 -2.9251  3.4657 -1.1981
 3868SOL    HW223241   1.322   1.282   1.545  1.2524  3.5115  0.6868
 3869SOL     OW23242   0.601   2.681   5.003  0.0362 -0.6435 -0.1508
 3869SOL    HW123243   0.515   2.698   4.963  1.0801  0.2858 -1.9968
 3869SOL    HW223244   0.648   2.632   4.936 -0.7213 -1.5548 -0.0280
 3870SOL     OW23245   3.103   3.951   0.780 -0.2042  0.0266 -0.1862
 3870SOL    HW123246   3.166   3.908   0.722  1.9114  1.7822  0.8167
 3870SOL    HW223247   3.071   3.877   0.832 -1.4454  0.6211 -0.1012
 3871SOL     OW23248   0.419   1.392  12.003 -0.3112 -0.6155  0.2088
 3871SOL    HW123249   0.336   1.360  11.966  0.3231 -0.0345 -1.7302
 3871SOL    HW223250   0.411   1.340  12.083 -0.2391 -1.6060 -0.4161
 3872SOL     OW23251   0.378   2.777   4.434  0.3293 -0.2659 -0.5305
 3872SOL    HW123252   0.406   2.862   4.465 -0.9403  0.1612 -0.5585
 3872SOL    HW223253   0.372   2.788   4.339  0.8549 -0.9049 -0.6380
 3873SOL     OW23254   1.302   2.716   5.780 -0.0956 -0.0270  0.0908
 3873SOL    HW123255   1.285   2.779   5.850  1.7882 -1.0577  1.4607
 3873SOL    HW223256   1.377   2.753   5.734  0.4886  0.0669  1.1118
 3874SOL     OW23257   0.038   0.539   2.509 -0.4958  0.1781 -0.2917
 3874SOL    HW123258   0.002   0.456   2.479  1.6925 -0.8990  0.0303
 3874SOL    HW223259   4.698   0.595   2.499 -0.6612 -0.3507 -1.9555
 3875SOL     OW23260   0.405   1.162   4.164 -0.0018  0.0304 -0.4033
 3875SOL    HW123261   0.368   1.177   4.077 -1.1435 -2.4648 -0.3453
 3875SOL    HW223262   0.497   1.161   4.136  0.4088  0.8615  0.9590
 3876SOL     OW23263   0.843   4.436   4.956 -0.2610 -0.6122 -0.3388
 3876SOL    HW123264   0.873   4.426   5.046 -1.3251  1.3803  0.2252
 3876SOL    HW223265   0.905   4.507   4.940 -1.3644  0.2268 -0.8411
 3877SOL     OW23266   1.103   0.812   1.687 -0.2103 -0.3388  0.3166
 3877SOL    HW123267   1.151   0.877   1.637 -1.3842 -0.5213 -1.0580
 3877SOL    HW223268   1.101   0.851   1.774  2.9178  0.8510 -0.1377
 3878SOL     OW23269   0.018   2.077   2.540 -0.0340 -0.0179 -0.1044
 3878SOL    HW123270   0.056   2.018   2.605 -1.7388 -0.4876  0.4738
 3878SOL    HW223271   4.670   2.038   2.525 -0.7326  1.7568 -0.7357
 3879SOL     OW23272   2.292   0.375   6.453 -0.1787 -0.5707 -0.2365
 3879SOL    HW123273   2.282   0.467   6.426 -0.9031  0.3118  2.9832
 3879SOL    HW223274   2.385   0.370   6.433 -0.0487  0.3172  0.1208
 3880SOL     OW23275   2.618   1.083  12.053 -0.3532  0.3116  0.0685
 3880SOL    HW123276   2.676   1.052  11.982  1.2728  0.0323  1.5169
 3880SOL    HW223277   2.550   1.134  12.010  2.3880  3.2859 -0.7440
 3881SOL     OW23278   4.576   0.901   6.486 -0.2625 -0.3730 -0.2357
 3881SOL    HW123279   4.543   0.862   6.405  0.0688 -0.1393 -0.4852
 3881SOL    HW223280   4.514   0.872   6.553 -0.1090 -1.3703 -0.5236
 3882SOL     OW23281   2.018   2.441   7.630 -0.0681 -0.0013  0.1893
 3882SOL    HW123282   1.976   2.454   7.715 -0.1265 -1.1131  0.3273
 3882SOL    HW223283   2.105   2.426   7.668 -1.2565 -1.1627  2.4464
 3883SOL     OW23284   1.790   2.907   3.497 -0.7375  0.0509  0.3000
 3883SOL    HW123285   1.824   2.818   3.487 -0.7106  0.1566 -0.5619
 3883SOL    HW223286   1.807   2.927   3.405  1.3265 -0.0331  0.6806
 3884SOL     OW23287   1.446   0.666   0.640 -0.0764  0.5154  0.1861
 3884SOL    HW123288   1.368   0.614   0.662  1.3055 -1.3813  0.5735
 3884SOL    HW223289   1.426   0.701   0.553 -1.7088  0.8532  0.6822
 3885SOL     OW23290   3.393   1.491   1.328  0.5062  0.1691 -0.1979
 3885SOL    HW123291   3.477   1.459   1.364 -0.3304 -1.3581  0.4138
 3885SOL    HW223292   3.346   1.408   1.340 -0.3224  0.8181  1.1086
 3886SOL     OW23293   2.184   1.666   5.667  0.2397  0.5853  0.2613
 3886SOL    HW123294   2.219   1.668   5.756  2.5025  0.2608 -0.6319
 3886SOL    HW223295   2.095   1.641   5.692  0.2134  0.0648 -0.3454
 3887SOL     OW23296   3.448   0.127  15.191 -0.2567 -0.0237 -0.6429
 3887SOL    HW123297   3.381   0.193  15.206  0.8944  0.6872  1.3784
 3887SOL    HW223298   3.409   0.051  15.234  1.4269 -0.4728  0.1148
 3888SOL     OW23299   0.212   4.287  10.507 -0.5863 -0.2764 -0.5061
 3888SOL    HW123300   0.238   4.327  10.424 -0.1313  1.4689  0.4749
 3888SOL    HW223301   0.133   4.238  10.483 -1.5020  1.7680 -1.6202
 3889SOL     OW23302   1.678   3.556   0.887 -0.0294  0.2974 -0.1520
 3889SOL    HW123303   1.676   3.539   0.981 -3.5885 -2.0078 -0.6290
 3889SOL    HW223304   1.627   3.485   0.847  0.7340 -1.6983  2.4616
 3890SOL     OW23305   0.930   3.147   1.885 -0.2835  0.0199  0.0891
 3890SOL    HW123306   0.986   3.158   1.962  1.6688 -0.7436 -1.2010
 3890SOL    HW223307   0.868   3.078   1.908 -2.2897  1.2531 -1.5746
 3891SOL     OW23308   2.800   1.475   9.207 -0.2377 -0.1036  0.3844
 3891SOL    HW123309   2.769   1.389   9.237  1.3382 -1.2283 -1.2366
 3891SOL    HW223310   2.892   1.465   9.231 -0.9010 -2.2984  2.0677
 3892SOL     OW23311   0.438   3.382   9.779 -0.3822  0.1562 -0.4330
 3892SOL    HW123312   0.500   3.327   9.730  0.1414 -0.8168  1.3275
 3892SOL    HW223313   0.496   3.458   9.770 -0.4213  0.1330 -0.8635
 3893SOL     OW23314   3.354   2.455   5.741  0.1805 -0.0795  0.5819
 3893SOL    HW123315   3.370   2.507   5.819 -1.5214  1.0446  0.1584
 3893SOL    HW223316   3.353   2.372   5.790  0.0876 -1.4261 -1.6622
 3894SOL     OW23317   1.552   0.436   2.231 -0.3130 -0.3387 -0.3309
 3894SOL    HW123318   1.642   0.417   2.256  0.0502  1.1945 -0.5032
 3894SOL    HW223319   1.503   0.450   2.312  2.8483  2.2323  1.0962
 3895SOL     OW23320   1.402   1.165   3.111 -0.0266 -0.7451 -0.4930
 3895SOL    HW123321   1.439   1.081   3.084  0.1906 -1.2004  1.2190
 3895SOL    HW223322   1.387   1.152   3.205 -0.4908  1.5618 -0.2378
 3896SOL     OW23323   0.505   2.429   7.817 -0.2624  0.1210  0.0457
 3896SOL    HW123324   0.525   2.475   7.898  2.1767 -0.9866  0.0721
 3896SOL    HW223325   0.427   2.483   7.804 -1.1904 -0.8819  1.5089
 3897SOL     OW23326   0.488   2.577   6.803 -0.3201  0.3665 -0.4305
 3897SOL    HW123327   0.490   2.573   6.708  1.6971  0.8378 -0.3945
 3897SOL    HW223328   0.442   2.495   6.822  0.7686 -0.2427 -0.4215
 3898SOL     OW23329   2.334   3.160   1.757 -0.3387  0.2447 -0.8883
 3898SOL    HW123330   2.395   3.108   1.704  0.6201  0.4546  0.0139
 3898SOL    HW223331   2.375   3.160   1.843 -2.2790  1.7653  0.0262
 3899SOL     OW23332   1.984   1.312  14.866  0.0820  0.2253 -0.2086
 3899SOL    HW123333   2.007   1.243  14.928  0.1839  0.3617 -0.0927
 3899SOL    HW223334   2.073   1.348  14.869  0.6213 -0.8962 -2.7500
 3900SOL     OW23335   3.899   2.012   2.860 -0.5258 -0.1898 -0.1188
 3900SOL    HW123336   3.874   1.993   2.770  1.1842  0.1386 -0.6702
 3900SOL    HW223337   3.859   1.948   2.919  1.7872 -0.1347  1.5462
 3901SOL     OW23338   3.078   2.517   2.902  0.2816 -0.2986 -0.1049
 3901SOL    HW123339   3.129   2.563   2.968 -1.8002  0.3094  1.0945
 3901SOL    HW223340   2.990   2.518   2.939 -0.6967 -0.3473 -2.4181
 3902SOL     OW23341   2.209   3.483   5.841  0.2751 -0.1780 -0.1453
 3902SOL    HW123342   2.223   3.509   5.750 -1.0647  0.3501 -0.1886
 3902SOL    HW223343   2.220   3.566   5.886  0.5487 -0.4955  0.3775
 3903SOL     OW23344   3.425   2.447  17.011  0.2362 -0.7163  0.0765
 3903SOL    HW123345   3.330   2.439  17.020 -0.1055  1.5996 -1.6105
 3903SOL    HW223346   3.435   2.420  16.920  1.1195 -2.9768  0.8346
 3904SOL     OW23347   3.065   2.872   2.179 -0.0115 -0.0340  0.0768
 3904SOL    HW123348   3.117   2.935   2.129  0.3204 -0.1965  0.2239
 3904SOL    HW223349   3.009   2.827   2.117 -0.5037 -0.4750  0.8412
 3905SOL     OW23350   4.272   3.787   7.360  0.0072  0.0582  0.2115
 3905SOL    HW123351   4.324   3.852   7.407 -0.5971  1.0504 -0.4711
 3905SOL    HW223352   4.196   3.775   7.416  0.5174 -1.0834  0.6592
 3906SOL     OW23353   3.365   0.682  14.993 -0.7711  0.0544 -0.6297
 3906SOL    HW123354   3.328   0.639  14.916 -0.1135 -4.0346  1.3224
 3906SOL    HW223355   3.287   0.697  15.047  0.4222 -1.1345  1.4493
 3907SOL     OW23356   4.524   2.360   3.953  0.0132  0.1568 -0.2330
 3907SOL    HW123357   4.439   2.381   3.991  0.9211  0.3300  1.6779
 3907SOL    HW223358   4.526   2.268   3.979 -1.0578  0.1938 -0.0301
 3908SOL     OW23359   3.170   2.272   7.653 -0.1046 -0.3994 -0.0899
 3908SOL    HW123360   3.218   2.345   7.694 -0.7616 -0.2950  0.4920
 3908SOL    HW223361   3.200   2.191   7.695 -0.7795 -0.0430  1.1000
 3909SOL     OW23362   4.413   3.673   7.692  0.2669 -0.9048 -0.0660
 3909SOL    HW123363   4.479   3.658   7.760 -1.7538  0.2822  2.1705
 3909SOL    HW223364   4.328   3.666   7.737 -1.1023 -3.8056 -3.1504
 3910SOL     OW23365   0.960   1.841   5.709 -0.2170  0.1680  0.1456
 3910SOL    HW123366   0.962   1.927   5.667  0.3010 -0.1020 -0.3797
 3910SOL    HW223367   1.024   1.850   5.780 -1.8026  1.6067  1.3775
 3911SOL     OW23368   1.463   1.273  12.682 -0.0493  0.1556  0.2674
 3911SOL    HW123369   1.446   1.192  12.730  0.7581  0.5416  1.2041
 3911SOL    HW223370   1.554   1.289  12.706 -0.5430  1.1345  1.5072
 3912SOL     OW23371   4.159   1.184  15.316  0.5157 -0.3441 -0.0241
 3912SOL    HW123372   4.066   1.164  15.325  0.1812 -0.3779 -3.6229
 3912SOL    HW223373   4.167   1.265  15.367  0.9914 -0.1256 -0.4566
 3913SOL     OW23374   2.788   3.976   7.315  0.2482 -0.0007  0.4010
 3913SOL    HW123375   2.861   3.976   7.378  0.7711 -0.5395 -0.2070
 3913SOL    HW223376   2.739   4.043   7.363  0.2003  0.1714  0.1145
 3914SOL     OW23377   0.897   1.802   8.525 -0.3115  0.1591  0.0558
 3914SOL    HW123378   0.867   1.776   8.612 -2.3372 -2.9398 -1.5731
 3914SOL    HW223379   0.830   1.859   8.487 -1.1307  0.1695  1.5245
 3915SOL     OW23380   3.306   3.055   8.174  0.1733  0.0477  0.2685
 3915SOL    HW123381   3.227   3.022   8.132  0.5296  1.3546 -1.4148
 3915SOL    HW223382   3.340   2.980   8.222 -0.3375 -0.6475 -0.4727
 3916SOL     OW23383   2.392   0.575   7.142  0.1346  0.2980  0.1022
 3916SOL    HW123384   2.451   0.594   7.068 -0.3571  1.2014 -0.0482
 3916SOL    HW223385   2.307   0.609   7.114 -0.3475 -0.2567  0.8793
 3917SOL     OW23386   1.232   4.283  16.077 -0.9076 -0.0476  0.2908
 3917SOL    HW123387   1.309   4.254  16.028 -0.3602  2.0909 -0.1089
 3917SOL    HW223388   1.231   4.215  16.144  0.7638 -0.4571 -0.1065
 3918SOL     OW23389   3.260   1.359   2.084 -0.3633 -0.3789 -0.4243
 3918SOL    HW123390   3.274   1.453   2.071  0.0896 -0.4099 -0.1471
 3918SOL    HW223391   3.351   1.330   2.094 -0.5450 -0.7797  0.0695
 3919SOL     OW23392   1.976   1.037   5.628 -0.4695  0.0676 -0.2482
 3919SOL    HW123393   1.926   1.092   5.688 -2.0830  0.3533 -1.8406
 3919SOL    HW223394   1.912   0.977   5.590 -1.3304  0.4663  0.5883
 3920SOL     OW23395   2.464   2.762   0.789  0.6402 -0.4621  1.2152
 3920SOL    HW123396   2.479   2.789   0.879 -3.5423  0.6564  1.5481
 3920SOL    HW223397   2.538   2.704   0.770  0.9414 -0.0977  1.2757
 3921SOL     OW23398   0.470   0.702   6.725  0.1404  0.1376  0.0318
 3921SOL    HW123399   0.565   0.716   6.730  0.1561  0.8721 -2.4046
 3921SOL    HW223400   0.433   0.789   6.740 -2.3958 -0.6683 -1.5507
 3922SOL     OW23401   2.107   4.060   7.488  0.1871 -0.0183 -0.2863
 3922SOL    HW123402   2.105   4.052   7.584 -1.4396 -0.8960 -0.3919
 3922SOL    HW223403   2.113   3.965   7.477 -0.7432 -0.1120 -0.0187
 3923SOL     OW23404   2.358   4.220   6.878  0.2458  0.3657  0.3438
 3923SOL    HW123405   2.395   4.154   6.937 -1.2197 -1.6174 -0.9699
 3923SOL    HW223406   2.353   4.294   6.938 -0.0736  1.0038 -0.4719
 3924SOL     OW23407   2.809   4.724   5.802 -0.1914  0.0553 -0.2667
 3924SOL    HW123408   2.817   0.060   5.742  0.7430 -0.0136 -0.2356
 3924SOL    HW223409   2.876   0.001   5.869 -0.1289 -0.6540 -0.1730
 3925SOL     OW23410   1.094   2.911   2.254 -0.2207 -1.0241 -0.3069
 3925SOL    HW123411   1.003   2.933   2.237  0.2690  0.7497 -0.7027
 3925SOL    HW223412   1.117   2.979   2.318  1.2260 -1.3147 -0.5067
 3926SOL     OW23413   3.820   1.102   1.481  0.5731  0.1467 -0.2912
 3926SOL    HW123414   3.838   1.184   1.527 -1.0589  1.2912 -1.6739
 3926SOL    HW223415   3.907   1.062   1.481  0.0015 -1.0848 -0.8907
 3927SOL     OW23416   4.304   4.667   3.471  0.0695  0.4874 -0.5729
 3927SOL    HW123417   4.256   4.719   3.536 -2.9568 -0.0366 -2.4072
 3927SOL    HW223418   4.250   4.589   3.462 -0.9859  1.0476  0.8595
 3928SOL     OW23419   0.425   2.370   2.889 -0.3693  0.4099 -0.3250
 3928SOL    HW123420   0.416   2.461   2.862 -1.3333  0.1387 -0.9451
 3928SOL    HW223421   0.346   2.362   2.943  0.3135 -1.8777  0.3386
 3929SOL     OW23422   1.830   0.542   8.154  0.2015  0.0519 -0.0747
 3929SOL    HW123423   1.823   0.487   8.232 -2.8850 -0.2636 -0.5719
 3929SOL    HW223424   1.898   0.601   8.186 -0.6654  0.8804  0.2353
 3930SOL     OW23425   2.783   2.286  11.783 -0.1840  0.7934 -0.7950
 3930SOL    HW123426   2.744   2.326  11.861  0.8644 -1.3604  0.8251
 3930SOL    HW223427   2.866   2.250  11.813 -1.6071  0.0166  2.2118
 3931SOL     OW23428   0.405   0.689  15.871  0.0579 -0.2552 -0.0666
 3931SOL    HW123429   0.324   0.637  15.868  0.1724 -0.5120  1.1849
 3931SOL    HW223430   0.439   0.645  15.949  1.8388 -1.8763 -1.7550
 3932SOL     OW23431   0.857   1.782  10.489  0.1225 -0.7621 -0.2174
 3932SOL    HW123432   0.804   1.704  10.470 -2.5562  0.9448  0.2192
 3932SOL    HW223433   0.944   1.754  10.463 -0.1089 -1.9139  0.2748
 3933SOL     OW23434   4.590   2.020  17.713  0.0346 -0.0618 -0.3352
 3933SOL    HW123435   4.648   2.092  17.685  0.0495  0.7637  1.8093
 3933SOL    HW223436   4.654   1.949  17.720  0.4623  0.4684  1.2291
 3934SOL     OW23437   3.561   3.682   7.705  0.0521  0.1461 -0.1093
 3934SOL    HW123438   3.610   3.661   7.784 -0.4726 -0.7412 -0.0180
 3934SOL    HW223439   3.519   3.766   7.719 -0.1550 -0.0562  0.4874
 3935SOL     OW23440   0.515   3.765   6.045 -0.0052 -0.2886 -0.2643
 3935SOL    HW123441   0.514   3.669   6.039  1.8599 -0.5305  3.0371
 3935SOL    HW223442   0.582   3.777   6.112 -1.1732  0.0905  0.8344
 3936SOL     OW23443   0.076   3.042  12.897  0.2611 -0.2572 -0.1543
 3936SOL    HW123444   0.057   2.984  12.823  0.6040  0.1282 -0.5397
 3936SOL    HW223445   4.727   3.065  12.927  0.9075  2.1876 -0.1410
 3937SOL     OW23446   1.922   3.237  12.640  0.4075  0.4028  0.5340
 3937SOL    HW123447   1.923   3.160  12.696 -2.1270  0.0664  0.1336
 3937SOL    HW223448   1.877   3.305  12.690 -0.4238 -0.3767  0.8400
 3938SOL     OW23449   3.853   4.699   1.655 -0.1774  0.0554  0.2514
 3938SOL    HW123450   3.780   0.021   1.639 -1.3017 -1.1472  0.9341
 3938SOL    HW223451   3.915   4.734   1.590 -0.7026  0.9576  0.2330
 3939SOL     OW23452   4.722   2.265   5.226  0.1213 -0.2331  0.3297
 3939SOL    HW123453   0.007   2.172   5.225  1.8346  0.1881  1.0036
 3939SOL    HW223454   0.070   2.298   5.249  0.7065 -1.1013 -0.5921
 3940SOL     OW23455   3.146   0.028   9.149  0.2902 -0.0809 -0.2606
 3940SOL    HW123456   3.241   0.026   9.154  0.3002  2.0720  0.3648
 3940SOL    HW223457   3.122   4.693   9.207 -0.5380  1.3821  1.2524
 3941SOL     OW23458   0.560   1.589  11.176 -0.0043  0.0577  0.5497
 3941SOL    HW123459   0.552   1.651  11.248 -0.3803 -0.0820  0.6266
 3941SOL    HW223460   0.654   1.599  11.159  0.2393 -2.8564  0.1394
 3942SOL     OW23461   4.024   4.233   6.194 -0.4182  0.2980 -0.5341
 3942SOL    HW123462   3.984   4.298   6.252  1.0267 -0.2008  1.0330
 3942SOL    HW223463   4.116   4.227   6.221 -0.2963  1.4719 -0.6824
 3943SOL     OW23464   3.605   1.851   9.404 -0.4007 -0.1880  0.3220
 3943SOL    HW123465   3.648   1.936   9.398  0.6591 -0.6462  1.5088
 3943SOL    HW223466   3.676   1.800   9.442  0.4411 -0.7365 -1.9891
 3944SOL     OW23467   2.300   0.003  17.545  0.6432 -0.4356 -0.5640
 3944SOL    HW123468   2.311   0.096  17.566  0.3292 -0.3223 -0.8916
 3944SOL    HW223469   2.204   4.737  17.540  0.6407 -2.9725  1.5892
 3945SOL     OW23470   3.999   3.541   4.991  0.7328  0.2952 -0.9949
 3945SOL    HW123471   4.066   3.509   5.051 -0.3997  1.3899  0.9140
 3945SOL    HW223472   4.050   3.605   4.942 -0.2107  0.9383 -1.1434
 3946SOL     OW23473   4.164   1.368   1.747 -0.1135  0.1535 -0.0563
 3946SOL    HW123474   4.106   1.370   1.823 -1.2372  2.5459 -0.9713
 3946SOL    HW223475   4.229   1.304   1.772 -0.5429 -0.2460  0.0295
 3947SOL     OW23476   1.511   4.562  10.847  0.2106 -0.8225 -0.3055
 3947SOL    HW123477   1.441   4.501  10.872  0.7194 -1.6352 -0.8691
 3947SOL    HW223478   1.493   4.600  10.761 -0.7322 -0.1178  0.2079
 3948SOL     OW23479   3.485   3.993  16.883  0.1391  0.2841 -0.4414
 3948SOL    HW123480   3.559   4.053  16.883  2.0069 -2.0141 -1.0212
 3948SOL    HW223481   3.428   4.067  16.906 -0.3049  0.1741 -1.1819
 3949SOL     OW23482   4.568   0.525  15.478  0.8032 -0.1326 -0.4332
 3949SOL    HW123483   4.587   0.510  15.386  2.6627 -2.1800  0.2847
 3949SOL    HW223484   4.617   0.603  15.503  0.5300 -0.2602  0.4880
 3950SOL     OW23485   4.591   4.161   3.952  0.4509 -0.1596 -0.5348
 3950SOL    HW123486   4.652   4.170   3.879  1.4971 -1.4089  0.1802
 3950SOL    HW223487   4.508   4.142   3.910  0.2451 -3.0076  1.1879
 3951SOL     OW23488   3.396   3.302   2.689 -0.3858  0.2163 -0.1675
 3951SOL    HW123489   3.476   3.340   2.653  0.5318  1.5627  3.2326
 3951SOL    HW223490   3.378   3.224   2.636 -0.0621  2.3549 -3.3905
 3952SOL     OW23491   0.733   2.304   7.037 -0.3538 -0.2372  0.0364
 3952SOL    HW123492   0.670   2.236   7.059 -1.0954 -0.3552 -2.4082
 3952SOL    HW223493   0.817   2.275   7.071  0.1662  0.2014 -0.8609
 3953SOL     OW23494   4.189   4.198  11.456  0.3602 -0.1714 -0.0864
 3953SOL    HW123495   4.283   4.215  11.447  0.4908 -0.3618  0.9430
 3953SOL    HW223496   4.155   4.268  11.511  0.6828 -0.5584  0.6045
 3954SOL     OW23497   1.494   2.802   6.703 -0.1689 -0.6085 -0.2787
 3954SOL    HW123498   1.540   2.821   6.785  0.1036 -0.4561 -0.4655
 3954SOL    HW223499   1.532   2.719   6.675 -0.8502 -0.0434 -2.9206
 3955SOL     OW23500   1.722   3.703   5.247  0.0327 -0.4310 -0.0674
 3955SOL    HW123501   1.740   3.693   5.154  0.1566 -2.6315  0.1935
 3955SOL    HW223502   1.797   3.754   5.276  0.6716 -2.2909  1.5156
 3956SOL     OW23503   0.460   0.152   2.312  0.3266 -0.7503 -0.1349
 3956SOL    HW123504   0.449   0.246   2.299  0.2774 -0.5325  1.5333
 3956SOL    HW223505   0.396   0.144   2.382 -1.0024  1.3551 -1.1452
 3957SOL     OW23506   4.440   0.593  10.141 -0.1385  0.5837 -0.1219
 3957SOL    HW123507   4.501   0.584  10.068  1.7223 -0.4800  1.5660
 3957SOL    HW223508   4.376   0.524  10.122  1.4353 -1.3331  1.5443
 3958SOL     OW23509   1.792   0.582  13.217 -0.5523 -0.0955  0.0127
 3958SOL    HW123510   1.879   0.573  13.255 -0.5956 -0.1080  0.1088
 3958SOL    HW223511   1.728   0.584  13.289  0.1753  1.2127  0.6052
 3959SOL     OW23512   4.520   3.085   2.756  0.8190 -0.6588 -0.2497
 3959SOL    HW123513   4.606   3.044   2.747  1.6698  1.2023 -0.6221
 3959SOL    HW223514   4.542   3.147   2.825  1.3077 -1.7002  0.5308
 3960SOL     OW23515   1.712   0.289   1.430  0.5777 -1.1131 -0.0156
 3960SOL    HW123516   1.635   0.233   1.447 -1.2048  1.3299 -0.0187
 3960SOL    HW223517   1.709   0.346   1.506  0.9039 -0.0643 -0.7849
 3961SOL     OW23518   2.599   1.506   1.851  0.2275 -0.2957 -0.5971
 3961SOL    HW123519   2.532   1.446   1.820  0.5098 -1.0658  0.2657
 3961SOL    HW223520   2.650   1.438   1.896  1.1572 -0.7291 -2.2964
 3962SOL     OW23521   2.891   1.099   4.557  0.2854 -0.0148  0.5313
 3962SOL    HW123522   2.818   1.109   4.496  1.8949 -0.9990 -1.5645
 3962SOL    HW223523   2.954   1.160   4.520  0.0784  0.0140  0.2285
 3963SOL     OW23524   4.099   1.655   4.007 -0.2201 -0.1759 -0.1713
 3963SOL    HW123525   4.023   1.605   4.037  0.7852 -1.6697 -0.1116
 3963SOL    HW223526   4.170   1.624   4.064  1.0982 -0.5336 -2.0428
 3964SOL     OW23527   0.219   2.653   0.124 -0.4002 -0.3883  0.3870
 3964SOL    HW123528   0.168   2.605   0.189 -2.3061 -0.0863 -0.8817
 3964SOL    HW223529   0.226   2.741   0.160  0.7146  0.1411 -1.1182
 3965SOL     OW23530   1.391   4.674  16.214 -0.2893 -0.4392 -0.3908
 3965SOL    HW123531   1.441   4.735  16.160 -1.8331  1.4292  0.2905
 3965SOL    HW223532   1.312   4.651  16.165  0.2629 -1.9973 -0.5682
 3966SOL     OW23533   2.857   1.519   4.927 -0.4849  0.8733 -0.3572
 3966SOL    HW123534   2.850   1.607   4.891  0.1296  0.9379 -0.3280
 3966SOL    HW223535   2.916   1.487   4.858 -1.0148 -2.6821  0.8413
 3967SOL     OW23536   3.959   0.009   8.615  0.8375 -0.1694 -0.5213
 3967SOL    HW123537   3.934   0.065   8.541  0.1335  1.8156  1.2194
 3967SOL    HW223538   3.881   4.696   8.636 -0.2931  3.2162  3.3989
 3968SOL     OW23539   2.404   1.860   9.805 -0.2142 -0.1587 -0.0805
 3968SOL    HW123540   2.385   1.794   9.872 -0.4326 -0.1090 -0.0952
 3968SOL    HW223541   2.379   1.802   9.734  1.5200  0.3461 -1.1019
 3969SOL     OW23542   4.123   0.825   2.624  0.0874  0.2971 -0.5442
 3969SOL    HW123543   4.133   0.811   2.530 -2.6530 -1.2658 -0.5870
 3969SOL    HW223544   4.051   0.765   2.640 -2.4101  3.5886  0.4999
 3970SOL     OW23545   0.253   2.758  12.637 -0.3934 -0.1777  0.1715
 3970SOL    HW123546   0.344   2.731  12.620 -0.0706  0.1113  1.4905
 3970SOL    HW223547   0.223   2.683  12.688 -0.6159 -0.0490  0.2275
 3971SOL     OW23548   4.435   2.663   0.856  0.4258 -0.1934 -0.4602
 3971SOL    HW123549   4.462   2.600   0.922  0.7616  1.0792  0.6205
 3971SOL    HW223550   4.511   2.657   0.798  0.9056 -0.7165  0.2282
 3972SOL     OW23551   3.078   0.224   5.762  0.4244  0.5218 -0.3074
 3972SOL    HW123552   3.008   0.188   5.708 -0.4283  0.1164  1.0632
 3972SOL    HW223553   3.102   0.306   5.719 -0.8183 -0.1525 -2.2809
 3973SOL     OW23554   0.336   4.500   1.319  0.2968 -0.2056  0.1493
 3973SOL    HW123555   0.353   4.417   1.362  0.3298 -0.7015 -0.8214
 3973SOL    HW223556   0.340   4.470   1.229 -0.8970  0.3199 -0.0836
 3974SOL     OW23557   2.561   2.162  10.395  0.4453 -0.0796 -0.0248
 3974SOL    HW123558   2.503   2.225  10.351 -0.9406 -1.8881 -0.7917
 3974SOL    HW223559   2.570   2.212  10.476 -1.4506  1.5987 -0.8433
 3975SOL     OW23560   3.627   2.965   2.090  0.1725  0.3457 -0.0032
 3975SOL    HW123561   3.595   3.019   2.163 -0.0454  1.6648 -1.0664
 3975SOL    HW223562   3.546   2.959   2.039 -0.0034  2.2234  0.0590
 3976SOL     OW23563   2.255   3.328   3.845 -0.1773 -0.2534  0.1679
 3976SOL    HW123564   2.248   3.406   3.901  0.8114  1.7762 -2.5429
 3976SOL    HW223565   2.189   3.359   3.782  0.5679  0.3455 -0.3156
 3977SOL     OW23566   0.527   3.743   4.832 -0.2654 -0.5851  0.3078
 3977SOL    HW123567   0.583   3.819   4.852 -1.4998  0.1821  0.8417
 3977SOL    HW223568   0.571   3.711   4.754  0.7000 -2.9438  1.7937
 3978SOL     OW23569   0.010   2.883   8.842  0.0199 -0.5046 -0.4242
 3978SOL    HW123570   0.014   2.954   8.906 -2.3187 -0.1001 -0.7123
 3978SOL    HW223571   0.098   2.883   8.805  0.1424 -0.4170 -0.1355
 3979SOL     OW23572   4.732   1.759   8.061 -0.2874  0.0984 -0.0926
 3979SOL    HW123573   0.036   1.724   7.983  1.2291  2.5079 -0.3592
 3979SOL    HW223574   4.643   1.770   8.028 -0.2964  1.5923  0.4319
 3980SOL     OW23575   2.086   4.013   7.762 -0.1585  0.3842  0.0669
 3980SOL    HW123576   2.094   4.036   7.855  1.9444 -2.9077  0.6963
 3980SOL    HW223577   1.994   4.039   7.755 -0.1986  0.3088  0.3218
 3981SOL     OW23578   3.180   0.752   2.952 -0.2005 -0.0982 -0.9799
 3981SOL    HW123579   3.103   0.805   2.934 -0.6180 -0.4445 -0.2361
 3981SOL    HW223580   3.180   0.765   3.047 -1.0517  1.0565 -1.1463
 3982SOL     OW23581   4.581   2.739   2.615  0.3561  0.1911 -0.2285
 3982SOL    HW123582   4.493   2.722   2.647  0.9059 -0.0198  1.1946
 3982SOL    HW223583   4.584   2.693   2.531 -0.3335 -2.9890  1.4863
 3983SOL     OW23584   1.586   3.353   7.017 -0.1780  0.1331  0.0805
 3983SOL    HW123585   1.581   3.315   6.930 -2.2183  0.5650  0.0210
 3983SOL    HW223586   1.632   3.435   6.995  0.0086  0.2918  1.0326
 3984SOL     OW23587   3.512   3.702   2.232  0.0138 -0.0105 -0.4145
 3984SOL    HW123588   3.502   3.729   2.140 -2.0638 -2.8207 -1.0182
 3984SOL    HW223589   3.506   3.787   2.275  1.3695 -0.0558 -0.1396
 3985SOL     OW23590   2.509   0.899   9.500 -0.0677 -0.0816 -0.1314
 3985SOL    HW123591   2.580   0.876   9.440  0.6616  3.5561 -0.6982
 3985SOL    HW223592   2.461   0.817   9.498  1.6568 -1.0596 -1.1052
 3986SOL     OW23593   3.362   2.891   2.028 -0.4473 -0.0985  0.0063
 3986SOL    HW123594   3.377   2.846   2.111 -1.6824  1.7902  1.2495
 3986SOL    HW223595   3.350   2.827   1.957 -0.9859 -0.2162  0.1974
 3987SOL     OW23596   0.291   4.162   1.810 -0.6001  0.5732 -0.7828
 3987SOL    HW123597   0.373   4.200   1.781  0.5946 -0.6269  1.0179
 3987SOL    HW223598   0.231   4.234   1.830 -0.8920  0.5137 -1.4487
 3988SOL     OW23599   0.758   3.212   3.266  0.7542 -0.2912 -0.1492
 3988SOL    HW123600   0.734   3.136   3.212  2.4836 -1.2524  0.4494
 3988SOL    HW223601   0.829   3.168   3.312  1.1649 -0.4421 -0.9342
 3989SOL     OW23602   0.491   1.514   7.390 -0.6521  0.4122 -0.1940
 3989SOL    HW123603   0.439   1.435   7.375  0.1098 -0.1196 -0.0138
 3989SOL    HW223604   0.571   1.486   7.434  0.2318 -0.2462 -2.1768
 3990SOL     OW23605   4.586   4.656   8.577  0.2544  0.4270 -0.2894
 3990SOL    HW123606   4.681   4.646   8.589  0.1718  1.6285  1.3193
 3990SOL    HW223607   4.567   4.589   8.512  0.8335  0.3390 -0.3716
 3991SOL     OW23608   3.592   3.487   6.048 -0.2833  0.0309 -0.8649
 3991SOL    HW123609   3.510   3.436   6.046 -1.3469  1.7218 -0.2639
 3991SOL    HW223610   3.629   3.456   6.131 -0.7151  3.8730  0.7348
 3992SOL     OW23611   0.703   1.979   8.454 -0.6045 -0.0894 -0.2861
 3992SOL    HW123612   0.658   2.055   8.491  0.8817  0.2786  0.7834
 3992SOL    HW223613   0.650   1.965   8.375 -1.0091 -0.9738  0.1465
 3993SOL     OW23614   4.572   2.450  10.388 -0.3562 -0.4651  0.1870
 3993SOL    HW123615   4.496   2.437  10.445 -0.3882  1.1029  0.5017
 3993SOL    HW223616   4.612   2.520  10.440 -3.5602 -0.2377  2.3962
 3994SOL     OW23617   4.092   3.823   3.261 -0.6030 -0.0524  0.6981
 3994SOL    HW123618   4.153   3.874   3.207  0.6184 -0.8892  1.2776
 3994SOL    HW223619   4.101   3.730   3.240 -1.5483  0.5598 -2.3079
 3995SOL     OW23620   3.915   1.463   4.269 -0.1966 -0.2231 -0.3175
 3995SOL    HW123621   3.954   1.531   4.324 -1.6825 -0.3921  0.9485
 3995SOL    HW223622   3.975   1.388   4.272  0.2845  0.2937  3.3193
 3996SOL     OW23623   0.608   2.936  15.222  0.2350 -0.2541  0.3474
 3996SOL    HW123624   0.646   2.898  15.142  0.7318 -0.3121  0.6077
 3996SOL    HW223625   0.550   2.869  15.258  0.4391 -0.6680 -0.0876
 3997SOL     OW23626   1.657   0.755   2.267  0.0564 -0.2595  0.4759
 3997SOL    HW123627   1.647   0.689   2.198 -1.1708 -1.1176  1.4809
 3997SOL    HW223628   1.742   0.731   2.303  0.8691 -1.5372 -2.2806
 3998SOL     OW23629   2.952   4.266   9.737 -0.6707  0.1265  0.0850
 3998SOL    HW123630   2.900   4.188   9.716  0.9502 -1.1564  0.8925
 3998SOL    HW223631   3.041   4.255   9.703  0.3528 -0.9463  3.1491
 3999SOL     OW23632   4.599   4.115  11.527  0.4516  0.5346 -0.2020
 3999SOL    HW123633   4.532   4.170  11.486 -0.4082 -0.3190  0.0635
 3999SOL    HW223634   4.622   4.165  11.606  1.1279 -0.0390 -0.0353
 4000SOL     OW23635   3.913   2.871   3.787  0.5560 -0.2565  0.5431
 4000SOL    HW123636   3.984   2.819   3.751  1.2795  1.6607 -0.8205
 4000SOL    HW223637   3.835   2.817   3.774  2.0329 -2.5022  1.0247
 4001SOL     OW23638   3.579   2.038   5.038  0.4887  1.0874  0.0234
 4001SOL    HW123639   3.523   2.043   5.115 -2.4228 -2.1199 -1.8847
 4001SOL    HW223640   3.663   2.011   5.075 -0.4586 -2.9744 -0.8702
 4002SOL     OW23641   3.547   3.667   5.680  0.9533  0.0553 -0.3798
 4002SOL    HW123642   3.524   3.744   5.629 -0.4780  1.0111  1.6863
 4002SOL    HW223643   3.563   3.604   5.610 -1.7779 -1.6258  0.4798
 4003SOL     OW23644   0.248   3.927   2.577 -0.0619 -0.2092 -0.2276
 4003SOL    HW123645   0.337   3.956   2.555  0.5470 -2.4063 -0.6469
 4003SOL    HW223646   0.196   3.986   2.523 -2.2164 -1.5480  0.4001
 4004SOL     OW23647   1.815   2.009   5.395 -0.3841  0.0776 -0.1881
 4004SOL    HW123648   1.867   1.977   5.322  1.2088  0.0148  0.9697
 4004SOL    HW223649   1.737   2.002   5.341 -1.7485 -0.1907  1.8149
 4005SOL     OW23650   0.196   0.375  12.759  0.3752 -0.0269  0.4734
 4005SOL    HW123651   0.235   0.355  12.674  0.2123 -0.3596  0.4774
 4005SOL    HW223652   0.198   0.283  12.788 -2.1070  0.3022  1.6613
 4006SOL     OW23653   4.734   2.314   2.717  0.8037  0.5463  0.0110
 4006SOL    HW123654   4.643   2.336   2.699  0.7384  0.3055  0.0446
 4006SOL    HW223655   0.002   2.219   2.707  1.5590  0.5973 -0.0447
 4007SOL     OW23656   1.837   1.738   8.012 -0.5707  0.2067 -0.5123
 4007SOL    HW123657   1.926   1.773   8.008  0.0441 -1.3281 -0.3309
 4007SOL    HW223658   1.791   1.791   7.947 -1.1706 -0.1613 -0.3866
 4008SOL     OW23659   2.226   2.608  12.963 -0.1592 -0.0588  0.0846
 4008SOL    HW123660   2.189   2.671  13.026 -0.8496 -1.6417  1.2645
 4008SOL    HW223661   2.258   2.550  13.032  2.7291  1.7875  0.3178
 4009SOL     OW23662   2.059   2.270   5.669 -0.1369  0.0362 -0.5043
 4009SOL    HW123663   2.114   2.266   5.590  1.7252 -0.3234  0.8129
 4009SOL    HW223664   2.074   2.358   5.705 -2.0559 -0.9479  2.6682
 4010SOL     OW23665   3.941   0.379  12.066  0.1070 -0.3325 -0.4111
 4010SOL    HW123666   3.851   0.391  12.097  0.3951 -0.8762  0.6303
 4010SOL    HW223667   3.978   0.361  12.153 -0.1900 -1.9247 -0.6137
 4011SOL     OW23668   2.669   1.053   9.698  0.2797  0.8348  0.0593
 4011SOL    HW123669   2.699   1.098   9.618 -2.3651 -1.0831 -2.0210
 4011SOL    HW223670   2.638   0.971   9.660 -0.5414  1.5877 -0.9154
 4012SOL     OW23671   2.954   1.107  14.443  0.5500 -0.1831 -1.0967
 4012SOL    HW123672   3.003   1.025  14.442  1.8021  0.5282  0.6696
 4012SOL    HW223673   3.019   1.161  14.490 -1.8913  1.8501 -0.0656
 4013SOL     OW23674   0.904   1.452   4.557 -0.1379  0.2406  0.4881
 4013SOL    HW123675   0.983   1.506   4.564 -0.4829  0.9601 -1.3161
 4013SOL    HW223676   0.851   1.513   4.505 -0.2275 -0.3080 -0.0514
 4014SOL     OW23677   2.598   4.059   6.681  0.4285  0.2519  0.0846
 4014SOL    HW123678   2.524   4.115   6.657  0.2928  0.6137  1.3775
 4014SOL    HW223679   2.660   4.114   6.633  1.9194  0.4892  2.2746
 4015SOL     OW23680   1.259   3.446   7.449  0.2965 -0.0417 -0.1293
 4015SOL    HW123681   1.184   3.504   7.433 -0.1230  0.0709  2.2129
 4015SOL    HW223682   1.226   3.357   7.435 -0.6040  0.2064  0.3793
 4016SOL     OW23683   0.250   1.651   8.121  0.2376 -0.5381 -0.1879
 4016SOL    HW123684   0.211   1.565   8.104 -0.1783 -0.2014 -0.9386
 4016SOL    HW223685   0.166   1.695   8.127  0.3807  0.0616 -2.3218
 4017SOL     OW23686   2.509   1.620   6.052  0.5893  0.9867 -0.0593
 4017SOL    HW123687   2.461   1.541   6.077  1.2781 -0.0282 -1.9159
 4017SOL    HW223688   2.581   1.585   5.999 -0.1268 -0.1286 -0.2992
 4018SOL     OW23689   2.074   3.537   6.653  0.5152 -0.0842 -0.8798
 4018SOL    HW123690   2.078   3.475   6.581 -0.7901  0.1019 -1.1160
 4018SOL    HW223691   2.140   3.505   6.714  1.0500  0.6819 -1.0573
 4019SOL     OW23692   3.465   4.434  15.434 -0.2440  0.3804 -0.4635
 4019SOL    HW123693   3.416   4.503  15.391 -2.0644 -0.3631  0.4205
 4019SOL    HW223694   3.511   4.399  15.358 -0.3642  0.1893 -0.4477
 4020SOL     OW23695   0.950   4.350   1.619  0.1304 -0.0688  0.7935
 4020SOL    HW123696   0.887   4.327   1.551  1.2052  0.3247 -0.3389
 4020SOL    HW223697   0.935   4.288   1.691 -1.0901 -1.4817 -0.7115
 4021SOL     OW23698   2.402   0.298   2.894  0.2517  0.3220  0.6646
 4021SOL    HW123699   2.380   0.207   2.912  0.1724 -0.4224 -3.2153
 4021SOL    HW223700   2.405   0.328   2.985 -1.9582 -0.2665  0.9493
 4022SOL     OW23701   0.309   2.516  14.341  0.5818  0.0649  0.0644
 4022SOL    HW123702   0.278   2.568  14.415 -0.5846 -0.2359 -0.2145
 4022SOL    HW223703   0.400   2.545  14.346  0.5792 -0.1334  1.5371
 4023SOL     OW23704   2.191   1.459   3.720  0.1349 -0.0298 -0.4764
 4023SOL    HW123705   2.228   1.547   3.709  0.3085  0.0502  0.7860
 4023SOL    HW223706   2.136   1.482   3.795  1.1359 -1.6848  0.7560
 4024SOL     OW23707   1.454   0.318   6.946  0.3412  0.3613 -0.2317
 4024SOL    HW123708   1.483   0.355   6.863  1.7791  2.3426  1.1449
 4024SOL    HW223709   1.492   0.230   6.942  2.0260  1.1753 -2.0613
 4025SOL     OW23710   1.440   0.509  12.612 -0.4949 -0.6148  0.3196
 4025SOL    HW123711   1.514   0.510  12.552 -0.9103  2.5937 -0.1499
 4025SOL    HW223712   1.455   0.595  12.653  0.2846 -0.1288 -0.9904
 4026SOL     OW23713   1.607   3.963  17.143  0.0780  0.9121 -0.2164
 4026SOL    HW123714   1.673   3.918  17.090 -1.3708 -0.9178 -0.4650
 4026SOL    HW223715   1.665   4.030  17.178  1.3192 -0.7355  0.8914
 4027SOL     OW23716   3.377   1.193  14.041 -0.2533 -0.3460 -0.1658
 4027SOL    HW123717   3.314   1.152  14.100 -0.1463 -1.9008 -1.1382
 4027SOL    HW223718   3.355   1.157  13.955 -1.6673 -0.3351  0.1830
 4028SOL     OW23719   1.438   3.425   9.703  0.1863  0.1622 -0.5722
 4028SOL    HW123720   1.378   3.479   9.754  1.2522 -0.5209  1.4135
 4028SOL    HW223721   1.494   3.496   9.673  0.4289  0.0702 -0.3383
 4029SOL     OW23722   2.513   0.588   6.559 -0.2403  0.2485 -0.7401
 4029SOL    HW123723   2.470   0.564   6.640 -0.9054  0.7896 -0.9331
 4029SOL    HW223724   2.457   0.659   6.529  1.4465  2.1000  0.4868
 4030SOL     OW23725   2.417   2.960  10.845  0.2107 -0.6130  0.4062
 4030SOL    HW123726   2.337   3.012  10.837  0.3809 -0.6280 -1.5209
 4030SOL    HW223727   2.434   2.958  10.939 -1.4863  1.9696  0.7620
 4031SOL     OW23728   0.321   2.168  11.663  0.3639  0.4173  0.2761
 4031SOL    HW123729   0.282   2.255  11.659  1.6976  0.9810 -0.5755
 4031SOL    HW223730   0.332   2.152  11.756 -3.7065  1.5989  0.9444
 4032SOL     OW23731   2.801   1.804  16.621  0.7152  0.1336 -0.5399
 4032SOL    HW123732   2.752   1.820  16.702 -0.2417  0.1468 -1.1172
 4032SOL    HW223733   2.787   1.710  16.609 -3.0110  0.5981 -0.1266
 4033SOL     OW23734   0.369   1.426   4.627  0.1456  0.9326  0.2033
 4033SOL    HW123735   0.440   1.426   4.691  0.6547  1.2768 -0.3603
 4033SOL    HW223736   0.402   1.363   4.563  1.1044  2.7502 -1.0931
 4034SOL     OW23737   1.516   1.363  17.423 -0.2180  0.1049  0.0340
 4034SOL    HW123738   1.607   1.363  17.452 -0.8653  0.3524  2.1237
 4034SOL    HW223739   1.509   1.456  17.404 -0.6754 -0.1331 -0.9520
 4035SOL     OW23740   0.263   1.794   6.188 -0.5236  0.1042  0.2744
 4035SOL    HW123741   0.312   1.875   6.197 -1.4543  0.7087 -0.0804
 4035SOL    HW223742   0.308   1.739   6.124 -1.0245 -0.1892  0.1686
 4036SOL     OW23743   0.300   3.048   1.836 -0.0729 -0.0330 -0.0312
 4036SOL    HW123744   0.241   3.121   1.852 -1.6514 -0.9661 -1.5004
 4036SOL    HW223745   0.241   2.973   1.823 -0.9234  0.7366 -0.6369
 4037SOL     OW23746   0.595   1.182  13.561 -0.5607 -0.4409  0.1553
 4037SOL    HW123747   0.590   1.115  13.492  0.0327  2.3815 -2.6187
 4037SOL    HW223748   0.527   1.237  13.523  1.1359  0.6232 -1.3327
 4038SOL     OW23749   3.263   2.636   1.864 -0.4441 -0.4092  0.7448
 4038SOL    HW123750   3.238   2.589   1.944  1.2048  0.3191  1.6812
 4038SOL    HW223751   3.331   2.578   1.831  0.8344  1.2617  0.4490
 4039SOL     OW23752   1.336   3.336   5.524 -0.4759 -0.1694  0.2815
 4039SOL    HW123753   1.360   3.423   5.492  0.6094 -0.0781  1.3575
 4039SOL    HW223754   1.335   3.345   5.619  1.0295  0.3631  0.2506
 4040SOL     OW23755   4.113   1.463   7.656  0.2883  0.1399  0.1069
 4040SOL    HW123756   4.164   1.458   7.736  0.2246 -0.0826  0.1352
 4040SOL    HW223757   4.176   1.461   7.583  1.0769  2.1260  0.7505
 4041SOL     OW23758   2.313   2.700   2.975 -0.3626 -0.2616  0.2441
 4041SOL    HW123759   2.320   2.606   2.963 -0.1776 -0.0206 -1.5071
 4041SOL    HW223760   2.229   2.713   2.932  0.9625  3.0604 -1.3869
 4042SOL     OW23761   0.391   0.361   5.441  0.0848  0.2874 -0.0202
 4042SOL    HW123762   0.328   0.419   5.482  1.9469  2.9191 -0.8441
 4042SOL    HW223763   0.387   0.275   5.481 -0.7034  0.4433  0.2285
 4043SOL     OW23764   3.961   2.759   8.640  0.0822 -0.1752  0.0894
 4043SOL    HW123765   4.036   2.700   8.646 -0.0968 -0.3258  0.9313
 4043SOL    HW223766   3.894   2.691   8.652  1.4741 -1.4841  0.4874
 4044SOL     OW23767   4.524   0.679   8.858 -0.3824 -0.1492  0.3598
 4044SOL    HW123768   4.497   0.708   8.771  0.9655  3.2343  1.0547
 4044SOL    HW223769   4.446   0.697   8.911 -1.0247  0.3247 -0.7464
 4045SOL     OW23770   0.898   0.024   3.095 -0.0686  0.3668  0.1918
 4045SOL    HW123771   0.841   4.729   3.164  3.0572 -0.5630  2.3017
 4045SOL    HW223772   0.960   4.689   3.095  1.2587  1.4991  0.6958
 4046SOL     OW23773   0.506   1.264   9.032  0.5416 -0.2295  0.1243
 4046SOL    HW123774   0.565   1.227   9.098 -0.5895 -3.0557 -0.4376
 4046SOL    HW223775   0.517   1.210   8.954  0.1399  2.4275 -1.7555
 4047SOL     OW23776   0.913   3.431  11.253 -0.3268 -0.1802 -0.0795
 4047SOL    HW123777   0.996   3.465  11.220 -0.0602  0.4737  1.2671
 4047SOL    HW223778   0.923   3.338  11.235 -2.5698 -0.6630  1.1785
 4048SOL     OW23779   2.816   0.233   6.243  0.0782 -0.7221 -0.4852
 4048SOL    HW123780   2.893   0.206   6.193  1.1355  0.3839  0.5406
 4048SOL    HW223781   2.745   0.199   6.189  0.0138  2.2159 -2.2381
 4049SOL     OW23782   0.489   1.937   7.577  0.0700 -0.0742  0.0548
 4049SOL    HW123783   0.556   1.983   7.628  0.0309  1.1909 -1.0557
 4049SOL    HW223784   0.501   1.979   7.492 -1.4249  2.4877  1.1233
 4050SOL     OW23785   0.238   1.934   9.127  0.0997  0.0403 -0.4137
 4050SOL    HW123786   0.308   1.870   9.111 -1.5296 -1.4605 -1.5082
 4050SOL    HW223787   0.183   1.924   9.049  0.6021  0.4333 -0.8164
 4051SOL     OW23788   2.996   2.377   0.422  0.4726 -0.2962 -0.1454
 4051SOL    HW123789   2.959   2.408   0.339 -0.3173 -1.6340 -0.2857
 4051SOL    HW223790   3.086   2.358   0.398  0.8446 -0.2709  1.2295
 4052SOL     OW23791   2.543   4.170   8.531  0.4240  0.4957 -0.3927
 4052SOL    HW123792   2.535   4.258   8.570  0.3261  0.1935  0.2666
 4052SOL    HW223793   2.638   4.170   8.522  0.4770 -2.2391  0.3279
 4053SOL     OW23794   2.418   1.213   7.236  0.3418  0.3239  0.7980
 4053SOL    HW123795   2.333   1.224   7.194  0.4324 -0.8682  0.2769
 4053SOL    HW223796   2.399   1.244   7.324  1.0292 -1.2461  1.5146
 4054SOL     OW23797   4.305   3.706   2.448 -0.0361  0.4352  0.0680
 4054SOL    HW123798   4.380   3.659   2.411  0.2735  0.2818  0.8926
 4054SOL    HW223799   4.305   3.666   2.535 -0.8390  1.1172  0.3820
 4055SOL     OW23800   0.839   3.034   1.424  0.9360  0.2015 -0.0000
 4055SOL    HW123801   0.775   2.975   1.464 -0.4165  0.0445 -2.4279
 4055SOL    HW223802   0.916   2.978   1.413  0.6961 -0.0310 -0.5172
 4056SOL     OW23803   1.116   0.953   1.939 -0.0808  0.5373 -0.0105
 4056SOL    HW123804   1.138   1.031   1.889 -1.6110  0.0564 -1.4588
 4056SOL    HW223805   1.125   1.003   2.020  1.0147  0.6492 -0.2084
 4057SOL     OW23806   0.097   2.743   4.928 -0.2385 -0.5768 -0.1448
 4057SOL    HW123807   0.087   2.835   4.954 -0.3723  0.0171 -2.3082
 4057SOL    HW223808   0.113   2.748   4.834 -0.3976 -0.1430 -0.1480
 4058SOL     OW23809   0.779   4.284   7.676 -0.7447 -0.7940  0.0028
 4058SOL    HW123810   0.731   4.333   7.743 -0.7977 -0.4091 -0.3215
 4058SOL    HW223811   0.770   4.349   7.607  0.8235 -1.2010 -0.5940
 4059SOL     OW23812   3.157   0.861   1.873 -0.2267 -0.1945  0.0259
 4059SOL    HW123813   3.233   0.832   1.922  0.1529  0.2021 -0.3369
 4059SOL    HW223814   3.088   0.809   1.916  1.9877 -0.8954  2.6898
 4060SOL     OW23815   0.979   4.697  11.001  0.2620  0.1329 -0.1489
 4060SOL    HW123816   1.054   4.650  10.966  0.0103 -0.1867 -0.2631
 4060SOL    HW223817   0.930   4.708  10.919 -0.1676  0.1546  0.1077
 4061SOL     OW23818   2.042   0.001   3.173 -0.0624  0.0634  0.5060
 4061SOL    HW123819   2.069   4.650   3.149 -2.1982 -0.1386 -1.1763
 4061SOL    HW223820   2.013   0.038   3.089  2.4622 -1.4531 -1.0220
 4062SOL     OW23821   3.216   1.611   4.728 -0.7503 -0.2291 -0.0776
 4062SOL    HW123822   3.271   1.623   4.806 -1.2813  0.6927  0.1575
 4062SOL    HW223823   3.285   1.604   4.663 -0.1318 -0.5278  0.6114
 4063SOL     OW23824   1.830   1.300   1.622  0.2603 -0.3723 -0.3360
 4063SOL    HW123825   1.738   1.323   1.637  0.1466 -0.5134 -0.8210
 4063SOL    HW223826   1.827   1.208   1.649  1.0600 -0.4250 -0.4215
 4064SOL     OW23827   3.071   0.949   6.648 -0.1625 -0.0672 -0.4187
 4064SOL    HW123828   3.063   0.999   6.567  0.5358  0.9026  0.1162
 4064SOL    HW223829   3.040   1.019   6.705 -0.0212 -0.3322 -0.0112
 4065SOL     OW23830   1.318   1.002   6.743  0.4974 -0.1105 -0.5414
 4065SOL    HW123831   1.256   0.953   6.796 -0.2644  2.3421  0.8552
 4065SOL    HW223832   1.318   0.960   6.657 -0.4239 -0.6911 -0.2511
 4066SOL     OW23833   3.577   1.363   8.711 -0.1352  0.6060  0.3604
 4066SOL    HW123834   3.600   1.408   8.629 -0.0086 -1.3834 -0.6964
 4066SOL    HW223835   3.629   1.285   8.691 -0.7868  0.9049 -2.4971
 4067SOL     OW23836   1.403   3.325  13.650  0.1092 -0.1374 -0.0322
 4067SOL    HW123837   1.470   3.295  13.711 -1.4129 -1.4805  0.9798
 4067SOL    HW223838   1.325   3.284  13.687  1.1729 -1.1701  1.0556
 4068SOL     OW23839   2.319   1.805   0.024  0.0253 -0.3668 -0.2367
 4068SOL    HW123840   2.380   1.879   0.029 -2.5786  1.6588  1.8576
 4068SOL    HW223841   2.255   1.839   0.087  0.0592 -1.4672  0.3810
 4069SOL     OW23842   3.596   2.237  15.891 -0.3545 -0.4165  0.6237
 4069SOL    HW123843   3.611   2.155  15.937  0.7673 -0.2894  0.4899
 4069SOL    HW223844   3.616   2.295  15.965  1.8009 -0.5443  0.1598
 4070SOL     OW23845   4.303   3.971   9.159 -0.1454 -0.0108  0.2294
 4070SOL    HW123846   4.236   3.968   9.090  0.9938  0.7763 -0.9050
 4070SOL    HW223847   4.379   4.006   9.113  1.1099 -1.6613  1.0689
 4071SOL     OW23848   1.039   4.086  10.407 -0.2704 -0.5363  0.0838
 4071SOL    HW123849   1.066   4.035  10.331 -3.4054 -1.8721 -0.1335
 4071SOL    HW223850   0.944   4.081  10.405 -0.2125 -0.4956 -3.3584
 4072SOL     OW23851   4.344   3.476   5.776 -0.0803  0.6327  0.0104
 4072SOL    HW123852   4.376   3.498   5.688  0.7016 -0.4019  0.0345
 4072SOL    HW223853   4.362   3.563   5.812 -1.1195  1.8229 -2.3502
 4073SOL     OW23854   1.644   2.203   2.016  0.2846 -0.3896 -0.2821
 4073SOL    HW123855   1.584   2.276   2.032 -0.4339 -0.6962 -1.5546
 4073SOL    HW223856   1.674   2.223   1.927  1.5937  0.9214  0.4520
 4074SOL     OW23857   2.028   3.853   8.186  0.0067  0.2007  0.1228
 4074SOL    HW123858   2.051   3.760   8.177  0.3876  0.6856 -4.1770
 4074SOL    HW223859   1.971   3.856   8.263  0.3325  0.8274  0.3369
 4075SOL     OW23860   3.122   3.110   5.526 -0.1376 -0.3017  0.3596
 4075SOL    HW123861   3.053   3.139   5.468 -0.6475 -0.5147  0.8609
 4075SOL    HW223862   3.130   3.187   5.582 -0.5194  0.2585 -0.3646
 4076SOL     OW23863   4.528   0.135  16.188 -0.5213  0.1194 -0.3891
 4076SOL    HW123864   4.537   0.175  16.274  0.5413 -1.0852  0.0586
 4076SOL    HW223865   4.621   0.131  16.164  0.1059  2.8023  1.5257
 4077SOL     OW23866   4.709   3.935  13.581  1.4115  0.1567  0.6217
 4077SOL    HW123867   4.736   3.900  13.496  0.4785 -1.7995  1.1325
 4077SOL    HW223868   4.717   4.030  13.568  2.8953 -0.3278 -1.9402
 4078SOL     OW23869   3.482   1.508   1.970  0.3389  0.0452  0.0867
 4078SOL    HW123870   3.577   1.503   1.985  0.6670  0.8900 -1.5649
 4078SOL    HW223871   3.450   1.570   2.035  1.7202  1.9352 -1.0226
 4079SOL     OW23872   3.970   2.999   5.970  0.8165 -0.3445 -0.1617
 4079SOL    HW123873   3.882   3.036   5.980  0.2825 -1.4894 -0.7233
 4079SOL    HW223874   4.028   3.053   6.023 -0.1162  0.3269  0.1958
 4080SOL     OW23875   3.746   2.382  16.370 -0.5279  0.1787 -0.1421
 4080SOL    HW123876   3.698   2.316  16.319  0.1334 -0.0674 -0.4424
 4080SOL    HW223877   3.780   2.436  16.299 -0.8578 -0.9110 -1.1370
 4081SOL     OW23878   2.232   4.001  16.170 -0.2733  0.6465 -0.0496
 4081SOL    HW123879   2.224   3.927  16.109  1.6420  0.2174  0.2453
 4081SOL    HW223880   2.138   4.019  16.178 -0.5187  0.2758 -2.0420
 4082SOL     OW23881   2.415   1.004   6.005 -0.6653  0.4584  0.2448
 4082SOL    HW123882   2.374   1.015   5.919 -0.7340  0.8183  0.3247
 4082SOL    HW223883   2.418   1.098   6.023  0.7787  0.7890 -1.7681
 4083SOL     OW23884   3.281   3.135   6.655  0.1555  0.1197 -0.0298
 4083SOL    HW123885   3.230   3.191   6.596  3.0070  0.5418 -2.0847
 4083SOL    HW223886   3.313   3.070   6.592  0.3138  0.1493  0.0206
 4084SOL     OW23887   1.528   0.210   5.817 -0.0108  0.2796 -0.0832
 4084SOL    HW123888   1.542   0.305   5.819 -0.4994  0.3327  0.9679
 4084SOL    HW223889   1.489   0.193   5.731  0.6408  2.5317 -0.8190
 4085SOL     OW23890   4.607   0.182   9.211  0.1413  0.1751  0.0651
 4085SOL    HW123891   4.602   0.144   9.299 -1.9393  0.2325 -0.0373
 4085SOL    HW223892   4.522   0.166   9.170 -0.1883 -2.0751  1.6340
 4086SOL     OW23893   4.695   1.761   0.034 -0.1240 -0.1557 -0.2042
 4086SOL    HW123894   4.691   1.675   0.075 -0.0256 -0.0980 -0.0741
 4086SOL    HW223895   4.652   1.812   0.102  1.5616  2.5004 -1.1395
 4087SOL     OW23896   1.078   3.050  16.664 -0.3415  0.0532  0.2142
 4087SOL    HW123897   1.127   2.981  16.709  0.1192  0.0463 -0.2876
 4087SOL    HW223898   1.125   3.133  16.678  0.5140 -0.5359  0.9062
 4088SOL     OW23899   3.176   2.626   7.249 -0.3484 -0.1723  0.1552
 4088SOL    HW123900   3.114   2.559   7.220 -0.9172 -0.6947  2.6327
 4088SOL    HW223901   3.144   2.628   7.339 -2.3888  1.7880 -0.6111
 4089SOL     OW23902   3.238   3.816   6.422  0.5176  0.5304 -0.0349
 4089SOL    HW123903   3.265   3.811   6.330 -0.0361 -0.0245 -0.1757
 4089SOL    HW223904   3.322   3.831   6.464  0.3495 -0.1784  0.5747
 4090SOL     OW23905   1.946   4.002  12.852 -0.1200 -0.3410 -0.4098
 4090SOL    HW123906   1.944   3.943  12.927 -0.6347 -0.2057 -0.3142
 4090SOL    HW223907   1.853   4.006  12.827 -0.7852 -1.7536  1.9274
 4091SOL     OW23908   4.483   4.380   7.625 -0.0325  0.1362  0.6064
 4091SOL    HW123909   4.432   4.316   7.675  1.3679 -2.1588 -0.8824
 4091SOL    HW223910   4.410   4.412   7.571  0.5625 -1.8654 -1.4209
 4092SOL     OW23911   1.235   3.448  17.137 -0.4891  0.4131  0.2748
 4092SOL    HW123912   1.254   3.357  17.157 -0.5737  0.5864  1.1522
 4092SOL    HW223913   1.280   3.464  17.054 -1.5850  1.1428 -0.1784
 4093SOL     OW23914   3.987   3.131   8.043  0.6029  0.0033  0.3968
 4093SOL    HW123915   4.081   3.133   8.023  0.3747  0.7180 -0.6377
 4093SOL    HW223916   3.978   3.190   8.118 -3.7672  1.5105 -1.2944
 4094SOL     OW23917   4.116   2.388   2.423 -0.5542  0.8803  0.1307
 4094SOL    HW123918   4.030   2.382   2.381 -0.6950  0.2946  0.4976
 4094SOL    HW223919   4.175   2.400   2.349 -1.0695  1.4675 -0.1905
 4095SOL     OW23920   0.437   3.458   3.029  0.0022  0.3035  0.3812
 4095SOL    HW123921   0.488   3.475   3.109  0.6213  0.2892 -0.0075
 4095SOL    HW223922   0.422   3.364   3.039 -3.1917  0.9171  1.3212
 4096SOL     OW23923   2.981   4.006   7.498  0.2226 -0.1550  0.0297
 4096SOL    HW123924   2.937   4.055   7.567 -0.3880  0.4863 -0.7993
 4096SOL    HW223925   3.046   3.958   7.548 -1.1847 -2.2096 -0.1099
 4097SOL     OW23926   3.580   1.652   2.902 -0.4023  0.0341  0.5891
 4097SOL    HW123927   3.575   1.708   2.980 -1.4256  0.7353  0.0241
 4097SOL    HW223928   3.515   1.693   2.846  0.5589 -0.4497 -0.8761
 4098SOL     OW23929   2.888   2.927   2.371 -0.1085  0.4307  0.7277
 4098SOL    HW123930   2.905   3.020   2.385 -1.6240  0.9787 -1.0225
 4098SOL    HW223931   2.955   2.912   2.304  1.3698  1.9276  1.8813
 4099SOL     OW23932   3.523   2.447   6.713  0.3877 -0.0059 -0.6326
 4099SOL    HW123933   3.532   2.356   6.742  1.3515 -0.3577 -2.0260
 4099SOL    HW223934   3.463   2.478   6.780 -0.7626 -0.1206 -1.6059
 4100SOL     OW23935   2.780   2.364   2.253 -0.3838  0.1294 -0.2397
 4100SOL    HW123936   2.751   2.289   2.200  2.8205  0.2319 -2.1162
 4100SOL    HW223937   2.875   2.372   2.243 -0.5184  1.4126 -0.5411
 4101SOL     OW23938   1.120   2.181   2.860  0.2778 -0.2842  0.6134
 4101SOL    HW123939   1.200   2.234   2.863  0.1327  0.1007 -1.7640
 4101SOL    HW223940   1.141   2.102   2.810  1.5528 -0.7901  1.9570
 4102SOL     OW23941   2.841   3.832   5.194  0.2923 -0.7068  0.1315
 4102SOL    HW123942   2.936   3.844   5.195  0.5017 -2.2504 -4.1560
 4102SOL    HW223943   2.826   3.830   5.289  3.8465 -2.4798  0.6705
 4103SOL     OW23944   3.032   1.731   5.110  0.0754 -0.2466 -0.0684
 4103SOL    HW123945   3.042   1.790   5.035  0.5649  0.2202  0.3728
 4103SOL    HW223946   2.959   1.679   5.076  0.7330  0.3244 -2.3691
 4104SOL     OW23947   0.444   3.162  16.884  0.5284  0.6407  0.4346
 4104SOL    HW123948   0.378   3.176  16.817  0.0636 -0.2361  0.7080
 4104SOL    HW223949   0.397   3.102  16.942 -0.6229  0.4222 -0.7257
 4105SOL     OW23950   1.959   0.551   6.269  0.4939 -0.7876  0.5910
 4105SOL    HW123951   1.892   0.591   6.213 -0.4285 -1.8165  0.9425
 4105SOL    HW223952   2.032   0.600   6.233  0.5198  0.1790  1.9631
 4106SOL     OW23953   1.461   3.332   2.429  0.4885 -0.1942  0.6832
 4106SOL    HW123954   1.403   3.408   2.435 -1.4416 -1.6305  0.3666
 4106SOL    HW223955   1.521   3.355   2.358 -0.8514  0.5553 -0.2049
 4107SOL     OW23956   3.218   2.752   0.274  0.1329 -0.2456 -0.0274
 4107SOL    HW123957   3.308   2.730   0.251 -0.4086 -1.2622 -1.1490
 4107SOL    HW223958   3.232   2.842   0.305  0.3692 -0.1232 -0.4828
 4108SOL     OW23959   3.233   3.415   7.274 -0.1331 -0.2964 -0.3003
 4108SOL    HW123960   3.249   3.355   7.347 -1.3511 -0.9043 -0.5188
 4108SOL    HW223961   3.279   3.492   7.305 -1.3906  0.1475  0.4927
 4109SOL     OW23962   4.046   3.398   9.266 -0.1509  0.0406 -0.2102
 4109SOL    HW123963   4.056   3.306   9.291 -0.1536  0.0968 -0.0035
 4109SOL    HW223964   4.078   3.397   9.175 -4.0477 -0.5046 -1.5555
 4110SOL     OW23965   2.793   4.195   7.096  0.4002  0.0460  0.5761
 4110SOL    HW123966   2.847   4.146   7.034 -0.2656 -0.1011  0.1130
 4110SOL    HW223967   2.745   4.258   7.042 -1.4528 -2.5664 -0.8340
 4111SOL     OW23968   1.816   0.036   7.934 -0.2498  0.3732  0.0982
 4111SOL    HW123969   1.902   0.076   7.933  0.3785 -0.9045  2.0821
 4111SOL    HW223970   1.836   4.680   7.928  1.4174  0.6544  1.2600
 4112SOL     OW23971   1.446   0.831  16.059 -0.2566 -0.6697  0.4087
 4112SOL    HW123972   1.508   0.896  16.092  0.1161 -1.1281  0.6085
 4112SOL    HW223973   1.366   0.881  16.070  1.2380  1.3763  2.0547
 4113SOL     OW23974   4.613   3.106   1.022  0.1954  0.3872  0.5898
 4113SOL    HW123975   4.537   3.141   0.976  1.5584  0.8637 -1.3085
 4113SOL    HW223976   4.653   3.187   1.054  0.2502  0.8175 -0.5875
 4114SOL     OW23977   3.532   4.076   2.966  0.1243  0.2155 -0.1842
 4114SOL    HW123978   3.462   4.104   2.906 -1.3026  0.6992  1.7120
 4114SOL    HW223979   3.586   4.018   2.912  0.7890  1.4246 -0.8040
 4115SOL     OW23980   3.295   1.060   5.054  0.1038 -0.8510 -0.5661
 4115SOL    HW123981   3.322   1.046   5.145 -0.2837 -0.5269 -0.3990
 4115SOL    HW223982   3.326   1.147   5.028 -1.0825  0.0244  0.9338
 4116SOL     OW23983   1.738   3.753   1.793 -0.2277  0.3820  0.3888
 4116SOL    HW123984   1.814   3.804   1.824  1.0562  0.0936 -2.2780
 4116SOL    HW223985   1.769   3.710   1.713  0.3754  2.1995 -0.3608
 4117SOL     OW23986   4.323   2.622   7.591  0.5479  0.2213  0.3340
 4117SOL    HW123987   4.364   2.706   7.610 -1.3495  1.4914 -1.1767
 4117SOL    HW223988   4.237   2.657   7.568  0.6685  0.6009  0.4739
 4118SOL     OW23989   2.367   0.489   5.619  0.4675  0.1222 -0.1980
 4118SOL    HW123990   2.391   0.566   5.672 -1.0917  0.9039 -0.6282
 4118SOL    HW223991   2.450   0.464   5.579  0.5300  0.2750 -0.1642
 4119SOL     OW23992   4.437   2.857   7.565 -0.6919 -0.8176 -0.6728
 4119SOL    HW123993   4.442   2.918   7.639 -2.6288 -0.2921 -0.9843
 4119SOL    HW223994   4.506   2.889   7.508 -2.2780  3.4477 -0.1523
 4120SOL     OW23995   2.041   2.505   2.589 -0.4237  0.1833  1.0683
 4120SOL    HW123996   2.044   2.601   2.588  0.7058  0.1207 -1.5419
 4120SOL    HW223997   1.950   2.489   2.562  1.0077 -1.2004 -2.9160
 4121SOL     OW23998   2.890   2.971   7.845  0.2835 -0.1660  0.1836
 4121SOL    HW123999   2.822   2.904   7.841 -0.8161  0.9510 -0.1117
 4121SOL    HW224000   2.838   3.032   7.792 -1.0513 -2.0724 -0.6680
 4122SOL     OW24001   0.578   2.998  11.223  0.3539 -0.3612 -0.1487
 4122SOL    HW124002   0.512   2.929  11.227 -1.2280  1.1805  0.3072
 4122SOL    HW224003   0.527   3.060  11.171  0.3479 -0.8568 -0.7406
 4123SOL     OW24004   1.406   3.945   5.852 -0.0665 -0.2952  0.2095
 4123SOL    HW124005   1.493   3.911   5.834 -0.1590  0.6120 -2.0395
 4123SOL    HW224006   1.406   4.002   5.775  0.8784 -1.7271 -0.8518
 4124SOL     OW24007   2.284   3.434  17.136 -0.7448  1.3452 -0.0290
 4124SOL    HW124008   2.268   3.428  17.230 -0.3965  2.8115  0.1248
 4124SOL    HW224009   2.303   3.528  17.134  3.0387  0.5550 -1.4574
 4125SOL     OW24010   1.132   1.417   3.683 -0.5997 -1.0953 -0.0665
 4125SOL    HW124011   1.079   1.413   3.762  0.6452  1.9880  0.9010
 4125SOL    HW224012   1.186   1.493   3.702 -3.0333  0.7153 -0.2660
 4126SOL     OW24013   2.225   0.746  14.360  0.1019  0.1872 -0.2618
 4126SOL    HW124014   2.188   0.788  14.437 -0.0546 -1.6320  0.6691
 4126SOL    HW224015   2.301   0.800  14.341 -1.1538  1.8079 -0.6671
 4127SOL     OW24016   4.049   1.316  13.553 -0.0857  0.2193  0.2982
 4127SOL    HW124017   4.066   1.352  13.466  0.4201 -2.2350 -0.5975
 4127SOL    HW224018   4.138   1.284  13.569  0.0396  0.3181 -0.2049
 4128SOL     OW24019   4.706   4.675   3.427  0.0269  0.0171 -0.2540
 4128SOL    HW124020   4.715   4.670   3.523 -0.0594  0.9718 -0.2012
 4128SOL    HW224021   0.057   4.672   3.392 -0.2216 -2.3804 -0.6985
 4129SOL     OW24022   2.042   0.621  11.968  0.3410 -0.3357  1.0620
 4129SOL    HW124023   1.995   0.692  12.013  2.0647  1.3131  0.2561
 4129SOL    HW224024   1.975   0.556  11.990  0.1310 -1.0523 -1.7055
 4130SOL     OW24025   4.729   2.960   7.922  0.1153  0.3996  0.0443
 4130SOL    HW124026   0.009   2.952   7.829 -1.7408 -1.4975 -0.1405
 4130SOL    HW224027   0.028   2.874   7.943  1.9058  0.9055 -1.0663
 4131SOL     OW24028   0.159   2.527   1.289  0.0478  0.3352  0.2421
 4131SOL    HW124029   0.243   2.569   1.306  1.1483 -0.7063 -2.6411
 4131SOL    HW224030   0.182   2.451   1.235 -3.0043 -1.9334  2.1051
 4132SOL     OW24031   1.819   4.426  15.601  0.1873  0.3853 -0.3550
 4132SOL    HW124032   1.892   4.394  15.547 -0.9716  0.1089 -1.7824
 4132SOL    HW224033   1.798   4.505  15.551 -0.9473  1.6832  2.2118
 4133SOL     OW24034   1.576   3.328   0.756  0.0086 -1.0155  0.2851
 4133SOL    HW124035   1.586   3.384   0.680 -1.0369 -0.8666  0.2561
 4133SOL    HW224036   1.486   3.300   0.742 -1.2369  2.5923  1.0255
 4134SOL     OW24037   1.324   0.985  10.931  0.0920 -0.4565  0.1545
 4134SOL    HW124038   1.255   0.920  10.919  2.1316 -2.5644 -0.2170
 4134SOL    HW224039   1.373   0.978  10.849  1.3101 -0.8501  0.9030
 4135SOL     OW24040   1.531   4.259   2.784 -0.0555  0.0279 -0.1557
 4135SOL    HW124041   1.473   4.214   2.724 -1.5002  1.0604  0.4780
 4135SOL    HW224042   1.522   4.352   2.761  0.6279 -0.1132 -1.0087
 4136SOL     OW24043   1.915   4.321  15.844  0.1171  0.1246  0.0311
 4136SOL    HW124044   1.956   4.406  15.864  0.8968 -0.5507  1.3538
 4136SOL    HW224045   1.907   4.345  15.752 -0.5708  0.7443  0.2478
 4137SOL     OW24046   1.207   2.625  11.168 -0.0240 -0.3265 -0.0405
 4137SOL    HW124047   1.245   2.539  11.183  0.6912  0.0011  0.0199
 4137SOL    HW224048   1.167   2.635  11.254 -3.0602 -0.1849 -1.4480
 4138SOL     OW24049   3.031   1.226   7.761  0.1223 -0.2680 -0.6209
 4138SOL    HW124050   3.031   1.322   7.757  1.1472 -0.4172 -3.6360
 4138SOL    HW224051   3.092   1.198   7.693  1.5269 -0.7689  0.8465
 4139SOL     OW24052   1.758   2.625   8.966  0.2662 -0.2264 -0.3573
 4139SOL    HW124053   1.825   2.681   9.005 -1.4778  1.5526  0.0811
 4139SOL    HW224054   1.682   2.659   9.014 -0.7992 -1.4950 -1.1415
 4140SOL     OW24055   2.128   3.140   2.571 -0.5596 -0.2054  0.6038
 4140SOL    HW124056   2.219   3.109   2.570 -0.5696 -0.2318  0.4315
 4140SOL    HW224057   2.111   3.158   2.478 -0.8086 -0.7189  0.5511
 4141SOL     OW24058   4.375   0.806  17.690  0.2043 -0.5158  0.0198
 4141SOL    HW124059   4.336   0.722  17.668 -0.5275 -0.1407 -0.1064
 4141SOL    HW224060   4.321   0.853  17.627 -1.9316 -1.3081  1.2655
 4142SOL     OW24061   3.412   3.135   0.967 -0.2642  0.4026 -0.1063
 4142SOL    HW124062   3.355   3.159   1.040 -0.0998 -0.8135  0.4135
 4142SOL    HW224063   3.378   3.046   0.958  0.7231 -0.0570  0.6933
 4143SOL     OW24064   1.737   1.529   2.893 -0.4043 -0.1893  0.6778
 4143SOL    HW124065   1.658   1.484   2.925 -0.8478  0.2975  0.2500
 4143SOL    HW224066   1.767   1.471   2.823 -0.2577 -1.2048  1.5747
 4144SOL     OW24067   4.470   2.524   8.994  0.2899 -0.5160 -0.0796
 4144SOL    HW124068   4.430   2.461   9.055  0.8469 -1.4895 -0.7094
 4144SOL    HW224069   4.420   2.522   8.913 -1.4931  0.5692  0.9986
 4145SOL     OW24070   1.301   3.755   3.281  0.3960  0.4524 -0.0096
 4145SOL    HW124071   1.247   3.731   3.206  3.0027  0.9522 -2.0205
 4145SOL    HW224072   1.360   3.681   3.291  0.1668  0.0783 -1.5031
 4146SOL     OW24073   1.591   1.161   2.820  0.3696  0.1221 -0.1645
 4146SOL    HW124074   1.550   1.087   2.863 -2.5917  0.0453 -3.1151
 4146SOL    HW224075   1.638   1.209   2.888 -1.3044 -2.5872  2.8774
 4147SOL     OW24076   1.990   1.146   2.112  0.4389  0.1313  0.0340
 4147SOL    HW124077   2.037   1.095   2.047 -0.1960  0.5168 -0.7313
 4147SOL    HW224078   2.002   1.107   2.198  1.5220  1.1662  0.3521
 4148SOL     OW24079   3.388   0.757   8.737 -0.1358  0.6324 -0.0713
 4148SOL    HW124080   3.341   0.775   8.656  0.4565 -2.2028 -1.0306
 4148SOL    HW224081   3.401   0.667   8.708  1.9349  1.7247 -2.5137
 4149SOL     OW24082   3.158   2.762  13.819  0.1494 -0.6866  0.3093
 4149SOL    HW124083   3.160   2.793  13.728 -1.8026 -1.1752  0.1110
 4149SOL    HW224084   3.192   2.674  13.803 -2.0372 -1.4500 -0.1428
 4150SOL     OW24085   2.455   0.301   8.228 -0.3416  0.0113  0.0562
 4150SOL    HW124086   2.378   0.251   8.200  0.4195 -0.8735 -0.4234
 4150SOL    HW224087   2.478   0.257   8.309 -0.8036 -1.7478 -0.7660
 4151SOL     OW24088   2.571   0.184   8.576 -0.6524  0.1811  0.0564
 4151SOL    HW124089   2.653   0.232   8.565 -0.3918 -0.5220 -1.0276
 4151SOL    HW224090   2.523   0.225   8.648  0.7382  0.8280  0.6371
 4152SOL     OW24091   2.069   3.419   5.073 -0.3249 -0.1218 -0.1206
 4152SOL    HW124092   1.991   3.426   5.019  0.6958  1.9394 -1.2990
 4152SOL    HW224093   2.105   3.330   5.062  2.9050  1.2056 -0.3848
 4153SOL     OW24094   2.643   4.710   3.859  0.1535  0.1413 -0.6994
 4153SOL    HW124095   2.571   4.661   3.819  1.0943 -1.8446  0.0221
 4153SOL    HW224096   2.601   0.037   3.915  0.1240  0.9203 -1.6308
 4154SOL     OW24097   0.500   3.822   4.218 -0.4035 -0.1071  0.3041
 4154SOL    HW124098   0.431   3.843   4.281  0.2753  3.1367 -0.0713
 4154SOL    HW224099   0.483   3.727   4.218 -0.7946 -0.0366  0.3031
 4155SOL     OW24100   2.882   1.970  14.087  0.0963 -0.1317  0.0786
 4155SOL    HW124101   2.823   1.926  14.147  1.5998 -1.0356  0.8891
 4155SOL    HW224102   2.819   2.000  14.021 -0.1099 -0.9332 -0.0848
 4156SOL     OW24103   4.343   1.123  16.154 -0.2784 -0.2383  0.0318
 4156SOL    HW124104   4.300   1.191  16.101  1.1444  1.3060  0.8509
 4156SOL    HW224105   4.344   1.168  16.238 -2.7716  0.3787 -0.2652
 4157SOL     OW24106   3.916   1.212  11.011  0.0395 -0.2370 -0.0123
 4157SOL    HW124107   3.987   1.181  11.067 -0.2391 -0.5986  0.1465
 4157SOL    HW224108   3.892   1.292  11.057 -3.3973 -0.9862 -0.4974
 4158SOL     OW24109   3.671   0.627   6.762  0.0960  0.1774 -0.3866
 4158SOL    HW124110   3.588   0.669   6.739 -0.0414  0.9163  1.4898
 4158SOL    HW224111   3.666   0.549   6.706  0.0502 -0.1812  0.1103
 4159SOL     OW24112   0.079   3.195   1.926  0.1516  0.0661 -0.5081
 4159SOL    HW124113   0.050   3.181   1.836 -0.5999 -2.2567  0.1043
 4159SOL    HW224114   0.009   3.250   1.961  0.9303 -0.0768  1.2678
 4160SOL     OW24115   1.963   3.111   7.789 -0.3592 -0.0825 -0.5363
 4160SOL    HW124116   1.892   3.086   7.730 -0.2213 -3.5083  0.7193
 4160SOL    HW224117   2.042   3.069   7.755 -0.1826  0.4624 -0.8013
 4161SOL     OW24118   4.313   2.211   7.692 -0.4386 -0.7463 -0.1197
 4161SOL    HW124119   4.255   2.171   7.758  0.2047 -1.5066 -0.0117
 4161SOL    HW224120   4.272   2.185   7.609  1.3502  0.3870 -1.3434
 4162SOL     OW24121   1.783   2.280  14.477 -0.1096  0.3091 -0.2445
 4162SOL    HW124122   1.690   2.296  14.493  0.3613  0.6697  2.0215
 4162SOL    HW224123   1.780   2.184  14.475 -0.0644  0.3364 -2.6283
 4163SOL     OW24124   0.419   0.729  16.367  0.3697  0.5221  0.0186
 4163SOL    HW124125   0.331   0.696  16.352  1.2061 -1.7983  0.2409
 4163SOL    HW224126   0.459   0.664  16.425 -0.0688 -0.1623 -0.4477
 4164SOL     OW24127   1.014   3.143  17.615 -0.4760  0.1200  0.3066
 4164SOL    HW124128   1.051   3.218  17.569  0.3214 -0.8417 -0.6358
 4164SOL    HW224129   1.041   3.075  17.553 -0.6390  0.9209 -0.6352
 4165SOL     OW24130   1.079   0.461   1.089  0.0590 -0.1663  0.2351
 4165SOL    HW124131   1.070   0.367   1.072  1.0290  0.0636 -1.5436
 4165SOL    HW224132   1.155   0.453   1.147  0.6047  0.6505 -0.3595
 4166SOL     OW24133   1.877   3.028  11.072 -0.4679  0.2529 -0.2179
 4166SOL    HW124134   1.915   3.115  11.063 -0.1600  0.2514  1.0517
 4166SOL    HW224135   1.871   2.999  10.981 -0.0834 -0.7231  0.0618
 4167SOL     OW24136   1.330   3.546   2.858  0.0713 -0.1798  0.1145
 4167SOL    HW124137   1.290   3.529   2.943  1.1959 -0.9073  0.4988
 4167SOL    HW224138   1.318   3.466   2.806 -0.3824  0.3617 -0.6238
 4168SOL     OW24139   2.279   4.214   3.167 -0.3880 -0.0730 -0.5513
 4168SOL    HW124140   2.339   4.153   3.209  0.5745  2.0478  1.1492
 4168SOL    HW224141   2.199   4.173   3.200 -1.3885  0.4870 -2.2811
 4169SOL     OW24142   0.123   0.052  15.623  0.3139 -0.4147 -0.6638
 4169SOL    HW124143   0.113   0.074  15.716  0.6258 -1.0779 -0.4636
 4169SOL    HW224144   0.042   0.083  15.584 -0.3675 -0.5663  0.6094
 4170SOL     OW24145   2.318   4.087   5.700 -0.0873  0.6677  0.2662
 4170SOL    HW124146   2.352   4.000   5.679  1.0711  1.1624  0.0589
 4170SOL    HW224147   2.327   4.100   5.795 -1.5539 -0.7839  0.5885
 4171SOL     OW24148   2.026   3.425   3.712  0.2485  0.3845 -0.0983
 4171SOL    HW124149   1.937   3.444   3.740  1.0950  0.3007  2.5898
 4171SOL    HW224150   2.001   3.358   3.648 -0.4430 -0.0371  0.6259
 4172SOL     OW24151   3.341   3.875   5.611  0.1862 -0.1082 -0.1517
 4172SOL    HW124152   3.251   3.905   5.608  0.4255  0.8735  2.1070
 4172SOL    HW224153   3.375   3.917   5.532  2.2101 -1.1997  0.1381
 4173SOL     OW24154   1.862   3.488   1.826 -0.4712 -0.1465 -0.2996
 4173SOL    HW124155   1.828   3.401   1.803  1.0328 -0.5407 -1.0231
 4173SOL    HW224156   1.854   3.535   1.743  2.1156  2.8517  1.1898
 4174SOL     OW24157   0.266   2.676  12.070  0.5866 -0.5110 -0.1998
 4174SOL    HW124158   0.259   2.763  12.109  0.8360 -1.7831  2.6992
 4174SOL    HW224159   0.292   2.636  12.153  0.2575  0.6219  0.4488
 4175SOL     OW24160   1.446   2.959   4.038  0.1707 -0.0239 -0.0884
 4175SOL    HW124161   1.381   2.890   4.022 -1.6577  1.5747  0.3788
 4175SOL    HW224162   1.530   2.915   4.028 -0.4185 -0.7334 -1.9711
 4176SOL     OW24163   2.791   2.903   3.978  0.4589 -0.2047 -0.5850
 4176SOL    HW124164   2.757   2.988   3.949 -1.3254 -0.6463  0.2373
 4176SOL    HW224165   2.769   2.910   4.071  0.1317  1.3722 -0.7846
 4177SOL     OW24166   1.132   1.597  10.542 -0.0985  0.1301  0.4511
 4177SOL    HW124167   1.200   1.659  10.568 -0.3968  0.1533  1.1756
 4177SOL    HW224168   1.151   1.590  10.449 -3.0627 -0.4087 -0.1390
 4178SOL     OW24169   4.203   0.741  12.878 -0.0239  0.5131 -0.0250
 4178SOL    HW124170   4.283   0.703  12.915  0.1524 -1.0228 -1.9564
 4178SOL    HW224171   4.240   0.823  12.846  0.5708  0.2399 -0.0481
 4179SOL     OW24172   4.106   1.735   2.131  0.1063 -0.1225  0.0766
 4179SOL    HW124173   4.132   1.828   2.131 -0.7218  0.0992  1.9913
 4179SOL    HW224174   4.153   1.696   2.205 -1.5492 -2.1654  0.0259
 4180SOL     OW24175   2.459   3.000   6.239 -0.2668 -0.3594  0.0709
 4180SOL    HW124176   2.506   2.947   6.304 -0.1274 -0.8971 -0.4682
 4180SOL    HW224177   2.462   2.941   6.164  0.9562 -0.4919  0.2136
 4181SOL     OW24178   4.318   4.108   7.397 -0.3139 -0.2970 -0.2555
 4181SOL    HW124179   4.367   4.044   7.449  4.0675  1.3137 -2.3891
 4181SOL    HW224180   4.391   4.155   7.356 -1.0985  0.8770 -0.3208
 4182SOL     OW24181   3.961   4.160   8.659 -0.0130  0.4013  0.8853
 4182SOL    HW124182   3.952   4.253   8.636 -0.5847 -0.8692 -4.1729
 4182SOL    HW224183   4.016   4.132   8.586 -1.5217 -0.9224  0.2627
 4183SOL     OW24184   3.976   0.339   9.754 -0.5394 -0.9869  0.0853
 4183SOL    HW124185   3.963   0.318   9.847 -1.1657 -0.4948  0.1109
 4183SOL    HW224186   3.903   0.290   9.717 -2.9319  2.4180  0.2316
 4184SOL     OW24187   3.868   0.109   2.304 -0.0823  0.6798  0.2865
 4184SOL    HW124188   3.907   0.047   2.242  1.5450  0.7476  1.2460
 4184SOL    HW224189   3.896   0.073   2.388 -0.6413 -3.4697 -1.2790
 4185SOL     OW24190   3.112   1.337   1.299 -0.0418 -0.2904 -0.3093
 4185SOL    HW124191   3.146   1.310   1.214 -1.0137 -0.9352 -0.4915
 4185SOL    HW224192   3.131   1.263   1.356 -1.4541  0.6229  1.3568
 4186SOL     OW24193   3.023   1.078   8.352 -0.2194  0.3615  0.3105
 4186SOL    HW124194   2.971   0.999   8.366 -0.3779 -0.1929 -3.3587
 4186SOL    HW224195   3.009   1.089   8.258  0.7568  1.3380  0.2822
 4187SOL     OW24196   0.870   3.570   4.203 -0.5702 -0.1962  0.0899
 4187SOL    HW124197   0.874   3.550   4.109  1.6563 -0.7960  0.3029
 4187SOL    HW224198   0.911   3.493   4.242  0.4920  1.0839  1.4873
 4188SOL     OW24199   3.426   2.523   4.890  0.3171  0.0939  0.4121
 4188SOL    HW124200   3.497   2.467   4.859 -1.8726 -1.5034 -1.7778
 4188SOL    HW224201   3.401   2.476   4.970  1.2320 -2.3977 -0.7729
 4189SOL     OW24202   0.401   0.156   4.072  0.2420  0.0339 -0.1448
 4189SOL    HW124203   0.388   0.185   3.982  0.8011  0.7925  0.0218
 4189SOL    HW224204   0.394   0.235   4.126 -2.4504  0.1599 -0.6428
 4190SOL     OW24205   2.875   4.401   6.780  0.9051  0.5289  0.2884
 4190SOL    HW124206   2.789   4.434   6.805  2.6178  3.0361  2.9460
 4190SOL    HW224207   2.930   4.477   6.802  1.0699  0.3859  0.3724
 4191SOL     OW24208   1.991   2.863   5.693 -0.3430  0.2575  0.3920
 4191SOL    HW124209   1.935   2.898   5.623 -1.4764 -0.9378  0.7280
 4191SOL    HW224210   1.937   2.804   5.744  1.0599  0.0318  1.6014
 4192SOL     OW24211   2.560   1.575   3.836  0.3798  0.3255 -0.5471
 4192SOL    HW124212   2.653   1.583   3.855  0.2630 -1.1964  0.6780
 4192SOL    HW224213   2.536   1.493   3.880  1.0025  1.0241  1.1054
 4193SOL     OW24214   0.548   1.422  15.664 -0.2377  0.1985 -0.2370
 4193SOL    HW124215   0.502   1.499  15.696  0.8555  0.3805  0.9141
 4193SOL    HW224216   0.638   1.452  15.678 -0.5512  0.8377  0.3896
 4194SOL     OW24217   0.983   3.676   3.731  0.4367  0.1209  0.2735
 4194SOL    HW124218   1.006   3.685   3.824 -0.8043 -1.3457  0.7182
 4194SOL    HW224219   0.889   3.656   3.735  0.1957  1.5408  1.7580
 4195SOL     OW24220   0.943   1.771   4.075  0.0254 -0.5011  0.1438
 4195SOL    HW124221   0.916   1.683   4.102  0.7525 -0.3551  1.3263
 4195SOL    HW224222   0.871   1.824   4.110 -0.8023 -0.1070 -2.1253
 4196SOL     OW24223   0.882   0.325   4.266  0.3215 -0.2235  0.1124
 4196SOL    HW124224   0.905   0.285   4.351 -0.7727 -1.9578 -0.4041
 4196SOL    HW224225   0.864   0.249   4.211  1.7204 -1.3294  1.1451
 4197SOL     OW24226   2.880   0.609   5.290 -0.1239  0.2212 -0.1341
 4197SOL    HW124227   2.786   0.629   5.288  0.2554  1.9044 -0.6879
 4197SOL    HW224228   2.885   0.546   5.219 -0.9111 -0.8453  0.7421
 4198SOL     OW24229   0.127   4.166   7.230 -0.4219 -0.0534 -0.1738
 4198SOL    HW124230   0.072   4.187   7.306  1.2629  3.3127  0.0956
 4198SOL    HW224231   0.108   4.237   7.169 -0.3062 -0.5436 -0.7705
 4199SOL     OW24232   3.337   1.491   7.158 -0.6680 -0.3202 -0.4080
 4199SOL    HW124233   3.323   1.556   7.226 -0.7613  0.8939 -1.5756
 4199SOL    HW224234   3.337   1.409   7.206 -1.1590 -0.6898 -1.0377
 4200SOL     OW24235   4.306   0.957   3.339 -0.1394  0.2909  0.7498
 4200SOL    HW124236   4.215   0.953   3.370  0.6899 -1.0848  2.9885
 4200SOL    HW224237   4.279   0.980   3.250 -1.4663 -0.3253  0.9978
 4201SOL     OW24238   2.689   3.456   6.131  0.5154  0.3862  0.2777
 4201SOL    HW124239   2.650   3.369   6.131  0.3959  0.4351 -0.4589
 4201SOL    HW224240   2.783   3.450   6.147  1.1049  1.0880 -2.8978
 4202SOL     OW24241   3.051   1.828   5.503  0.2325 -0.0135  0.3022
 4202SOL    HW124242   2.999   1.854   5.579 -2.1603 -0.3454 -1.2427
 4202SOL    HW224243   3.031   1.735   5.494 -2.6168  0.3619  2.7949
 4203SOL     OW24244   2.873   1.697  11.510  0.2949 -0.0281 -0.3470
 4203SOL    HW124245   2.957   1.742  11.520 -0.2873  1.3958 -1.9260
 4203SOL    HW224246   2.813   1.765  11.540 -1.2842 -0.7809 -1.8274
 4204SOL     OW24247   0.248   4.620  10.805  0.4061 -0.6048  0.4393
 4204SOL    HW124248   0.317   4.590  10.746 -0.3688  0.0556 -0.7984
 4204SOL    HW224249   0.304   4.623  10.883 -0.5408  2.1260  1.0219
 4205SOL     OW24250   3.273   0.309   8.610  0.0747 -0.5043 -0.6014
 4205SOL    HW124251   3.227   0.292   8.528 -2.5150  1.0257  0.5099
 4205SOL    HW224252   3.199   0.358   8.647  0.9344  0.2616  0.1057
 4206SOL     OW24253   3.414   0.574  10.286 -0.1715 -0.5379 -0.5779
 4206SOL    HW124254   3.426   0.486  10.250  0.9457 -1.9418  3.1392
 4206SOL    HW224255   3.403   0.556  10.380 -1.8426  0.1211 -0.6604
 4207SOL     OW24256   3.371   1.642  13.760  0.1018  0.0046 -0.1582
 4207SOL    HW124257   3.391   1.561  13.807  0.3527  0.6123  0.7777
 4207SOL    HW224258   3.348   1.708  13.825 -2.0686 -0.0068 -0.9327
 4208SOL     OW24259   1.863   0.880  10.595 -0.1974  0.1176  0.0663
 4208SOL    HW124260   1.944   0.842  10.561 -1.1948 -1.2907 -0.7662
 4208SOL    HW224261   1.900   0.935  10.664 -1.8224  0.8822  0.3364
 4209SOL     OW24262   0.000   0.561   2.778  0.0216  0.6939  0.2365
 4209SOL    HW124263   0.010   0.467   2.797 -1.8211  0.6956  1.1942
 4209SOL    HW224264   0.017   0.563   2.684 -1.0584 -0.3835  0.0260
 4210SOL     OW24265   4.505   2.676  14.545 -0.6735 -0.5156  0.1939
 4210SOL    HW124266   4.593   2.640  14.551 -0.7279 -0.3858  1.7848
 4210SOL    HW224267   4.504   2.722  14.461 -1.9527 -0.8153  0.0455
 4211SOL     OW24268   2.930   4.601   4.678 -0.7110 -0.0860  0.2658
 4211SOL    HW124269   2.932   4.582   4.584  0.0812  0.5071  0.1644
 4211SOL    HW224270   2.869   4.535   4.710 -0.5859 -1.9197 -3.3290
 4212SOL     OW24271   1.400   3.277   4.771 -0.2269  0.7670  0.6606
 4212SOL    HW124272   1.453   3.319   4.704 -0.9469  1.6594  0.6561
 4212SOL    HW224273   1.467   3.257   4.836 -0.6619 -0.9680  0.5880
 4213SOL     OW24274   2.907   1.924   6.073 -0.3669  0.6346 -0.1202
 4213SOL    HW124275   2.915   2.011   6.035 -0.1626  1.0260  0.8039
 4213SOL    HW224276   2.931   1.934   6.165  0.5567 -2.5633 -0.0118
 4214SOL     OW24277   1.246   1.931   4.896 -0.0743  0.1478  0.5790
 4214SOL    HW124278   1.193   1.929   4.816  1.8985  0.6285 -0.7218
 4214SOL    HW224279   1.247   1.839   4.920 -3.1167  0.4181  1.8625
 4215SOL     OW24280   2.319   1.215   2.100 -0.0795  0.3312 -0.3453
 4215SOL    HW124281   2.329   1.269   2.178 -1.5134  0.5581 -0.3038
 4215SOL    HW224282   2.278   1.282   2.045  2.3811  1.2348 -1.0560
 4216SOL     OW24283   4.550   4.129   8.277  0.6716  0.3613 -0.2310
 4216SOL    HW124284   4.628   4.132   8.222  0.3301 -0.3078 -0.7366
 4216SOL    HW224285   4.553   4.048   8.328  0.3369  1.0821  0.9436
 4217SOL     OW24286   0.881   1.089   6.618 -0.0836  0.1753  0.0834
 4217SOL    HW124287   0.796   1.133   6.609 -0.9543 -2.4138 -3.9818
 4217SOL    HW224288   0.938   1.159   6.651  2.8220 -2.3346  0.3768
 4218SOL     OW24289   0.622   1.314   5.024 -0.5138  0.8916  0.2923
 4218SOL    HW124290   0.710   1.297   5.058 -0.0636  0.3493 -1.1181
 4218SOL    HW224291   0.627   1.395   4.973  2.3867  0.7122  0.3062
 4219SOL     OW24292   0.573   1.166   7.500 -0.1248 -0.1980 -0.1170
 4219SOL    HW124293   0.642   1.157   7.435  1.7736  2.2050  1.5584
 4219SOL    HW224294   0.492   1.149   7.451  1.3342 -5.6152 -0.5412
 4220SOL     OW24295   3.687   2.198   2.310 -0.3073 -0.3128  0.1663
 4220SOL    HW124296   3.698   2.103   2.318  1.6894 -0.0964 -0.0660
 4220SOL    HW224297   3.623   2.200   2.238 -1.4953  1.4102  1.2703
 4221SOL     OW24298   0.170   4.533  15.535  0.8221  0.4630 -0.1641
 4221SOL    HW124299   0.159   4.617  15.580  1.8215 -0.1521  1.2233
 4221SOL    HW224300   0.096   4.476  15.553  0.6550  0.3586 -1.2078
 4222SOL     OW24301   4.006   2.707  12.047 -0.4527  0.3750  0.4002
 4222SOL    HW124302   4.082   2.682  12.100  0.2852  1.1119 -0.3052
 4222SOL    HW224303   3.944   2.743  12.110 -2.1875 -1.0346 -0.5060
 4223SOL     OW24304   1.471   0.167   3.436 -0.2319 -0.0914 -0.5230
 4223SOL    HW124305   1.518   0.247   3.461  0.2479 -0.1680 -1.1804
 4223SOL    HW224306   1.379   0.195   3.437 -0.2074 -0.0806  1.5272
 4224SOL     OW24307   4.621   4.276   9.402  1.1219 -0.1460 -0.1754
 4224SOL    HW124308   4.613   4.349   9.341 -0.7215  0.3783  0.7007
 4224SOL    HW224309   4.531   4.264   9.434  0.5647  0.5392 -1.5152
 4225SOL     OW24310   2.403   3.460   1.450  0.3069 -0.2795 -0.0375
 4225SOL    HW124311   2.390   3.477   1.543  0.3625  1.7954 -0.4011
 4225SOL    HW224312   2.498   3.446   1.458 -0.0761 -1.4741  2.4187
 4226SOL     OW24313   4.120   4.536   4.983 -0.4130 -0.3761 -0.1495
 4226SOL    HW124314   4.048   4.522   4.921  1.2696 -1.3711 -1.8550
 4226SOL    HW224315   4.159   4.449   4.990  0.6605  0.1149 -0.1195
 4227SOL     OW24316   1.327   3.119   8.190  0.8715  0.0745  0.7493
 4227SOL    HW124317   1.396   3.182   8.214  0.7720  1.1526 -1.7871
 4227SOL    HW224318   1.372   3.079   8.116 -0.9841  1.3362 -1.0682
 4228SOL     OW24319   3.381   4.016   9.699 -0.0387  0.2430  0.1196
 4228SOL    HW124320   3.418   4.057   9.778 -2.5173 -2.9584  2.9653
 4228SOL    HW224321   3.454   4.003   9.638 -0.2146 -0.3500  0.0407
 4229SOL     OW24322   1.350   1.346  17.152 -0.3986  0.2276 -0.4830
 4229SOL    HW124323   1.295   1.268  17.147 -0.8734  0.5790 -0.7124
 4229SOL    HW224324   1.406   1.329  17.228 -2.1219 -0.5724  0.6161
 4230SOL     OW24325   2.071   2.018   7.980 -1.0475  0.2749  0.0110
 4230SOL    HW124326   2.145   1.961   8.004 -0.5740  1.9242  2.4621
 4230SOL    HW224327   2.112   2.068   7.910  1.7629 -0.1384  1.3467
 4231SOL     OW24328   3.522   0.307   3.198  0.4798  0.4191  0.0664
 4231SOL    HW124329   3.563   0.345   3.121 -0.6804  1.4487 -0.0507
 4231SOL    HW224330   3.560   0.220   3.197 -0.5622 -0.0344  0.1237
 4232SOL     OW24331   4.603   0.017  16.863  0.5120 -0.1524  0.1443
 4232SOL    HW124332   4.651   0.091  16.901 -1.5105  1.3036 -0.1326
 4232SOL    HW224333   4.629   0.014  16.771 -0.8897 -3.1535 -0.1426
 4233SOL     OW24334   4.426   3.560   6.625 -0.1723  0.4428  0.3465
 4233SOL    HW124335   4.403   3.547   6.533 -0.6249 -0.0864  0.5367
 4233SOL    HW224336   4.485   3.636   6.623 -1.2891  1.4011  3.6147
 4234SOL     OW24337   3.337   2.684  11.654 -0.0158  0.1316 -0.0958
 4234SOL    HW124338   3.317   2.777  11.658 -2.0717 -0.3999  1.9405
 4234SOL    HW224339   3.330   2.661  11.747  0.2375 -0.6471 -0.2690
 4235SOL     OW24340   0.811   0.500   5.658 -0.8191  0.1051  0.3382
 4235SOL    HW124341   0.766   0.518   5.740 -0.9158 -1.9787  0.7563
 4235SOL    HW224342   0.835   0.409   5.676 -0.4997  0.0693 -0.2395
 4236SOL     OW24343   2.787   3.218   9.876 -0.1720 -0.0776  0.1065
 4236SOL    HW124344   2.774   3.293   9.934  0.0953  1.6272 -2.0508
 4236SOL    HW224345   2.699   3.181   9.870 -0.1517 -0.0068 -0.7237
 4237SOL     OW24346   2.029   0.199   1.451  0.0687  0.1916  0.3563
 4237SOL    HW124347   1.946   0.210   1.405  0.8981 -0.6492 -1.3571
 4237SOL    HW224348   1.995   0.192   1.540 -1.0806  2.6968  0.1292
 4238SOL     OW24349   2.538   2.838  13.007 -0.1608 -0.2394 -0.2040
 4238SOL    HW124350   2.487   2.843  13.088 -1.6818  0.0109 -1.1788
 4238SOL    HW224351   2.542   2.742  13.001  0.9646 -0.2301  0.4562
 4239SOL     OW24352   0.992   0.514   6.797 -0.1819 -0.5814 -0.7123
 4239SOL    HW124353   1.029   0.427   6.785 -0.2063 -0.6507 -0.2600
 4239SOL    HW224354   0.989   0.521   6.892  0.9346  0.0436 -0.7243
 4240SOL     OW24355   3.861   1.901   4.300 -1.0136  0.1633 -0.2652
 4240SOL    HW124356   3.898   1.873   4.384 -1.3441  1.2984  0.2537
 4240SOL    HW224357   3.812   1.823   4.276  1.8850 -1.8660  0.3811
 4241SOL     OW24358   2.952   2.194   5.972  0.0428  0.0528  0.0330
 4241SOL    HW124359   3.011   2.258   6.013 -1.7107  0.3032  2.1745
 4241SOL    HW224360   3.014   2.145   5.917 -0.2085 -0.4238  0.1782
 4242SOL     OW24361   2.290   2.257   4.297 -0.1034  0.1946  0.0218
 4242SOL    HW124362   2.340   2.305   4.231  1.5844 -0.6766  0.6556
 4242SOL    HW224363   2.358   2.219   4.354  1.8199  0.8844 -1.8011
 4243SOL     OW24364   2.407   1.808   7.246  0.7597 -0.3929  0.8487
 4243SOL    HW124365   2.338   1.783   7.184  2.0179  0.6625 -0.9876
 4243SOL    HW224366   2.482   1.814   7.187 -1.8797 -1.2145 -2.5778
 4244SOL     OW24367   0.551   1.808   3.941  0.3471 -0.0273 -0.2289
 4244SOL    HW124368   0.594   1.855   4.013  0.2489  0.9687 -0.8235
 4244SOL    HW224369   0.585   1.853   3.864 -0.5412 -0.0669 -0.6484
 4245SOL     OW24370   1.761   4.518   1.677 -0.2334  0.3395  0.8731
 4245SOL    HW124371   1.726   4.520   1.766  0.0141 -0.5277  0.9981
 4245SOL    HW224372   1.811   4.599   1.673  1.4433 -0.7832 -0.9266
 4246SOL     OW24373   3.665   0.546   4.470 -0.0461 -0.2752  0.5017
 4246SOL    HW124374   3.691   0.458   4.443  0.7827 -0.3098  1.4202
 4246SOL    HW224375   3.646   0.579   4.382  1.7036 -0.7835 -0.0610
 4247SOL     OW24376   3.975   1.006   6.887 -0.1673 -0.6124  0.6896
 4247SOL    HW124377   3.906   0.942   6.905 -0.2277 -1.6548 -3.2716
 4247SOL    HW224378   4.049   0.948   6.870  0.4288  0.9020 -1.8015
 4248SOL     OW24379   4.458   4.545  10.881 -0.3903 -0.1005  0.5235
 4248SOL    HW124380   4.442   4.620  10.938 -1.5490  1.7058 -2.1473
 4248SOL    HW224381   4.522   4.591  10.827 -0.6813  0.5833  0.7612
 4249SOL     OW24382   1.906   2.123   6.957 -0.7989 -1.1525 -0.1119
 4249SOL    HW124383   1.954   2.179   6.896 -1.0548 -0.7820  0.0249
 4249SOL    HW224384   1.902   2.186   7.028 -1.2118 -1.5181  0.1932
 4250SOL     OW24385   4.302   4.623   9.231  0.1406 -0.3442 -0.0149
 4250SOL    HW124386   4.289   4.593   9.140  2.6252  0.4330 -0.6182
 4250SOL    HW224387   4.305   4.717   9.219  1.1421 -0.2435  1.0130
 4251SOL     OW24388   0.859   3.700  12.924 -0.7217  0.3228  0.2759
 4251SOL    HW124389   0.911   3.753  12.864 -0.4351  0.4076  0.6030
 4251SOL    HW224390   0.923   3.642  12.966  0.2872  0.4748 -1.0494
 4252SOL     OW24391   4.172   3.055  17.040  0.0712  0.0152 -0.5063
 4252SOL    HW124392   4.261   3.022  17.041 -0.8907 -2.5683  0.0690
 4252SOL    HW224393   4.153   3.098  16.957  0.7480 -0.9299 -1.1521
 4253SOL     OW24394   3.843   0.945   4.525  0.4145  0.0192  0.1216
 4253SOL    HW124395   3.892   0.951   4.607  1.8294  2.0131 -0.8393
 4253SOL    HW224396   3.896   0.888   4.469  0.1808 -0.5253  0.4616
 4254SOL     OW24397   3.024   1.272   5.040 -0.1260  0.1181 -0.3244
 4254SOL    HW124398   3.006   1.308   4.953  0.4503  1.4694  0.1158
 4254SOL    HW224399   2.966   1.197   5.053 -0.2315 -0.0486 -1.7364
 4255SOL     OW24400   0.164   0.602  13.372  0.5067  0.5708 -0.5129
 4255SOL    HW124401   0.080   0.640  13.396  1.4087  2.1480  0.1050
 4255SOL    HW224402   0.138   0.526  13.320  2.8192 -0.8999  0.4756
 4256SOL     OW24403   1.466   0.167  13.837 -0.4379 -0.1095 -0.0517
 4256SOL    HW124404   1.477   0.110  13.913 -0.3205 -1.0275 -0.7517
 4256SOL    HW224405   1.550   0.212  13.826 -0.4351 -0.2389 -0.5936
 4257SOL     OW24406   2.769   2.369   3.469 -0.2401 -0.0758 -0.1244
 4257SOL    HW124407   2.798   2.430   3.401 -0.3925 -0.5852 -0.6448
 4257SOL    HW224408   2.759   2.419   3.550 -1.0309  0.8900 -0.8136
 4258SOL     OW24409   0.226   0.047   9.945  0.3264  0.3692 -0.4578
 4258SOL    HW124410   0.279   0.119   9.912  0.7502  0.9884  1.5493
 4258SOL    HW224411   0.295   4.720   9.964 -2.9836 -2.3305  2.3456
 4259SOL     OW24412   0.060   1.427   6.924 -0.4812 -0.2072 -0.7867
 4259SOL    HW124413   0.087   1.339   6.949  2.0378  1.1221  1.1185
 4259SOL    HW224414   0.023   1.411   6.837 -1.4666 -1.3106 -0.1604
 4260SOL     OW24415   3.154   0.338   5.230  0.0579 -0.0824  0.3205
 4260SOL    HW124416   3.221   0.397   5.197 -0.9639  0.5112 -0.6918
 4260SOL    HW224417   3.128   0.314   5.141 -1.9240 -2.3932  1.5106
 4261SOL     OW24418   0.713   0.594   3.347 -0.8744  0.2974  0.1764
 4261SOL    HW124419   0.687   0.527   3.283  1.9918 -0.0627 -0.6104
 4261SOL    HW224420   0.695   0.545   3.427 -0.1509  0.7371  0.6105
 4262SOL     OW24421   2.023   3.939  15.148  0.0069 -0.4466 -0.6916
 4262SOL    HW124422   2.010   4.033  15.163 -2.3993 -0.7624 -0.6684
 4262SOL    HW224423   2.031   3.936  15.052 -0.7538 -3.4734 -0.6682
 4263SOL     OW24424   1.487   0.346   7.619  0.3555  0.0502 -0.2261
 4263SOL    HW124425   1.418   0.308   7.566  0.2128  1.8763 -1.3375
 4263SOL    HW224426   1.514   0.261   7.655 -1.9824 -1.5121 -2.1584
 4264SOL     OW24427   3.805   4.389   0.678  0.5175 -0.6348 -0.5252
 4264SOL    HW124428   3.875   4.454   0.669 -2.5917  2.6676 -0.8231
 4264SOL    HW224429   3.738   4.439   0.724  0.6138  1.7772 -2.9866
 4265SOL     OW24430   3.870   2.015   6.648  0.0975 -0.3675 -0.2348
 4265SOL    HW124431   3.925   2.086   6.682  0.1524  0.3253 -1.7631
 4265SOL    HW224432   3.933   1.948   6.623  1.1135  0.9618 -1.2588
 4266SOL     OW24433   3.394   2.868   8.677  0.1416  0.0012 -0.2966
 4266SOL    HW124434   3.402   2.917   8.595 -0.4051  0.9500  0.2219
 4266SOL    HW224435   3.357   2.781   8.658  2.7439 -0.8622 -1.3879
 4267SOL     OW24436   3.062   3.245  11.625  1.0887 -0.0476 -0.1160
 4267SOL    HW124437   3.112   3.282  11.698 -1.9180  1.1361  1.3202
 4267SOL    HW224438   3.060   3.153  11.649 -0.2664  0.0767  0.2274
 4268SOL     OW24439   4.090   3.378   4.458 -0.3309  0.5842  0.1904
 4268SOL    HW124440   4.163   3.332   4.416 -1.3307 -2.2838  1.6307
 4268SOL    HW224441   4.125   3.371   4.547  1.0810 -0.3846 -0.4331
 4269SOL     OW24442   4.570   4.285  10.200  0.0814  0.1819 -1.0188
 4269SOL    HW124443   4.475   4.280  10.209  0.2883 -3.2441 -0.5819
 4269SOL    HW224444   4.588   4.377  10.182 -0.1166  0.4866  0.3101
 4270SOL     OW24445   3.195   3.464   5.931  0.4530  0.1875 -0.3843
 4270SOL    HW124446   3.228   3.471   6.020 -0.0214 -1.6103 -0.0653
 4270SOL    HW224447   3.279   3.458   5.884  0.2829  0.8845 -0.7706
 4271SOL     OW24448   3.031   1.848   3.886  0.2418 -0.4061 -0.0583
 4271SOL    HW124449   3.093   1.908   3.927  0.5627 -0.4864 -0.4221
 4271SOL    HW224450   2.951   1.886   3.922  1.2758 -1.7703  3.5935
 4272SOL     OW24451   3.580   4.422  10.178  0.0066 -0.1424  0.1245
 4272SOL    HW124452   3.564   4.466  10.094 -2.1969 -0.4554  0.3731
 4272SOL    HW224453   3.675   4.418  10.179 -0.0816 -2.4613 -1.0457
 4273SOL     OW24454   1.631   2.787   5.210 -0.0298 -0.4278  0.2001
 4273SOL    HW124455   1.673   2.703   5.225 -0.3596 -0.8408 -1.1549
 4273SOL    HW224456   1.585   2.802   5.293 -0.6253 -2.0951  0.1596
 4274SOL     OW24457   3.275   3.565  12.083  0.0310 -0.1411 -0.4564
 4274SOL    HW124458   3.216   3.515  12.139 -0.8275  0.1313 -1.1306
 4274SOL    HW224459   3.342   3.597  12.144 -0.7617 -1.8590  1.3284
 4275SOL     OW24460   3.539   2.155   9.633 -0.5496 -0.8186  0.0200
 4275SOL    HW124461   3.467   2.134   9.694 -1.0053  0.3367 -0.1067
 4275SOL    HW224462   3.588   2.077   9.660  0.1921  0.1161  1.4121
 4276SOL     OW24463   1.365   4.070   0.484  0.2950 -0.0182 -0.5995
 4276SOL    HW124464   1.345   4.116   0.402  2.8283 -1.6156 -2.1009
 4276SOL    HW224465   1.454   4.037   0.468  1.2534  2.9173 -1.4441
 4277SOL     OW24466   2.524   3.452   9.739 -0.3533 -0.7145  0.0922
 4277SOL    HW124467   2.539   3.525   9.679  0.7226 -0.0216  1.2034
 4277SOL    HW224468   2.596   3.460   9.801 -1.0470 -0.4661  0.8662
 4278SOL     OW24469   0.238   1.060   9.033 -0.1078  0.3536  0.4997
 4278SOL    HW124470   0.222   1.040   9.125 -0.5554  3.7811  1.1646
 4278SOL    HW224471   0.280   1.145   9.048  2.3185 -0.7428 -0.1122
 4279SOL     OW24472   3.228   1.984   7.526  0.0337 -0.0366  0.4367
 4279SOL    HW124473   3.245   1.890   7.520  1.6868  0.2486  0.6319
 4279SOL    HW224474   3.274   2.002   7.609  1.7488  0.6121 -0.6504
 4280SOL     OW24475   0.496   2.763   0.788 -0.0796 -0.2350 -0.5185
 4280SOL    HW124476   0.524   2.854   0.784  0.7287 -0.4618 -0.0537
 4280SOL    HW224477   0.405   2.772   0.816  0.4301 -2.9819  2.0547
 4281SOL     OW24478   3.457   0.644  15.647  0.6069  0.0236  0.6130
 4281SOL    HW124479   3.373   0.688  15.663  0.3291  0.1242 -1.1735
 4281SOL    HW224480   3.525   0.704  15.679  1.1977  1.1784 -2.8412
 4282SOL     OW24481   2.688   3.989   2.681  0.0134 -0.3038 -0.0064
 4282SOL    HW124482   2.676   3.936   2.759  1.1928  1.6752  1.5119
 4282SOL    HW224483   2.690   3.917   2.618  0.7756  0.7571 -1.2075
 4283SOL     OW24484   2.629   2.293  17.350 -0.0087  0.3010 -0.2181
 4283SOL    HW124485   2.661   2.340  17.273 -3.3813  0.6331 -1.4257
 4283SOL    HW224486   2.649   2.365  17.410  0.6930 -0.9818  1.0637
 4284SOL     OW24487   2.839   2.865   1.683 -0.1601 -0.4714  0.0862
 4284SOL    HW124488   2.798   2.779   1.692 -1.3862  0.1625  0.5970
 4284SOL    HW224489   2.931   2.842   1.668 -0.6009 -1.4157 -1.0747
 4285SOL     OW24490   1.759   0.067   6.867 -0.6724 -0.0791  1.2312
 4285SOL    HW124491   1.669   0.065   6.897 -1.2070  3.8758 -0.0791
 4285SOL    HW224492   1.804   0.020   6.937 -1.5874 -1.1955  1.0636
 4286SOL     OW24493   1.368   2.106  16.075 -0.2867  0.7155  0.2062
 4286SOL    HW124494   1.427   2.085  16.148 -0.6014  1.3660  0.6401
 4286SOL    HW224495   1.281   2.079  16.104 -0.4146 -0.5102 -1.2641
 4287SOL     OW24496   2.266   2.095   9.795  0.1734 -0.2133 -0.1931
 4287SOL    HW124497   2.258   2.046   9.877  0.1931 -1.7679 -1.1184
 4287SOL    HW224498   2.278   2.018   9.739 -1.5669 -1.3902  1.0296
 4288SOL     OW24499   4.327   3.241   5.893  0.0467  0.2143 -0.1630
 4288SOL    HW124500   4.342   3.197   5.809 -2.7921 -1.5378  0.2495
 4288SOL    HW224501   4.323   3.331   5.861 -1.7996  0.2334  0.1343
 4289SOL     OW24502   3.317   2.029   7.783 -0.1469 -0.0730  0.4433
 4289SOL    HW124503   3.407   2.018   7.816  0.0082 -3.6830 -1.1943
 4289SOL    HW224504   3.267   1.990   7.854  0.2777 -1.6130 -0.0928
 4290SOL     OW24505   2.439   4.195  11.083 -0.2669  0.2053  0.8937
 4290SOL    HW124506   2.408   4.266  11.027 -0.7410  0.7657  1.8697
 4290SOL    HW224507   2.457   4.234  11.168 -0.3116 -1.4745  1.6731
 4291SOL     OW24508   0.743   1.077  10.287 -0.5579  0.4392  0.5414
 4291SOL    HW124509   0.813   1.076  10.352  0.3522 -1.0596 -0.4584
 4291SOL    HW224510   0.674   1.047  10.346  0.5629 -1.1443  1.0237
 4292SOL     OW24511   1.344   3.422   0.438 -0.3756 -0.3813  0.1999
 4292SOL    HW124512   1.325   3.333   0.468  0.5830 -1.0422 -1.1085
 4292SOL    HW224513   1.440   3.431   0.439 -0.4914  0.9585 -0.6285
 4293SOL     OW24514   2.965   3.101   1.116 -0.1739  0.2974  0.3368
 4293SOL    HW124515   2.969   3.195   1.138  0.3524  0.4242 -0.3349
 4293SOL    HW224516   3.040   3.066   1.164 -1.5923 -0.4236  2.0671
 4294SOL     OW24517   0.222   0.122   8.082  0.1881 -0.4980 -0.0619
 4294SOL    HW124518   0.167   0.070   8.140 -0.4693 -0.6947 -0.8610
 4294SOL    HW224519   0.309   0.087   8.102  0.2087 -0.6413 -0.3976
 4295SOL     OW24520   0.272   1.040   7.474  0.2413  0.5970 -0.3908
 4295SOL    HW124521   0.206   1.096   7.434 -0.3737  0.3616  0.3000
 4295SOL    HW224522   0.303   1.098   7.544  0.5390 -1.8389  1.5064
 4296SOL     OW24523   1.859   4.569   5.259  0.1502  0.2590  0.3854
 4296SOL    HW124524   1.870   4.533   5.171 -0.2228 -1.8407  1.2007
 4296SOL    HW224525   1.802   4.642   5.236 -1.4869 -1.8674 -2.3029
 4297SOL     OW24526   3.546   0.259  11.774 -0.0392  0.2125  0.5311
 4297SOL    HW124527   3.506   0.300  11.851 -0.7912 -1.7035  1.1786
 4297SOL    HW224528   3.558   0.167  11.801 -2.1719 -0.6244 -1.3156
 4298SOL     OW24529   2.268   3.384   9.181 -0.0930  0.8131 -0.4649
 4298SOL    HW124530   2.255   3.391   9.086 -0.0274  1.8937 -0.3982
 4298SOL    HW224531   2.187   3.431   9.199 -0.2061  0.2807  0.4100
 4299SOL     OW24532   3.282   3.408  14.831  0.1274  0.1379  0.4543
 4299SOL    HW124533   3.258   3.448  14.915  0.3296  1.9777 -0.3634
 4299SOL    HW224534   3.203   3.363  14.802  1.1109 -0.6265 -1.0076
 4300SOL     OW24535   1.734   0.531   4.272  0.4978 -0.4337 -0.1496
 4300SOL    HW124536   1.752   0.450   4.318 -0.6673  0.7078  2.2837
 4300SOL    HW224537   1.720   0.506   4.180 -3.5562  0.3547  0.2360
 4301SOL     OW24538   2.966   1.542   7.025 -0.3577 -0.5348  0.3200
 4301SOL    HW124539   3.042   1.556   6.969 -1.3385 -1.0951 -1.1241
 4301SOL    HW224540   3.009   1.526   7.110 -1.2663 -0.7167  0.7409
 4302SOL     OW24541   3.829   3.176   2.425 -0.1563 -0.1224  0.4577
 4302SOL    HW124542   3.879   3.180   2.506  0.4298 -1.9493  0.2017
 4302SOL    HW224543   3.892   3.206   2.360 -0.2033  0.0122  0.4752
 4303SOL     OW24544   1.133   2.926   5.631  0.0023 -0.1533 -0.0438
 4303SOL    HW124545   1.071   2.942   5.559 -1.3795 -2.0513  0.7123
 4303SOL    HW224546   1.156   2.834   5.618  0.1287 -0.6882  3.8889
 4304SOL     OW24547   0.327   4.359  15.749  0.2746  0.2145 -0.1450
 4304SOL    HW124548   0.300   4.438  15.701 -0.4288  0.9874  1.4914
 4304SOL    HW224549   0.414   4.346  15.712  0.4189 -0.6997  0.5296
 4305SOL     OW24550   0.059   2.299   8.764  0.3748 -0.0977  0.0901
 4305SOL    HW124551   0.022   2.298   8.853 -0.8764 -2.1825 -0.4455
 4305SOL    HW224552   0.070   2.204   8.756 -2.9493 -0.3659 -1.2521
 4306SOL     OW24553   1.515   3.897  11.784 -0.0084 -0.1680  0.1623
 4306SOL    HW124554   1.444   3.835  11.802  2.0732 -2.8223 -0.7064
 4306SOL    HW224555   1.469   3.964  11.734  0.4186 -0.0001 -0.0025
 4307SOL     OW24556   0.630   1.935  10.557  0.2066  0.3338  0.3096
 4307SOL    HW124557   0.688   1.902  10.488 -2.3075  0.1782 -1.7405
 4307SOL    HW224558   0.673   1.893  10.631 -0.0726  1.0553  0.8748
 4308SOL     OW24559   0.970   2.731   3.981  0.2056 -0.2428  0.5999
 4308SOL    HW124560   1.014   2.664   4.034 -0.3664 -0.5908  0.6365
 4308SOL    HW224561   1.042   2.749   3.921 -1.6365  1.4016 -1.1121
 4309SOL     OW24562   3.361   1.043  13.635 -0.1561  0.2021  0.0290
 4309SOL    HW124563   3.413   1.100  13.577 -1.0992  1.6995  0.6563
 4309SOL    HW224564   3.405   0.959  13.623  0.6782  0.6351  0.0141
 4310SOL     OW24565   3.174   3.440   8.866  0.6883  0.6506  0.4128
 4310SOL    HW124566   3.241   3.432   8.798 -2.8554 -0.2707 -2.9462
 4310SOL    HW224567   3.091   3.439   8.818  1.5993 -1.0790 -1.1148
 4311SOL     OW24568   3.925   3.588   8.276  0.2544 -0.0344  0.5957
 4311SOL    HW124569   3.927   3.682   8.258 -1.0255 -0.0125  0.5369
 4311SOL    HW224570   3.834   3.575   8.302 -0.0698  1.2299  0.1031
 4312SOL     OW24571   4.527   0.988   8.453  0.2247  0.1650  0.0434
 4312SOL    HW124572   4.493   0.900   8.437  2.0587 -0.3772 -0.8800
 4312SOL    HW224573   4.492   0.995   8.542  0.0050  0.0743 -0.0357
 4313SOL     OW24574   1.557   0.423   3.493  0.3158  0.2161 -0.6642
 4313SOL    HW124575   1.543   0.512   3.524 -2.5247 -1.1621  2.0355
 4313SOL    HW224576   1.653   0.425   3.494  0.3995 -1.6720 -3.9024
 4314SOL     OW24577   4.443   1.341   6.446 -1.0765 -0.3612  0.1625
 4314SOL    HW124578   4.509   1.272   6.455 -1.3339 -0.8143 -1.4585
 4314SOL    HW224579   4.366   1.286   6.432  0.5661 -2.3437 -1.2420
 4315SOL     OW24580   2.792   0.018  16.121 -0.3649 -0.2129  0.2623
 4315SOL    HW124581   2.736   4.726  16.192 -1.1075  0.3717 -0.0791
 4315SOL    HW224582   2.850   4.681  16.107  0.5255  0.5224  0.0191
 4316SOL     OW24583   0.090   2.768   2.761 -0.1350  0.5609  0.3692
 4316SOL    HW124584   0.092   2.681   2.801 -0.6454  0.8650  1.0565
 4316SOL    HW224585   0.019   2.757   2.699 -1.2862 -2.3279  2.1652
 4317SOL     OW24586   4.306   3.437   2.695  0.1252  0.0736  0.5352
 4317SOL    HW124587   4.302   3.360   2.752 -1.2045 -0.6363 -0.5149
 4317SOL    HW224588   4.294   3.507   2.759  1.0567  1.8698 -1.2615
 4318SOL     OW24589   2.151   3.611   6.322 -0.1532  0.4327  0.2422
 4318SOL    HW124590   2.217   3.594   6.255  0.8370 -1.6177  1.7664
 4318SOL    HW224591   2.128   3.525   6.357  1.9098 -0.3758 -0.4018
 4319SOL     OW24592   3.805   1.447   9.178  0.2542  0.1841 -0.3102
 4319SOL    HW124593   3.735   1.388   9.152  0.6949  0.4787 -2.1822
 4319SOL    HW224594   3.810   1.507   9.103 -0.8649  0.0994 -0.4578
 4320SOL     OW24595   2.901   3.619   1.562  0.1914 -0.1384 -0.2463
 4320SOL    HW124596   2.919   3.663   1.644  0.5743 -1.5495  0.4268
 4320SOL    HW224597   2.933   3.677   1.493 -0.5318  1.9530  1.2116
 4321SOL     OW24598   2.455   0.642   8.552  0.2703  0.2273  0.3537
 4321SOL    HW124599   2.498   0.665   8.634 -1.0462  0.9661  0.8273
 4321SOL    HW224600   2.526   0.642   8.487 -0.4269 -0.2536 -0.4104
 4322SOL     OW24601   2.416   4.611   5.163 -0.3450  0.0035 -0.1273
 4322SOL    HW124602   2.511   4.623   5.174 -0.7970  1.5382  2.1820
 4322SOL    HW224603   2.425   4.516   5.157 -1.7014  0.0263 -2.2792
 4323SOL     OW24604   2.849   1.220  10.373 -0.1105 -0.2464  0.1004
 4323SOL    HW124605   2.777   1.200  10.433 -1.5522  1.5723 -1.0197
 4323SOL    HW224606   2.835   1.143  10.318 -1.2223  0.5710 -0.7547
 4324SOL     OW24607   0.896   1.699   6.267 -0.8776 -0.0530 -0.0652
 4324SOL    HW124608   0.887   1.734   6.178  3.0191 -0.9304 -0.7918
 4324SOL    HW224609   0.951   1.762   6.314  0.5486 -0.9356 -0.5487
 4325SOL     OW24610   2.642   2.459   7.250  0.1166  0.2847 -0.4052
 4325SOL    HW124611   2.567   2.415   7.212 -0.0216  0.5636 -0.4594
 4325SOL    HW224612   2.672   2.390   7.308 -0.5761  0.1908 -0.1657
 4326SOL     OW24613   0.668   4.454  17.667  0.7318  0.1102 -0.0806
 4326SOL    HW124614   0.707   4.372  17.638 -1.5903 -1.4610  1.3034
 4326SOL    HW224615   0.575   4.440  17.684  0.8225  0.1891  0.4806
 4327SOL     OW24616   2.510   0.601   4.486 -0.0506  0.5992  0.3485
 4327SOL    HW124617   2.497   0.636   4.398 -1.0850  1.9064  1.0197
 4327SOL    HW224618   2.456   0.522   4.492  0.0063  0.4120 -1.6277
 4328SOL     OW24619   1.701   4.491   7.659  0.4347  0.0988  0.1478
 4328SOL    HW124620   1.611   4.477   7.630  0.5423 -0.9843  0.3296
 4328SOL    HW224621   1.735   4.555   7.597  2.4438  1.7979  2.9560
 4329SOL     OW24622   4.578   2.311   5.004  0.0562 -0.0009 -0.3249
 4329SOL    HW124623   4.493   2.279   5.032 -0.0567  0.0270 -0.6303
 4329SOL    HW224624   4.633   2.302   5.081 -0.3725  1.5442  0.1741
 4330SOL     OW24625   3.190   4.090   5.424  0.5057  0.3007  0.2452
 4330SOL    HW124626   3.174   4.171   5.473  4.5157  1.9537 -1.1930
 4330SOL    HW224627   3.191   4.121   5.334 -1.5596 -2.3240 -0.6813
 4331SOL     OW24628   1.571   3.921   9.431  1.1256 -0.8257 -0.0509
 4331SOL    HW124629   1.525   3.862   9.372 -0.2593  0.2385 -0.0236
 4331SOL    HW224630   1.501   3.986   9.434  2.9470  1.1661 -0.2522
 4332SOL     OW24631   3.572   0.518   9.358  0.4029  0.5733  0.0950
 4332SOL    HW124632   3.663   0.547   9.364  0.5984 -0.7701  3.4507
 4332SOL    HW224633   3.527   0.600   9.341  2.8877  1.9519  0.1568
 4333SOL     OW24634   4.109   1.713  10.734  0.2878  0.0719  0.7789
 4333SOL    HW124635   4.033   1.674  10.691  0.6228 -1.1352  1.2756
 4333SOL    HW224636   4.124   1.639  10.793 -2.1436 -0.6191  0.5188
 4334SOL     OW24637   2.106   2.311   3.741  0.1280  0.3411  0.1977
 4334SOL    HW124638   2.043   2.358   3.686 -0.8482 -1.4729 -0.2366
 4334SOL    HW224639   2.041   2.248   3.775 -0.1939  0.0456 -0.9737
 4335SOL     OW24640   3.270   4.408   8.214  0.1712  0.3425  0.2017
 4335SOL    HW124641   3.279   4.465   8.291 -1.8916  2.2114 -0.9639
 4335SOL    HW224642   3.310   4.457   8.143  0.6599  0.8457  0.8222
 4336SOL     OW24643   2.366   4.507   8.427 -0.3390  0.6400  0.8749
 4336SOL    HW124644   2.425   4.576   8.459  0.2552  1.0642 -1.1802
 4336SOL    HW224645   2.431   4.450   8.386 -2.0010  1.5480 -3.0238
 4337SOL     OW24646   1.208   3.733   6.462 -0.0262 -0.0406  0.4688
 4337SOL    HW124647   1.210   3.759   6.370 -2.6054  1.7212  0.8885
 4337SOL    HW224648   1.148   3.659   6.463 -1.2493  0.9849  2.3752
 4338SOL     OW24649   4.314   2.767  13.261  0.0883  0.7444  0.0764
 4338SOL    HW124650   4.254   2.768  13.335  0.5151  0.5255  0.4228
 4338SOL    HW224651   4.383   2.707  13.290 -0.6003  1.1446  2.5104
 4339SOL     OW24652   1.157   1.362   5.896  0.2177 -0.2165 -0.0163
 4339SOL    HW124653   1.184   1.418   5.968  2.1912  0.0352 -0.9455
 4339SOL    HW224654   1.081   1.401   5.853 -0.4936 -0.7960  0.7096
 4340SOL     OW24655   3.165   3.851  12.045  0.5648  0.1330  0.2030
 4340SOL    HW124656   3.098   3.786  12.068  0.6283 -0.7932 -2.2067
 4340SOL    HW224657   3.240   3.796  12.068 -0.6181 -1.4674  0.2407
 4341SOL     OW24658   3.888   3.906   5.080 -0.3590 -0.9626  0.1829
 4341SOL    HW124659   3.936   3.969   5.133 -1.7520 -0.5784  0.9671
 4341SOL    HW224660   3.796   3.926   5.094  0.0227  0.5539  0.4841
 4342SOL     OW24661   1.124   2.305   6.499 -0.1048 -0.2671  0.0834
 4342SOL    HW124662   1.171   2.242   6.444  3.6825  2.7395 -0.1492
 4342SOL    HW224663   1.147   2.273   6.586 -2.7989  0.2774  0.9772
 4343SOL     OW24664   0.239   2.420   4.865  0.4096  0.1723 -0.4761
 4343SOL    HW124665   0.316   2.394   4.915  0.8607  0.7751 -0.8524
 4343SOL    HW224666   0.249   2.513   4.844  1.9528 -0.0946 -0.9356
 4344SOL     OW24667   3.208   0.874   9.274 -0.3979  0.2637  0.2159
 4344SOL    HW124668   3.218   0.969   9.265 -0.1688 -0.0357 -2.6353
 4344SOL    HW224669   3.279   0.854   9.335 -0.2812 -0.2031 -0.0723
 4345SOL     OW24670   2.846   1.307   5.472 -0.1491  0.5845  0.3250
 4345SOL    HW124671   2.806   1.298   5.559  0.3824 -2.6231  0.2526
 4345SOL    HW224672   2.912   1.374   5.487 -0.1128  1.3729 -3.4936
 4346SOL     OW24673   2.514   3.468   5.565  0.1266 -1.0239 -0.0230
 4346SOL    HW124674   2.592   3.510   5.601 -1.6653  0.4235  2.1735
 4346SOL    HW224675   2.524   3.382   5.606  3.7222  0.0532  1.3448
 4347SOL     OW24676   1.417   4.733   5.425  1.2895  0.2866  0.2587
 4347SOL    HW124677   1.420   0.025   5.334  1.5261 -2.7743 -0.7654
 4347SOL    HW224678   1.461   4.648   5.413 -3.3195 -1.9506 -0.9064
 4348SOL     OW24679   1.963   2.837   8.254  0.5673  0.2681 -0.3327
 4348SOL    HW124680   1.928   2.891   8.184 -1.0551  0.2637  0.4730
 4348SOL    HW224681   2.046   2.878   8.278  0.6495  0.5681 -1.1211
 4349SOL     OW24682   1.390   2.396   4.184  0.2132  0.3322 -0.1651
 4349SOL    HW124683   1.402   2.368   4.275 -2.1459 -1.2937 -0.3749
 4349SOL    HW224684   1.455   2.467   4.183 -1.1384  1.5934  1.4589
 4350SOL     OW24685   4.212   1.720   3.645  0.4154 -0.4592 -0.3255
 4350SOL    HW124686   4.294   1.769   3.646 -0.5232  1.1220 -0.9437
 4350SOL    HW224687   4.251   1.635   3.667 -0.9300 -1.0483 -0.1990
 4351SOL     OW24688   0.028   3.700   3.799 -0.3264 -0.4368  0.6396
 4351SOL    HW124689   0.095   3.717   3.733 -0.1085 -1.4702  0.5838
 4351SOL    HW224690   0.067   3.723   3.883  2.5284  1.4908 -1.2440
 4352SOL     OW24691   3.372   1.125  12.940  0.2808  0.1660 -0.5561
 4352SOL    HW124692   3.393   1.195  13.002  0.1829  0.5548 -0.9628
 4352SOL    HW224693   3.458   1.114  12.899  0.6737  0.1823  0.2630
 4353SOL     OW24694   4.091   1.558   9.773  0.8165 -0.1282 -0.1461
 4353SOL    HW124695   4.117   1.471   9.804  0.5635  0.3892  1.4871
 4353SOL    HW224696   4.084   1.546   9.678  0.7279 -3.9223  0.3666
 4354SOL     OW24697   2.657   0.160   1.048  0.2334  0.5775 -0.4320
 4354SOL    HW124698   2.641   0.162   0.953 -1.7565  1.5638 -0.0614
 4354SOL    HW224699   2.635   0.250   1.071  4.5564  1.3235  0.9214
 4355SOL     OW24700   3.211   2.574   1.398 -0.1418 -0.6235  0.2350
 4355SOL    HW124701   3.177   2.574   1.309  1.4905  0.5840 -0.3995
 4355SOL    HW224702   3.304   2.571   1.374  0.3481 -0.4555  2.0961
 4356SOL     OW24703   3.452   4.127   7.204  0.4824  0.6316  0.7228
 4356SOL    HW124704   3.543   4.123   7.232 -0.3043 -1.3560  3.0074
 4356SOL    HW224705   3.450   4.085   7.119 -1.9819  1.1105  0.5258
 4357SOL     OW24706   4.152   3.805   3.954  0.8404 -0.4938  0.0868
 4357SOL    HW124707   4.204   3.725   3.958 -0.4951 -1.3302  0.7154
 4357SOL    HW224708   4.084   3.795   3.888  1.5759  0.7352 -0.8715
 4358SOL     OW24709   1.748   4.719   7.505 -0.1122  0.0068  0.2568
 4358SOL    HW124710   1.744   4.685   7.416 -1.9195  0.4243  0.1927
 4358SOL    HW224711   1.778   0.071   7.497 -0.4149  0.0078 -0.8463
 4359SOL     OW24712   3.072   3.384  16.855 -0.4503 -0.2955 -0.4905
 4359SOL    HW124713   3.151   3.398  16.803 -0.1868  1.4733  0.3582
 4359SOL    HW224714   2.997   3.431  16.818 -2.1433 -1.9169  0.8766
 4360SOL     OW24715   0.273   2.137  10.455  0.2402 -0.5815  0.2089
 4360SOL    HW124716   0.178   2.140  10.468 -0.2077 -0.0452 -3.1811
 4360SOL    HW224717   0.307   2.180  10.534  0.6442  2.3253 -1.5260
 4361SOL     OW24718   0.762   3.421  15.330  0.1057 -0.1179 -0.5290
 4361SOL    HW124719   0.729   3.332  15.322 -0.5705  0.0225  0.8418
 4361SOL    HW224720   0.685   3.475  15.314 -0.9574 -1.3216  0.6199
 4362SOL     OW24721   0.186   4.695   7.793 -0.2352  0.4427  0.9577
 4362SOL    HW124722   0.137   4.701   7.711  1.9847 -1.5508 -0.5247
 4362SOL    HW224723   0.202   4.600   7.796 -1.7701  0.1360 -0.7997
 4363SOL     OW24724   0.695   2.138   0.018 -0.4486  0.0365  0.4552
 4363SOL    HW124725   0.608   2.112   0.047 -0.7261 -1.2720 -1.5730
 4363SOL    HW224726   0.680   2.202  17.698 -0.0735 -0.5603 -0.1606
 4364SOL     OW24727   1.840   0.953   6.591  0.5723 -0.3305  0.2304
 4364SOL    HW124728   1.869   0.959   6.500 -0.4208 -0.5392 -0.0942
 4364SOL    HW224729   1.749   0.925   6.583  0.2924  0.9109 -0.9153
 4365SOL     OW24730   0.974   2.058   8.034 -0.4711 -0.9347 -0.0380
 4365SOL    HW124731   1.055   2.010   8.013 -0.4410 -0.7368 -0.3730
 4365SOL    HW224732   1.013   2.100   8.111  0.5293 -1.2451 -0.3748
 4366SOL     OW24733   4.079   2.405   7.135  0.2276 -0.1323  0.4167
 4366SOL    HW124734   4.167   2.376   7.160  0.6144  3.7996  3.6547
 4366SOL    HW224735   4.061   2.468   7.204  0.0633 -1.4586  1.5691
 4367SOL     OW24736   3.332   2.556  17.455  0.7835  0.3041  0.3177
 4367SOL    HW124737   3.412   2.575  17.406  0.3291  1.0174 -0.1575
 4367SOL    HW224738   3.340   2.465  17.482 -1.5464 -0.2134 -0.7012
 4368SOL     OW24739   0.937   2.077   2.017  0.5039  0.1091  0.0077
 4368SOL    HW124740   0.911   1.986   2.032  0.6655  0.1774  0.7007
 4368SOL    HW224741   0.966   2.072   1.926  0.4976 -1.3974  0.0925
 4369SOL     OW24742   2.398   3.479   2.158  0.1340  0.4674 -0.0735
 4369SOL    HW124743   2.307   3.493   2.184 -0.3568  0.1567 -1.6583
 4369SOL    HW224744   2.441   3.491   2.243 -0.7206 -0.5113  0.4941
 4370SOL     OW24745   2.856   0.956  15.802 -0.0905  0.3220  0.6832
 4370SOL    HW124746   2.878   1.045  15.830  0.3080  0.1519  0.9089
 4370SOL    HW224747   2.762   0.950  15.814  0.0668  2.0786  2.8199
 4371SOL     OW24748   0.474   2.328   0.536  0.7653  0.3206  0.1350
 4371SOL    HW124749   0.552   2.383   0.539  1.2442 -0.2534 -1.7273
 4371SOL    HW224750   0.411   2.388   0.574  2.1578  3.1035 -1.9116
 4372SOL     OW24751   2.724   2.534   6.522 -0.0650  0.6059  0.1118
 4372SOL    HW124752   2.676   2.611   6.549  2.5346  2.0694  0.5668
 4372SOL    HW224753   2.750   2.509   6.611  0.5028 -1.8581 -0.7192
 4373SOL     OW24754   1.958   0.199   4.212 -0.0399 -0.1494  0.2703
 4373SOL    HW124755   2.012   0.132   4.254  1.1081 -0.1957 -1.2864
 4373SOL    HW224756   1.869   0.166   4.223  0.1254 -0.4152  0.8108
 4374SOL     OW24757   3.612   1.469   5.106 -0.0485 -0.2520  0.2074
 4374SOL    HW124758   3.559   1.492   5.030  1.8153  0.2569 -0.9456
 4374SOL    HW224759   3.561   1.398   5.144 -0.2738  1.3035  2.8525
 4375SOL     OW24760   3.316   0.523   5.071 -0.0506 -0.0204  0.0108
 4375SOL    HW124761   3.292   0.612   5.045  0.8187  0.8148  2.0363
 4375SOL    HW224762   3.392   0.548   5.125  0.2257 -0.6559 -0.0795
 4376SOL     OW24763   4.449   1.387   7.749  0.0536  0.1204 -0.5670
 4376SOL    HW124764   4.377   1.352   7.801  0.7512  1.4553  1.2949
 4376SOL    HW224765   4.419   1.478   7.749  1.1039  0.4583  2.5884
 4377SOL     OW24766   1.772   4.224   7.248  0.2694 -0.5550 -0.5400
 4377SOL    HW124767   1.811   4.138   7.261 -0.1140 -0.8999 -1.7311
 4377SOL    HW224768   1.679   4.208   7.236  0.8551 -2.5634 -2.3072
 4378SOL     OW24769   0.584   4.252   2.471  0.2657  0.0571  0.4171
 4378SOL    HW124770   0.564   4.344   2.455  1.1633  0.0562 -0.7681
 4378SOL    HW224771   0.529   4.203   2.410  0.4102  0.3669  0.0312
 4379SOL     OW24772   4.710   1.862   6.696 -0.2227 -0.1261 -0.4476
 4379SOL    HW124773   0.029   1.851   6.772 -1.8407 -0.2866  0.7246
 4379SOL    HW224774   4.715   1.775   6.656 -1.5571 -2.0154  3.4573
 4380SOL     OW24775   4.388   1.275  15.236  0.7946 -0.5998 -0.2965
 4380SOL    HW124776   4.310   1.228  15.267  1.1266 -0.3566  0.9241
 4380SOL    HW224777   4.433   1.203  15.193  1.1265 -0.7597  0.3227
 4381SOL     OW24778   4.591   0.825   7.238 -0.3822  0.3896 -0.1430
 4381SOL    HW124779   4.560   0.828   7.328  1.0710 -1.6875  0.4156
 4381SOL    HW224780   4.522   0.868   7.187  0.2940  0.1787 -1.2297
 4382SOL     OW24781   3.137   2.221   6.969 -0.0889  0.0105  0.1408
 4382SOL    HW124782   3.081   2.290   7.002  1.1091  0.4506  1.2401
 4382SOL    HW224783   3.084   2.173   6.905  0.4972 -1.0254  0.4314
 4383SOL     OW24784   4.139   0.790   9.645  0.1998 -0.0935 -0.1059
 4383SOL    HW124785   4.232   0.811   9.640  0.0150  0.4756 -1.1258
 4383SOL    HW224786   4.133   0.761   9.555 -0.3415 -2.2030  0.6236
 4384SOL     OW24787   0.127   1.078   5.282  0.1284 -0.2946 -0.5559
 4384SOL    HW124788   0.077   1.133   5.222  0.7865  0.4726 -0.4072
 4384SOL    HW224789   0.190   1.053   5.214 -0.0790 -1.3342 -0.3605
 4385SOL     OW24790   3.410   1.766   9.829 -0.4575  0.5732  0.6411
 4385SOL    HW124791   3.506   1.770   9.833 -0.5348  1.9588  1.0863
 4385SOL    HW224792   3.390   1.705   9.900 -0.2868  1.0371  1.0872
 4386SOL     OW24793   2.056   4.123   5.031  0.4966  0.0860  0.5698
 4386SOL    HW124794   2.082   4.207   4.994  0.3042 -0.0573  0.1187
 4386SOL    HW224795   1.977   4.094   4.986  0.9720  0.7011 -0.6495
 4387SOL     OW24796   4.064   1.560  10.383  0.1582  0.4957  1.1123
 4387SOL    HW124797   4.029   1.607  10.308  2.6769 -0.6429 -0.7730
 4387SOL    HW224798   4.011   1.604  10.450 -0.2195  0.2427  0.9771
 4388SOL     OW24799   4.422   1.671   5.801  0.2065  0.6599  0.2404
 4388SOL    HW124800   4.410   1.627   5.717  1.3192  2.2044 -0.7071
 4388SOL    HW224801   4.456   1.594   5.847  0.7883 -0.8524 -2.7720
 4389SOL     OW24802   3.094   3.634   2.209 -0.8011 -0.3366 -0.3032
 4389SOL    HW124803   3.114   3.675   2.124  0.9791 -1.1000 -0.2538
 4389SOL    HW224804   3.109   3.707   2.269 -2.4673  0.1827 -0.5132
 4390SOL     OW24805   2.528   3.989   5.290  0.5574  0.0149 -0.4746
 4390SOL    HW124806   2.456   4.021   5.236 -0.5047  0.6866  1.3457
 4390SOL    HW224807   2.586   4.065   5.294  0.7881 -0.1951  0.1268
 4391SOL     OW24808   4.484   2.431   7.677  0.2127  0.0270  0.0756
 4391SOL    HW124809   4.431   2.505   7.648 -0.8747 -0.1135  1.7205
 4391SOL    HW224810   4.429   2.356   7.655 -1.2215  0.9740  0.4413
 4392SOL     OW24811   3.329   2.169   8.972 -0.1054 -0.2711 -0.2504
 4392SOL    HW124812   3.400   2.225   9.005 -1.0343  0.7733 -0.0150
 4392SOL    HW224813   3.263   2.179   9.041  0.2949  0.7553 -0.0126
 4393SOL     OW24814   0.997   2.365   2.557  0.1876 -0.3760 -0.3079
 4393SOL    HW124815   0.942   2.379   2.480 -1.0589  1.4459  0.9382
 4393SOL    HW224816   0.979   2.273   2.577  0.7669 -0.5358 -0.5243
 4394SOL     OW24817   1.941   0.804   8.903 -0.1590 -0.0233 -0.1571
 4394SOL    HW124818   1.960   0.714   8.877  1.5436  0.0388  0.8777
 4394SOL    HW224819   1.944   0.778   8.995 -1.3868 -0.9053 -0.3709
 4395SOL     OW24820   4.570   3.848   4.007  0.2501 -0.1893 -0.3985
 4395SOL    HW124821   4.654   3.839   4.053  0.7013  0.6815 -1.0692
 4395SOL    HW224822   4.564   3.941   3.987  1.3476  0.3959  2.0011
 4396SOL     OW24823   3.620   0.490   2.599  0.0380 -0.1721 -0.0636
 4396SOL    HW124824   3.525   0.504   2.593  0.1102 -0.4170 -1.6001
 4396SOL    HW224825   3.657   0.571   2.634 -0.8673  0.9034 -1.6325
 4397SOL     OW24826   4.137   3.713   4.840 -0.2418 -0.1410 -0.2884
 4397SOL    HW124827   4.108   3.804   4.840 -0.2870 -0.1500 -1.8303
 4397SOL    HW224828   4.153   3.701   4.746 -0.1342  2.1180 -0.5443
 4398SOL     OW24829   3.912   0.862   3.811 -0.3958 -0.2896 -0.1300
 4398SOL    HW124830   3.923   0.913   3.730  1.9620  0.1234  0.4512
 4398SOL    HW224831   3.820   0.881   3.831 -0.2040  1.4017 -0.8009
 4399SOL     OW24832   3.359   4.128   8.559 -0.1293  0.0876  0.6875
 4399SOL    HW124833   3.370   4.078   8.640 -0.8829 -1.7057 -0.3004
 4399SOL    HW224834   3.432   4.188   8.551  0.4794 -0.9441 -1.5546
 4400SOL     OW24835   2.262   0.303  15.091  0.2750 -0.5245 -0.1271
 4400SOL    HW124836   2.280   0.276  15.181 -0.5211  0.6753  0.3910
 4400SOL    HW224837   2.251   0.396  15.111 -1.1857 -0.2800 -2.0797
 4401SOL     OW24838   2.265   0.551  11.852 -0.3481  0.1583 -0.3460
 4401SOL    HW124839   2.325   0.537  11.926 -3.4786 -1.5806  1.8387
 4401SOL    HW224840   2.196   0.602  11.895 -2.1678 -2.5022 -0.0943
 4402SOL     OW24841   1.082   1.916   4.669  0.5288  0.7464 -0.2946
 4402SOL    HW124842   1.043   1.999   4.641 -0.6045  0.6016  0.7878
 4402SOL    HW224843   1.000   1.870   4.688 -0.0491  1.7359 -0.4055
 4403SOL     OW24844   4.202   2.107   2.498 -0.4711  0.1261 -0.1381
 4403SOL    HW124845   4.112   2.078   2.510 -1.3796  2.0261 -2.4188
 4403SOL    HW224846   4.188   2.200   2.479 -2.7881 -0.4329 -1.1341
 4404SOL     OW24847   0.621   2.883  12.675 -0.3388  0.6516  0.0328
 4404SOL    HW124848   0.714   2.878  12.653  0.1101  0.7165  1.9363
 4404SOL    HW224849   0.582   2.806  12.634  0.9380  1.3196 -2.4130
 4405SOL     OW24850   4.397   1.124  10.908  0.0574 -0.2074  0.1515
 4405SOL    HW124851   4.489   1.131  10.934  0.3030 -0.9458 -0.5212
 4405SOL    HW224852   4.396   1.102  10.815  0.4471 -2.5872  0.7084
 4406SOL     OW24853   4.069   3.121   7.711 -0.4021 -0.0381 -0.3216
 4406SOL    HW124854   4.067   3.062   7.786  0.6742 -1.1213 -1.1312
 4406SOL    HW224855   4.073   3.062   7.635  1.9778  0.3608 -0.5024
 4407SOL     OW24856   3.174   1.612  12.173 -0.1141 -0.3371  0.0524
 4407SOL    HW124857   3.124   1.683  12.213  0.1410  0.8661 -1.7736
 4407SOL    HW224858   3.121   1.538  12.204  0.1062  0.0003  1.2376
 4408SOL     OW24859   2.860   1.631   8.429  0.0407 -0.5275  0.3500
 4408SOL    HW124860   2.792   1.627   8.496 -0.2547  0.0427  0.0821
 4408SOL    HW224861   2.901   1.547   8.451 -2.5378 -1.5661  1.1903
 4409SOL     OW24862   3.026   0.655  15.943  0.1109  0.6533 -0.7578
 4409SOL    HW124863   2.951   0.596  15.941  1.3200 -0.8871 -0.2531
 4409SOL    HW224864   3.024   0.688  15.854 -3.0814 -1.7490 -1.5649
 4410SOL     OW24865   3.749   3.749   4.197 -0.7549 -0.0998 -0.2200
 4410SOL    HW124866   3.749   3.654   4.204 -2.7717 -0.3025 -2.4947
 4410SOL    HW224867   3.733   3.756   4.102  0.4202  0.5108 -0.3784
 4411SOL     OW24868   0.252   2.907   6.266 -1.0730  0.7165 -0.1598
 4411SOL    HW124869   0.277   2.948   6.349  1.2663  0.0871 -0.5331
 4411SOL    HW224870   0.284   2.975   6.207 -1.2352  0.8557 -0.0851
 4412SOL     OW24871   0.195   0.894   6.249  0.8013 -0.0443 -0.1927
 4412SOL    HW124872   0.151   0.953   6.188 -1.0489  0.5971  1.7646
 4412SOL    HW224873   0.287   0.912   6.230  0.2483  4.1232  1.0336
 4413SOL     OW24874   0.600   0.615  11.090 -1.0324  0.0930  0.2611
 4413SOL    HW124875   0.519   0.629  11.042  0.2313  2.5879 -1.1109
 4413SOL    HW224876   0.606   0.696  11.141  1.6155  0.2657 -0.2907
 4414SOL     OW24877   0.121   2.145   1.503  0.0433  0.0972 -0.1264
 4414SOL    HW124878   0.171   2.074   1.462  0.4243  0.5191 -0.3940
 4414SOL    HW224879   0.072   2.187   1.433  0.5081 -0.3627 -0.7218
 4415SOL     OW24880   2.026   1.802   6.008 -0.7366 -0.0278  0.2613
 4415SOL    HW124881   2.102   1.773   5.957  0.5299  1.9006  1.0621
 4415SOL    HW224882   1.999   1.887   5.972  0.5424  0.8118  1.2761
 4416SOL     OW24883   1.602   0.956   3.934 -0.2622 -0.0124 -0.3756
 4416SOL    HW124884   1.652   0.876   3.946 -0.9262 -0.4934 -0.8674
 4416SOL    HW224885   1.544   0.931   3.863  1.0079 -2.4831 -0.5179
 4417SOL     OW24886   0.118   3.321   2.228  0.2739  0.2659  0.4833
 4417SOL    HW124887   0.051   3.265   2.267 -1.2734  0.6231 -1.6489
 4417SOL    HW224888   0.067   3.402   2.222 -0.4543 -0.1701  0.8369
 4418SOL     OW24889   3.542   0.642   4.698 -0.1805  0.6891  0.3352
 4418SOL    HW124890   3.448   0.651   4.680  0.2084 -0.0112 -2.0314
 4418SOL    HW224891   3.580   0.616   4.614  1.8091 -1.5820  1.9505
 4419SOL     OW24892   0.703   0.107   7.219  0.3929  0.1824 -0.4544
 4419SOL    HW124893   0.623   0.105   7.166  0.5681  3.8151 -0.8584
 4419SOL    HW224894   0.666   0.119   7.306  0.3641 -1.2687 -0.2701
 4420SOL     OW24895   2.867   2.340   3.958 -0.4367 -0.2907 -0.5231
 4420SOL    HW124896   2.870   2.246   3.942  2.8016 -0.5267  1.3151
 4420SOL    HW224897   2.958   2.366   3.941  0.0398 -1.8382 -0.2837
 4421SOL     OW24898   3.854   2.416  17.556 -0.0758 -0.9188  0.1507
 4421SOL    HW124899   3.868   2.350  17.488  0.1353 -2.8541  2.0705
 4421SOL    HW224900   3.927   2.393  17.614  0.8046 -0.3392 -0.7254
 4422SOL     OW24901   0.010   3.255   3.530  0.5928  0.1241 -0.3498
 4422SOL    HW124902   4.663   3.295   3.511  0.8387  0.8595  0.1096
 4422SOL    HW224903   0.037   3.230   3.442  2.6388  1.4335 -0.1082
 4423SOL     OW24904   4.622   0.386   7.381  0.7447 -0.2712 -0.4258
 4423SOL    HW124905   4.621   0.331   7.458 -0.4197  0.7811  0.3070
 4423SOL    HW224906   4.671   0.462   7.412 -0.0198 -0.6512  1.6802
 4424SOL     OW24907   0.354   3.998   9.441  0.6105 -0.5408  0.1076
 4424SOL    HW124908   0.309   4.067   9.393 -1.4160 -2.8765 -1.3791
 4424SOL    HW224909   0.410   3.960   9.372 -1.5806 -0.1268 -1.8999
 4425SOL     OW24910   2.465   2.976  11.112  0.1817 -0.0017 -0.0417
 4425SOL    HW124911   2.405   2.929  11.170  0.4567  0.3242  0.5064
 4425SOL    HW224912   2.544   2.926  11.131  0.1519 -0.3992 -0.9821
 4426SOL     OW24913   0.455   0.215   8.841 -0.2453  0.2048  0.2336
 4426SOL    HW124914   0.371   0.259   8.849  1.3749  3.0564  2.0012
 4426SOL    HW224915   0.443   0.165   8.760  2.1881  0.3656 -0.2477
 4427SOL     OW24916   1.250   1.381   3.432  0.0960 -0.2575  0.5846
 4427SOL    HW124917   1.304   1.312   3.471  2.7620  1.8859  0.6952
 4427SOL    HW224918   1.199   1.394   3.512 -2.2828  1.2409 -1.1939
 4428SOL     OW24919   2.468   0.084   2.383  0.0995 -0.3769 -0.4257
 4428SOL    HW124920   2.480   0.179   2.373 -2.4396 -0.1589 -1.3546
 4428SOL    HW224921   2.541   0.062   2.441  1.1272  0.0147 -1.5595
 4429SOL     OW24922   2.482   4.423   4.883 -0.6830  0.2284  0.1484
 4429SOL    HW124923   2.493   4.355   4.949 -1.9523 -0.5575 -0.4653
 4429SOL    HW224924   2.388   4.435   4.876 -0.4464  0.0803 -3.2881
 4430SOL     OW24925   1.518   2.535   5.538  0.3077 -0.2005 -0.2448
 4430SOL    HW124926   1.563   2.619   5.541 -0.7242  0.3781 -0.8726
 4430SOL    HW224927   1.526   2.505   5.628  0.5784  0.8510  0.0789
 4431SOL     OW24928   1.375   1.147   5.782  0.0395 -0.3578  0.0873
 4431SOL    HW124929   1.284   1.169   5.762 -0.2545 -0.8943  0.8285
 4431SOL    HW224930   1.426   1.168   5.703  0.0731  0.1842  0.2560
 4432SOL     OW24931   2.030   3.894   8.965  0.0022 -0.1553 -0.3996
 4432SOL    HW124932   2.076   3.846   8.897 -2.6391 -0.8059 -1.7202
 4432SOL    HW224933   1.997   3.969   8.915 -0.2388  0.0873  0.1191
 4433SOL     OW24934   2.671   2.559   0.789 -0.1123 -0.1373  0.5521
 4433SOL    HW124935   2.671   2.528   0.698 -1.1207 -2.0126  1.1769
 4433SOL    HW224936   2.731   2.633   0.782 -1.6945  0.9962 -0.9808
 4434SOL     OW24937   0.360   3.522   8.909  0.1883  0.4695  0.1256
 4434SOL    HW124938   0.332   3.431   8.900  1.2454 -0.2384  3.9406
 4434SOL    HW224939   0.311   3.558   8.983 -1.4104 -0.2167 -0.6154
 4435SOL     OW24940   0.502   0.139   6.032  0.1521  0.1525 -0.2540
 4435SOL    HW124941   0.565   0.111   5.966  0.1223  0.4250 -0.3973
 4435SOL    HW224942   0.432   0.180   5.981 -1.2764 -1.1509  0.6588
 4436SOL     OW24943   2.591   2.356   1.305  0.2371  0.1505 -0.0969
 4436SOL    HW124944   2.622   2.392   1.388 -1.8997 -0.8476  1.1649
 4436SOL    HW224945   2.653   2.386   1.239 -2.1383 -1.0719 -2.8829
 4437SOL     OW24946   0.586   1.831   7.005 -0.1115  0.4060 -0.1889
 4437SOL    HW124947   0.674   1.868   6.994  0.4928 -0.8390  0.5145
 4437SOL    HW224948   0.612   1.746   7.040  1.0590  1.3041  1.1139
 4438SOL     OW24949   3.520   3.797  10.803 -0.4586  0.1185  0.1642
 4438SOL    HW124950   3.541   3.885  10.772  0.4683 -0.3990 -0.6818
 4438SOL    HW224951   3.608   3.761  10.815 -0.3313 -0.1414 -1.5364
 4439SOL     OW24952   2.006   2.253   4.133 -0.1239 -0.0462 -0.1686
 4439SOL    HW124953   2.042   2.166   4.150 -1.1112 -0.5449 -0.6298
 4439SOL    HW224954   2.009   2.259   4.037  0.4130 -1.1173 -0.2175
 4440SOL     OW24955   0.128   0.606   6.250  0.1516 -0.0778 -0.3259
 4440SOL    HW124956   0.112   0.597   6.344  3.4285  1.9335  0.4522
 4440SOL    HW224957   0.168   0.693   6.258  4.2231 -2.0250  0.5129
 4441SOL     OW24958   4.047   1.122   9.174  0.0094  0.3216  0.1993
 4441SOL    HW124959   4.057   1.140   9.267  0.6835 -1.2987  0.4346
 4441SOL    HW224960   4.005   1.036   9.174  0.9340 -0.1333  0.2888
 4442SOL     OW24961   1.663   1.174   7.961 -0.4415  0.3518 -0.4749
 4442SOL    HW124962   1.610   1.135   8.030  1.9697 -1.4585  0.3438
 4442SOL    HW224963   1.665   1.267   7.985  2.0205  0.0578  0.5246
 4443SOL     OW24964   2.375   4.396   1.018 -0.1513  0.2404 -0.2277
 4443SOL    HW124965   2.441   4.338   1.058 -1.0162  0.0426  0.9207
 4443SOL    HW224966   2.402   4.411   0.928  0.9444 -1.6990 -0.2386
 4444SOL     OW24967   3.578   2.652   8.437  0.5851  0.5133 -0.6175
 4444SOL    HW124968   3.567   2.745   8.416  0.7603  0.4838 -0.8388
 4444SOL    HW224969   3.536   2.607   8.365 -0.9899 -0.3199  0.8343
 4445SOL     OW24970   0.917   1.533   3.275 -1.3366  0.6910  0.2604
 4445SOL    HW124971   1.012   1.524   3.274 -1.2694  1.2679  2.0957
 4445SOL    HW224972   0.883   1.493   3.194  0.4967 -0.7432  0.1971
 4446SOL     OW24973   2.807   3.768   5.452  0.0196  0.5051  0.0964
 4446SOL    HW124974   2.774   3.769   5.541  0.6775  0.6423  0.3343
 4446SOL    HW224975   2.870   3.838   5.464 -0.3208  0.5848  1.3912
 4447SOL     OW24976   0.560   3.913   9.244 -0.2744  0.2948  0.7842
 4447SOL    HW124977   0.633   3.971   9.261 -0.7765  1.0719  0.3035
 4447SOL    HW224978   0.584   3.849   9.177 -1.2935 -1.3822  2.0188
 4448SOL     OW24979   0.626   4.643   3.169  0.7045  0.8796 -0.1499
 4448SOL    HW124980   0.595   4.714   3.226  0.1518  0.8892 -0.4599
 4448SOL    HW224981   0.683   4.594   3.228 -0.3298  0.2256  0.2955
 4449SOL     OW24982   2.709   3.606   5.694  0.2104 -0.4051 -0.2045
 4449SOL    HW124983   2.668   3.672   5.750  1.6639  1.1800 -0.9983
 4449SOL    HW224984   2.798   3.602   5.729  0.5830 -0.8598 -1.2007
 4450SOL     OW24985   2.566   4.416   8.683  0.3144  0.2715  0.4894
 4450SOL    HW124986   2.593   4.377   8.767 -0.8328  1.8307  1.5724
 4450SOL    HW224987   2.509   4.489   8.707  0.2730  0.2617  0.4198
 4451SOL     OW24988   1.888   2.189   9.065 -0.1156 -0.1599 -0.2792
 4451SOL    HW124989   1.814   2.241   9.098  0.7180 -0.0723  1.4761
 4451SOL    HW224990   1.869   2.110   9.117 -0.4650  0.9635  1.2796
 4452SOL     OW24991   3.838   2.059   6.961  0.1917 -0.6453 -0.5453
 4452SOL    HW124992   3.779   2.037   6.888 -2.2729 -1.1519  1.5815
 4452SOL    HW224993   3.788   2.130   7.003 -0.1361  0.1276 -2.2328
 4453SOL     OW24994   1.017   3.297   0.600  0.4256 -0.3597  0.3688
 4453SOL    HW124995   1.057   3.382   0.579  0.2115 -0.3381  0.0644
 4453SOL    HW224996   1.038   3.255   0.517  1.3974  1.2862 -0.2315
 4454SOL     OW24997   3.884   1.230   1.931 -0.3536  0.3301 -0.1573
 4454SOL    HW124998   3.879   1.190   2.018 -1.6492 -0.4283 -0.5698
 4454SOL    HW224999   3.891   1.147   1.882 -0.9127  0.4107 -0.3768
 4455SOL     OW25000   1.465   4.426   4.838 -0.0400  0.7929 -0.1468
 4455SOL    HW125001   1.491   4.459   4.751  0.7812  0.2282 -0.1255
 4455SOL    HW225002   1.534   4.361   4.853  0.8032  0.8158 -3.7698
 4456SOL     OW25003   4.021   3.667  12.345 -0.3406 -0.0618 -0.2723
 4456SOL    HW125004   4.031   3.706  12.432 -1.7476  0.9704 -0.5643
 4456SOL    HW225005   4.061   3.730  12.285  0.4637  0.5681  0.9289
 4457SOL     OW25006   2.555   1.451   9.943  0.4680  0.1214  0.3446
 4457SOL    HW125007   2.646   1.483   9.940  0.2380  0.6238 -0.9684
 4457SOL    HW225008   2.569   1.357   9.952  1.2280 -0.0429 -2.5224
 4458SOL     OW25009   2.986   0.414   7.534  0.1639  0.3589 -0.3188
 4458SOL    HW125010   2.978   0.508   7.550  1.1670  0.3753  0.1197
 4458SOL    HW225011   2.951   0.382   7.617  0.6029  0.6907 -0.0050
 4459SOL     OW25012   0.264   0.050   9.558  0.1492  0.0690 -0.0234
 4459SOL    HW125013   0.295   0.117   9.619 -1.3621  1.1854 -0.4840
 4459SOL    HW225014   0.210   0.002   9.621  0.7303  0.5379  0.8351
 4460SOL     OW25015   2.609   1.031  15.864  0.8484 -0.0173 -0.4995
 4460SOL    HW125016   2.520   1.016  15.832  1.5245  0.5314 -2.6051
 4460SOL    HW225017   2.609   1.126  15.873  0.2684  0.1089 -1.8918
 4461SOL     OW25018   3.816   2.577   8.201  0.1272  0.2074  0.0748
 4461SOL    HW125019   3.761   2.576   8.279 -1.1269 -0.3104 -0.8267
 4461SOL    HW225020   3.898   2.619   8.229 -0.9940  0.5356  2.8440
 4462SOL     OW25021   2.617   0.572   8.268 -0.0062 -0.3748  0.2862
 4462SOL    HW125022   2.605   0.482   8.239  0.8584 -0.2326 -0.5060
 4462SOL    HW225023   2.607   0.616   8.183 -1.9747 -1.1592  0.1170
 4463SOL     OW25024   1.204   1.188  14.842  0.5770  0.0378  0.2718
 4463SOL    HW125025   1.197   1.139  14.760  1.7086  0.8083 -0.2902
 4463SOL    HW225026   1.287   1.230  14.818  0.8508 -1.8846 -2.1797
 4464SOL     OW25027   1.011   1.817  11.881 -0.0774 -0.0348  0.6890
 4464SOL    HW125028   1.082   1.808  11.944  0.6578 -0.6821 -0.2513
 4464SOL    HW225029   0.949   1.867  11.935 -1.2665  0.6997 -1.3670
 4465SOL     OW25030   2.034   0.551   4.530  0.0331  0.0889  0.0392
 4465SOL    HW125031   2.088   0.607   4.474  2.8037 -2.6138  0.0164
 4465SOL    HW225032   1.965   0.527   4.469  0.4257 -3.1332  0.8561
 4466SOL     OW25033   1.676   2.723   3.798  0.3605  0.4754  0.3812
 4466SOL    HW125034   1.710   2.782   3.865 -0.5427 -1.0220  2.1600
 4466SOL    HW225035   1.713   2.639   3.826 -0.0684 -0.2231 -1.1520
 4467SOL     OW25036   2.518   3.741  13.182 -0.2389  0.2384  0.1256
 4467SOL    HW125037   2.485   3.702  13.263  1.0449  0.2139  0.6333
 4467SOL    HW225038   2.449   3.803  13.160  1.9788  2.2366 -1.1622
 4468SOL     OW25039   3.261   3.210   4.967  0.2470 -0.8013  0.1759
 4468SOL    HW125040   3.355   3.211   4.954 -0.2293  1.3904 -2.9778
 4468SOL    HW225041   3.254   3.266   5.044  1.2194 -2.6005  1.5602
 4469SOL     OW25042   1.166   1.541  17.193  0.0574 -0.0763 -0.2777
 4469SOL    HW125043   1.223   1.466  17.177 -1.1368 -1.0284 -0.0511
 4469SOL    HW225044   1.198   1.577  17.275 -3.2802 -1.0016  1.4272
 4470SOL     OW25045   2.651   3.911   9.827 -0.2627 -0.9170 -0.1389
 4470SOL    HW125046   2.601   3.832   9.849 -0.7376  0.1231  2.5872
 4470SOL    HW225047   2.582   3.976   9.815  0.7095 -0.0244 -0.8694
 4471SOL     OW25048   0.753   3.483   6.886  0.3953 -0.0271  0.3627
 4471SOL    HW125049   0.797   3.405   6.920  0.9508  0.9473  1.8930
 4471SOL    HW225050   0.768   3.468   6.793 -2.5584  3.0430 -0.6146
 4472SOL     OW25051   2.670   3.342  15.019 -0.7930 -0.4813 -0.1775
 4472SOL    HW125052   2.649   3.318  14.929 -0.6218 -0.5850 -0.1885
 4472SOL    HW225053   2.739   3.408  15.010  1.2718 -2.8131 -1.2490
 4473SOL     OW25054   0.550   1.545   9.128  0.1631 -0.3512 -0.2875
 4473SOL    HW125055   0.505   1.467   9.095 -1.1567  0.3856 -0.2209
 4473SOL    HW225056   0.638   1.512   9.113 -0.0273 -1.5028  1.0902
 4474SOL     OW25057   3.324   1.290   1.020 -0.0483 -0.1478  0.3790
 4474SOL    HW125058   3.334   1.222   1.087  0.4058 -0.7750 -0.3297
 4474SOL    HW225059   3.377   1.250   0.951 -1.1846 -2.4994  0.8843
 4475SOL     OW25060   1.921   0.261   0.515  0.0564  0.1239  0.5424
 4475SOL    HW125061   2.007   0.251   0.475  0.0305  0.1312  0.4853
 4475SOL    HW225062   1.898   0.169   0.509  0.9832  0.0015 -1.1115
 4476SOL     OW25063   1.547   2.763  15.187 -0.0753 -0.0891  0.2276
 4476SOL    HW125064   1.478   2.819  15.152  0.5146 -0.0602 -0.9136
 4476SOL    HW225065   1.622   2.785  15.132  2.4497 -0.5710  3.4572
 4477SOL     OW25066   2.317   0.915   1.249 -0.0900 -0.4566 -0.0841
 4477SOL    HW125067   2.340   0.871   1.331 -1.8146  1.2051  1.2941
 4477SOL    HW225068   2.251   0.857   1.209 -1.3885  1.9809 -1.4959
 4478SOL     OW25069   4.015   2.224   8.809 -0.6423 -0.1387 -0.0512
 4478SOL    HW125070   3.929   2.202   8.845 -0.7488  0.1335 -0.1419
 4478SOL    HW225071   4.002   2.176   8.727  2.8907 -1.0709 -0.0765
 4479SOL     OW25072   1.545   1.834   6.202  0.8452 -0.0328 -0.0410
 4479SOL    HW125073   1.585   1.920   6.216  0.5989  0.3898 -1.9148
 4479SOL    HW225074   1.499   1.854   6.121 -2.3165  1.4860  2.1350
 4480SOL     OW25075   2.016   1.199   7.748 -0.3398 -0.3014  0.4302
 4480SOL    HW125076   2.035   1.247   7.828 -1.0798 -2.5167  1.9477
 4480SOL    HW225077   1.938   1.148   7.773 -1.2804 -0.2028 -2.2746
 4481SOL     OW25078   1.811   4.460   5.513  0.0122  0.1624  0.2919
 4481SOL    HW125079   1.862   4.391   5.471 -0.0959  1.3521 -1.8309
 4481SOL    HW225080   1.825   4.528   5.446 -1.4025 -0.0181 -0.1823
 4482SOL     OW25081   2.844   0.396  17.624  0.3725 -0.0021 -0.2021
 4482SOL    HW125082   2.816   0.304  17.626  1.4524 -0.2829  1.5498
 4482SOL    HW225083   2.939   0.396  17.625  0.3649 -0.0146  0.6149
 4483SOL     OW25084   3.399   2.142   3.789 -0.5137 -0.0670 -0.0281
 4483SOL    HW125085   3.466   2.077   3.769 -0.9237 -0.4725 -0.0765
 4483SOL    HW225086   3.447   2.222   3.765 -1.1780  0.9558  1.9993
 4484SOL     OW25087   4.493   2.821  14.022 -0.0884  0.5749  0.8418
 4484SOL    HW125088   4.513   2.871  13.943  0.2230 -0.7042  0.1120
 4484SOL    HW225089   4.444   2.744  13.990  0.4340  0.4335  0.3801
 4485SOL     OW25090   1.198   1.936  16.606 -0.2214 -0.2098 -0.6059
 4485SOL    HW125091   1.165   1.941  16.696  0.3384  1.0323 -0.4751
 4485SOL    HW225092   1.189   2.022  16.565 -0.3907 -0.4147 -0.9992
 4486SOL     OW25093   3.366   2.902   6.495  0.4062  0.5679 -0.5219
 4486SOL    HW125094   3.284   2.886   6.448 -0.6610  2.4219  0.7014
 4486SOL    HW225095   3.418   2.828   6.463  0.2355  2.1726 -4.4147
 4487SOL     OW25096   3.072   4.307   1.758 -0.0272  0.4075  0.4909
 4487SOL    HW125097   3.140   4.370   1.781  0.9477 -0.9443  1.3372
 4487SOL    HW225098   3.003   4.369   1.732 -0.4947 -0.3934 -0.1909
 4488SOL     OW25099   0.199   3.347   5.823  0.0772 -0.1369 -0.3591
 4488SOL    HW125100   0.234   3.260   5.807 -0.8736 -0.5985  0.0443
 4488SOL    HW225101   0.170   3.331   5.913 -2.5020  0.8442 -0.9966
 4489SOL     OW25102   4.726   3.902   4.734  0.0075 -0.0272  0.0925
 4489SOL    HW125103   4.664   3.976   4.727  0.7165  0.4907 -0.6727
 4489SOL    HW225104   4.698   3.850   4.659 -0.8166  0.6269 -0.0655
 4490SOL     OW25105   3.503   3.442   5.477  0.5836  0.9061  0.4486
 4490SOL    HW125106   3.479   3.355   5.508  2.5005 -0.6950 -2.6328
 4490SOL    HW225107   3.570   3.404   5.421  1.1799  0.5070  1.4441
 4491SOL     OW25108   3.589   4.720   9.325  0.0403  0.7535 -0.0663
 4491SOL    HW125109   3.517   4.730   9.262  0.9758 -0.3775 -1.3080
 4491SOL    HW225110   3.652   0.053   9.314  0.2317  0.3540 -1.5015
 4492SOL     OW25111   0.948   4.607  11.738  0.5577 -0.0471  0.1498
 4492SOL    HW125112   0.874   4.667  11.729 -0.5435 -1.3442  0.4875
 4492SOL    HW225113   0.976   4.592  11.648  2.8019  1.4783  0.6020
 4493SOL     OW25114   2.751   2.084   3.190 -0.3880 -0.3281 -0.4345
 4493SOL    HW125115   2.823   2.142   3.168  1.0802 -1.4398  1.5202
 4493SOL    HW225116   2.674   2.107   3.137  0.6169 -1.4744 -2.3740
 4494SOL     OW25117   1.058   4.513   5.992  0.1379  0.1512 -0.2495
 4494SOL    HW125118   1.142   4.468   5.988  1.3183  2.2873  0.0673
 4494SOL    HW225119   1.089   4.603   5.981  2.1280 -0.4658  0.3989
 4495SOL     OW25120   2.099   2.197   8.209 -0.3753 -0.4516 -0.0629
 4495SOL    HW125121   2.086   2.154   8.124 -1.3642  0.2392 -0.2572
 4495SOL    HW225122   2.185   2.165   8.237 -1.5778 -1.0125  2.9913
 4496SOL     OW25123   1.830   4.559  13.288  0.1625 -0.1328  0.1821
 4496SOL    HW125124   1.863   4.648  13.277 -0.1349 -0.1125 -0.5132
 4496SOL    HW225125   1.740   4.568  13.257  1.5262  2.3452 -2.9855
 4497SOL     OW25126   4.121   0.513   7.544  0.6435  0.1700 -0.2488
 4497SOL    HW125127   4.178   0.537   7.617  2.5030  0.7578 -1.9211
 4497SOL    HW225128   4.039   0.545   7.582  1.5370  0.5292  1.3838
 4498SOL     OW25129   3.058   1.789   0.220 -0.1431  0.0144  0.2076
 4498SOL    HW125130   3.061   1.759   0.311  0.1912 -0.5610  0.0080
 4498SOL    HW225131   3.117   1.864   0.209  0.5916 -0.6385 -0.3647
 4499SOL     OW25132   4.016   4.625  16.642  0.3200 -0.2452 -0.0309
 4499SOL    HW125133   4.022   4.550  16.584 -2.7388 -1.7546  1.6430
 4499SOL    HW225134   3.927   4.613  16.674  0.5066  2.3824  1.5354
 4500SOL     OW25135   4.111   2.651  13.783 -0.4178  0.7208  0.7216
 4500SOL    HW125136   4.076   2.708  13.852 -2.3346 -1.4701  1.5529
 4500SOL    HW225137   4.033   2.597  13.767  0.7229 -0.9259  0.8026
 4501SOL     OW25138   0.119   2.877   4.207 -0.1576 -0.3134 -0.1665
 4501SOL    HW125139   0.029   2.892   4.179  0.8729 -0.2884 -3.4666
 4501SOL    HW225140   0.104   2.854   4.299  0.2460  1.7140  0.4118
 4502SOL     OW25141   0.694   3.084   0.019  0.3019 -0.5077  0.6879
 4502SOL    HW125142   0.643   3.070  17.690 -0.4602 -0.1468  1.1192
 4502SOL    HW225143   0.762   3.017   0.013  0.1612 -0.4331 -1.5924
 4503SOL     OW25144   3.317   0.239   4.809 -0.0340 -0.4289 -0.3951
 4503SOL    HW125145   3.409   0.226   4.785  0.0482  0.3615 -0.5128
 4503SOL    HW225146   3.309   0.166   4.871  1.8512  1.8775  2.5484
 4504SOL     OW25147   3.134   1.067   6.009  0.3464 -0.0337  0.1952
 4504SOL    HW125148   3.093   1.089   5.925 -0.4304 -0.3742  0.4903
 4504SOL    HW225149   3.118   0.973   6.015 -2.2369  0.1772 -3.2696
 4505SOL     OW25150   0.864   0.281  10.309 -0.1019 -0.5874 -0.5945
 4505SOL    HW125151   0.770   0.292  10.323  0.0156  0.0222 -0.3023
 4505SOL    HW225152   0.905   0.362  10.339  0.2287 -0.9466 -0.0937
 4506SOL     OW25153   3.686   0.814   6.966  0.8138 -0.1615 -0.3692
 4506SOL    HW125154   3.768   0.774   6.994  1.8148  1.3395 -1.1580
 4506SOL    HW225155   3.658   0.758   6.894  0.2771 -0.9641  0.4639
 4507SOL     OW25156   0.819   3.725   6.139  0.3963 -0.3447 -0.2674
 4507SOL    HW125157   0.820   3.734   6.235  0.7605 -1.0164 -0.2099
 4507SOL    HW225158   0.798   3.632   6.134 -0.5045 -0.3038  2.5410
 4508SOL     OW25159   3.491   1.291   4.037  0.0659 -0.1178 -0.3948
 4508SOL    HW125160   3.529   1.255   4.117 -0.0385  0.7282  0.0323
 4508SOL    HW225161   3.441   1.369   4.061 -0.5833 -0.8964  0.7981
 4509SOL     OW25162   4.008   0.928   2.224 -0.4615  0.3490 -0.2120
 4509SOL    HW125163   4.069   0.995   2.256  2.6548 -2.4720 -0.3114
 4509SOL    HW225164   3.943   0.988   2.188  0.7029  1.8793  0.1948
 4510SOL     OW25165   0.431   4.179  16.911  0.4811 -0.0614 -0.9233
 4510SOL    HW125166   0.491   4.192  16.984  1.1323  1.4784 -1.7475
 4510SOL    HW225167   0.388   4.263  16.896  1.0916  0.2439 -0.9233
 4511SOL     OW25168   2.487   1.978   1.775 -0.3004 -0.1953 -0.0504
 4511SOL    HW125169   2.461   1.891   1.806  1.1638 -1.1771 -1.6025
 4511SOL    HW225170   2.576   1.985   1.809 -0.5929  0.1162  0.6593
 4512SOL     OW25171   2.609   3.990   8.038  0.6917 -0.9791 -0.2478
 4512SOL    HW125172   2.564   3.993   8.123  0.9161 -0.4390 -0.1453
 4512SOL    HW225173   2.568   4.063   7.993 -2.2615 -2.0596  0.6970
 4513SOL     OW25174   0.025   4.357   8.442 -0.4948  0.1177 -0.0132
 4513SOL    HW125175   0.082   4.341   8.518  1.2092  1.4033 -1.0170
 4513SOL    HW225176   4.680   4.331   8.483  0.8780 -2.0722  1.3778
 4514SOL     OW25177   0.694   1.150  10.585 -1.1061 -0.2843 -0.1694
 4514SOL    HW125178   0.645   1.209  10.528 -2.2850 -1.8229 -0.7616
 4514SOL    HW225179   0.682   1.071  10.531  0.1563  0.7139 -1.8991
 4515SOL     OW25180   3.323   4.243   0.871 -0.2552  0.0263  0.8119
 4515SOL    HW125181   3.254   4.273   0.812  0.3015  0.7865  0.5394
 4515SOL    HW225182   3.363   4.174   0.819  2.4438  0.9195  1.6941
 4516SOL     OW25183   3.293   0.888   2.565  0.1426  0.5613 -0.4255
 4516SOL    HW125184   3.361   0.849   2.511  1.3874 -0.8567  2.1321
 4516SOL    HW225185   3.250   0.804   2.582 -1.7009  1.0239 -2.9248
 4517SOL     OW25186   0.171   1.665   3.770 -0.0652 -0.0676  0.3286
 4517SOL    HW125187   0.086   1.709   3.764 -0.6667 -1.3369 -0.4885
 4517SOL    HW225188   0.190   1.640   3.680 -0.5332 -0.6837  0.3997
 4518SOL     OW25189   2.810   0.114   2.816  0.2440  0.0860  0.0130
 4518SOL    HW125190   2.904   0.100   2.806  0.1402 -0.0200 -0.7706
 4518SOL    HW225191   2.793   0.052   2.887  0.3536 -0.1031 -0.1254
 4519SOL     OW25192   2.245   0.115  12.953 -0.3644 -0.8056 -0.5107
 4519SOL    HW125193   2.312   0.047  12.940  0.0970 -0.5809  0.6670
 4519SOL    HW225194   2.171   0.072  12.910 -1.0083  2.4857 -2.6484
 4520SOL     OW25195   1.424   0.014  11.539  0.6274  0.3130 -0.4313
 4520SOL    HW125196   1.497   0.073  11.561 -0.9237  1.9666  0.2625
 4520SOL    HW225197   1.439   4.687  11.608  1.5210 -0.9909 -1.8464
 4521SOL     OW25198   2.379   1.560   2.679 -0.4037  0.0546  0.2062
 4521SOL    HW125199   2.284   1.554   2.685 -0.4933  0.7264 -0.6466
 4521SOL    HW225200   2.398   1.538   2.771  1.8795 -1.7482 -0.7146
 4522SOL     OW25201   3.950   2.938   7.177  0.3680  0.3540 -0.6118
 4522SOL    HW125202   3.881   2.892   7.129  0.6520  0.4715 -1.1300
 4522SOL    HW225203   4.007   2.864   7.199 -3.1243 -3.0469 -3.0176
 4523SOL     OW25204   1.691   2.616   1.095 -0.0739 -0.3395 -0.3354
 4523SOL    HW125205   1.692   2.648   1.186  1.5229 -2.0415  0.2380
 4523SOL    HW225206   1.786   2.603   1.089 -0.1747 -1.4479  0.5207
 4524SOL     OW25207   1.973   1.959   3.880 -0.6787  0.4285  0.6086
 4524SOL    HW125208   2.068   1.951   3.882 -0.7238  0.1127  1.7741
 4524SOL    HW225209   1.947   1.892   3.816 -1.0652 -1.3202  2.5769
 4525SOL     OW25210   3.497   0.792  14.592  0.9873  0.4462  0.3286
 4525SOL    HW125211   3.515   0.738  14.516  1.0266  1.1002 -0.1242
 4525SOL    HW225212   3.557   0.866  14.582  1.8279 -0.4381 -1.0889
 4526SOL     OW25213   3.541   1.482  14.418  0.1584  0.1210  0.5452
 4526SOL    HW125214   3.613   1.481  14.482  0.4775 -1.5737  0.1683
 4526SOL    HW225215   3.537   1.569  14.380 -0.5324 -0.3418 -0.4365
 4527SOL     OW25216   3.626   1.067  12.026 -0.2678 -1.2215  0.2912
 4527SOL    HW125217   3.606   1.061  12.120 -0.2130 -0.1998  0.3687
 4527SOL    HW225218   3.554   1.128  12.008  3.9333  2.8517 -2.5783
 4528SOL     OW25219   0.188   4.210   2.145  0.2163 -0.0739  0.9476
 4528SOL    HW125220   0.218   4.299   2.126 -1.6213  0.5206  0.9116
 4528SOL    HW225221   0.148   4.188   2.061 -0.7964  0.2373  1.3502
 4529SOL     OW25222   2.427   1.762   3.410  0.0152  0.1972  0.1641
 4529SOL    HW125223   2.436   1.758   3.315 -0.6547  2.1281  0.0240
 4529SOL    HW225224   2.480   1.839   3.427  2.3384 -1.2342 -0.5616
 4530SOL     OW25225   0.044   0.441   0.382  0.1303 -0.0203  0.0201
 4530SOL    HW125226   4.696   0.426   0.421 -0.4271  0.4737 -1.0219
 4530SOL    HW225227   0.103   0.422   0.455 -0.7117  3.1876  1.5464
 4531SOL     OW25228   1.793   0.809  13.057 -0.5073 -0.3640  0.1636
 4531SOL    HW125229   1.801   0.722  13.097 -1.0148  0.2795  1.6588
 4531SOL    HW225230   1.793   0.857  13.140  1.0183  1.2212 -0.7782
 4532SOL     OW25231   0.537   2.237   8.841 -0.2818 -0.2444 -0.4866
 4532SOL    HW125232   0.519   2.197   8.756  1.8827 -1.6169 -0.2735
 4532SOL    HW225233   0.616   2.191   8.867 -0.5529  0.2215  1.1751
 4533SOL     OW25234   2.242   0.205   3.925 -0.1551  0.0965 -0.1137
 4533SOL    HW125235   2.277   0.226   3.838 -2.1053 -2.2048 -1.4602
 4533SOL    HW225236   2.188   0.281   3.944 -1.3923 -1.4312  2.4208
 4534SOL     OW25237   2.409   3.962  17.191 -0.1245  0.1525 -0.3784
 4534SOL    HW125238   2.496   3.957  17.228 -0.3858 -0.5937  0.1386
 4534SOL    HW225239   2.426   4.019  17.116 -1.3156  1.9519  0.7147
 4535SOL     OW25240   1.488   4.133   5.666  0.0218  0.7114  0.3906
 4535SOL    HW125241   1.568   4.185   5.675  0.4781  0.0584  0.0693
 4535SOL    HW225242   1.532   4.067   5.613 -2.0513  0.5804 -1.1674
 4536SOL     OW25243   3.620   0.478   8.112  0.0573  0.2429  0.7356
 4536SOL    HW125244   3.683   0.460   8.042 -0.6746 -0.1526  0.1829
 4536SOL    HW225245   3.539   0.480   8.061 -0.0989 -2.0912  0.8904
 4537SOL     OW25246   4.333   3.147   5.040 -0.0648 -0.1189  0.4721
 4537SOL    HW125247   4.366   3.085   4.975  3.3570  2.7539 -0.5306
 4537SOL    HW225248   4.330   3.220   4.979  0.2716 -1.0804 -0.6897
 4538SOL     OW25249   2.539   4.145   0.565 -0.0502  0.2635 -0.2217
 4538SOL    HW125250   2.494   4.078   0.617  1.4255 -1.4028 -1.0717
 4538SOL    HW225251   2.587   4.093   0.501 -0.3825 -1.0447  0.5746
 4539SOL     OW25252   1.933   4.373   7.030 -0.6002  0.3032 -0.7841
 4539SOL    HW125253   1.917   4.339   6.942  0.9427 -0.9346 -0.5861
 4539SOL    HW225254   1.862   4.325   7.074 -0.1528  0.0814 -0.3072
 4540SOL     OW25255   3.302   1.737   7.521  0.5999 -0.6208 -0.7685
 4540SOL    HW125256   3.304   1.708   7.613 -1.0213  4.8983  0.9962
 4540SOL    HW225257   3.396   1.732   7.507  0.3627 -2.4077 -1.6968
 4541SOL     OW25258   0.420   1.556   3.313 -0.2264  0.4636 -0.5306
 4541SOL    HW125259   0.457   1.644   3.320  0.9007  0.1493 -2.6116
 4541SOL    HW225260   0.326   1.569   3.302 -0.7636 -1.0937  2.1441
 4542SOL     OW25261   2.974   3.516  11.888 -0.0404 -0.4853 -0.0682
 4542SOL    HW125262   2.913   3.445  11.909  0.7034 -0.6456  1.4752
 4542SOL    HW225263   3.059   3.473  11.891  0.4139  0.7078  3.5455
 4543SOL     OW25264   2.965   2.141   9.382 -0.0137 -0.0749  0.0046
 4543SOL    HW125265   2.901   2.183   9.440  0.3329 -2.1264  1.8611
 4543SOL    HW225266   2.924   2.054   9.380  1.5773 -0.7418 -2.6953
 4544SOL     OW25267   4.595   4.655   7.141  0.2851 -0.3231 -0.2475
 4544SOL    HW125268   4.603   4.678   7.049 -1.3209  0.9933 -0.0720
 4544SOL    HW225269   4.502   4.673   7.157  0.5978  1.7656 -0.7836
 4545SOL     OW25270   1.051   0.465   4.048  0.1008  0.6337 -0.6593
 4545SOL    HW125271   1.036   0.559   4.042  1.2809  0.7038 -2.5756
 4545SOL    HW225272   0.974   0.437   4.097 -0.1138  1.9616 -0.2477
 4546SOL     OW25273   3.405   4.376   0.552 -0.0861 -0.6563  0.2753
 4546SOL    HW125274   3.314   4.381   0.581  0.2540  0.4968  1.1609
 4546SOL    HW225275   3.454   4.406   0.630  0.7000  0.1273 -0.5206
 4547SOL     OW25276   4.375   3.055  13.430  0.0675  0.4459 -0.5322
 4547SOL    HW125277   4.287   3.051  13.392  0.5253 -1.1429 -1.4149
 4547SOL    HW225278   4.369   2.989  13.500  0.4479  2.3379  1.2779
 4548SOL     OW25279   4.296   3.863   9.855 -0.7019 -0.3293  0.1789
 4548SOL    HW125280   4.300   3.956   9.832 -2.6342 -0.8031 -2.0934
 4548SOL    HW225281   4.324   3.865   9.946 -1.5002  0.8686  0.3985
 4549SOL     OW25282   1.230   2.117   0.571 -0.0576 -0.1966  0.4222
 4549SOL    HW125283   1.211   2.200   0.616 -1.1493 -0.1303 -0.1699
 4549SOL    HW225284   1.142   2.083   0.586 -0.8007  0.8422 -1.5906
 4550SOL     OW25285   4.194   1.087   2.388  0.0683  0.5569  0.2798
 4550SOL    HW125286   4.113   1.109   2.433  0.4709  0.0826  1.2390
 4550SOL    HW225287   4.242   1.169   2.400 -1.6134  1.4705  0.6534
 4551SOL     OW25288   4.247   3.687  15.594  0.2481 -0.4323  0.2044
 4551SOL    HW125289   4.197   3.767  15.576 -0.4837 -1.4080 -2.2048
 4551SOL    HW225290   4.278   3.664  15.506 -0.1191  1.5773 -0.4654
 4552SOL     OW25291   3.247   4.362   5.028  0.0010  0.2010  0.7173
 4552SOL    HW125292   3.173   4.418   5.050 -0.1491  0.5789 -0.7422
 4552SOL    HW225293   3.318   4.391   5.085 -0.7884  0.7216  1.4442
 4553SOL     OW25294   0.364   1.896   5.309  0.6011 -0.0239 -0.1088
 4553SOL    HW125295   0.308   1.836   5.259  2.0157 -0.5528 -1.0423
 4553SOL    HW225296   0.379   1.836   5.382  2.5896 -0.6007 -0.9921
 4554SOL     OW25297   3.369   3.211   2.099  0.0449  0.0066  0.1187
 4554SOL    HW125298   3.450   3.235   2.145  1.9336 -0.8403 -2.7440
 4554SOL    HW225299   3.345   3.300   2.075 -3.0148 -1.0295 -0.5799
 4555SOL     OW25300   3.447   2.889  17.172  0.2054  0.1102 -0.4484
 4555SOL    HW125301   3.461   2.795  17.181  2.0889  0.5584  1.4142
 4555SOL    HW225302   3.502   2.923  17.243 -0.0274 -1.0615  0.2953
 4556SOL     OW25303   0.219   2.014  15.328 -0.0660 -0.1042  0.4951
 4556SOL    HW125304   0.150   1.955  15.298 -0.3336  0.3942  0.1291
 4556SOL    HW225305   0.180   2.102  15.322 -2.1357 -0.9916  0.8493
 4557SOL     OW25306   2.039   2.904   9.501 -0.2577  0.3327 -0.0458
 4557SOL    HW125307   2.058   2.861   9.585  0.0710 -1.5605 -1.0902
 4557SOL    HW225308   2.010   2.991   9.526 -0.7478  0.4570 -1.0629
 4558SOL     OW25309   0.609   2.601   8.000  0.2638 -0.3406  0.1739
 4558SOL    HW125310   0.578   2.662   8.066  0.3074 -1.7859  1.5173
 4558SOL    HW225311   0.690   2.571   8.041 -0.6318 -1.7163  0.9060
 4559SOL     OW25312   1.176   1.551   4.538 -0.1618  0.5015  0.1561
 4559SOL    HW125313   1.258   1.504   4.557  0.2624  0.4106 -1.8050
 4559SOL    HW225314   1.197   1.625   4.596  2.5677  1.0300 -1.4969
 4560SOL     OW25315   0.910   0.892   2.697 -0.0608 -0.1783  0.1800
 4560SOL    HW125316   0.840   0.851   2.647  0.8415 -1.1820 -0.2473
 4560SOL    HW225317   0.993   0.874   2.653  0.4901  0.6612  0.8410
 4561SOL     OW25318   2.716   4.333   4.236 -0.5146 -0.0322 -0.4337
 4561SOL    HW125319   2.666   4.382   4.302  1.4322  1.5990 -0.1725
 4561SOL    HW225320   2.749   4.394   4.170 -0.6347 -0.0166 -0.4812
 4562SOL     OW25321   4.562   0.161   4.729  0.1735  0.3752 -0.1608
 4562SOL    HW125322   4.613   0.236   4.698  0.7652 -0.7085 -1.7804
 4562SOL    HW225323   4.580   0.148   4.823 -0.3012 -0.9182 -0.2533
 4563SOL     OW25324   0.212   1.664  15.215  0.1613  0.5047  0.6365
 4563SOL    HW125325   0.117   1.671  15.205  0.2216  0.6976  0.1809
 4563SOL    HW225326   0.217   1.635  15.306  1.5671 -2.7116 -0.4703
 4564SOL     OW25327   3.384   1.089  10.256  0.2029  0.2994  0.7234
 4564SOL    HW125328   3.302   1.066  10.298  0.3152 -0.1829  0.6860
 4564SOL    HW225329   3.417   0.999  10.252  0.1719  0.4495 -3.3260
 4565SOL     OW25330   2.260   4.469   0.023  0.0905  0.0140  0.0480
 4565SOL    HW125331   2.212   4.486   0.104 -0.1130 -1.8674  0.3258
 4565SOL    HW225332   2.221   4.528  17.709 -2.8852 -1.4249  0.5442
 4566SOL     OW25333   2.544   3.132   2.275  0.2119  0.2536 -0.1441
 4566SOL    HW125334   2.511   3.136   2.185 -0.4816 -0.6988  0.0645
 4566SOL    HW225335   2.556   3.038   2.284  0.7093  0.2842 -0.5125
 4567SOL     OW25336   1.405   3.934   4.899 -0.2631  0.1946  0.2586
 4567SOL    HW125337   1.328   3.969   4.854 -0.4862  0.5580  0.9132
 4567SOL    HW225338   1.445   4.013   4.937 -0.4140 -0.3441  1.5485
 4568SOL     OW25339   1.621   0.524   7.960 -0.7072  0.0880  0.2984
 4568SOL    HW125340   1.679   0.523   8.036  0.5116  0.5616 -0.6187
 4568SOL    HW225341   1.547   0.566   8.003  0.4720 -1.1240  3.4925
 4569SOL     OW25342   3.225   0.145   7.572  0.1018 -0.3886  0.0141
 4569SOL    HW125343   3.282   0.094   7.514  1.4621 -1.9074  2.7000
 4569SOL    HW225344   3.155   0.167   7.510  0.0651 -0.8084 -0.0940
 4570SOL     OW25345   0.457   4.404  10.230 -0.1084  0.5373  0.3342
 4570SOL    HW125346   0.427   4.313  10.219  1.9306 -0.1719  0.5801
 4570SOL    HW225347   0.438   4.451  10.150  0.3696 -0.3004 -0.2749
 4571SOL     OW25348   3.162   3.861   7.632 -0.4366 -0.0333  0.3318
 4571SOL    HW125349   3.130   3.813   7.708  2.6577 -3.3424 -0.4450
 4571SOL    HW225350   3.246   3.885   7.670  0.7360  1.3169 -3.0855
 4572SOL     OW25351   1.178   2.426   2.260 -0.2640  0.1406  0.3353
 4572SOL    HW125352   1.121   2.383   2.324 -0.5660  0.7723  0.4896
 4572SOL    HW225353   1.163   2.516   2.289  1.4899 -0.1461  2.1752
 4573SOL     OW25354   3.070   2.057   9.700 -0.6486 -0.9246 -0.1302
 4573SOL    HW125355   3.149   2.046   9.753 -1.0693  1.4690  0.9797
 4573SOL    HW225356   3.107   2.042   9.613 -0.0494 -0.5326  0.0604
 4574SOL     OW25357   1.090   4.593   2.007 -0.3914 -0.6216 -0.4969
 4574SOL    HW125358   1.106   4.500   2.022  1.6195 -0.3847 -1.1889
 4574SOL    HW225359   1.032   4.589   1.931  0.0928 -1.9301 -0.7938
 4575SOL     OW25360   1.135   0.033   6.275  0.0026  0.3376  0.1225
 4575SOL    HW125361   1.089   4.697   6.315  2.4362 -1.6044 -0.6426
 4575SOL    HW225362   1.078   0.044   6.199  0.9886 -1.8256 -0.8984
 4576SOL     OW25363   1.306   4.252   4.496 -0.2580 -0.2295 -0.2952
 4576SOL    HW125364   1.257   4.333   4.506  0.7827 -0.0595  3.4944
 4576SOL    HW225365   1.330   4.256   4.403  0.6582  1.4546  0.0323
 4577SOL     OW25366   3.773   2.477   1.493  0.3379  0.2596 -0.5043
 4577SOL    HW125367   3.809   2.557   1.531 -1.3332  1.4793 -1.5271
 4577SOL    HW225368   3.760   2.426   1.573  0.9413 -0.3703 -0.8032
 4578SOL     OW25369   1.361   4.154   3.514  0.2540  0.0218  0.0821
 4578SOL    HW125370   1.302   4.080   3.499  0.6385 -0.7655  2.5157
 4578SOL    HW225371   1.366   4.213   3.438 -1.2506  0.2143  0.1222
 4579SOL     OW25372   2.248   4.646   7.041  0.0608 -0.1507  0.0332
 4579SOL    HW125373   2.218   4.704   7.112  2.3428  0.6456  0.3474
 4579SOL    HW225374   2.300   4.709   6.992 -0.0306 -1.1205 -1.2996
 4580SOL     OW25375   2.795   1.732  15.922  0.4419  0.0427 -0.2018
 4580SOL    HW125376   2.764   1.779  16.000  1.2280 -0.6219  0.5137
 4580SOL    HW225377   2.809   1.803  15.860  2.2459 -0.5569 -0.4865
 4581SOL     OW25378   1.060   2.689   2.036 -0.3186 -0.5230  0.4931
 4581SOL    HW125379   0.965   2.677   2.044 -0.5230  0.8385  0.1475
 4581SOL    HW225380   1.086   2.719   2.123 -1.4582  3.2810 -0.4614
 4582SOL     OW25381   0.663   4.152   3.951 -0.4865 -0.1920 -0.1850
 4582SOL    HW125382   0.749   4.113   3.936 -0.1861  1.0973 -1.8182
 4582SOL    HW225383   0.602   4.079   3.954 -0.1703 -0.4539 -0.1805
 4583SOL     OW25384   0.285   0.782   8.944  0.3749 -0.0803  0.3056
 4583SOL    HW125385   0.358   0.762   9.002 -0.7633  1.2851  2.2080
 4583SOL    HW225386   0.280   0.877   8.953  0.2539 -0.0586  0.0200
 4584SOL     OW25387   0.834   2.673   9.126  0.5715 -0.4832  0.4350
 4584SOL    HW125388   0.859   2.638   9.041 -1.8704  1.2784 -0.9848
 4584SOL    HW225389   0.836   2.767   9.107  0.0685 -0.7463 -0.8729
 4585SOL     OW25390   1.963   0.955   2.328  0.1283  0.7799 -0.4868
 4585SOL    HW125391   1.929   0.866   2.336  1.4139  0.3347  0.0623
 4585SOL    HW225392   2.011   0.970   2.409 -0.8630 -2.2150  0.6496
 4586SOL     OW25393   4.000   0.396   3.739  0.1887 -0.4023  0.3576
 4586SOL    HW125394   4.015   0.329   3.673 -1.2615 -0.1831 -0.1905
 4586SOL    HW225395   3.907   0.410   3.724  0.3466 -2.1080 -2.2038
 4587SOL     OW25396   2.641   1.898   4.132  0.2713  0.0920 -0.3196
 4587SOL    HW125397   2.561   1.950   4.141 -0.1258 -0.4869 -0.5304
 4587SOL    HW225398   2.703   1.963   4.098 -1.0828  0.6149 -1.7817
 4588SOL     OW25399   4.038   2.001  17.605 -0.6164 -0.2312 -0.6575
 4588SOL    HW125400   4.020   1.977  17.696  1.5311 -1.9860 -0.6986
 4588SOL    HW225401   4.023   1.915  17.565 -0.7597  1.0119 -3.2857
 4589SOL     OW25402   0.450   4.726   4.777  0.1330  0.0581 -0.5979
 4589SOL    HW125403   0.469   4.704   4.686  0.7768  3.4425 -1.2643
 4589SOL    HW225404   0.500   4.657   4.821  2.3463  1.0582 -1.5185
 4590SOL     OW25405   3.549   1.218  15.805 -0.3414  0.5407 -0.6128
 4590SOL    HW125406   3.460   1.220  15.772 -0.8245  1.5424  0.7508
 4590SOL    HW225407   3.569   1.125  15.795 -0.1792  0.4396  0.5721
 4591SOL     OW25408   0.332   4.102   6.836  0.2782  0.2361 -0.0944
 4591SOL    HW125409   0.384   4.022   6.837  0.9643  0.6947  1.1558
 4591SOL    HW225410   0.350   4.137   6.749 -0.4200 -1.7895 -1.0418
 4592SOL     OW25411   2.431   1.720   1.836 -0.5704 -0.3773 -0.0882
 4592SOL    HW125412   2.498   1.657   1.863 -1.2882 -1.2207 -0.2919
 4592SOL    HW225413   2.378   1.664   1.780  1.0387  1.1782 -3.2012
 4593SOL     OW25414   0.478   4.363   7.261  0.1412  0.0033 -0.5815
 4593SOL    HW125415   0.545   4.350   7.194 -0.4945 -0.6120 -1.0927
 4593SOL    HW225416   0.424   4.439   7.238 -0.4979  0.2260  1.7121
 4594SOL     OW25417   3.793   1.464   6.211  0.4762 -0.5627  0.3546
 4594SOL    HW125418   3.744   1.408   6.150  1.1961 -0.6190 -0.1694
 4594SOL    HW225419   3.862   1.406   6.242  0.2764 -1.2614 -0.4940
 4595SOL     OW25420   2.958   1.116  15.011 -0.8038 -0.1648  0.8656
 4595SOL    HW125421   2.913   1.162  14.940 -0.8537  0.8622  1.5641
 4595SOL    HW225422   2.883   1.071  15.049  0.2642 -2.5760  0.1718
 4596SOL     OW25423   4.237   3.026   2.045  0.3425 -0.4537 -0.0697
 4596SOL    HW125424   4.257   2.933   2.059 -2.7076 -1.0224  0.3658
 4596SOL    HW225425   4.323   3.061   2.071 -0.7661  1.5970  0.8342
 4597SOL     OW25426   1.141   2.408   4.512 -0.1043  0.3358  0.2473
 4597SOL    HW125427   1.101   2.353   4.446  0.8703  0.0116 -0.0772
 4597SOL    HW225428   1.222   2.434   4.468  1.0597  0.3786  2.3704
 4598SOL     OW25429   4.718   3.288   4.310 -0.4362 -0.5058 -0.7170
 4598SOL    HW125430   4.726   3.201   4.271 -2.4968 -1.2046  0.3758
 4598SOL    HW225431   4.646   3.280   4.373 -0.1694 -1.8446 -0.5737
 4599SOL     OW25432   0.141   2.853   1.770  0.7573 -0.1824 -0.1565
 4599SOL    HW125433   0.201   2.795   1.723 -0.0804 -1.2107  0.0150
 4599SOL    HW225434   0.056   2.811   1.756  0.8113 -0.5029  0.4859
 4600SOL     OW25435   4.436   1.503   9.513 -1.1279 -0.2828 -0.8567
 4600SOL    HW125436   4.410   1.592   9.538  1.3089  0.2389 -0.1683
 4600SOL    HW225437   4.401   1.503   9.424  0.5666 -1.6088 -1.5378
 4601SOL     OW25438   4.218   2.816   0.906 -0.3772  0.4785 -0.5652
 4601SOL    HW125439   4.162   2.750   0.948  1.2239 -0.0257  0.7966
 4601SOL    HW225440   4.301   2.780   0.937 -1.4268 -1.0432  0.4834
 4602SOL     OW25441   4.456   2.847   1.152  0.5335 -0.0643  0.2641
 4602SOL    HW125442   4.446   2.942   1.154  1.5513  0.0527 -0.1222
 4602SOL    HW225443   4.551   2.836   1.152  0.6221  0.6574 -1.8976
 4603SOL     OW25444   2.892   3.625   6.309  0.2996  0.1033 -0.4683
 4603SOL    HW125445   2.885   3.690   6.379  1.6531 -0.9862  0.7087
 4603SOL    HW225446   2.901   3.683   6.234  0.2558  0.3891 -0.2505
 4604SOL     OW25447   3.951   1.626   6.895 -0.2681 -0.0436  0.3759
 4604SOL    HW125448   3.914   1.540   6.915 -0.2105 -0.3377 -0.7737
 4604SOL    HW225449   4.025   1.614   6.954  0.1022  3.6207  0.6485
 4605SOL     OW25450   3.944   3.805   1.082 -0.5920  0.2257  0.2223
 4605SOL    HW125451   3.986   3.721   1.060 -0.1935  0.8933 -1.5787
 4605SOL    HW225452   3.855   3.786   1.053 -0.3275 -3.3044  1.7016
 4606SOL     OW25453   4.409   0.662  12.351 -0.2205 -0.2599 -0.5517
 4606SOL    HW125454   4.471   0.600  12.390 -0.4940  1.3189  2.3579
 4606SOL    HW225455   4.414   0.729  12.419  0.4736  1.0786 -1.9279
 4607SOL     OW25456   4.309   2.868   8.716  0.1347  0.4763  0.1681
 4607SOL    HW125457   4.355   2.785   8.723 -1.5882 -0.4287  0.8061
 4607SOL    HW225458   4.384   2.926   8.708 -0.2324  0.9326  0.0152
 4608SOL     OW25459   4.679   1.035   4.172 -0.3654  0.3884 -0.2400
 4608SOL    HW125460   4.613   1.067   4.233  1.8064  0.8582  1.8586
 4608SOL    HW225461   4.652   0.955   4.127 -2.2543  0.5136  0.6716
 4609SOL     OW25462   1.648   2.470  15.716 -0.2354  0.2341  0.0180
 4609SOL    HW125463   1.661   2.511  15.802 -0.2289  2.2382 -0.9542
 4609SOL    HW225464   1.713   2.515  15.661  0.6905  0.1322  1.0289
 4610SOL     OW25465   4.287   0.982  13.098 -0.5725  0.2339 -0.1107
 4610SOL    HW125466   4.338   1.054  13.134 -1.9279  0.1448  1.9581
 4610SOL    HW225467   4.202   1.026  13.094 -0.9498 -0.3219  2.0616
 4611SOL     OW25468   1.956   0.022   1.689 -0.0220 -0.1720 -0.0288
 4611SOL    HW125469   1.963   0.045   1.782  1.3017 -1.0385  0.0986
 4611SOL    HW225470   2.033   4.703   1.679 -0.5032 -0.7681 -0.3152
 4612SOL     OW25471   3.565   0.582   3.426 -0.3391 -0.6447 -0.5552
 4612SOL    HW125472   3.553   0.488   3.416  0.2104 -0.7487 -0.2623
 4612SOL    HW225473   3.473   0.597   3.407 -0.5018 -1.5571 -0.4870
 4613SOL     OW25474   3.926   0.118   5.319  0.3854  0.2375  0.5344
 4613SOL    HW125475   3.932   0.214   5.320 -2.9672  0.4570 -0.7041
 4613SOL    HW225476   4.004   0.094   5.369  1.1518  1.1031 -0.2386
 4614SOL     OW25477   0.213   0.899   6.823 -0.6559 -0.0455 -0.0812
 4614SOL    HW125478   0.285   0.952   6.789 -1.7147  2.1732  1.1341
 4614SOL    HW225479   0.169   0.883   6.740 -1.7093 -0.1202  0.5001
 4615SOL     OW25480   3.834   3.706   0.401  0.4107 -0.2284  0.0219
 4615SOL    HW125481   3.755   3.731   0.352  1.4882  0.2845 -1.4513
 4615SOL    HW225482   3.828   3.614   0.375 -0.3912 -0.3286  0.5488
 4616SOL     OW25483   0.011   1.268   5.144  0.0118  0.5129  0.3288
 4616SOL    HW125484   0.042   1.320   5.069  0.2225  0.8321  0.6386
 4616SOL    HW225485   4.657   1.248   5.127  0.3973  1.0704 -2.4121
 4617SOL     OW25486   4.449   2.885   0.091 -0.6455 -0.2204  0.5355
 4617SOL    HW125487   4.395   2.815   0.128 -1.3402  0.1331  0.2008
 4617SOL    HW225488   4.378   2.916   0.034 -1.8428 -1.2068  1.4899
 4618SOL     OW25489   0.577   3.355   5.807 -0.3269  0.4332 -0.6913
 4618SOL    HW125490   0.531   3.358   5.724 -2.1410  1.6822  0.3529
 4618SOL    HW225491   0.668   3.344   5.781 -0.4273 -0.7689 -0.5427
 4619SOL     OW25492   3.274   0.686   7.487  0.4794  0.1925  0.0370
 4619SOL    HW125493   3.182   0.705   7.503  0.8700  2.2059 -0.0526
 4619SOL    HW225494   3.273   0.700   7.392  0.0981  1.8077  0.2762
 4620SOL     OW25495   3.901   3.155   1.398 -0.3093  0.8394  0.2510
 4620SOL    HW125496   3.904   3.176   1.304 -1.1800  0.4065  0.1331
 4620SOL    HW225497   3.886   3.242   1.435 -2.8789  0.4802  0.0229
 4621SOL     OW25498   1.736   4.676   5.939 -0.0009 -0.1465 -0.0188
 4621SOL    HW125499   1.749   4.612   6.009  0.6985 -0.6189 -0.5758
 4621SOL    HW225500   1.716   0.012   5.996 -0.6538  0.0280 -0.4808
 4622SOL     OW25501   2.759   4.611   3.160  0.6980 -0.6021 -0.0964
 4622SOL    HW125502   2.845   4.596   3.200  1.3520  0.0049 -1.2768
 4622SOL    HW225503   2.721   4.523   3.171 -2.7673  0.5905 -2.6092
 4623SOL     OW25504   1.996   2.362   9.999 -0.3258 -0.0283 -0.3584
 4623SOL    HW125505   2.074   2.320  10.033 -0.6684 -1.4925 -1.3829
 4623SOL    HW225506   2.011   2.380   9.906 -0.2427 -0.7924 -0.4955
 4624SOL     OW25507   2.838   1.094   4.927  0.2101 -0.0526 -0.1485
 4624SOL    HW125508   2.767   1.133   4.874  0.1686 -1.5186 -1.1728
 4624SOL    HW225509   2.772   1.063   4.989  0.1121  0.5588  0.0552
 4625SOL     OW25510   4.030   4.258   2.418 -0.5668 -0.4653 -0.2514
 4625SOL    HW125511   4.085   4.298   2.485 -0.1822 -0.6477 -0.4544
 4625SOL    HW225512   4.067   4.308   2.345  0.4177  1.4332  1.5365
 4626SOL     OW25513   3.430   2.212  11.349 -0.1744 -0.3686  0.0981
 4626SOL    HW125514   3.411   2.278  11.282  0.9325 -0.1337  0.0144
 4626SOL    HW225515   3.525   2.208  11.342 -0.2667 -1.3886 -0.5076
 4627SOL     OW25516   3.072   3.526   8.371 -0.2069  0.2151 -0.2708
 4627SOL    HW125517   3.006   3.459   8.389 -0.0429  0.5952  1.6751
 4627SOL    HW225518   3.026   3.601   8.408 -1.4479  0.1130 -1.6232
 4628SOL     OW25519   0.859   4.688   6.882 -0.2692  0.1604  0.0638
 4628SOL    HW125520   0.863   4.630   6.806  1.8987 -0.1735  0.4197
 4628SOL    HW225521   0.827   0.026   6.834 -2.0448  0.7163  2.1192
 4629SOL     OW25522   0.059   1.505   5.380 -0.5353  0.5428  0.7205
 4629SOL    HW125523   0.035   1.433   5.321  2.0648  1.7836 -1.8829
 4629SOL    HW225524   4.720   1.505   5.436 -0.3250 -3.8082  0.9840
 4630SOL     OW25525   3.867   0.443   1.457  0.0822  0.3296  0.8958
 4630SOL    HW125526   3.935   0.465   1.394 -1.1711  0.7967 -0.2958
 4630SOL    HW225527   3.907   0.465   1.541  1.0200  1.1187  0.2501
 4631SOL     OW25528   0.221   2.810   8.669  0.1787 -0.5970 -0.3864
 4631SOL    HW125529   0.287   2.828   8.602 -2.0558 -0.3749 -2.4923
 4631SOL    HW225530   0.265   2.748   8.726  0.0376 -0.4070 -0.0703
 4632SOL     OW25531   0.050   3.331   1.395  0.2023  0.1480  0.5324
 4632SOL    HW125532   0.123   3.393   1.396 -0.0718  0.4756  0.2289
 4632SOL    HW225533   4.719   3.398   1.396  0.6428  0.6151 -0.0058
 4633SOL     OW25534   3.340   4.449  16.829 -0.0204  0.4287 -0.1106
 4633SOL    HW125535   3.387   4.488  16.903 -3.8007  0.1785  2.3882
 4633SOL    HW225536   3.272   4.516  16.830 -0.1013  0.3185  3.7744
 4634SOL     OW25537   2.679   4.638  16.680  0.0033  0.2326  0.4382
 4634SOL    HW125538   2.729   4.625  16.761  0.2060 -0.4684  0.2026
 4634SOL    HW225539   2.615   4.703  16.708  0.5809  0.9715  0.0363
 4635SOL     OW25540   1.002   2.494   7.263  0.5192 -0.0567  0.5093
 4635SOL    HW125541   1.061   2.420   7.246  0.3480 -0.4405  1.6321
 4635SOL    HW225542   0.931   2.459   7.316  0.6103 -1.6134 -0.3882
 4636SOL     OW25543   3.762   0.570   3.234  0.1190 -0.0546 -0.7765
 4636SOL    HW125544   3.691   0.592   3.295 -1.1496  2.7096 -3.2294
 4636SOL    HW225545   3.717   0.552   3.151 -0.5492  3.3927 -1.1568
 4637SOL     OW25546   4.021   4.041  14.612 -0.0396 -0.1824 -0.3079
 4637SOL    HW125547   4.031   3.961  14.559  2.9849  1.3960 -2.0910
 4637SOL    HW225548   4.097   4.089  14.579  1.4619 -0.6246  2.5455
 4638SOL     OW25549   2.977   3.105  12.666  0.4186 -0.6109 -0.0833
 4638SOL    HW125550   3.051   3.051  12.694  0.7649 -0.6790 -1.1312
 4638SOL    HW225551   2.916   3.109  12.740  0.1115  0.3647 -0.3907
 4639SOL     OW25552   0.729   3.011   7.799  0.4964 -0.4071 -0.1598
 4639SOL    HW125553   0.746   2.917   7.794 -1.3873 -0.7250 -0.6802
 4639SOL    HW225554   0.665   3.014   7.728 -0.2835 -1.3828  0.4921
 4640SOL     OW25555   3.128   0.714   5.974 -0.9030  0.1653  0.2787
 4640SOL    HW125556   3.038   0.741   5.990 -1.3940 -0.7056 -0.9880
 4640SOL    HW225557   3.122   0.622   6.001  2.0644 -0.0842  0.0990
 4641SOL     OW25558   0.960   2.501   8.870  0.0874 -0.1470  0.4009
 4641SOL    HW125559   0.952   2.441   8.796 -1.3421  1.6042 -0.8700
 4641SOL    HW225560   1.045   2.471   8.902  0.9949  2.8401  0.7968
 4642SOL     OW25561   0.624   0.195   4.574  0.3467 -0.5338  0.0176
 4642SOL    HW125562   0.564   0.217   4.502 -1.1472 -0.9019  1.1416
 4642SOL    HW225563   0.566   0.225   4.644  0.1104 -0.0509 -0.3857
 4643SOL     OW25564   0.255   3.579   8.194  0.2679 -0.2812 -0.0194
 4643SOL    HW125565   0.222   3.504   8.145  0.4537  0.7130 -1.6704
 4643SOL    HW225566   0.185   3.580   8.260  0.0439  1.0518 -0.2666
 4644SOL     OW25567   0.284   0.644  12.696 -0.1776 -0.7215  0.3604
 4644SOL    HW125568   0.272   0.565  12.748  0.4701 -1.5667 -0.7734
 4644SOL    HW225569   0.379   0.657  12.690 -0.3300 -1.0878 -3.0635
 4645SOL     OW25570   2.085   0.761   6.626  0.0446 -0.2786 -0.0802
 4645SOL    HW125571   2.001   0.720   6.603 -1.5147  0.8427  3.5172
 4645SOL    HW225572   2.058   0.853   6.628 -0.5126 -0.4643  1.6205
 4646SOL     OW25573   0.213   4.042  15.667  0.3962  0.1927  0.4656
 4646SOL    HW125574   0.294   4.088  15.647  0.7580 -0.9232 -0.5930
 4646SOL    HW225575   0.198   3.987  15.590  0.4935  1.2389 -0.3032
 4647SOL     OW25576   3.531   2.436   0.384  0.4986  0.1426  0.2903
 4647SOL    HW125577   3.532   2.472   0.295  1.1894  0.4190  0.4074
 4647SOL    HW225578   3.541   2.510   0.444  1.5552  0.3850 -0.1850
 4648SOL     OW25579   3.758   1.873   2.350  0.0467 -0.1477 -0.0107
 4648SOL    HW125580   3.765   1.787   2.391 -1.0501 -0.1327  0.2092
 4648SOL    HW225581   3.666   1.894   2.367  0.5166  1.7781  0.1504
 4649SOL     OW25582   3.720   1.357   2.394  0.5701  0.3646 -0.4275
 4649SOL    HW125583   3.797   1.320   2.352 -0.7204 -2.0974 -0.6612
 4649SOL    HW225584   3.642   1.304   2.375  0.0218  2.1174 -2.9101
 4650SOL     OW25585   2.881   0.331   2.548 -0.1637 -0.2413  0.1276
 4650SOL    HW125586   2.865   0.259   2.488  0.1792  0.3035 -0.6222
 4650SOL    HW225587   2.951   0.377   2.501 -0.4712  2.1094  1.9699
 4651SOL     OW25588   3.469   0.927   3.118  0.3578  0.2801 -0.1035
 4651SOL    HW125589   3.414   1.005   3.123 -1.2188 -0.8556  0.2037
 4651SOL    HW225590   3.521   0.931   3.199 -2.6989 -1.4649  1.9515
 4652SOL     OW25591   4.010   1.340  10.770  0.0362  0.4102 -0.1966
 4652SOL    HW125592   3.985   1.254  10.735  3.3967 -1.0845  1.0671
 4652SOL    HW225593   4.016   1.323  10.864 -0.1810 -0.0808 -0.2739
 4653SOL     OW25594   4.094   3.438   4.134  0.0168 -0.4698  0.2427
 4653SOL    HW125595   4.133   3.477   4.056  0.9025 -1.0634  0.3933
 4653SOL    HW225596   4.162   3.471   4.193 -0.0688 -1.7491  1.0582
 4654SOL     OW25597   1.527   2.915   4.555  0.0754  0.1485  0.1224
 4654SOL    HW125598   1.435   2.936   4.574  0.3718  1.4889  0.0505
 4654SOL    HW225599   1.566   2.999   4.530 -0.3250 -0.1346 -1.4753
 4655SOL     OW25600   0.775   1.876   7.936  0.2417 -0.6255 -0.6465
 4655SOL    HW125601   0.828   1.934   7.990  0.2752 -1.8631  0.6617
 4655SOL    HW225602   0.765   1.798   7.992 -0.9248  0.1731  0.2548
 4656SOL     OW25603   1.333   2.527   1.672  0.4868  0.0894 -0.6652
 4656SOL    HW125604   1.282   2.466   1.618  0.5805 -1.5392  1.1023
 4656SOL    HW225605   1.263   2.531   1.738  1.1449  0.0657  0.0247
 4657SOL     OW25606   4.620   3.566   9.595 -0.4246 -0.1125  0.2944
 4657SOL    HW125607   4.538   3.572   9.646 -1.1465 -3.0489 -0.4754
 4657SOL    HW225608   4.647   3.481   9.630 -0.7919 -0.3112  0.0986
 4658SOL     OW25609   2.733   1.626  13.204  0.1273 -0.5057  0.0700
 4658SOL    HW125610   2.767   1.709  13.239 -0.3692  0.4129 -1.6364
 4658SOL    HW225611   2.773   1.637  13.118 -0.5487 -0.3904 -0.2222
 4659SOL     OW25612   0.384   2.563   8.357 -0.5512  0.0424  0.0584
 4659SOL    HW125613   0.321   2.602   8.417 -1.6403  1.1996 -1.8539
 4659SOL    HW225614   0.330   2.507   8.301 -2.7952  2.5290 -0.2819
 4660SOL     OW25615   4.328   4.115   9.786  0.0105 -0.8900  0.4909
 4660SOL    HW125616   4.410   4.163   9.776 -0.6522 -0.0848 -1.0623
 4660SOL    HW225617   4.280   4.126   9.704  3.4371  3.1407 -0.9577
 4661SOL     OW25618   0.443   3.194   4.191  0.5157  0.0104 -0.4092
 4661SOL    HW125619   0.357   3.234   4.206  0.7875  0.1882  0.6669
 4661SOL    HW225620   0.437   3.101   4.214 -0.7698 -0.0656 -1.0412
 4662SOL     OW25621   3.976   4.582   1.879  0.2923 -0.0326 -0.4570
 4662SOL    HW125622   3.923   4.637   1.821  0.3766  0.6965  0.1552
 4662SOL    HW225623   4.046   4.561   1.817  2.5371  0.4477  1.9553
 4663SOL     OW25624   4.379   4.270   8.721  0.0141  0.5769 -0.4993
 4663SOL    HW125625   4.346   4.262   8.810  0.5794  1.7466 -0.1733
 4663SOL    HW225626   4.346   4.187   8.686  0.0598 -0.5587  2.1867
 4664SOL     OW25627   1.604   2.903  11.187  0.2419 -0.0642 -0.2550
 4664SOL    HW125628   1.666   2.940  11.250 -0.4486 -0.2183  0.5050
 4664SOL    HW225629   1.660   2.863  11.121  1.5207 -0.3042  0.9744
 4665SOL     OW25630   4.665   3.245  11.055 -0.2645 -0.1738  0.0527
 4665SOL    HW125631   4.590   3.288  11.013 -0.4546  1.1033  1.6712
 4665SOL    HW225632   4.714   3.317  11.095 -1.1551  0.1247  0.6044
 4666SOL     OW25633   0.088   2.773  16.695  0.1537 -0.3414  0.0715
 4666SOL    HW125634   0.105   2.845  16.634 -1.0249 -0.0735  0.0711
 4666SOL    HW225635   0.038   2.709  16.645 -1.0205 -0.7097  1.7361
 4667SOL     OW25636   3.728   3.112   6.700  0.2427  0.3030  0.1129
 4667SOL    HW125637   3.803   3.114   6.759 -0.4338  2.2746  0.9222
 4667SOL    HW225638   3.671   3.178   6.740  1.4821  1.5254 -0.1137
 4668SOL     OW25639   0.252   3.619  15.322  0.6134 -0.3850  0.6745
 4668SOL    HW125640   0.202   3.587  15.246  1.1512 -0.6946  0.4538
 4668SOL    HW225641   0.261   3.535  15.368 -0.6456 -0.9750 -0.1567
 4669SOL     OW25642   1.133   0.573  13.559  0.4529 -0.1029 -0.0309
 4669SOL    HW125643   1.138   0.598  13.466 -0.0338  0.2541  0.0382
 4669SOL    HW225644   1.113   0.479  13.567 -1.3570  0.1469 -1.3756
 4670SOL     OW25645   0.311   1.514   1.754  0.3395  0.5019  0.0629
 4670SOL    HW125646   0.308   1.419   1.745  2.2300  0.3315  1.3508
 4670SOL    HW225647   0.348   1.546   1.671  2.1348 -0.6393  0.4168
 4671SOL     OW25648   4.481   1.170   4.368 -0.2237 -0.0669 -0.8523
 4671SOL    HW125649   4.403   1.193   4.419  0.4226  0.9273 -0.3153
 4671SOL    HW225650   4.537   1.135   4.438 -1.4357  2.2740  1.2852
 4672SOL     OW25651   3.349   1.698  14.176 -0.1267  0.1894 -0.2552
 4672SOL    HW125652   3.416   1.707  14.244 -0.1121 -0.3037 -0.2035
 4672SOL    HW225653   3.272   1.719  14.229  0.0485  1.3095 -0.4468
 4673SOL     OW25654   0.074   4.673   6.306  0.1143 -0.0827 -0.1515
 4673SOL    HW125655   0.001   4.611   6.304 -0.3039  0.3236  2.4133
 4673SOL    HW225656   0.131   4.623   6.247 -0.1110 -0.2370 -0.2365
 4674SOL     OW25657   1.489   2.365  14.462  0.2014 -0.1394 -0.9292
 4674SOL    HW125658   1.495   2.415  14.380 -0.4513  0.4892 -0.5954
 4674SOL    HW225659   1.486   2.442  14.519 -1.8577 -0.8559 -0.1007
 4675SOL     OW25660   1.574   3.219  13.839  0.1769 -0.1991 -0.7432
 4675SOL    HW125661   1.541   3.129  13.838  1.3042 -0.6343  0.9406
 4675SOL    HW225662   1.668   3.204  13.841 -0.0469 -1.4474  0.6569
 4676SOL     OW25663   0.761   0.096  13.097 -0.0568  0.0777  0.2276
 4676SOL    HW125664   0.749   0.019  13.042  0.5020  0.5738 -0.5795
 4676SOL    HW225665   0.773   0.166  13.032 -1.0105 -1.1071 -1.2212
 4677SOL     OW25666   3.089   0.362   9.336  0.0458 -0.8004  0.6823
 4677SOL    HW125667   3.064   0.453   9.318  0.0573 -0.9888 -0.2503
 4677SOL    HW225668   3.170   0.355   9.286  0.1057 -2.1092  0.9557
 4678SOL     OW25669   4.116   0.873   6.541  0.8922 -0.6741 -0.1732
 4678SOL    HW125670   4.108   0.842   6.632 -1.4105  0.2499 -0.0536
 4678SOL    HW225671   4.190   0.824   6.506  1.7031  0.9410 -0.7233
 4679SOL     OW25672   4.512   4.282   6.318  0.1761 -0.0537  0.4811
 4679SOL    HW125673   4.514   4.376   6.298  2.6267  0.0027  0.9281
 4679SOL    HW225674   4.604   4.257   6.311 -0.3745 -1.8644 -0.1665
 4680SOL     OW25675   2.032   0.714   7.637  0.0058  0.0264 -0.1465
 4680SOL    HW125676   2.103   0.765   7.598  0.2358 -0.5427 -0.4686
 4680SOL    HW225677   1.952   0.762   7.613  0.1026  1.7285  2.9243
 4681SOL     OW25678   2.971   4.170   8.228  0.9780 -0.0922 -0.1440
 4681SOL    HW125679   3.054   4.167   8.276  1.9721  0.2867 -1.8285
 4681SOL    HW225680   2.959   4.263   8.210  0.2770  0.3611  2.6533
 4682SOL     OW25681   3.639   2.502  14.970  0.5369  0.3541 -0.1658
 4682SOL    HW125682   3.591   2.515  14.889 -0.8519  0.8984  0.7511
 4682SOL    HW225683   3.565   2.523  15.026  1.0661  2.5016 -0.2541
 4683SOL     OW25684   2.299   1.583   5.447 -0.4983 -0.5886 -0.0480
 4683SOL    HW125685   2.363   1.523   5.483 -0.9743 -1.7856 -1.2154
 4683SOL    HW225686   2.253   1.611   5.526 -1.7643 -0.4832 -0.8123
 4684SOL     OW25687   0.856   0.019   8.978  0.1475 -0.0483  0.2759
 4684SOL    HW125688   0.778   4.718   9.016  0.1407  0.4859  0.7916
 4684SOL    HW225689   0.828   0.105   8.947 -3.0483 -1.4198 -0.6004
 4685SOL     OW25690   3.288   0.092   8.021  0.0042 -0.0995 -0.3598
 4685SOL    HW125691   3.364   0.128   8.068 -1.3917 -1.7196  3.0779
 4685SOL    HW225692   3.315   0.133   7.938  0.4345 -1.3759 -0.8456
 4686SOL     OW25693   2.982   3.819   2.924  0.0715  0.4995  0.2473
 4686SOL    HW125694   2.999   3.747   2.985  0.1769  1.1135  0.9296
 4686SOL    HW225695   2.983   3.769   2.842 -1.4827  2.9863 -1.2831
 4687SOL     OW25696   1.616   0.103   3.694  0.2646  0.3225  0.2806
 4687SOL    HW125697   1.609   0.123   3.600 -1.6076  1.1955  0.6069
 4687SOL    HW225698   1.533   0.059   3.711  0.7779 -0.8122 -0.1297
 4688SOL     OW25699   2.644   0.183   6.051 -1.0063  0.2191 -0.0945
 4688SOL    HW125700   2.585   0.259   6.043 -1.2751  0.0914  0.6962
 4688SOL    HW225701   2.614   0.126   5.980 -0.4650  0.6729 -0.6813
 4689SOL     OW25702   2.458   3.384   6.694  0.1720  0.6485 -0.0616
 4689SOL    HW125703   2.445   3.323   6.621  2.7689  0.0171  0.0162
 4689SOL    HW225704   2.551   3.382   6.715  0.3702  0.4458 -0.9582
 4690SOL     OW25705   3.329   4.611  15.264  0.2307 -1.0124  0.2809
 4690SOL    HW125706   3.344   4.545  15.197  0.8555  0.4343 -0.9930
 4690SOL    HW225707   3.249   4.582  15.309 -1.7469 -1.1691 -3.3540
 4691SOL     OW25708   1.243   3.240  12.798  0.0718 -0.1464 -0.4607
 4691SOL    HW125709   1.296   3.178  12.849 -2.6969 -1.2614  1.0818
 4691SOL    HW225710   1.310   3.302  12.769 -1.0540  0.0047 -2.7683
 4692SOL     OW25711   4.365   3.550   9.258  0.0063  0.0625 -0.7378
 4692SOL    HW125712   4.365   3.625   9.317 -1.6760 -0.8762  0.4605
 4692SOL    HW225713   4.388   3.592   9.175 -1.8295  1.6976 -0.3992
 4693SOL     OW25714   3.324   0.449  14.790  0.5925  0.3430  0.1374
 4693SOL    HW125715   3.329   0.529  14.738  0.1669  0.2832  0.0056
 4693SOL    HW225716   3.409   0.435  14.831  0.2736 -1.3400  0.2268
 4694SOL     OW25717   0.422   4.246   8.997 -0.2771  0.2216  0.0177
 4694SOL    HW125718   0.410   4.155   8.967 -2.7292  0.7368 -0.5840
 4694SOL    HW225719   0.517   4.245   9.002 -0.3364 -0.5132  1.0653
 4695SOL     OW25720   4.291   2.690   0.140 -0.3322  0.1035 -0.3113
 4695SOL    HW125721   4.227   2.653   0.080 -0.1007  0.5251 -0.8108
 4695SOL    HW225722   4.242   2.695   0.222 -0.6676 -1.3280 -0.4175
 4696SOL     OW25723   2.256   0.408  13.354  0.2838 -0.1923  0.3064
 4696SOL    HW125724   2.256   0.332  13.413  1.2067 -0.7413 -0.4124
 4696SOL    HW225725   2.345   0.403  13.320 -0.7143  2.0102 -2.6795
 4697SOL     OW25726   4.124   1.450  14.063 -0.1413 -0.7943  0.1795
 4697SOL    HW125727   4.126   1.472  13.970  0.9010 -1.7466 -0.0175
 4697SOL    HW225728   4.050   1.390  14.073 -0.7423 -0.2140 -0.8343
 4698SOL     OW25729   2.395   0.480   0.896 -0.4908 -0.1268 -0.1268
 4698SOL    HW125730   2.313   0.530   0.893 -0.2639  0.2549  0.0381
 4698SOL    HW225731   2.368   0.390   0.913  0.3519 -0.1708  1.0164
 4699SOL     OW25732   0.011   1.657   7.242  0.2889  0.0938 -0.3745
 4699SOL    HW125733   4.667   1.649   7.194 -0.8111 -0.7261  1.6620
 4699SOL    HW225734   0.080   1.608   7.196 -0.5772 -1.2641 -0.2137
 4700SOL     OW25735   1.870   2.188  10.204 -0.4147 -0.2111 -0.3731
 4700SOL    HW125736   1.866   2.281  10.228  1.6389 -0.4740  0.9635
 4700SOL    HW225737   1.882   2.201  10.110 -1.3102  1.9355 -0.1918
 4701SOL     OW25738   1.240   4.264   6.435  0.0995  0.2565  0.0161
 4701SOL    HW125739   1.181   4.264   6.360  2.3835 -1.1127 -1.7733
 4701SOL    HW225740   1.231   4.348   6.481  1.5755  1.3661 -1.6844
 4702SOL     OW25741   0.696   2.829   7.213 -0.4363  0.0469  0.3512
 4702SOL    HW125742   0.608   2.814   7.177 -1.1575  0.8592  1.7943
 4702SOL    HW225743   0.752   2.842   7.137 -2.4192 -1.0867 -1.3132
 4703SOL     OW25744   1.906   1.209   8.679  0.4341 -0.3411  0.0657
 4703SOL    HW125745   1.867   1.266   8.613 -0.6650  0.8976  1.7818
 4703SOL    HW225746   1.982   1.182   8.627 -0.1336 -0.5603 -0.6484
 4704SOL     OW25747   4.057   4.390  14.359 -0.3768  0.6409 -0.3727
 4704SOL    HW125748   4.123   4.336  14.403  0.2366  2.4365  0.9282
 4704SOL    HW225749   3.986   4.374  14.421 -1.1766 -2.2062 -2.0402
 4705SOL     OW25750   1.562   4.375   5.931  0.0946  0.5397  0.5306
 4705SOL    HW125751   1.646   4.397   5.971  0.3762  1.6055 -0.6520
 4705SOL    HW225752   1.573   4.312   5.860 -0.7948 -0.8069  1.5875
 4706SOL     OW25753   0.108   1.964   1.058 -0.4964 -0.1554 -0.3372
 4706SOL    HW125754   0.094   2.013   1.139 -0.9957  1.1917 -1.2375
 4706SOL    HW225755   0.040   2.004   1.004 -0.7685  1.3866  1.1388
 4707SOL     OW25756   2.876   0.884   1.895  0.0311 -0.5216 -0.0729
 4707SOL    HW125757   2.780   0.883   1.900  0.0021  0.8383 -0.5301
 4707SOL    HW225758   2.901   0.916   1.809  4.0043 -0.6221  1.0387
 4708SOL     OW25759   0.153   3.993   7.008 -0.3153 -0.7087 -0.0077
 4708SOL    HW125760   0.159   4.032   7.095 -2.9118 -1.5150  0.5231
 4708SOL    HW225761   0.226   4.029   6.956 -1.3376  0.5487 -0.5718
 4709SOL     OW25762   0.059   3.767   8.035 -0.1722  0.4865  0.3337
 4709SOL    HW125763   0.117   3.818   7.977  1.5085 -0.9092  0.7897
 4709SOL    HW225764   0.022   3.696   7.983  1.6333  0.5292 -1.0012
 4710SOL     OW25765   1.743   3.028   3.731  0.2857  0.3205 -0.7210
 4710SOL    HW125766   1.651   3.054   3.728  0.2046 -0.0362 -1.5344
 4710SOL    HW225767   1.749   2.974   3.652 -1.4596  0.6514 -1.0826
 4711SOL     OW25768   4.730   4.660   5.406 -0.1011 -0.1107  0.7764
 4711SOL    HW125769   4.695   4.606   5.336  0.1581 -1.7263  1.8986
 4711SOL    HW225770   4.697   0.010   5.389 -0.3201 -0.5191 -0.8639
 4712SOL     OW25771   0.583   2.251   5.566  0.0047 -0.1637 -0.3821
 4712SOL    HW125772   0.670   2.290   5.572  1.0980 -2.9642  1.9167
 4712SOL    HW225773   0.535   2.300   5.500 -1.9480 -1.5804 -0.0200
 4713SOL     OW25774   4.040   4.378   8.977  0.0356 -0.3395 -0.3095
 4713SOL    HW125775   4.105   4.448   8.976  0.0575 -0.3521  0.5623
 4713SOL    HW225776   4.069   4.337   8.895  0.0009 -0.7343 -0.1247
 4714SOL     OW25777   3.121   2.869  12.017 -0.3816  0.1566  0.8199
 4714SOL    HW125778   3.140   2.831  11.931 -0.8755  1.2464  0.2298
 4714SOL    HW225779   3.197   2.846  12.071 -0.3527 -0.1057  0.6701
 4715SOL     OW25780   1.379   0.821   2.367 -0.2983  0.3843  0.7222
 4715SOL    HW125781   1.473   0.837   2.353  0.0545 -1.7770  0.5213
 4715SOL    HW225782   1.352   0.770   2.290  1.9624 -2.0965  1.5404
 4716SOL     OW25783   3.884   3.522   1.832 -0.3810 -0.0379 -0.3924
 4716SOL    HW125784   3.897   3.553   1.921  1.7418  0.8287 -1.0097
 4716SOL    HW225785   3.802   3.571   1.827 -0.6494 -0.5439 -1.0386
 4717SOL     OW25786   2.241   2.164   3.011 -0.3152 -0.1490 -0.3622
 4717SOL    HW125787   2.150   2.164   2.980 -0.0951 -1.3826 -0.9933
 4717SOL    HW225788   2.278   2.085   2.972 -1.8013 -0.4955 -1.0999
 4718SOL     OW25789   3.624   2.716   4.251 -0.3039  0.7232  0.0221
 4718SOL    HW125790   3.653   2.741   4.339 -3.6482  0.1758  1.3180
 4718SOL    HW225791   3.593   2.797   4.210  0.4898  0.8268 -0.3613
 4719SOL     OW25792   1.966   0.777   9.652  0.3159  0.5034  0.7424
 4719SOL    HW125793   2.054   0.741   9.662  0.6178  0.8644 -0.6839
 4719SOL    HW225794   1.950   0.777   9.558 -1.8241  0.1605  1.1010
 4720SOL     OW25795   3.180   1.024   7.930 -0.7281  0.1696  0.0392
 4720SOL    HW125796   3.173   1.081   7.854  0.9863  0.3456  0.0316
 4720SOL    HW225797   3.245   1.069   7.982  0.5476 -0.6286 -0.8545
 4721SOL     OW25798   1.271   2.777   1.559 -0.2871  0.3863  0.1169
 4721SOL    HW125799   1.322   2.856   1.574  0.5337 -0.3249  1.0120
 4721SOL    HW225800   1.310   2.728   1.631 -2.2057 -2.0699 -0.4850
 4722SOL     OW25801   2.089   3.104   3.337  0.2617  0.0908 -0.6672
 4722SOL    HW125802   2.143   3.043   3.286  0.0624 -0.2768 -0.4439
 4722SOL    HW225803   2.157   3.138   3.396  0.3002  0.7022 -1.0717
 4723SOL     OW25804   1.984   1.416   5.833  0.6373  0.1360 -0.3327
 4723SOL    HW125805   1.957   1.458   5.915 -0.0771  0.1811 -0.5934
 4723SOL    HW225806   1.954   1.485   5.773 -1.5278  0.3961  1.0652
 4724SOL     OW25807   4.610   0.331  16.460  0.3405 -0.6124  0.0307
 4724SOL    HW125808   4.590   0.418  16.495  0.1935 -1.3997  1.8847
 4724SOL    HW225809   4.691   0.351  16.413  0.1316  2.2683  0.8689
 4725SOL     OW25810   3.634   4.438   4.862 -1.0264  0.3742  0.2403
 4725SOL    HW125811   3.548   4.452   4.824 -1.2744 -2.8119 -0.3981
 4725SOL    HW225812   3.616   4.355   4.906 -1.0143  0.8703  1.1829
 4726SOL     OW25813   2.141   3.833  12.103 -0.1622 -0.2092 -0.3193
 4726SOL    HW125814   2.078   3.903  12.088 -0.5681 -0.0826  1.9845
 4726SOL    HW225815   2.218   3.889  12.103  0.7983 -1.5017  1.1138
 4727SOL     OW25816   1.362   1.461   6.698 -0.0497 -0.4987 -0.3486
 4727SOL    HW125817   1.390   1.406   6.625  0.2541 -0.9032  0.0679
 4727SOL    HW225818   1.313   1.401   6.754 -2.0534  1.3919 -0.1018
 4728SOL     OW25819   1.732   4.483   8.897 -0.4318  0.2092  0.4166
 4728SOL    HW125820   1.753   4.429   8.973 -0.8895 -0.3768  0.1311
 4728SOL    HW225821   1.637   4.481   8.909 -0.5749  1.2621 -0.5692
 4729SOL     OW25822   0.059   2.059  11.589  0.2945 -0.7931 -0.2303
 4729SOL    HW125823   0.148   2.077  11.619  1.4410 -2.7779 -2.3941
 4729SOL    HW225824   0.041   2.131  11.529  0.5300  1.4703  2.4071
 4730SOL     OW25825   1.186   2.194   6.740 -0.0332  0.2194 -0.2567
 4730SOL    HW125826   1.269   2.232   6.767 -1.3815  1.5337  2.0361
 4730SOL    HW225827   1.186   2.103   6.768 -2.0770  0.1861 -0.3669
 4731SOL     OW25828   0.301   2.566   8.785 -0.1991 -0.1282  0.2337
 4731SOL    HW125829   0.376   2.622   8.804 -1.5366  0.7975  2.8952
 4731SOL    HW225830   0.292   2.505   8.858 -0.8781 -1.2166 -0.7633
 4732SOL     OW25831   1.192   1.498   3.218 -0.5354 -0.3050 -0.1832
 4732SOL    HW125832   1.222   1.440   3.288  1.3646 -1.8824 -2.3268
 4732SOL    HW225833   1.178   1.440   3.144 -0.1790  0.8244 -1.1360
 4733SOL     OW25834   2.368   0.349  12.965  0.4369 -0.0998  0.2801
 4733SOL    HW125835   2.316   0.270  12.950 -2.0694  1.4435  0.8906
 4733SOL    HW225836   2.405   0.330  13.051  0.6864 -0.4305  0.1003
 4734SOL     OW25837   2.467   3.154   7.179 -0.1766  0.2911 -0.0150
 4734SOL    HW125838   2.552   3.142   7.222 -0.1097  0.0376 -0.2226
 4734SOL    HW225839   2.504   3.215   7.116 -1.8924  1.6265  0.2692
 4735SOL     OW25840   0.380   3.125   9.964 -0.1820  0.3984  0.1210
 4735SOL    HW125841   0.341   3.121  10.051  2.4262 -1.5731  1.2084
 4735SOL    HW225842   0.405   3.217   9.959  1.0696  0.0411 -0.2989
 4736SOL     OW25843   0.209   2.356   5.522 -0.3770 -0.4717 -0.4276
 4736SOL    HW125844   0.258   2.421   5.573 -0.2401 -1.3494  0.5549
 4736SOL    HW225845   0.126   2.349   5.569 -0.1590 -0.0391  0.0327
 4737SOL     OW25846   0.615   2.533   2.548 -0.0975 -0.1225 -0.0039
 4737SOL    HW125847   0.661   2.617   2.558  0.3150 -0.3867  0.3312
 4737SOL    HW225848   0.595   2.532   2.454 -0.3782 -1.2021  0.0728
 4738SOL     OW25849   0.168   1.591  17.307  0.6330  0.2101 -0.0267
 4738SOL    HW125850   0.227   1.631  17.244  1.7600 -2.2997 -0.5773
 4738SOL    HW225851   0.152   1.661  17.370 -0.7777  0.2669 -0.4379
 4739SOL     OW25852   1.781   2.714   7.743  0.0447  0.0798  0.7234
 4739SOL    HW125853   1.808   2.669   7.663 -0.8984  1.6185 -0.4424
 4739SOL    HW225854   1.840   2.664   7.800  0.3903  1.5166  1.6095
 4740SOL     OW25855   1.840   1.180  16.597  0.0084  0.4934 -0.3300
 4740SOL    HW125856   1.751   1.203  16.624 -0.6602  1.7971 -3.7033
 4740SOL    HW225857   1.885   1.199  16.680 -0.4977  1.7487 -0.3363
 4741SOL     OW25858   4.609   0.215   9.795  0.2572  0.3662 -0.6402
 4741SOL    HW125859   4.519   0.243   9.776 -0.1310 -1.2289 -1.1734
 4741SOL    HW225860   4.659   0.263   9.729  0.1469  0.5900 -0.5604
 4742SOL     OW25861   0.772   4.450   5.530  0.5454  0.6218 -0.1344
 4742SOL    HW125862   0.726   4.416   5.453 -0.5497  0.4651  0.5817
 4742SOL    HW225863   0.851   4.398   5.519  0.1095 -0.1448  0.3668
 4743SOL     OW25864   3.271   3.349  15.113 -0.6667  0.2006 -0.2307
 4743SOL    HW125865   3.257   3.294  15.036  1.1642 -0.6489  0.0391
 4743SOL    HW225866   3.180   3.362  15.140  0.1625  3.6934  0.8887
 4744SOL     OW25867   0.268   2.120  13.249  0.0038  0.6037 -0.2224
 4744SOL    HW125868   0.241   2.147  13.162 -0.4559  0.0514 -0.2519
 4744SOL    HW225869   0.360   2.106  13.225 -0.0786  1.1370 -0.8290
 4745SOL     OW25870   1.872   1.031   7.911  0.1506 -0.2725  0.6036
 4745SOL    HW125871   1.875   0.971   7.986  1.6925  1.4543  1.9102
 4745SOL    HW225872   1.796   1.082   7.938 -0.6623 -1.2093  0.0993
 4746SOL     OW25873   1.135   4.688  17.433  0.3153  0.1139  0.2688
 4746SOL    HW125874   1.079   4.631  17.485  0.5313  0.0286  0.4097
 4746SOL    HW225875   1.114   4.661  17.343  2.1154  1.8679 -0.6776
 4747SOL     OW25876   2.455   3.016  12.282  0.7468  0.0693  0.5411
 4747SOL    HW125877   2.460   3.107  12.254 -0.5920  0.7457  2.5098
 4747SOL    HW225878   2.388   3.034  12.349  0.9193  0.1065  0.7027
 4748SOL     OW25879   1.042   1.363  16.380  0.1533  0.2272 -0.2241
 4748SOL    HW125880   0.958   1.392  16.415  0.1500  1.4983 -1.3157
 4748SOL    HW225881   1.094   1.396  16.452  0.9610 -1.6693  0.0731
 4749SOL     OW25882   3.413   1.753   1.395 -0.1460  0.9551 -0.1061
 4749SOL    HW125883   3.341   1.737   1.456 -0.7767  2.0964 -0.5483
 4749SOL    HW225884   3.418   1.665   1.359 -0.0938  0.5341  0.9404
 4750SOL     OW25885   2.885   1.202   0.434  0.4679  0.2276  0.5391
 4750SOL    HW125886   2.806   1.233   0.388  0.2935 -2.7343 -1.1446
 4750SOL    HW225887   2.900   1.262   0.507 -2.7961 -0.1742  1.5389
 4751SOL     OW25888   3.086   0.063   2.811 -0.0874  0.0064 -0.5805
 4751SOL    HW125889   3.156   0.013   2.768  1.1070  0.7673  0.4839
 4751SOL    HW225890   3.139   0.131   2.852  0.4188 -1.0863  0.5678
 4752SOL     OW25891   2.935   3.816   7.010  0.9572 -0.3931 -0.2355
 4752SOL    HW125892   2.875   3.803   7.084  3.7109  1.2650  2.2623
 4752SOL    HW225893   2.877   3.808   6.934  0.8305 -0.8357 -0.0948
 4753SOL     OW25894   2.025   4.208   5.672 -0.2909 -0.3204  0.7109
 4753SOL    HW125895   2.063   4.216   5.759 -1.4384 -1.0712  1.2743
 4753SOL    HW225896   2.088   4.251   5.614  2.0072 -1.3173  2.4769
 4754SOL     OW25897   3.087   1.309   4.496 -0.1465 -0.2123  0.2910
 4754SOL    HW125898   3.167   1.327   4.446 -0.7282 -1.8781 -1.2564
 4754SOL    HW225899   3.051   1.397   4.484  2.1308  1.0291  2.4877
 4755SOL     OW25900   4.089   0.113   6.180 -0.4286  0.2567 -0.0060
 4755SOL    HW125901   4.007   0.161   6.197 -1.8577 -1.4242 -2.0641
 4755SOL    HW225902   4.055   0.028   6.153 -1.1878  0.2769  0.8590
 4756SOL     OW25903   4.399   2.672   9.602 -0.0662  0.4129  0.1865
 4756SOL    HW125904   4.312   2.636   9.622  0.1487 -0.4602 -0.4624
 4756SOL    HW225905   4.381   2.763   9.577  1.8783  0.5118 -0.8406
 4757SOL     OW25906   3.164   0.231  14.766  0.1223  0.3673  0.0806
 4757SOL    HW125907   3.247   0.210  14.723  0.2990 -0.6192  0.9065
 4757SOL    HW225908   3.185   0.315  14.806 -0.7727  0.8833 -0.5317
 4758SOL     OW25909   1.640   3.966  12.021 -0.0716 -0.3114  0.2319
 4758SOL    HW125910   1.665   3.875  12.039  0.8293  0.0798  0.9623
 4758SOL    HW225911   1.596   3.941  11.940  1.1910  0.0877 -0.5781
 4759SOL     OW25912   2.759   2.238   4.888  0.5531  0.2695 -0.2768
 4759SOL    HW125913   2.701   2.219   4.962 -1.2938  0.4729 -1.6682
 4759SOL    HW225914   2.795   2.324   4.908 -0.6986  1.1765 -1.9041
 4760SOL     OW25915   1.906   1.311   1.335  0.1315 -0.0248 -0.4480
 4760SOL    HW125916   1.904   1.335   1.427  1.6103 -2.0765  0.1382
 4760SOL    HW225917   1.902   1.215   1.334 -1.6645  0.0565 -0.7115
 4761SOL     OW25918   3.062   4.385   3.801 -0.1065  0.4684 -0.0358
 4761SOL    HW125919   3.077   4.390   3.895  2.3156  2.3631 -0.5459
 4761SOL    HW225920   2.970   4.357   3.790  0.3548 -1.5666  1.2120
 4762SOL     OW25921   4.323   4.332  10.252  0.0044 -0.7024  0.0506
 4762SOL    HW125922   4.279   4.284  10.182  0.4054 -1.4056  0.2712
 4762SOL    HW225923   4.251   4.334  10.315  0.5258 -1.5849  0.6945
 4763SOL     OW25924   0.888   3.388   8.792  0.3252 -0.2100 -0.2106
 4763SOL    HW125925   0.826   3.354   8.857 -0.7359 -0.3651 -1.3071
 4763SOL    HW225926   0.829   3.410   8.720 -1.3751  2.6491  2.0360
 4764SOL     OW25927   1.615   3.360   1.963 -0.3866  0.1083  0.2426
 4764SOL    HW125928   1.549   3.395   1.903  0.2753 -0.2256 -0.6844
 4764SOL    HW225929   1.661   3.295   1.910  2.2734  0.3280  2.2613
 4765SOL     OW25930   1.038   2.121  11.802  0.0664  0.5812  0.6182
 4765SOL    HW125931   1.033   2.038  11.754  0.1538  1.5076 -0.9786
 4765SOL    HW225932   1.125   2.120  11.843  1.5216 -1.9850 -2.5917
 4766SOL     OW25933   2.948   0.308  10.638  0.1304  0.7568 -0.0387
 4766SOL    HW125934   2.947   0.355  10.554  0.8148  2.4190  0.8738
 4766SOL    HW225935   2.922   0.382  10.693 -2.7442 -1.2553  1.2625
 4767SOL     OW25936   3.157   3.455   9.725 -0.5574 -0.3603  0.0199
 4767SOL    HW125937   3.212   3.521   9.766 -0.6757 -0.8950  1.0325
 4767SOL    HW225938   3.075   3.505   9.728  0.4979  1.3420  0.6135
 4768SOL     OW25939   4.127   3.375   1.638 -0.2152  0.1735 -0.4634
 4768SOL    HW125940   4.137   3.304   1.700 -1.4802 -0.6724 -1.2383
 4768SOL    HW225941   4.149   3.329   1.557 -0.4440  0.4064 -0.6570
 4769SOL     OW25942   3.139   1.977   8.250 -0.2324  0.1844 -0.4748
 4769SOL    HW125943   3.088   2.014   8.322  0.1429  2.3567 -1.3550
 4769SOL    HW225944   3.093   1.893   8.244 -1.1304  0.7117 -0.9074
 4770SOL     OW25945   0.157   0.338   8.844 -0.1294 -0.1222  0.6728
 4770SOL    HW125946   0.141   0.360   8.753 -0.2374 -0.0677  0.7047
 4770SOL    HW225947   0.152   0.419   8.894 -0.5130  0.3885 -0.1995
 4771SOL     OW25948   0.552   0.324   2.045 -0.0345  0.0803 -0.0642
 4771SOL    HW125949   0.613   0.320   2.119  3.6281  2.5490 -2.9234
 4771SOL    HW225950   0.473   0.358   2.087  0.9730  0.8851  1.2012
 4772SOL     OW25951   2.802   1.109   7.853  0.3498 -0.3671 -0.2212
 4772SOL    HW125952   2.888   1.152   7.850  0.6237 -0.9065 -0.1929
 4772SOL    HW225953   2.765   1.148   7.774  0.8363 -0.4362 -0.4835
 4773SOL     OW25954   4.349   0.375  10.654  0.6267 -0.0902 -0.4529
 4773SOL    HW125955   4.325   0.398  10.743  0.0299 -1.0770 -0.3561
 4773SOL    HW225956   4.398   0.294  10.669  1.3802  0.2148 -1.2250
 4774SOL     OW25957   0.771   2.063   1.132 -0.0228 -0.7782 -0.1941
 4774SOL    HW125958   0.814   2.093   1.213  0.5894 -1.1506 -0.3793
 4774SOL    HW225959   0.680   2.042   1.152 -0.1306  0.0872  0.2285
 4775SOL     OW25960   2.906   2.260   8.627 -0.2338 -0.1510 -0.6537
 4775SOL    HW125961   2.849   2.228   8.697 -0.5207 -0.8274 -1.1946
 4775SOL    HW225962   2.973   2.311   8.672  0.4644 -0.4639 -1.3395
 4776SOL     OW25963   1.530   2.123  15.860  0.2438  0.0333 -0.5755
 4776SOL    HW125964   1.467   2.083  15.800  1.3202 -2.9066  0.2446
 4776SOL    HW225965   1.490   2.099  15.944 -2.3460 -2.7039 -2.5560
 4777SOL     OW25966   1.419   1.047   2.047 -0.1710  0.2117 -0.7304
 4777SOL    HW125967   1.454   1.130   2.080 -1.6405  0.9093 -0.9043
 4777SOL    HW225968   1.338   1.059   2.096  0.2190 -0.9972  0.1931
 4778SOL     OW25969   3.761   0.651   8.300  0.6117  0.5892  0.1883
 4778SOL    HW125970   3.727   0.592   8.232  0.9176  0.2290  0.3430
 4778SOL    HW225971   3.687   0.710   8.312  1.2436  1.4506 -0.2027
 4779SOL     OW25972   2.541   2.800   4.192 -0.1597 -0.1269  0.2713
 4779SOL    HW125973   2.482   2.812   4.266 -2.3263  1.5870 -1.7312
 4779SOL    HW225974   2.621   2.838   4.227  0.9996 -0.4241 -2.0050
 4780SOL     OW25975   1.070   3.632   4.014 -0.5785 -0.1539 -0.2971
 4780SOL    HW125976   1.079   3.539   4.033 -0.3477 -0.0863 -0.0742
 4780SOL    HW225977   1.087   3.672   4.100  0.3177  1.7211 -1.3406
 4781SOL     OW25978   0.745   1.995   6.282 -0.4834 -0.3988 -0.0900
 4781SOL    HW125979   0.783   2.058   6.343 -1.3827  0.0104  0.0544
 4781SOL    HW225980   0.732   2.049   6.204 -2.1159 -1.1051 -0.3047
 4782SOL     OW25981   1.253   4.286  10.185  0.2475  0.4687  1.4215
 4782SOL    HW125982   1.341   4.250  10.185 -0.0829 -0.3542 -3.5580
 4782SOL    HW225983   1.199   4.217  10.146 -0.0014  0.9005  1.0005
 4783SOL     OW25984   2.233   3.495  10.761  0.0660 -0.4952 -0.3580
 4783SOL    HW125985   2.197   3.426  10.705  1.0528 -0.4929 -0.9886
 4783SOL    HW225986   2.296   3.450  10.818  1.7160  0.4476 -1.4506
 4784SOL     OW25987   1.003   0.565   3.074 -0.9807  0.2560  0.1662
 4784SOL    HW125988   1.015   0.653   3.037  0.6097  0.7822  1.9236
 4784SOL    HW225989   1.039   0.576   3.163 -1.1503 -0.0469  0.2731
 4785SOL     OW25990   0.925   4.702  16.094  0.2380 -0.0391 -0.4364
 4785SOL    HW125991   0.918   4.661  16.181 -0.2142 -0.9732 -0.9093
 4785SOL    HW225992   0.912   0.057  16.112  0.5788  0.0787 -0.7979
 4786SOL     OW25993   4.238   1.170   7.317 -0.2786  0.2658  0.4445
 4786SOL    HW125994   4.323   1.210   7.297 -0.5192  0.4128 -0.2844
 4786SOL    HW225995   4.182   1.248   7.312  0.2474  0.5889 -0.4784
 4787SOL     OW25996   0.761   3.743   6.679  0.3015  0.1378 -0.0040
 4787SOL    HW125997   0.683   3.703   6.717 -0.1906 -1.0777 -2.2678
 4787SOL    HW225998   0.791   3.797   6.752 -1.0620 -0.1343  0.7605
 4788SOL     OW25999   0.861   4.159   6.206  0.1134  0.2695 -0.4080
 4788SOL    HW126000   0.906   4.203   6.278 -0.0011 -1.9252  1.0048
 4788SOL    HW226001   0.857   4.237   6.150  0.1946  0.5093 -0.0811
 4789SOL     OW26002   4.567   2.951   8.123 -0.3495 -0.0535 -0.0105
 4789SOL    HW126003   4.628   2.899   8.175  0.4409  1.9103  1.0261
 4789SOL    HW226004   4.621   2.961   8.044 -1.7841 -1.8220 -1.2095
 4790SOL     OW26005   1.092   2.687  15.705  0.0610  0.1596  0.1665
 4790SOL    HW126006   1.051   2.621  15.762  0.5057  0.2704  0.6150
 4790SOL    HW226007   1.062   2.647  15.624 -2.1977 -0.0363  1.0825
 4791SOL     OW26008   2.536   2.977   5.312 -0.2071  0.3412  0.2218
 4791SOL    HW126009   2.546   3.055   5.258  0.6754  0.2870  0.3118
 4791SOL    HW226010   2.452   2.996   5.354 -0.3205  0.0061  0.1504
 4792SOL     OW26011   2.368   2.534  14.717 -0.3327  0.1204  0.6370
 4792SOL    HW126012   2.280   2.496  14.712 -0.4668  0.6058 -0.5435
 4792SOL    HW226013   2.417   2.466  14.764  0.6381 -0.5325 -1.3134
 4793SOL     OW26014   4.699   4.205   9.965  0.3693 -0.1307  0.7576
 4793SOL    HW126015   4.730   4.143  10.030  0.3304 -1.6161 -0.6429
 4793SOL    HW226016   4.674   4.270  10.030 -1.2696  0.0837 -0.0814
 4794SOL     OW26017   3.441   2.500  15.155 -0.3096 -0.0107 -0.1905
 4794SOL    HW126018   3.429   2.413  15.116 -1.3171  0.5337 -1.1061
 4794SOL    HW226019   3.378   2.477  15.224  0.2621 -0.0647  0.3151
 4795SOL     OW26020   0.794   3.440   9.714  0.3277  0.6618 -0.5509
 4795SOL    HW126021   0.835   3.354   9.722 -2.8014 -0.5454  2.5804
 4795SOL    HW226022   0.841   3.469   9.636 -0.0784 -0.6883 -1.2850
 4796SOL     OW26023   2.519   3.168   8.295  0.3343 -0.4790  0.0397
 4796SOL    HW126024   2.510   3.114   8.217  0.1904 -1.1288  0.5083
 4796SOL    HW226025   2.447   3.229   8.277 -0.7374 -1.8010 -0.2011
 4797SOL     OW26026   3.768   2.380   2.933  0.2160 -0.4891  0.0886
 4797SOL    HW126027   3.776   2.397   2.839  2.7626  0.2629  0.4459
 4797SOL    HW226028   3.848   2.333   2.955  1.4006  0.7134 -1.6291
 4798SOL     OW26029   4.695   0.816   9.028  0.3327 -0.1361  0.0534
 4798SOL    HW126030   4.609   0.791   8.994  0.7738 -0.2617 -0.9898
 4798SOL    HW226031   4.687   0.844   9.119  0.0684  0.9171 -0.2997
 4799SOL     OW26032   0.204   0.548   2.991  0.1710  0.3296 -0.2003
 4799SOL    HW126033   0.162   0.592   2.918  2.7713  2.0074 -0.6971
 4799SOL    HW226034   0.235   0.464   2.958 -1.1400  0.1416 -0.9483
 4800SOL     OW26035   4.051   1.754  17.503  0.3679  0.0721  0.0852
 4800SOL    HW126036   3.992   1.727  17.433 -0.9588 -0.5271  1.4239
 4800SOL    HW226037   4.113   1.681  17.505  1.2787  0.8038 -1.8266
 4801SOL     OW26038   1.669   0.303   2.629  0.5966  0.5164 -0.1160
 4801SOL    HW126039   1.588   0.298   2.681  0.8306  1.1956  0.3195
 4801SOL    HW226040   1.721   0.229   2.658 -0.8985  0.1932  1.7963
 4802SOL     OW26041   2.312   1.180   2.474  0.6379  0.4321  0.3808
 4802SOL    HW126042   2.373   1.114   2.508  3.4232  2.6894 -0.1877
 4802SOL    HW226043   2.380   1.241   2.445  1.1212 -0.2741  0.0153
 4803SOL     OW26044   3.454   0.339   8.878  0.4109 -0.1841  0.3634
 4803SOL    HW126045   3.489   0.339   8.967 -0.9302 -2.6746  0.9059
 4803SOL    HW226046   3.367   0.305   8.898  0.1919  0.4453  0.4820
 4804SOL     OW26047   0.258   2.711   0.928  0.2978 -0.0635  0.5849
 4804SOL    HW126048   0.177   2.760   0.940 -1.0505 -1.5263 -2.4060
 4804SOL    HW226049   0.248   2.619   0.950 -1.5921  0.4850  1.9947
 4805SOL     OW26050   0.093   0.864   6.579  0.3063  0.1047  0.1493
 4805SOL    HW126051   0.141   0.835   6.501  0.3944 -0.7237  0.5113
 4805SOL    HW226052   0.004   0.853   6.545  1.4946 -3.4074 -1.9084
 4806SOL     OW26053   3.782   4.735   9.048  0.0477 -0.0579  0.1629
 4806SOL    HW126054   3.701   0.040   9.022 -2.0460 -3.6293  0.8321
 4806SOL    HW226055   3.800   0.043   9.130  0.6345 -0.4157  0.2343
 4807SOL     OW26056   3.762   2.783   0.007  0.4696  0.2609 -0.0999
 4807SOL    HW126057   3.765   2.767  17.663 -0.0831  0.8127 -0.2144
 4807SOL    HW226058   3.681   2.738   0.028 -1.0115  2.4691 -1.0553
 4808SOL     OW26059   4.339   1.701  13.091  0.0696  0.5421 -0.7567
 4808SOL    HW126060   4.277   1.772  13.071 -1.5133 -0.5629  0.3161
 4808SOL    HW226061   4.295   1.658  13.163  1.0682  0.8218  0.0228
 4809SOL     OW26062   2.094   0.975   5.983  0.4161 -0.2554 -0.1062
 4809SOL    HW126063   2.043   1.056   5.984 -0.3862 -0.7235 -1.8547
 4809SOL    HW226064   2.111   0.955   5.890 -1.1063 -2.2986  0.0439
 4810SOL     OW26065   2.120   2.413   6.318  0.0112  0.3486  0.0211
 4810SOL    HW126066   2.114   2.390   6.226  0.2842 -0.1629  0.1304
 4810SOL    HW226067   2.169   2.496   6.320  2.0534 -0.8665  0.4428
 4811SOL     OW26068   0.069   2.497   0.308  0.5781  0.1288  0.0358
 4811SOL    HW126069   0.005   2.428   0.328  0.5479 -0.2716 -1.4504
 4811SOL    HW226070   0.008   2.565   0.281 -0.2413  0.1266  1.8875
 4812SOL     OW26071   3.820   4.234   0.984 -0.6095 -0.7443 -0.1295
 4812SOL    HW126072   3.863   4.293   1.046 -0.9434  0.6532 -1.2202
 4812SOL    HW226073   3.727   4.256   0.979 -0.2982  0.7590  0.7750
 4813SOL     OW26074   1.041   4.120   9.872 -0.3586  0.2369  0.6126
 4813SOL    HW126075   1.035   4.210   9.903  0.7015  1.1490 -1.9071
 4813SOL    HW226076   1.072   4.125   9.782 -0.4792 -0.2477  0.5458
 4814SOL     OW26077   1.723   3.286   2.573  0.1663 -0.1587  0.0394
 4814SOL    HW126078   1.643   3.321   2.532  1.4710  1.1648 -1.3769
 4814SOL    HW226079   1.789   3.300   2.505 -0.6397 -0.5307 -0.8264
 4815SOL     OW26080   2.431   4.178  10.671  0.2127 -0.2160 -0.0536
 4815SOL    HW126081   2.513   4.193  10.718  1.4989  2.0007 -3.0613
 4815SOL    HW226082   2.399   4.268  10.683  1.2318  0.2071 -0.5282
 4816SOL     OW26083   3.760   0.934   3.188  0.1789 -0.2854 -0.2206
 4816SOL    HW126084   3.713   0.925   3.271 -0.9807  2.2823 -0.6209
 4816SOL    HW226085   3.838   0.880   3.205 -1.4977 -2.5192  0.4395
 4817SOL     OW26086   0.513   4.162   9.902 -0.5714  0.0881  0.7295
 4817SOL    HW126087   0.607   4.149   9.914 -1.1913 -3.3679  1.7890
 4817SOL    HW226088   0.495   4.255   9.921 -4.2979 -0.2384 -1.1326
 4818SOL     OW26089   2.487   2.463   8.445 -0.3589  0.0323  0.0515
 4818SOL    HW126090   2.466   2.499   8.532  0.4734  0.3734  0.1108
 4818SOL    HW226091   2.526   2.541   8.406  0.3273  0.0259  0.7094
 4819SOL     OW26092   0.363   3.244   2.306 -0.4784  0.3891 -0.6217
 4819SOL    HW126093   0.290   3.303   2.290  0.0595  1.4559  0.8460
 4819SOL    HW226094   0.324   3.169   2.261  1.2681 -0.3178 -0.9715
 4820SOL     OW26095   1.329   1.279   9.062 -0.2873  0.3116  0.3645
 4820SOL    HW126096   1.396   1.210   9.056 -2.8042 -2.1495  0.4461
 4820SOL    HW226097   1.275   1.232   8.997 -1.6978  2.2409  0.1276
 4821SOL     OW26098   4.402   4.558   2.862  0.0240 -0.1198  0.8298
 4821SOL    HW126099   4.370   4.609   2.937  0.9531  0.4735  0.8150
 4821SOL    HW226100   4.429   4.477   2.905  1.1291  0.4671  1.2435
 4822SOL     OW26101   4.338   4.014   3.879  0.1606 -0.0174  0.2638
 4822SOL    HW126102   4.293   3.936   3.910  2.1367 -1.2424  0.0255
 4822SOL    HW226103   4.328   4.069   3.957  1.0499 -1.3055  1.2903
 4823SOL     OW26104   3.370   0.665   9.016  0.2170  0.6849 -0.8041
 4823SOL    HW126105   3.382   0.738   9.076 -0.7866  0.2892 -0.1187
 4823SOL    HW226106   3.321   0.702   8.943 -0.1706  1.6030 -0.0810
 4824SOL     OW26107   0.322   0.647  10.494 -0.1688  0.0935  0.4491
 4824SOL    HW126108   0.269   0.602  10.428  0.6979  0.5659 -0.5719
 4824SOL    HW226109   0.404   0.598  10.499  0.4040  0.8408 -1.4842
 4825SOL     OW26110   1.830   0.933   3.311  0.1307 -0.0128  0.2302
 4825SOL    HW126111   1.810   0.840   3.315  0.2068 -0.1367 -2.2099
 4825SOL    HW226112   1.828   0.959   3.404 -1.9949 -1.4289  0.5897
 4826SOL     OW26113   0.308   3.602  11.044 -0.9969  0.0564 -0.0321
 4826SOL    HW126114   0.363   3.676  11.068 -1.2204  0.6087 -1.2356
 4826SOL    HW226115   0.330   3.531  11.104  3.7618  2.4806  1.0570
 4827SOL     OW26116   0.730   1.628  15.689 -0.2890  0.1965  0.4290
 4827SOL    HW126117   0.662   1.684  15.725  0.4194  0.3888  1.4966
 4827SOL    HW226118   0.715   1.642  15.596  0.3701  0.6383  0.3880
 4828SOL     OW26119   2.428   0.151  16.466  0.0760 -0.2598  0.1868
 4828SOL    HW126120   2.333   0.140  16.467 -0.1048  0.7258 -4.0600
 4828SOL    HW226121   2.450   0.060  16.442  1.1494 -0.3592  1.5505
 4829SOL     OW26122   2.535   1.531   3.043 -0.2915  0.0273  0.5459
 4829SOL    HW126123   2.491   1.468   3.100 -0.5850  0.2964  0.6171
 4829SOL    HW226124   2.502   1.612   3.081 -0.2318 -0.8780  2.5212
 4830SOL     OW26125   3.480   1.911  17.695  0.6189 -0.2446 -0.7624
 4830SOL    HW126126   3.573   1.896  17.709  0.9463  1.3695 -1.1918
 4830SOL    HW226127   3.471   1.985   0.005  0.4159  1.0282 -2.3701
 4831SOL     OW26128   2.209   1.843   2.623  0.7003  0.0763  0.3328
 4831SOL    HW126129   2.143   1.773   2.615  0.3319  0.2205  2.1533
 4831SOL    HW226130   2.270   1.796   2.566 -1.7888 -1.8092 -0.7431
 4832SOL     OW26131   3.679   4.121   4.339  0.1407  0.4292 -0.3262
 4832SOL    HW126132   3.652   4.212   4.325 -0.1545  0.3043 -0.5622
 4832SOL    HW226133   3.701   4.088   4.252 -0.0705 -0.8792  0.1151
 4833SOL     OW26134   4.114   4.451   4.631 -0.0773 -0.6786  0.3047
 4833SOL    HW126135   4.122   4.545   4.648  0.6406 -0.4418 -1.3639
 4833SOL    HW226136   4.043   4.424   4.690 -2.6131  1.2467 -1.8679
 4834SOL     OW26137   4.077   2.456   4.241  0.4563  0.3188 -0.1706
 4834SOL    HW126138   3.983   2.460   4.259  0.6395  0.9811  0.6073
 4834SOL    HW226139   4.096   2.363   4.254  0.8105  0.2592 -1.1232
 4835SOL     OW26140   0.105   4.593  10.243  0.4775  0.4404 -0.4224
 4835SOL    HW126141   0.049   4.534  10.192  0.8598 -1.0330  0.8344
 4835SOL    HW226142   0.039   4.643  10.290 -0.3826  1.3284 -2.5568
 4836SOL     OW26143   0.215   1.762   2.927 -0.0591 -0.0331 -0.7905
 4836SOL    HW126144   0.170   1.721   3.001  0.5768 -0.4651 -0.6377
 4836SOL    HW226145   0.306   1.734   2.935 -0.4148 -0.8929  0.2782
 4837SOL     OW26146   3.047   2.612  10.133 -0.1498 -0.2507  0.1801
 4837SOL    HW126147   2.956   2.629  10.108  0.4238  1.3483 -0.8266
 4837SOL    HW226148   3.065   2.682  10.196 -1.4946  0.2097  0.0433
 4838SOL     OW26149   1.661   2.471   8.646  0.6457 -0.3953 -0.6524
 4838SOL    HW126150   1.742   2.478   8.696 -1.2472  2.4684  2.0419
 4838SOL    HW226151   1.606   2.442   8.720  2.4026  0.0561  0.8334
 4839SOL     OW26152   4.272   2.732   5.617  0.3047 -0.8285 -0.0981
 4839SOL    HW126153   4.198   2.715   5.675 -1.2614  0.2168 -1.7769
 4839SOL    HW226154   4.336   2.665   5.639 -1.5485 -2.4133  0.5300
 4840SOL     OW26155   0.750   2.377   7.682  0.3638 -0.2963  0.4280
 4840SOL    HW126156   0.662   2.362   7.716  0.2092 -0.1677  0.0848
 4840SOL    HW226157   0.804   2.327   7.743  0.3182 -2.0565 -0.9693
 4841SOL     OW26158   1.872   3.786   9.165 -0.1031  0.4672 -0.1246
 4841SOL    HW126159   1.914   3.828   9.090  0.0858 -0.3751 -0.4940
 4841SOL    HW226160   1.816   3.722   9.122  0.3026  1.8357 -2.7123
 4842SOL     OW26161   2.984   3.402   7.143  0.4068 -0.4943  0.0318
 4842SOL    HW126162   2.960   3.314   7.172  0.4455 -0.5555 -0.1205
 4842SOL    HW226163   3.071   3.422   7.179 -0.6465  4.3156 -0.0937
 4843SOL     OW26164   3.362   3.342   6.835  0.2350 -0.3863  0.1416
 4843SOL    HW126165   3.330   3.273   6.777 -0.7913  0.1632  0.0492
 4843SOL    HW226166   3.331   3.305   6.917 -0.4203 -0.1052  0.0269
 4844SOL     OW26167   0.190   3.355   7.080 -0.2938  0.1844  0.1254
 4844SOL    HW126168   0.270   3.321   7.041 -0.2280 -1.3499  1.6059
 4844SOL    HW226169   0.132   3.302   7.026 -0.7516  0.3045  0.5007
 4845SOL     OW26170   3.132   2.781  16.893  0.1798 -0.1894 -0.3368
 4845SOL    HW126171   3.106   2.776  16.801 -0.0895 -0.9511 -0.2259
 4845SOL    HW226172   3.059   2.829  16.932 -2.6996 -0.9779 -4.7808
 4846SOL     OW26173   1.818   3.820   7.762  0.3469  0.6781 -0.5876
 4846SOL    HW126174   1.739   3.864   7.730 -1.6274 -0.9531  2.0316
 4846SOL    HW226175   1.807   3.837   7.855 -0.3284 -1.6819 -0.2420
 4847SOL     OW26176   2.014   1.380  15.770  0.4737 -0.1132 -1.1138
 4847SOL    HW126177   2.060   1.420  15.696 -1.7964  1.1380 -1.8579
 4847SOL    HW226178   1.922   1.377  15.744  0.5240  0.9951 -1.4031
 4848SOL     OW26179   2.211   4.372   7.118 -0.1647 -0.6453  0.0970
 4848SOL    HW126180   2.220   4.466   7.103 -2.0658 -0.7061 -1.4499
 4848SOL    HW226181   2.126   4.360   7.074  0.0096  0.2278 -0.4692
 4849SOL     OW26182   0.946   3.320  12.843 -0.1634  0.3015 -0.1917
 4849SOL    HW126183   0.922   3.380  12.913 -0.8952  0.8352 -0.9034
 4849SOL    HW226184   1.028   3.279  12.871 -2.4108 -4.0776 -0.0509
 4850SOL     OW26185   0.818   0.907  17.543  0.2506 -0.5216 -0.2085
 4850SOL    HW126186   0.742   0.950  17.581  0.8521  0.1381  0.2372
 4850SOL    HW226187   0.872   0.983  17.523  2.0085 -1.6362  0.2450
 4851SOL     OW26188   4.332   2.175   6.579 -0.1393  0.3663 -0.6351
 4851SOL    HW126189   4.257   2.233   6.567  1.4328  2.8246  1.5949
 4851SOL    HW226190   4.354   2.186   6.671  0.6700 -1.1330 -0.6504
 4852SOL     OW26191   1.375   0.117   4.826  0.4078  0.4064 -0.4148
 4852SOL    HW126192   1.292   0.164   4.825  0.7318  0.9677 -0.7747
 4852SOL    HW226193   1.337   0.038   4.863  4.7208 -0.9226  1.2365
 4853SOL     OW26194   1.710   4.366  10.084 -0.3773 -0.2395 -0.1794
 4853SOL    HW126195   1.738   4.275  10.082  1.7209  0.3843  0.6339
 4853SOL    HW226196   1.774   4.405  10.143 -1.0466  0.4203  0.1142
 4854SOL     OW26197   3.345   1.634   8.215  0.4435 -0.2362  0.1140
 4854SOL    HW126198   3.256   1.633   8.252  0.1357 -3.1959 -0.7341
 4854SOL    HW226199   3.326   1.599   8.128  1.0045 -2.3273  0.8231
 4855SOL     OW26200   2.920   0.126   1.139 -0.0654  0.3715 -0.1504
 4855SOL    HW126201   2.872   0.166   1.212  1.7502 -0.2727  1.4060
 4855SOL    HW226202   2.851   0.125   1.073 -0.3306 -2.0255  0.1766
 4856SOL     OW26203   1.166   1.720   8.277 -0.0356  0.5943  0.5305
 4856SOL    HW126204   1.180   1.814   8.291  2.2585  0.1908  0.8685
 4856SOL    HW226205   1.248   1.685   8.312  0.8275  2.1614  0.0675
 4857SOL     OW26206   1.660   2.115   4.356  0.0271  0.1801  0.2879
 4857SOL    HW126207   1.606   2.187   4.388  0.0893  0.4642 -0.2474
 4857SOL    HW226208   1.595   2.075   4.298 -0.8429 -1.1819  2.2072
 4858SOL     OW26209   2.478   3.355  13.593  0.6286  0.0284  0.1624
 4858SOL    HW126210   2.464   3.411  13.670  2.0609 -2.3136  2.1069
 4858SOL    HW226211   2.405   3.294  13.604  0.7333 -0.6455 -2.7950
 4859SOL     OW26212   4.460   1.738   8.375  0.0516 -0.2949  0.3490
 4859SOL    HW126213   4.410   1.704   8.300  3.1244 -1.2012 -1.2963
 4859SOL    HW226214   4.433   1.829   8.360 -1.7302 -0.6225  1.6195
 4860SOL     OW26215   1.378   1.431  15.534 -0.2482  0.0302  0.1713
 4860SOL    HW126216   1.337   1.506  15.577  1.6353  0.5081  1.1337
 4860SOL    HW226217   1.374   1.361  15.598  1.3534 -1.4766 -1.3569
 4861SOL     OW26218   0.708   1.735   5.735 -0.0929  0.1186  0.0692
 4861SOL    HW126219   0.784   1.792   5.728 -1.5583  2.2591  1.7382
 4861SOL    HW226220   0.686   1.722   5.643 -0.6539  3.0982 -0.2149
 4862SOL     OW26221   4.199   0.291   1.891 -0.4364  0.0475 -0.1793
 4862SOL    HW126222   4.217   0.206   1.850  0.5071  1.2509 -2.3166
 4862SOL    HW226223   4.241   0.288   1.976  0.2028  1.0951 -0.4599
 4863SOL     OW26224   0.423   0.851   5.456  0.0288 -0.0582 -0.2730
 4863SOL    HW126225   0.505   0.844   5.505  0.3186 -0.6595 -0.8472
 4863SOL    HW226226   0.367   0.900   5.517  2.7591  2.5163  0.1795
 4864SOL     OW26227   2.225   3.542  13.604  0.3874 -0.6966  0.0270
 4864SOL    HW126228   2.130   3.542  13.613  0.6005 -1.4039  2.2404
 4864SOL    HW226229   2.250   3.603  13.674 -0.1856  0.1259 -0.4953
 4865SOL     OW26230   4.636   4.226   8.808 -0.1614  0.1558  0.5392
 4865SOL    HW126231   4.592   4.194   8.886 -2.5906 -0.7621 -1.2053
 4865SOL    HW226232   4.563   4.240   8.748 -0.0834  1.5876  0.7883
 4866SOL     OW26233   1.088   0.678  13.846  0.0063 -0.4297  0.3252
 4866SOL    HW126234   1.000   0.649  13.821  0.8401 -2.2317 -0.4932
 4866SOL    HW226235   1.137   0.674  13.764 -0.0260  2.7178  0.1491
 4867SOL     OW26236   3.453   0.199   5.150 -0.1578  0.2804  0.5106
 4867SOL    HW126237   3.489   0.230   5.067 -0.6289  0.9552  0.5620
 4867SOL    HW226238   3.517   0.219   5.219  0.2030  0.0045  0.2551
 4868SOL     OW26239   1.958   1.788   7.272 -0.3331  0.2018  0.1123
 4868SOL    HW126240   1.984   1.774   7.363 -0.8954  2.0510  0.5439
 4868SOL    HW226241   1.886   1.724   7.268 -0.4927  0.3205  0.9874
 4869SOL     OW26242   4.295   3.576   2.091  0.3611  0.7196 -0.2599
 4869SOL    HW126243   4.349   3.525   2.152  0.9803  0.4074 -1.0673
 4869SOL    HW226244   4.209   3.535   2.100  1.3770 -1.0391  1.7308
 4870SOL     OW26245   0.223   0.251   9.171  0.2212  0.0551  0.7066
 4870SOL    HW126246   0.274   0.243   9.252 -1.6810 -2.0359  1.6951
 4870SOL    HW226247   0.251   0.337   9.140  0.6585  0.5985  2.5893
 4871SOL     OW26248   3.590   1.190  15.323 -0.5306 -0.1502 -0.3058
 4871SOL    HW126249   3.533   1.113  15.327 -0.5658 -0.1048  0.0921
 4871SOL    HW226250   3.591   1.205  15.229  0.1540 -0.1097 -0.2866
 4872SOL     OW26251   1.468   0.050  17.288  0.2818  0.4798  0.0052
 4872SOL    HW126252   1.410   0.063  17.363  0.9466 -1.2470  0.8031
 4872SOL    HW226253   1.504   0.139  17.282  0.5223  0.5672  2.7292
 4873SOL     OW26254   1.639   1.397  12.429 -0.6188  0.0120 -0.2403
 4873SOL    HW126255   1.724   1.434  12.404  0.4949 -1.3897  1.4438
 4873SOL    HW226256   1.660   1.312  12.391 -0.9916 -0.2413  0.1212
 4874SOL     OW26257   1.748   1.906  13.912  0.2768 -0.2185  0.3453
 4874SOL    HW126258   1.738   1.917  14.006  0.7654  1.9399  0.1536
 4874SOL    HW226259   1.680   1.966  13.881 -0.3176 -0.7522  0.6299
 4875SOL     OW26260   2.232   4.451   4.579 -0.4180  0.0721 -0.5803
 4875SOL    HW126261   2.150   4.439   4.533 -0.0572  0.3298 -1.2891
 4875SOL    HW226262   2.284   4.431   4.501 -0.7640 -0.7014 -0.6154
 4876SOL     OW26263   1.955   3.312  10.515 -0.2277 -0.3658  0.3271
 4876SOL    HW126264   2.037   3.277  10.550 -0.3577 -0.8029  0.1953
 4876SOL    HW226265   1.988   3.393  10.476 -1.9789  0.5970  0.8497
 4877SOL     OW26266   0.101   0.353   5.039 -0.2432  0.0787  0.2668
 4877SOL    HW126267   0.121   0.260   5.046  0.3988  0.2192  0.3279
 4877SOL    HW226268   0.106   0.375   5.131 -0.6153 -1.6858  0.7162
 4878SOL     OW26269   2.518   3.683   3.128  0.0581  0.4744 -0.5780
 4878SOL    HW126270   2.515   3.638   3.212  1.1448  0.4537 -0.5519
 4878SOL    HW226271   2.528   3.614   3.063  0.4897 -0.0459  0.0442
 4879SOL     OW26272   1.162   2.091  16.272  0.5032  1.0211 -0.4700
 4879SOL    HW126273   1.211   2.053  16.345  0.1186 -0.3430 -0.9228
 4879SOL    HW226274   1.168   2.185  16.290  1.5253  1.2281 -1.8227
 4880SOL     OW26275   3.848   0.496   2.018  0.0808  0.5179  0.0080
 4880SOL    HW126276   3.916   0.554   1.983  0.7555  0.3091  0.9594
 4880SOL    HW226277   3.895   0.460   2.093  0.1159  0.0263 -0.2483
 4881SOL     OW26278   3.277   0.102   4.434  0.2287 -0.3588 -0.1483
 4881SOL    HW126279   3.360   0.150   4.439  0.1311 -0.4785  2.7867
 4881SOL    HW226280   3.249   0.111   4.525 -1.3556 -2.4083 -0.4288
 4882SOL     OW26281   2.739   4.581   0.686 -0.4881 -0.0533 -0.5242
 4882SOL    HW126282   2.789   4.658   0.713  0.7521 -1.2650  0.6552
 4882SOL    HW226283   2.737   4.608   0.595  1.1652  0.9645 -0.2534
 4883SOL     OW26284   0.239   0.899   4.186  0.0452  0.4154 -0.2159
 4883SOL    HW126285   0.256   0.913   4.093 -0.8724  2.3776 -0.0871
 4883SOL    HW226286   0.148   0.922   4.204 -0.3708 -2.7856  1.8435
 4884SOL     OW26287   0.488   3.052   8.105 -0.1121 -0.6468  0.1739
 4884SOL    HW126288   0.406   3.042   8.154 -0.5004  1.3314 -0.1071
 4884SOL    HW226289   0.537   2.981   8.148  0.2325 -1.3918 -1.4518
 4885SOL     OW26290   0.053   3.012   9.899 -0.1056 -0.3067 -0.3359
 4885SOL    HW126291   0.132   3.066   9.900 -0.7630  0.6866 -1.3152
 4885SOL    HW226292   4.735   3.066   9.955  1.7160  1.7490 -0.4914
 4886SOL     OW26293   4.243   2.034   6.136  0.0979  0.0287  0.4033
 4886SOL    HW126294   4.199   2.063   6.215 -2.3434 -0.6760 -0.6895
 4886SOL    HW226295   4.164   2.017   6.085 -0.9776 -2.5369  2.9611
 4887SOL     OW26296   0.001   1.033  17.418 -0.1674 -0.0114  0.3604
 4887SOL    HW126297   4.680   1.089  17.367 -0.9660 -0.6559  0.5648
 4887SOL    HW226298   4.735   0.944  17.383  0.4782 -0.5945  1.7769
 4888SOL     OW26299   1.734   2.609   1.972 -0.3410 -0.2321  0.1836
 4888SOL    HW126300   1.762   2.700   1.956 -1.8109 -0.1516 -1.9901
 4888SOL    HW226301   1.789   2.591   2.048  1.0975  4.6793  0.3198
 4889SOL     OW26302   2.321   1.984   6.899  0.4064  0.5127  0.2336
 4889SOL    HW126303   2.307   1.974   6.805  0.6789 -1.4025  0.4006
 4889SOL    HW226304   2.241   1.947   6.936 -0.2474 -0.5832 -2.3085
 4890SOL     OW26305   4.497   3.778   7.066 -0.4539 -0.3620 -0.2787
 4890SOL    HW126306   4.495   3.683   7.055 -2.0918 -0.4191  0.5442
 4890SOL    HW226307   4.550   3.778   7.146 -0.4996 -2.7465 -0.2676
 4891SOL     OW26308   0.032   2.763   0.352 -0.3998 -0.2685  0.4110
 4891SOL    HW126309   0.102   2.822   0.325 -0.2053 -0.3403  0.7676
 4891SOL    HW226310   0.058   2.725   0.436  0.5126  1.5780  0.9485
 4892SOL     OW26311   1.933   0.470   1.574 -0.0580 -0.0539  0.4197
 4892SOL    HW126312   1.851   0.421   1.580 -1.2557  1.8859 -0.0020
 4892SOL    HW226313   1.956   0.461   1.666 -0.8537 -1.2014  0.5082
 4893SOL     OW26314   2.859   0.056  16.898  0.4029  0.1706 -0.6334
 4893SOL    HW126315   2.897   0.081  16.813  0.0185 -1.3829 -1.2636
 4893SOL    HW226316   2.886   0.135  16.945 -0.8685 -0.2847  0.8670
 4894SOL     OW26317   1.517   2.351  10.033 -0.6477 -0.0267 -0.3653
 4894SOL    HW126318   1.599   2.399  10.043  0.0370 -1.0055 -1.4296
 4894SOL    HW226319   1.513   2.318   9.944 -0.9077  0.4832 -0.5438
 4895SOL     OW26320   0.237   2.767   2.044 -0.2418  0.8567 -0.3531
 4895SOL    HW126321   0.179   2.778   1.969 -1.3025 -2.4109 -0.0008
 4895SOL    HW226322   0.244   2.672   2.039  1.1916  0.9833 -0.9563
 4896SOL     OW26323   3.123   2.821   7.819  0.0161  0.1012 -0.1815
 4896SOL    HW126324   3.152   2.895   7.764  0.7663 -0.1012 -0.0633
 4896SOL    HW226325   3.033   2.845   7.839  0.2315  1.3141 -0.6543
 4897SOL     OW26326   2.164   1.495   5.046 -0.2679 -0.1880 -0.1452
 4897SOL    HW126327   2.241   1.535   5.007 -0.7293 -2.1823 -3.1045
 4897SOL    HW226328   2.111   1.468   4.971  0.1615  3.1184 -1.6042
 4898SOL     OW26329   2.865   2.790   3.540  0.5397 -0.3608 -0.0555
 4898SOL    HW126330   2.824   2.866   3.580 -1.0058 -1.6994  0.9016
 4898SOL    HW226331   2.789   2.775   3.484 -0.8769  0.2240  1.7300
 4899SOL     OW26332   3.049   1.737   8.214  0.1689  0.5117  0.5378
 4899SOL    HW126333   2.994   1.718   8.138 -0.9942 -0.1666  1.5462
 4899SOL    HW226334   2.998   1.700   8.286  0.4782 -3.8670 -1.5031
 4900SOL     OW26335   0.414   3.517   2.706  0.1406  0.0887 -0.0718
 4900SOL    HW126336   0.419   3.500   2.800  0.4439 -0.1553 -0.1314
 4900SOL    HW226337   0.422   3.427   2.673 -0.0301  0.8592 -2.2362
 4901SOL     OW26338   0.649   1.110   5.379 -0.0689 -0.0680  0.2473
 4901SOL    HW126339   0.560   1.133   5.405  0.3431  2.5777 -0.6372
 4901SOL    HW226340   0.632   1.047   5.309  1.8312  1.7328 -1.8674
 4902SOL     OW26341   0.743   4.390   3.066 -0.2485  0.4200 -0.0265
 4902SOL    HW126342   0.829   4.432   3.072 -0.5420  0.4517  3.6401
 4902SOL    HW226343   0.687   4.464   3.088 -0.1499 -0.2910  2.5269
 4903SOL     OW26344   3.872   0.415   9.193  0.1175 -0.2436  0.5610
 4903SOL    HW126345   3.934   0.466   9.245 -1.0478  1.1503  0.6115
 4903SOL    HW226346   3.853   0.485   9.131 -2.7138 -1.2175  0.3241
 4904SOL     OW26347   4.075   4.097   5.860  0.0520 -0.1864 -0.1472
 4904SOL    HW126348   4.166   4.087   5.888 -0.6440 -0.9287  1.8976
 4904SOL    HW226349   4.089   4.073   5.769  1.3587  0.0843 -0.0091
 4905SOL     OW26350   1.053   2.526   5.548 -0.4557 -0.6111 -0.1678
 4905SOL    HW126351   1.029   2.580   5.472 -1.7564 -1.0078 -0.0460
 4905SOL    HW226352   1.137   2.489   5.522  0.0899 -0.7261  1.7558
 4906SOL     OW26353   0.599   2.810   2.563  0.3739  0.8428 -0.4425
 4906SOL    HW126354   0.516   2.846   2.593  0.2132  2.2897 -2.6380
 4906SOL    HW226355   0.661   2.882   2.556  0.8352  0.5779  1.0205
 4907SOL     OW26356   4.035   2.404   6.867 -0.7677  0.0852  0.3206
 4907SOL    HW126357   4.021   2.390   6.961  1.1866  0.9261  0.7285
 4907SOL    HW226358   4.017   2.497   6.855  1.4354  0.7787  2.3803
 4908SOL     OW26359   0.167   1.490  12.496  0.3735  0.2177 -0.0999
 4908SOL    HW126360   0.255   1.516  12.521  0.1371  1.4605 -0.6072
 4908SOL    HW226361   0.182   1.397  12.479  0.8476  0.3822 -0.5767
 4909SOL     OW26362   0.161   3.498   4.992  0.2836  0.3666  0.0535
 4909SOL    HW126363   0.206   3.563   5.046 -1.0067  1.1693  0.1825
 4909SOL    HW226364   0.075   3.505   5.034  0.7697  1.5388  0.8740
 4910SOL     OW26365   1.235   2.849  16.809 -0.5401 -0.2252  0.3888
 4910SOL    HW126366   1.233   2.847  16.905  0.0500  1.1321  0.4268
 4910SOL    HW226367   1.190   2.766  16.794 -0.7203  0.6969 -4.2603
 4911SOL     OW26368   1.066   1.145   5.444  0.0920  0.3176 -0.2001
 4911SOL    HW126369   1.129   1.208   5.480 -0.7501  0.9464  0.1947
 4911SOL    HW226370   0.992   1.204   5.428 -0.9314 -0.3180  2.1678
 4912SOL     OW26371   3.297   4.394   9.409  0.2090  0.4551  0.2961
 4912SOL    HW126372   3.378   4.358   9.445 -0.2784 -2.1704 -1.2313
 4912SOL    HW226373   3.253   4.320   9.368 -1.7997  2.0441 -0.4221
 4913SOL     OW26374   0.369   0.649   3.202 -0.3457  0.2635  0.4470
 4913SOL    HW126375   0.450   0.652   3.150  1.2857 -2.9633  2.7920
 4913SOL    HW226376   0.313   0.621   3.131 -0.7089  0.1259  0.7905
 4914SOL     OW26377   1.530   0.257   6.159 -0.0537 -0.0155  0.0726
 4914SOL    HW126378   1.624   0.246   6.144 -0.4966 -0.3656 -2.4555
 4914SOL    HW226379   1.534   0.241   6.254 -3.6571 -1.3934 -0.0238
 4915SOL     OW26380   1.133   4.052   0.901 -0.4319 -0.6004  0.0751
 4915SOL    HW126381   1.165   4.002   0.826 -0.5158 -1.4102  0.5817
 4915SOL    HW226382   1.131   4.142   0.866 -0.8095  0.2871  2.3816
 4916SOL     OW26383   2.434   1.655   1.549 -0.5524 -0.0544 -0.2879
 4916SOL    HW126384   2.516   1.688   1.586 -0.0084  0.1502 -1.6926
 4916SOL    HW226385   2.443   1.561   1.564 -2.1908 -0.1580  0.0660
 4917SOL     OW26386   2.840   2.062   5.484 -0.2317 -0.2282 -0.2109
 4917SOL    HW126387   2.921   2.112   5.475 -0.0420 -0.5564 -0.3138
 4917SOL    HW226388   2.852   1.995   5.416  1.5516  0.6093 -0.7217
 4918SOL     OW26389   3.483   4.414  15.157 -0.7374 -0.1516  0.0260
 4918SOL    HW126390   3.465   4.407  15.063 -0.2024  1.2279 -0.1881
 4918SOL    HW226391   3.564   4.464  15.169 -1.3359  1.1433 -1.3412
 4919SOL     OW26392   2.973   1.829   1.923 -0.0911  0.1413  0.3858
 4919SOL    HW126393   3.058   1.867   1.901 -0.5827  0.5227 -0.8471
 4919SOL    HW226394   2.990   1.749   1.873  0.9125 -0.3138  1.4585
 4920SOL     OW26395   0.273   3.257   8.884  0.1146 -0.1084  0.4456
 4920SOL    HW126396   0.242   3.239   8.795  3.2771  2.0847 -1.1252
 4920SOL    HW226397   0.223   3.193   8.934  0.5315 -0.9381 -0.1977
 4921SOL     OW26398   3.824   1.722   5.952 -0.1425  0.0943  0.4701
 4921SOL    HW126399   3.871   1.670   5.887 -0.4500 -0.6965  0.8747
 4921SOL    HW226400   3.889   1.723   6.022 -0.0569 -0.4501  0.3966
 4922SOL     OW26401   4.490   2.608  12.285  0.0031  0.0988  0.4531
 4922SOL    HW126402   4.491   2.563  12.201  2.0335  0.0706  0.4875
 4922SOL    HW226403   4.584   2.620  12.296 -0.0745  0.4793  0.7085
 4923SOL     OW26404   4.425   3.379   3.595  0.2431 -0.0408  0.0660
 4923SOL    HW126405   4.382   3.349   3.515  0.0121  0.0615  0.1532
 4923SOL    HW226406   4.469   3.455   3.555 -0.1987 -0.5838 -1.4473
 4924SOL     OW26407   1.241   1.012   1.572 -0.7100  0.1328  0.1164
 4924SOL    HW126408   1.294   1.083   1.609 -0.4231  0.7426 -1.4726
 4924SOL    HW226409   1.180   1.068   1.524 -0.5080 -0.5262 -0.8961
 4925SOL     OW26410   1.420   3.082   3.370 -0.2281 -0.0885 -0.5287
 4925SOL    HW126411   1.424   3.170   3.332 -2.5527 -0.3336 -1.3234
 4925SOL    HW226412   1.476   3.032   3.311 -0.2092 -0.8556  0.1473
 4926SOL     OW26413   1.351   0.152  10.949  0.2531 -0.0146  0.1702
 4926SOL    HW126414   1.368   0.170  10.856  0.8610 -0.6344  0.1578
 4926SOL    HW226415   1.430   0.184  10.993 -0.2351  0.4912  0.6897
 4927SOL     OW26416   2.942   1.752   9.553  0.4708  0.3611  0.1879
 4927SOL    HW126417   2.872   1.735   9.616  1.3888 -0.6737  0.9346
 4927SOL    HW226418   3.021   1.752   9.607 -0.0399 -0.5387  0.9453
 4928SOL     OW26419   2.701   1.665  13.998  0.0882  0.4196 -0.1628
 4928SOL    HW126420   2.691   1.621  14.082 -2.3212  0.3588 -0.4764
 4928SOL    HW226421   2.784   1.629  13.966 -1.3295 -1.6080 -1.5449
 4929SOL     OW26422   0.757   1.859   1.326  0.2754  0.3137  0.0212
 4929SOL    HW126423   0.794   1.917   1.259  0.5507  1.6172  1.2886
 4929SOL    HW226424   0.831   1.801   1.343  1.0349  1.5190  0.8017
 4930SOL     OW26425   3.595   3.499  15.103 -0.1416 -0.3265 -0.0733
 4930SOL    HW126426   3.563   3.456  15.023  1.0658 -1.0886 -0.1577
 4930SOL    HW226427   3.520   3.504  15.161  0.9783 -2.9036  1.5876
 4931SOL     OW26428   1.019   2.500   7.669 -0.2970  0.6039 -0.0444
 4931SOL    HW126429   1.060   2.414   7.674 -0.6605  0.5474  2.2367
 4931SOL    HW226430   0.930   2.494   7.704 -0.0775  0.2719  0.4476
 4932SOL     OW26431   1.169   3.342   1.174  0.6196  0.1813 -0.2906
 4932SOL    HW126432   1.085   3.335   1.219  1.8150  1.0231  2.0588
 4932SOL    HW226433   1.212   3.262   1.203 -0.7627  0.1796  1.7466
 4933SOL     OW26434   4.421   2.721   3.325  0.0353 -0.4255 -0.2058
 4933SOL    HW126435   4.455   2.760   3.244 -0.0649  0.3168  0.1103
 4933SOL    HW226436   4.327   2.723   3.308  0.2087  2.0366 -0.9162
 4934SOL     OW26437   2.408   1.389   8.660  0.2156  0.4370  0.2489
 4934SOL    HW126438   2.377   1.306   8.695 -0.2510  0.1325 -0.8991
 4934SOL    HW226439   2.350   1.445   8.713  1.3695 -0.5583  2.5442
 4935SOL     OW26440   2.919   2.295  12.728  0.1528  0.1385  0.3494
 4935SOL    HW126441   3.014   2.289  12.726  0.0501 -1.3388  0.2705
 4935SOL    HW226442   2.912   2.327  12.638  2.2080  1.0542  0.5145
 4936SOL     OW26443   4.309   3.960   2.338  0.4431  0.1910  0.1914
 4936SOL    HW126444   4.329   3.935   2.248  1.3681 -1.6169  0.8952
 4936SOL    HW226445   4.326   3.874   2.376 -0.3143  0.7742  1.8291
 4937SOL     OW26446   3.377   1.434  17.210 -0.3061  0.5024  0.5844
 4937SOL    HW126447   3.384   1.372  17.283 -0.1156 -1.6511 -1.2447
 4937SOL    HW226448   3.295   1.479  17.229 -0.8087  0.7817 -2.2275
 4938SOL     OW26449   1.387   0.214   2.407 -0.0684 -0.7744 -0.0022
 4938SOL    HW126450   1.448   0.160   2.358  0.0330 -0.9276  0.2948
 4938SOL    HW226451   1.302   0.187   2.371  0.7775 -2.2143 -0.8920
 4939SOL     OW26452   1.516   1.070   3.491 -0.1382 -0.1780 -0.4301
 4939SOL    HW126453   1.561   1.001   3.541  0.7532  1.3558  0.8932
 4939SOL    HW226454   1.537   1.146   3.546 -2.5280  0.5161 -0.5166
 4940SOL     OW26455   1.763   1.855   7.505 -0.2701 -0.8245  0.2921
 4940SOL    HW126456   1.711   1.805   7.568 -2.9375  0.0587 -1.2172
 4940SOL    HW226457   1.834   1.790   7.507  1.1068  0.6121 -2.7947
 4941SOL     OW26458   0.144   4.720  17.202  0.5428 -0.1449  0.7237
 4941SOL    HW126459   0.218   4.695  17.258  1.7536  1.9077  0.0393
 4941SOL    HW226460   0.101   0.048  17.256 -0.4301 -0.6459  0.5667
 4942SOL     OW26461   2.443   1.784   9.034 -0.1969  0.2283  0.2052
 4942SOL    HW126462   2.531   1.804   9.001 -1.0516  1.8908 -1.0201
 4942SOL    HW226463   2.383   1.846   8.994  0.4280 -0.0437 -1.1413
 4943SOL     OW26464   3.415   0.640   8.453 -0.5592 -0.3566 -0.0028
 4943SOL    HW126465   3.470   0.583   8.507 -1.2472 -0.0878  0.9707
 4943SOL    HW226466   3.391   0.582   8.380  0.2210 -1.2295  0.4355
 4944SOL     OW26467   0.128   0.081   7.538 -0.3117  0.4483  0.0173
 4944SOL    HW126468   0.086   0.164   7.560 -0.5580  0.3044  0.0915
 4944SOL    HW226469   0.055   0.038   7.494 -0.2972 -0.3898  0.8048
 4945SOL     OW26470   3.150   2.568   8.295 -0.1656  0.2359 -0.3399
 4945SOL    HW126471   3.085   2.560   8.366  0.1376  0.7638 -0.0074
 4945SOL    HW226472   3.102   2.619   8.230 -1.0437 -3.0441 -2.2701
 4946SOL     OW26473   0.679   4.373   3.751  0.4669 -0.6503  0.4989
 4946SOL    HW126474   0.670   4.295   3.696  3.1757 -0.7133  0.1348
 4946SOL    HW226475   0.645   4.337   3.833 -1.3830 -0.5143 -0.1953
 4947SOL     OW26476   3.346   2.299  17.550  0.1214  0.3499 -0.0768
 4947SOL    HW126477   3.337   2.280  17.643  2.9513 -1.4291 -0.1868
 4947SOL    HW226478   3.334   2.214  17.509  2.0594 -0.1286  0.3616
 4948SOL     OW26479   2.381   2.123  13.577  0.8199  0.1568 -1.0089
 4948SOL    HW126480   2.410   2.044  13.622 -1.2853 -0.5806 -0.9781
 4948SOL    HW226481   2.337   2.176  13.643  1.2539 -1.1060  0.3001
 4949SOL     OW26482   3.383   0.339   7.683 -0.1833 -0.4629  0.5165
 4949SOL    HW126483   3.404   0.258   7.729  1.3904  0.3291  1.2110
 4949SOL    HW226484   3.343   0.303   7.604  1.0039  3.6893 -1.9669
 4950SOL     OW26485   2.189   3.404  12.117  0.0857 -0.0088  0.5937
 4950SOL    HW126486   2.178   3.329  12.175 -0.7348  0.6528  1.3045
 4950SOL    HW226487   2.158   3.471  12.178  2.1037  0.4885  1.0618
 4951SOL     OW26488   2.669   0.946   8.239 -0.4119 -0.5115  0.8815
 4951SOL    HW126489   2.662   1.026   8.188  0.3366 -1.0166 -0.0063
 4951SOL    HW226490   2.594   0.951   8.299 -2.2550  3.4987 -1.7432
 4952SOL     OW26491   3.196   0.549   4.816  0.5103  0.4012 -0.3655
 4952SOL    HW126492   3.221   0.625   4.868 -1.9344  0.9403 -0.0004
 4952SOL    HW226493   3.220   0.478   4.875  0.6973 -0.9172 -2.0154
 4953SOL     OW26494   2.949   0.114   3.080 -0.2435  0.5177 -0.0438
 4953SOL    HW126495   2.949   0.026   3.118 -0.5285  0.0865 -1.0462
 4953SOL    HW226496   2.957   0.097   2.987  0.0075  0.8015 -0.0783
 4954SOL     OW26497   3.271   2.645   3.076 -0.1088 -0.0465 -0.2916
 4954SOL    HW126498   3.265   2.664   3.170 -2.7390  0.1490 -0.5023
 4954SOL    HW226499   3.346   2.699   3.051 -0.2076 -0.6273 -1.7806
 4955SOL     OW26500   3.898   3.301   2.854  0.1539  0.2502  0.3443
 4955SOL    HW126501   3.817   3.279   2.901  0.6353  2.6857  2.3453
 4955SOL    HW226502   3.882   3.392   2.831  1.3343  0.4819  0.4057
 4956SOL     OW26503   3.672   0.119   0.636 -0.1901  0.0525 -1.0137
 4956SOL    HW126504   3.579   0.138   0.650  0.1133  0.7925  0.0065
 4956SOL    HW226505   3.662   0.030   0.603  0.3937 -0.3363 -0.1426
 4957SOL     OW26506   3.065   4.004   6.266  0.4431 -0.0141  0.7081
 4957SOL    HW126507   3.117   3.938   6.311  4.3424  1.5554 -1.5310
 4957SOL    HW226508   3.013   4.043   6.337 -0.5065  0.7440 -0.4004
 4958SOL     OW26509   2.701   2.418   8.756  0.0038  0.4913 -0.2934
 4958SOL    HW126510   2.714   2.388   8.666  1.2385  1.6063 -0.4696
 4958SOL    HW226511   2.613   2.456   8.744  0.4831  1.5896 -0.3115
 4959SOL     OW26512   1.594   2.643   9.863 -0.6002 -0.1179 -0.0707
 4959SOL    HW126513   1.602   2.623   9.956 -1.2207 -1.2575 -0.2653
 4959SOL    HW226514   1.657   2.586   9.820 -1.8160 -2.1568  0.8455
 4960SOL     OW26515   3.900   1.523  15.607  0.4152 -0.1883 -0.8055
 4960SOL    HW126516   3.830   1.497  15.547  1.4165 -0.1284 -1.9841
 4960SOL    HW226517   3.967   1.473  15.561  1.8307  1.1231 -0.1813
 4961SOL     OW26518   3.787   2.411  13.033  0.0351  0.3118  0.0681
 4961SOL    HW126519   3.770   2.451  12.947  1.7705  1.6663  0.3332
 4961SOL    HW226520   3.856   2.350  13.007  0.7636  0.5411  1.4550
 4962SOL     OW26521   3.611   1.932   5.354  0.0035  0.0970  0.6608
 4962SOL    HW126522   3.702   1.940   5.385  0.2951 -1.9736  0.3193
 4962SOL    HW226523   3.566   1.962   5.433 -1.0927 -0.9261  0.4249
 4963SOL     OW26524   3.853   2.645   9.845 -0.3200 -0.0669 -0.3914
 4963SOL    HW126525   3.847   2.596   9.763  0.7804 -0.5527 -0.1803
 4963SOL    HW226526   3.780   2.610   9.896  1.4419 -1.8020  0.9537
 4964SOL     OW26527   0.516   3.450   7.978 -0.0559  0.4315 -0.0970
 4964SOL    HW126528   0.565   3.368   7.979 -0.8005 -0.0030  0.1582
 4964SOL    HW226529   0.430   3.417   7.952 -0.1643  0.7288 -0.1149
 4965SOL     OW26530   4.082   1.572   8.049 -0.6765  0.1870  0.3411
 4965SOL    HW126531   4.049   1.630   7.980 -2.9858 -1.0039  0.4762
 4965SOL    HW226532   3.998   1.544   8.085 -0.6647  1.1627  1.1433
 4966SOL     OW26533   3.506   3.013   6.237  0.0295  0.5942  0.6480
 4966SOL    HW126534   3.516   2.918   6.248  2.3648  0.8330  0.4847
 4966SOL    HW226535   3.547   3.048   6.316  0.2248 -0.6578  1.0930
 4967SOL     OW26536   2.372   2.324   1.711  0.3265 -0.0199  0.3525
 4967SOL    HW126537   2.304   2.262   1.738  0.8844 -1.2676 -1.0662
 4967SOL    HW226538   2.442   2.313   1.775  0.7726 -0.4130 -0.2068
 4968SOL     OW26539   0.060   0.593   8.416 -0.6137 -0.1516  0.4979
 4968SOL    HW126540   0.022   0.534   8.481  0.4362 -3.2630 -1.6490
 4968SOL    HW226541   0.060   0.533   8.340  0.5833  0.3422  0.0955
 4969SOL     OW26542   4.019   2.633   7.532 -0.4818 -0.1614 -0.1876
 4969SOL    HW126543   4.026   2.541   7.507  1.2814  0.2177 -1.0785
 4969SOL    HW226544   3.972   2.665   7.455 -0.3253  0.2695 -0.1049
 4970SOL     OW26545   4.018   2.246   2.755 -0.3911 -0.0908  0.0742
 4970SOL    HW126546   4.001   2.152   2.765  0.3504 -0.0481  1.7463
 4970SOL    HW226547   4.112   2.259   2.771 -0.4823 -1.0509  1.4111
 4971SOL     OW26548   2.175   4.066   8.311  0.0109 -0.0274  0.0103
 4971SOL    HW126549   2.128   4.003   8.255  1.4953 -0.4713 -0.7274
 4971SOL    HW226550   2.143   4.150   8.277 -1.9083 -0.8081 -0.1113
 4972SOL     OW26551   3.436   4.702   2.386  0.3369 -0.4684  0.3174
 4972SOL    HW126552   3.413   4.646   2.312  2.5231 -1.0702  0.0920
 4972SOL    HW226553   3.394   0.045   2.356  0.9704 -0.7715 -1.3611
 4973SOL     OW26554   3.028   4.383   1.318  0.3262  0.4788 -0.2314
 4973SOL    HW126555   3.035   4.312   1.254 -1.1748  1.2449 -1.2301
 4973SOL    HW226556   2.936   4.406   1.306  0.8217  2.4913 -0.1249
 4974SOL     OW26557   2.153   3.905   8.530 -0.6046 -0.3214  0.4933
 4974SOL    HW126558   2.066   3.883   8.498 -0.6115 -2.1790  1.7751
 4974SOL    HW226559   2.197   3.969   8.474  0.5857 -0.8013  0.8581
 4975SOL     OW26560   4.383   2.077  15.736  0.2213  0.7120  0.4549
 4975SOL    HW126561   4.306   2.029  15.770  0.5859  0.4674  0.9427
 4975SOL    HW226562   4.370   2.165  15.771 -0.9350  0.0395  1.7670
 4976SOL     OW26563   4.383   0.844   2.770 -0.6151 -0.2729 -0.0967
 4976SOL    HW126564   4.377   0.765   2.823 -4.7408  1.2838  1.7541
 4976SOL    HW226565   4.302   0.847   2.718 -1.6585  1.5288  1.5969
 4977SOL     OW26566   3.963   1.530   3.638 -0.1665 -0.1022 -1.0082
 4977SOL    HW126567   4.014   1.574   3.706 -0.1933  0.0479 -1.0853
 4977SOL    HW226568   4.030   1.478   3.594  0.4621  0.2874 -0.5179
 4978SOL     OW26569   0.624   0.187   3.820 -0.3726  0.2183  0.4923
 4978SOL    HW126570   0.553   0.127   3.798 -0.8462  1.1072 -0.3518
 4978SOL    HW226571   0.569   0.265   3.820  1.0525  1.1827 -2.9674
 4979SOL     OW26572   0.061   2.286  14.586  0.4069  0.3992  0.1743
 4979SOL    HW126573   0.052   2.251  14.675 -2.0106 -0.8098 -0.5574
 4979SOL    HW226574   0.118   2.225  14.540  0.6302  1.1543 -0.5617
 4980SOL     OW26575   1.388   4.316   0.300  0.1002  0.0913 -0.3902
 4980SOL    HW126576   1.390   4.408   0.272  1.0483  0.1198 -0.2328
 4980SOL    HW226577   1.321   4.280   0.242  0.9909 -0.6055 -0.9790
 4981SOL     OW26578   3.531   4.258  12.245 -0.3208 -0.1669  0.3140
 4981SOL    HW126579   3.581   4.314  12.304 -0.6387 -0.6130  0.9961
 4981SOL    HW226580   3.595   4.246  12.174 -0.6007 -0.5930  0.1373
 4982SOL     OW26581   2.049   0.307   6.151  0.7959 -0.3554  0.0490
 4982SOL    HW126582   2.023   0.381   6.207  2.4945  1.2363 -1.2926
 4982SOL    HW226583   2.101   0.251   6.208  0.9240 -0.0216  0.2637
 4983SOL     OW26584   3.747   1.150   8.698  0.9030  0.0440  0.0349
 4983SOL    HW126585   3.809   1.149   8.771  0.5339  0.7658  0.3605
 4983SOL    HW226586   3.773   1.079   8.639 -2.4237  0.2535 -1.6982
 4984SOL     OW26587   1.109   3.768   5.535 -0.4982 -0.0396  0.0229
 4984SOL    HW126588   1.108   3.754   5.630  0.4724  1.1765  0.2104
 4984SOL    HW226589   1.182   3.716   5.501  0.8927  1.3244  0.9182
 4985SOL     OW26590   3.623   4.372   0.115  0.2173  0.2729  0.2188
 4985SOL    HW126591   3.665   4.343   0.196 -0.7617  0.7055  0.8842
 4985SOL    HW226592   3.552   4.309   0.104  1.3139 -0.7920 -0.7108
 4986SOL     OW26593   0.369   4.243   4.324  0.4732  0.0913 -0.5884
 4986SOL    HW126594   0.464   4.248   4.316  0.5198 -0.8279 -0.6782
 4986SOL    HW226595   0.356   4.298   4.401 -0.3433 -2.3869  1.0244
 4987SOL     OW26596   4.301   0.569   2.918  0.5266 -0.1931  0.0176
 4987SOL    HW126597   4.367   0.555   2.986 -0.9857  0.6630  1.6601
 4987SOL    HW226598   4.223   0.533   2.960 -0.6582  2.8820  0.4178
 4988SOL     OW26599   1.946   0.866   8.122  0.3737 -0.5821  0.4489
 4988SOL    HW126600   1.980   0.778   8.138 -0.0450 -1.0412 -1.2431
 4988SOL    HW226601   1.975   0.919   8.196 -2.9022  1.2424  0.4205
 4989SOL     OW26602   3.223   3.601  12.746 -0.3225  0.4013 -0.3052
 4989SOL    HW126603   3.212   3.566  12.658  1.4374 -1.1230  0.0715
 4989SOL    HW226604   3.288   3.538  12.778 -1.3706 -0.4413  0.1619
 4990SOL     OW26605   1.661   1.976  11.089  0.1798  0.6773 -0.0453
 4990SOL    HW126606   1.658   2.056  11.141 -0.9395  1.1141 -0.7821
 4990SOL    HW226607   1.747   1.946  11.118  0.3031  1.2829  0.2090
 4991SOL     OW26608   3.045   0.513   2.384  0.1806  0.0276  0.0799
 4991SOL    HW126609   3.021   0.592   2.433 -1.8476  1.0478 -2.5824
 4991SOL    HW226610   3.132   0.525   2.348  0.9331 -2.6674  1.0416
 4992SOL     OW26611   3.571   0.031   7.516 -0.4185 -0.6845 -0.3291
 4992SOL    HW126612   3.618   0.113   7.503 -0.3930 -0.5434  0.6529
 4992SOL    HW226613   3.592   4.731   7.430  1.5960  1.3213 -0.7222
 4993SOL     OW26614   4.198   3.888   8.928  0.4446 -0.0559  0.4416
 4993SOL    HW126615   4.194   3.848   8.841  1.5727  0.2039  0.2634
 4993SOL    HW226616   4.144   3.822   8.971  1.1481 -0.9406 -0.0215
 4994SOL     OW26617   0.234   3.610   5.752 -0.1695  0.2574  0.7145
 4994SOL    HW126618   0.326   3.620   5.725  0.0842 -1.9981  0.7372
 4994SOL    HW226619   0.217   3.516   5.745 -2.2414  0.6499  0.5412
 4995SOL     OW26620   0.256   3.324   7.982  0.2046  0.0757  0.4054
 4995SOL    HW126621   0.169   3.339   8.019  0.8077  0.4557  1.6847
 4995SOL    HW226622   0.283   3.257   8.044 -0.3196 -1.8495 -1.4499
 4996SOL     OW26623   2.709   3.580   7.210 -0.6405  0.6026  0.1141
 4996SOL    HW126624   2.788   3.531   7.232 -2.1367 -1.1175  1.7121
 4996SOL    HW226625   2.687   3.617   7.296 -1.3808  3.0200 -1.1168
 4997SOL     OW26626   2.023   3.454   3.025 -0.3625 -0.2233 -0.3571
 4997SOL    HW126627   2.052   3.363   3.014 -0.3376 -0.2600  0.0224
 4997SOL    HW226628   2.047   3.482   3.113  0.8564 -1.2894 -0.3436
 4998SOL     OW26629   1.746   0.866  12.459  0.2249 -0.2924  0.1000
 4998SOL    HW126630   1.826   0.910  12.429  0.6758 -1.9715 -1.1958
 4998SOL    HW226631   1.682   0.908  12.402  0.6063  3.4876  2.4986
 4999SOL     OW26632   0.299   1.628   5.365  0.3675 -0.1707  0.8780
 4999SOL    HW126633   0.313   1.546   5.317  2.0430 -1.7632  4.0373
 4999SOL    HW226634   0.210   1.617   5.397 -0.1780 -0.7845 -0.8600
 5000SOL     OW26635   0.590   4.726   0.034 -0.0650 -0.8753 -0.0017
 5000SOL    HW126636   0.670   4.673   0.040  0.0082 -0.6273  1.2672
 5000SOL    HW226637   0.633   0.073   0.020  1.1837 -1.6116 -0.7070
 5001SOL     OW26638   2.872   2.660   2.520  0.4510 -0.7019  0.3611
 5001SOL    HW126639   2.901   2.746   2.491 -1.4498 -0.7617 -1.7186
 5001SOL    HW226640   2.819   2.688   2.594  1.6142  0.0543  0.9049
 5002SOL     OW26641   1.318   1.104   8.008 -0.2893 -0.2147 -1.0777
 5002SOL    HW126642   1.257   1.098   7.935  0.4164 -0.0769 -1.6729
 5002SOL    HW226643   1.357   1.018   7.990 -1.1222 -0.6218 -0.9410
 5003SOL     OW26644   2.364   2.416   8.067 -0.4267 -0.3037 -0.6118
 5003SOL    HW126645   2.377   2.490   8.127  2.4015 -0.0189 -1.5439
 5003SOL    HW226646   2.434   2.430   8.002 -1.2545  0.5779 -1.3124
 5004SOL     OW26647   0.906   1.628  11.448  0.4837  0.0887 -0.1403
 5004SOL    HW126648   0.885   1.540  11.419 -0.9410  0.1844  0.5597
 5004SOL    HW226649   0.820   1.670  11.460 -0.2711 -1.7084  0.7383
 5005SOL     OW26650   4.650   2.225   4.420  0.4858 -0.2643  0.3513
 5005SOL    HW126651   4.597   2.280   4.362 -1.8889 -1.2093  1.6423
 5005SOL    HW226652   4.586   2.219   4.491  1.6598 -4.3471  1.0838
 5006SOL     OW26653   2.698   2.050   0.497  0.1257  0.6381  0.6349
 5006SOL    HW126654   2.698   2.100   0.415 -1.6060  1.6746  1.2657
 5006SOL    HW226655   2.612   2.075   0.531 -1.2523  0.1935 -2.5433
 5007SOL     OW26656   0.008   2.884  12.660 -0.1616 -0.3111 -0.1356
 5007SOL    HW126657   0.090   2.838  12.641  0.3664  0.0288  1.3352
 5007SOL    HW226658   4.728   2.918  12.572  0.0829 -3.0962 -1.2480
 5008SOL     OW26659   3.725   0.753   2.427  0.0187  0.2859 -0.2066
 5008SOL    HW126660   3.631   0.766   2.436 -0.0904  0.8411 -2.2594
 5008SOL    HW226661   3.761   0.834   2.464  0.8711 -0.1808 -0.0048
 5009SOL     OW26662   4.540   0.721   8.103 -0.1133  0.2176 -0.0956
 5009SOL    HW126663   4.524   0.661   8.030  0.2317 -0.2729  0.2309
 5009SOL    HW226664   4.631   0.737   8.079  0.4524 -0.8488  1.3657
 5010SOL     OW26665   4.691   1.222   1.814  0.4147  0.1251 -0.2346
 5010SOL    HW126666   4.640   1.299   1.840  3.1798  1.3093  1.8322
 5010SOL    HW226667   4.701   1.171   1.895  1.1472 -1.5951 -1.4183
 5011SOL     OW26668   2.591   2.319   8.237  0.2432  0.3288  0.4402
 5011SOL    HW126669   2.514   2.326   8.180  1.4073 -2.8837 -1.5475
 5011SOL    HW226670   2.562   2.359   8.319  0.3654  0.4883  0.4043
 5012SOL     OW26671   2.527   2.725   7.055  0.5411  0.1210  0.6437
 5012SOL    HW126672   2.613   2.723   7.098  0.3718 -1.6611  0.8797
 5012SOL    HW226673   2.550   2.710   6.963  0.7907  0.2658  0.6817
 5013SOL     OW26674   3.606   0.471  14.859  0.0491  0.4537  0.0362
 5013SOL    HW126675   3.641   0.538  14.800 -1.1603  0.9839 -0.0770
 5013SOL    HW226676   3.652   0.487  14.942  0.3138  3.1861 -0.6349
 5014SOL     OW26677   3.852   3.311   3.569  0.4043  0.0022  0.5161
 5014SOL    HW126678   3.801   3.351   3.499 -0.5610 -2.1751 -0.0096
 5014SOL    HW226679   3.830   3.218   3.564 -0.4310  0.1968  0.5729
 5015SOL     OW26680   0.516   0.655   0.882  0.4519 -0.1619 -0.0023
 5015SOL    HW126681   0.610   0.668   0.892  0.4530 -0.1208 -0.0641
 5015SOL    HW226682   0.486   0.706   0.958 -1.4974  1.3140 -1.7487
 5016SOL     OW26683   2.332   0.801   8.162 -0.7654 -0.0968 -0.1007
 5016SOL    HW126684   2.287   0.716   8.172  1.4760 -1.2667 -0.0108
 5016SOL    HW226685   2.310   0.832   8.074  0.1072 -0.0476 -0.3012
 5017SOL     OW26686   3.790   2.841   9.301 -0.2482  0.5742  0.3026
 5017SOL    HW126687   3.727   2.776   9.331  0.3776 -0.6185 -0.9831
 5017SOL    HW226688   3.736   2.897   9.245 -0.7439  1.0308  1.2453
 5018SOL     OW26689   1.264   1.674   3.033 -0.3692  0.0972  0.0426
 5018SOL    HW126690   1.182   1.723   3.031 -0.1723  0.4628  1.2019
 5018SOL    HW226691   1.239   1.603   3.092  2.9821  1.6020  3.2637
 5019SOL     OW26692   1.608   4.483   3.894  0.1414 -0.0123 -0.4010
 5019SOL    HW126693   1.679   4.437   3.849 -0.7753 -1.5525 -0.2657
 5019SOL    HW226694   1.535   4.444   3.847 -0.0247 -2.4345  1.8730
 5020SOL     OW26695   1.181   2.649   8.725  0.0608  0.0422 -0.0192
 5020SOL    HW126696   1.194   2.670   8.633 -0.6956  0.8800  0.0602
 5020SOL    HW226697   1.106   2.589   8.719  1.3331 -1.5456  0.1352
 5021SOL     OW26698   0.023   2.611   9.272 -0.6049  0.3116 -0.0713
 5021SOL    HW126699   4.673   2.574   9.274 -1.0183  1.3845  2.3872
 5021SOL    HW226700   0.072   2.534   9.245 -0.6108 -0.5315  2.3767
 5022SOL     OW26701   0.916   1.083   4.185  0.1499  0.0630  0.0171
 5022SOL    HW126702   0.877   1.012   4.236  0.8339 -0.8994 -0.7871
 5022SOL    HW226703   0.960   1.128   4.257  0.5248 -0.6731  0.2472
 5023SOL     OW26704   0.402   3.111   8.503 -0.2710 -0.0567  0.2934
 5023SOL    HW126705   0.470   3.162   8.546  0.9649 -0.8760 -0.6599
 5023SOL    HW226706   0.430   3.025   8.535 -2.2566 -0.8874 -0.2129
 5024SOL     OW26707   1.872   0.944   6.324 -0.2190  0.2772 -0.4880
 5024SOL    HW126708   1.817   1.006   6.277  1.2561  1.7876 -0.1984
 5024SOL    HW226709   1.855   0.863   6.276 -0.9792  0.2397 -0.1644
 5025SOL     OW26710   0.496   2.613  12.642  0.0313  0.0568 -0.3899
 5025SOL    HW126711   0.459   2.547  12.583 -0.8251 -0.2582  0.5055
 5025SOL    HW226712   0.552   2.549  12.687 -0.9736  0.3070  1.1943
 5026SOL     OW26713   1.090   2.095   3.113 -0.0149 -0.4201 -0.3897
 5026SOL    HW126714   1.083   2.170   3.055 -0.7406 -0.3569 -0.2206
 5026SOL    HW226715   1.006   2.095   3.158 -0.3739 -1.2615 -1.0609
 5027SOL     OW26716   4.229   1.929  12.002 -0.0831  0.2184  0.2533
 5027SOL    HW126717   4.205   1.840  12.029 -1.2881  0.0512 -1.3759
 5027SOL    HW226718   4.266   1.921  11.914  0.0175 -0.9416  0.3931
 5028SOL     OW26719   0.111   4.700   1.217 -0.1856 -0.1226  0.2932
 5028SOL    HW126720   0.149   0.050   1.212 -2.2167  0.9543  4.0192
 5028SOL    HW226721   0.150   4.663   1.297  0.6973 -1.9779 -0.9938
 5029SOL     OW26722   1.477   3.223   8.622 -0.0048  0.2850  0.2170
 5029SOL    HW126723   1.455   3.156   8.686 -1.9450  2.3509  1.6936
 5029SOL    HW226724   1.536   3.280   8.671 -0.6421  0.6517  0.5453
 5030SOL     OW26725   0.984   2.996  16.431  0.1151 -0.3681  0.0828
 5030SOL    HW126726   1.063   3.032  16.389 -1.9895  3.3397 -0.6999
 5030SOL    HW226727   0.995   3.024  16.522 -0.8306  3.4153 -0.9810
 5031SOL     OW26728   2.998   2.302   5.430 -0.2120  0.0007  0.1653
 5031SOL    HW126729   3.053   2.378   5.415 -2.3475  1.5507  0.1552
 5031SOL    HW226730   2.948   2.329   5.507 -2.0346 -0.4190 -0.8737
 5032SOL     OW26731   2.805   0.398   6.984 -0.3125 -0.7041 -0.2301
 5032SOL    HW126732   2.739   0.464   6.966 -1.0472 -0.7035  2.5478
 5032SOL    HW226733   2.826   0.411   7.076  2.6324 -2.6161 -0.6085
 5033SOL     OW26734   0.847   4.672  10.770 -0.1087  0.1439 -0.0208
 5033SOL    HW126735   0.855   4.611  10.696 -0.5605 -0.9675  0.8540
 5033SOL    HW226736   0.752   4.682  10.770  0.2756  3.8916 -3.0488
 5034SOL     OW26737   3.695   2.310   6.982  0.1400  0.3093 -0.3350
 5034SOL    HW126738   3.716   2.403   6.991  0.2387  0.1624  1.0487
 5034SOL    HW226739   3.602   2.296   6.998  0.7549 -1.6550  1.6400
 5035SOL     OW26740   4.711   1.345   4.844  0.2577 -0.0192 -0.1278
 5035SOL    HW126741   4.722   1.333   4.749 -2.0939  0.6165 -0.4923
 5035SOL    HW226742   4.694   1.253   4.867  3.2955 -0.1006  1.7403
 5036SOL     OW26743   2.205   2.010   4.457  0.0285  0.5245  0.2011
 5036SOL    HW126744   2.286   2.025   4.506 -0.6187 -0.7155  1.6589
 5036SOL    HW226745   2.191   2.082   4.395  1.7907  1.2192  0.5941
 5037SOL     OW26746   0.369   0.534  11.522 -0.6035  0.0354 -0.1079
 5037SOL    HW126747   0.421   0.459  11.493 -0.3389  0.5912 -1.0801
 5037SOL    HW226748   0.402   0.604  11.465 -0.4716  1.2309  1.4550
 5038SOL     OW26749   2.380   1.198  11.929  0.4109  0.2470  0.1528
 5038SOL    HW126750   2.321   1.268  11.957  0.7742  0.7339 -0.2999
 5038SOL    HW226751   2.390   1.209  11.834 -0.5149  0.4221  0.0744
 5039SOL     OW26752   2.897   1.378  11.182  0.0415 -0.6637  0.7971
 5039SOL    HW126753   2.987   1.409  11.173  0.2398 -1.2987  0.5510
 5039SOL    HW226754   2.851   1.459  11.202 -3.1427 -2.4016  0.6266
 5040SOL     OW26755   2.932   0.654   7.739  0.3238  0.1715 -0.3576
 5040SOL    HW126756   2.940   0.625   7.830  0.5579  0.2418 -0.3551
 5040SOL    HW226757   2.848   0.616   7.711 -0.9570  1.6210  1.5441
 5041SOL     OW26758   4.354   2.100  17.066 -0.3967 -0.9822  0.0466
 5041SOL    HW126759   4.291   2.163  17.030 -0.1076 -1.3912 -1.1589
 5041SOL    HW226760   4.374   2.048  16.988  3.4377  0.0995  0.3174
 5042SOL     OW26761   3.126   4.319   5.574  0.3540  0.2353  0.1701
 5042SOL    HW126762   3.095   4.409   5.576 -0.1464  0.0346  1.3427
 5042SOL    HW226763   3.139   4.295   5.666  0.2211 -2.0531 -0.4156
 5043SOL     OW26764   2.614   2.008   4.810 -0.1222 -0.1567 -0.7752
 5043SOL    HW126765   2.673   2.076   4.842 -0.3510 -0.8838  1.2085
 5043SOL    HW226766   2.590   2.035   4.721 -0.7143  1.6465 -0.0664
 5044SOL     OW26767   0.642   2.445   8.342  0.1082 -0.1463  0.4171
 5044SOL    HW126768   0.578   2.475   8.407 -0.8665  0.0292 -0.6244
 5044SOL    HW226769   0.659   2.530   8.301 -0.8527 -0.6711 -1.0446
 5045SOL     OW26770   3.455   1.359   3.074  0.2858  0.2907 -0.3274
 5045SOL    HW126771   3.385   1.424   3.085 -2.1599 -1.5254 -5.2055
 5045SOL    HW226772   3.455   1.326   3.164 -0.0713  1.0584 -0.0461
 5046SOL     OW26773   0.764   1.093   3.061 -0.2581 -0.4534 -0.1191
 5046SOL    HW126774   0.711   1.034   3.115 -1.7813 -1.6805 -2.9315
 5046SOL    HW226775   0.704   1.119   2.991 -2.1367 -0.7604  1.3572
 5047SOL     OW26776   2.984   4.287   5.331 -0.2920 -0.3271 -0.0168
 5047SOL    HW126777   2.990   4.381   5.314 -2.2320 -0.3128 -0.6152
 5047SOL    HW226778   3.037   4.287   5.411 -1.5766 -1.3117  0.8412
 5048SOL     OW26779   0.031   3.707   8.325  0.5354 -0.1886 -0.0067
 5048SOL    HW126780   4.721   3.707   8.242  2.0811 -2.5069 -0.8824
 5048SOL    HW226781   0.040   3.802   8.325 -1.5281  0.0026  2.2039
 5049SOL     OW26782   2.987   1.851   6.772  0.1005  0.2584  0.4432
 5049SOL    HW126783   3.047   1.818   6.839  0.6153  2.6426  1.1702
 5049SOL    HW226784   3.019   1.816   6.689  1.3930  0.3413  0.9126
 5050SOL     OW26785   4.128   4.533   9.557  0.2750  0.2230  0.0439
 5050SOL    HW126786   4.063   4.464   9.552  0.5275  0.2147 -3.3592
 5050SOL    HW226787   4.198   4.488   9.509  0.6911  1.0750 -0.1606
 5051SOL     OW26788   2.077   0.556   5.069  0.5219 -0.8700 -0.9371
 5051SOL    HW126789   2.172   0.548   5.079 -0.1379 -2.8321  3.5841
 5051SOL    HW226790   2.066   0.544   4.975 -1.4934 -2.9018 -0.4513
 5052SOL     OW26791   2.319   0.609   2.474  0.4462 -0.4660  0.5030
 5052SOL    HW126792   2.360   0.598   2.561  0.1459  0.1926  0.7260
 5052SOL    HW226793   2.261   0.536   2.453  0.6844 -0.7164  0.6997
 5053SOL     OW26794   1.167   0.337   5.860  0.3036  0.2785  0.2013
 5053SOL    HW126795   1.245   0.328   5.915  0.8852  1.9727 -0.3367
 5053SOL    HW226796   1.107   0.395   5.908 -0.7953 -0.6882 -0.0076
 5054SOL     OW26797   0.322   1.492   6.799  0.4075  0.0301 -0.0428
 5054SOL    HW126798   0.262   1.513   6.727  0.4233 -0.2370 -0.1325
 5054SOL    HW226799   0.276   1.546   6.863  1.0367 -1.4944  1.6606
 5055SOL     OW26800   4.197   1.952   4.338 -0.4112  0.3272 -0.2119
 5055SOL    HW126801   4.137   1.981   4.406  0.1887  1.8083 -0.3218
 5055SOL    HW226802   4.150   1.870   4.320  2.4827 -1.8014  1.7668
 5056SOL     OW26803   2.588   4.596   1.733 -0.0651  0.4401  0.1852
 5056SOL    HW126804   2.631   4.563   1.654 -2.1927 -3.4144  0.6549
 5056SOL    HW226805   2.638   4.678   1.732  1.2430 -0.3417  1.2211
 5057SOL     OW26806   0.242   1.756   5.053 -0.2984  0.2441  0.5500
 5057SOL    HW126807   0.214   1.732   4.965 -1.2150 -0.5541  1.0638
 5057SOL    HW226808   0.162   1.752   5.107 -0.3138 -0.6329  0.4631
 5058SOL     OW26809   2.056   2.285   6.790 -0.1574 -0.3698  0.2209
 5058SOL    HW126810   2.036   2.351   6.723 -1.5651  0.8131  1.8199
 5058SOL    HW226811   2.148   2.264   6.772 -0.5982 -1.5426 -0.6299
 5059SOL     OW26812   4.108   1.882   3.867 -1.0263  0.9331 -0.1600
 5059SOL    HW126813   4.080   1.804   3.914 -0.7636  0.4314 -0.8257
 5059SOL    HW226814   4.137   1.845   3.783  1.2638  1.1708  0.5107
 5060SOL     OW26815   1.260   4.599   8.474 -0.4472 -0.6315  0.5288
 5060SOL    HW126816   1.348   4.620   8.445 -0.9082 -1.7215 -1.6315
 5060SOL    HW226817   1.246   4.526   8.415  0.3361 -0.2393 -0.1504
 5061SOL     OW26818   1.434   2.451  16.090 -0.0503 -0.1082 -0.6971
 5061SOL    HW126819   1.515   2.451  16.141 -0.4213 -1.7719 -0.1085
 5061SOL    HW226820   1.453   2.519  16.025 -2.5493  2.2414  0.9834
 5062SOL     OW26821   0.065   1.633   2.633 -0.5329  0.1976  0.2489
 5062SOL    HW126822   0.076   1.617   2.540  0.5891 -0.0679  0.4237
 5062SOL    HW226823   0.004   1.560   2.646 -1.2394  0.6120 -0.7645
 5063SOL     OW26824   2.084   2.557  14.663 -0.1779  0.3022 -0.7695
 5063SOL    HW126825   2.038   2.474  14.668  0.2769 -0.0387 -2.1858
 5063SOL    HW226826   2.077   2.588  14.573  0.6155  0.4567 -0.7830
 5064SOL     OW26827   2.554   3.090   1.116 -0.8585  0.6912 -0.2662
 5064SOL    HW126828   2.604   3.111   1.195 -0.3474  0.7356 -0.5974
 5064SOL    HW226829   2.470   3.130   1.138 -1.8201 -2.4596  1.8050
 5065SOL     OW26830   1.957   4.674   2.012 -0.3182 -0.1600 -0.4113
 5065SOL    HW126831   1.961   0.023   2.053  0.7572 -1.5621  2.4295
 5065SOL    HW226832   2.042   4.639   2.039 -0.5146  1.6468  2.6374
 5066SOL     OW26833   1.846   0.554  10.624 -0.5078 -0.0018 -0.1990
 5066SOL    HW126834   1.825   0.643  10.598  0.7217 -0.2584 -2.0891
 5066SOL    HW226835   1.902   0.583  10.697  1.7712  0.3572 -2.0690
 5067SOL     OW26836   0.628   1.506  17.605  0.2614 -0.5567  0.2347
 5067SOL    HW126837   0.536   1.530  17.601  0.3631 -0.1024  0.5915
 5067SOL    HW226838   0.667   1.587  17.638 -0.5920  0.1203 -0.4164
 5068SOL     OW26839   0.965   0.604   9.080 -0.6123 -0.1764  0.0326
 5068SOL    HW126840   0.878   0.563   9.078 -0.4651 -0.5065  0.4966
 5068SOL    HW226841   0.983   0.586   8.988  4.0847  0.6721  0.7764
 5069SOL     OW26842   4.661   4.497   8.218 -0.0149 -0.0477 -0.1304
 5069SOL    HW126843   4.568   4.483   8.237 -0.3065  2.6397  0.3995
 5069SOL    HW226844   4.704   4.476   8.301  1.2460  0.4587 -0.6569
 5070SOL     OW26845   4.446   3.688   8.164  0.1522 -0.7218  0.6014
 5070SOL    HW126846   4.478   3.607   8.125 -0.0603  0.6687 -2.4328
 5070SOL    HW226847   4.457   3.751   8.093 -1.2097 -1.2154 -0.0373
 5071SOL     OW26848   0.657   2.163   6.116  0.9794  0.3134  0.3248
 5071SOL    HW126849   0.675   2.217   6.038  0.2415 -0.2420 -0.2346
 5071SOL    HW226850   0.566   2.138   6.097  1.4229 -0.5531 -0.6330
 5072SOL     OW26851   2.640   1.809  11.306  0.0992  0.0927 -0.4952
 5072SOL    HW126852   2.598   1.824  11.221 -0.0293 -1.3449 -0.6694
 5072SOL    HW226853   2.563   1.802  11.362  0.1191 -1.4711 -0.6776
 5073SOL     OW26854   3.259   2.608   5.535 -0.1953 -0.1179 -0.5325
 5073SOL    HW126855   3.259   2.540   5.467  0.5210  0.0983 -0.7420
 5073SOL    HW226856   3.290   2.564   5.613  1.3805 -2.2471 -2.3557
 5074SOL     OW26857   4.024   0.516   6.900 -0.0154  0.3027  0.2241
 5074SOL    HW126858   3.940   0.470   6.902  1.6295 -2.7641 -1.7221
 5074SOL    HW226859   4.078   0.459   6.955  2.1118  0.3855 -1.7660
 5075SOL     OW26860   1.731   1.926   7.046 -0.2675  0.0015 -0.2434
 5075SOL    HW126861   1.795   1.994   7.025  0.4187 -0.6523 -0.2602
 5075SOL    HW226862   1.731   1.927   7.141  1.8039 -0.4278 -0.2378
 5076SOL     OW26863   3.146   1.668  17.731  0.2184  0.2357  0.2120
 5076SOL    HW126864   3.066   1.650  17.681  0.2765  3.3744 -1.0561
 5076SOL    HW226865   3.108   1.705   0.062 -1.1421  0.9906 -0.7708
 5077SOL     OW26866   0.809   2.625   2.073  0.7099 -0.6800 -0.4998
 5077SOL    HW126867   0.743   2.642   2.141 -2.5937 -0.4217 -3.7816
 5077SOL    HW226868   0.809   2.530   2.069 -0.9988 -0.6711 -0.8611
 5078SOL     OW26869   1.466   2.805   1.251 -0.0786  0.3879 -0.3278
 5078SOL    HW126870   1.396   2.756   1.295 -0.4867  2.3411  1.1948
 5078SOL    HW226871   1.546   2.774   1.292 -0.4138 -0.2625 -0.1606
 5079SOL     OW26872   4.225   2.030   0.118  0.1583  0.1188  0.2838
 5079SOL    HW126873   4.269   2.071   0.043  1.1595  1.3962  1.5744
 5079SOL    HW226874   4.157   2.089   0.150  1.8411  1.0714  2.0838
 5080SOL     OW26875   2.587   3.742   2.561 -0.3772 -0.1259 -0.2061
 5080SOL    HW126876   2.571   3.665   2.616  0.9679 -0.7681 -0.7068
 5080SOL    HW226877   2.498   3.763   2.533  0.3281  2.3360 -0.5708
 5081SOL     OW26878   4.134   2.511   8.672  0.0184 -0.1612 -0.0459
 5081SOL    HW126879   4.218   2.555   8.665 -0.9080  1.7931  1.1205
 5081SOL    HW226880   4.130   2.490   8.765 -2.1115  2.3168  0.4235
 5082SOL     OW26881   3.325   4.523   5.472 -0.0359 -0.1307 -0.0659
 5082SOL    HW126882   3.395   4.587   5.463  1.6928 -1.9845  0.2408
 5082SOL    HW226883   3.360   4.447   5.426  1.8227 -0.1912  1.4361
 5083SOL     OW26884   2.024   2.820  13.329 -0.8091  0.3260 -0.3715
 5083SOL    HW126885   2.087   2.782  13.391 -1.7861  0.7785  0.8954
 5083SOL    HW226886   2.077   2.821  13.249  1.2706 -0.5427  0.9938
 5084SOL     OW26887   1.254   1.740  16.428 -0.1386  0.2884  0.2981
 5084SOL    HW126888   1.206   1.664  16.461  2.3183 -0.4646  2.1508
 5084SOL    HW226889   1.221   1.812  16.482 -2.8301  1.8132 -3.4189
 5085SOL     OW26890   2.428   1.172   3.542 -0.4241  0.1140  0.2091
 5085SOL    HW126891   2.342   1.202   3.511 -0.1830 -0.8157 -1.3769
 5085SOL    HW226892   2.436   1.082   3.510 -0.6547  0.0199  0.4140
 5086SOL     OW26893   0.403   4.285  15.177 -0.0906 -0.4041  0.0152
 5086SOL    HW126894   0.318   4.277  15.220 -0.7812  0.6396 -1.1800
 5086SOL    HW226895   0.381   4.352  15.113 -1.9112 -0.8187  0.2112
 5087SOL     OW26896   2.593   3.213   6.530 -0.3801  0.4525 -0.2059
 5087SOL    HW126897   2.669   3.271   6.528  0.2148 -0.1962  3.1047
 5087SOL    HW226898   2.614   3.158   6.455 -0.2651  0.7488 -0.3936
 5088SOL     OW26899   1.164   2.504  16.507 -0.4949 -0.0316 -0.0285
 5088SOL    HW126900   1.180   2.561  16.432  1.6664 -0.8708 -0.1908
 5088SOL    HW226901   1.125   2.567  16.568 -0.3716 -0.4775  0.5131
 5089SOL     OW26902   3.619   0.435   2.984  0.0601  0.0683 -0.2330
 5089SOL    HW126903   3.578   0.392   2.909  2.2209 -1.0530 -0.7697
 5089SOL    HW226904   3.559   0.510   2.990  0.0296 -0.0169  0.6149
 5090SOL     OW26905   3.690   2.258  11.327  0.3569  0.2732  0.1060
 5090SOL    HW126906   3.740   2.326  11.372  2.0495 -0.7070 -0.2985
 5090SOL    HW226907   3.733   2.271  11.242  0.4838  1.2664  0.3234
 5091SOL     OW26908   0.693   1.016   4.579  0.4830  0.0876 -0.4375
 5091SOL    HW126909   0.686   1.107   4.606 -3.0519 -0.2538 -0.2311
 5091SOL    HW226910   0.710   0.974   4.663 -2.4374  0.1711  0.1981
 5092SOL     OW26911   2.029   4.648   3.447  0.5326 -0.7352 -0.1770
 5092SOL    HW126912   1.944   4.690   3.431  1.9108  1.7179 -0.9345
 5092SOL    HW226913   2.077   4.677   3.370  1.1857 -1.4377 -0.0265
 5093SOL     OW26914   2.576   4.424   7.097  0.3630 -0.1269 -0.4038
 5093SOL    HW126915   2.551   4.436   7.005  0.6348  0.8865 -0.3493
 5093SOL    HW226916   2.636   4.499   7.106  1.3424 -0.6879 -2.2837
 5094SOL     OW26917   2.275   2.561   2.079 -0.1773 -0.1952  0.3464
 5094SOL    HW126918   2.199   2.508   2.054 -0.5591  0.4052  0.2525
 5094SOL    HW226919   2.295   2.526   2.166  1.4203 -0.5659 -0.1637
 5095SOL     OW26920   0.738   1.967  12.439  0.2066  0.0991 -0.4141
 5095SOL    HW126921   0.756   2.004  12.353  0.6274 -0.1434 -0.4307
 5095SOL    HW226922   0.816   1.914  12.451  0.8105  0.7453 -1.4643
 5096SOL     OW26923   3.120   0.228   6.350  0.5712  1.0545 -0.2732
 5096SOL    HW126924   3.083   0.276   6.424 -1.5081 -1.8265  0.5615
 5096SOL    HW226925   3.203   0.275   6.352  1.4096 -0.5277  2.3726
 5097SOL     OW26926   0.829   0.585   4.216  0.4402  0.3336 -0.0982
 5097SOL    HW126927   0.866   0.506   4.255 -1.0998 -1.0690 -1.4599
 5097SOL    HW226928   0.897   0.653   4.215 -1.2217  2.0410  1.6973
 5098SOL     OW26929   4.069   2.554   1.658 -0.0598  0.0300 -0.3509
 5098SOL    HW126930   4.088   2.602   1.739  0.6238 -1.1815  0.2100
 5098SOL    HW226931   3.998   2.612   1.632 -0.3633 -0.8074 -1.4018
 5099SOL     OW26932   2.706   2.582   4.911  0.8498  0.1428  0.2715
 5099SOL    HW126933   2.756   2.649   4.957 -0.8858  2.7402 -1.6220
 5099SOL    HW226934   2.617   2.592   4.944  0.1750 -1.0912 -1.1554
 5100SOL     OW26935   1.201   0.927  16.116  0.3549 -0.0434 -0.5455
 5100SOL    HW126936   1.173   0.835  16.113  1.1707 -0.3282  0.4997
 5100SOL    HW226937   1.119   0.974  16.127  0.6110  0.3181 -0.1450
 5101SOL     OW26938   0.668   0.637  16.938  0.5876  0.0538  0.4309
 5101SOL    HW126939   0.658   0.558  16.884 -1.2148  1.7271 -1.6414
 5101SOL    HW226940   0.575   0.658  16.942  0.4179 -0.8331  1.3362
 5102SOL     OW26941   3.476   4.408   5.181 -0.0151  0.1080 -0.1168
 5102SOL    HW126942   3.568   4.436   5.179 -0.0745  0.3269  0.1631
 5102SOL    HW226943   3.479   4.344   5.252 -0.1162  2.7398  2.2586
 5103SOL     OW26944   1.070   0.090   5.248  0.0761 -0.3856 -0.0617
 5103SOL    HW126945   1.128   0.112   5.175  0.8744  0.3468  0.7863
 5103SOL    HW226946   1.091   0.167   5.301  1.6206  0.5077 -1.9550
 5104SOL     OW26947   0.540   3.829   2.647 -0.4635 -0.3994  0.2131
 5104SOL    HW126948   0.553   3.752   2.701 -0.2444 -2.1596 -2.3417
 5104SOL    HW226949   0.595   3.826   2.569 -0.4336  0.3603  0.1989
 5105SOL     OW26950   2.325   0.787   1.825  0.0896 -0.0334 -0.1573
 5105SOL    HW126951   2.234   0.787   1.796  0.3948 -1.0046 -1.1366
 5105SOL    HW226952   2.317   0.820   1.914  1.2613  0.9255 -0.3999
 5106SOL     OW26953   0.023   2.222  15.267  0.3565  0.3215 -0.1140
 5106SOL    HW126954   4.732   2.270  15.345 -0.3916  0.9066 -0.7561
 5106SOL    HW226955   4.683   2.219  15.212  0.3796  0.5772 -0.1600
 5107SOL     OW26956   0.029   0.885   8.364  0.0093 -0.2937 -0.1856
 5107SOL    HW126957   4.712   0.958   8.394  2.1057  1.5562 -0.7957
 5107SOL    HW226958   4.700   0.817   8.364 -0.8371  0.5549 -2.3058
 5108SOL     OW26959   1.929   3.605   4.247 -0.1264 -0.4120 -0.4752
 5108SOL    HW126960   1.912   3.515   4.218  0.6350 -0.8338  0.3930
 5108SOL    HW226961   1.868   3.646   4.185  0.2916 -0.8546 -1.1724
 5109SOL     OW26962   2.696   0.371   3.564  0.9431 -0.2022 -0.2847
 5109SOL    HW126963   2.696   0.354   3.470  0.8976  0.3284 -0.3829
 5109SOL    HW226964   2.789   0.390   3.575  0.6991  0.3033  0.9552
 5110SOL     OW26965   4.572   4.211   9.739 -0.2183  0.2942 -0.4350
 5110SOL    HW126966   4.645   4.175   9.688  1.1009 -0.9404  2.3257
 5110SOL    HW226967   4.602   4.215   9.830  0.7501 -1.1663 -0.6777
 5111SOL     OW26968   1.337   3.715  15.002 -0.5811  0.5653 -0.5568
 5111SOL    HW126969   1.274   3.671  14.945 -0.0731  0.3488 -0.9402
 5111SOL    HW226970   1.331   3.808  14.980  1.3891  0.9566  0.5629
 5112SOL     OW26971   1.384   3.656   4.014  0.1529 -0.4077 -0.1808
 5112SOL    HW126972   1.289   3.654   4.008  0.1268 -1.0804  0.4051
 5112SOL    HW226973   1.386   3.749   3.994  0.8543 -0.4273 -0.2019
 5113SOL     OW26974   0.944   1.905   7.707 -1.1549 -1.1888 -0.3866
 5113SOL    HW126975   0.981   1.819   7.730  0.4722 -0.0682  1.1732
 5113SOL    HW226976   0.901   1.926   7.790  2.9966 -1.5510  1.8500
 5114SOL     OW26977   0.690   2.574   7.379  0.0736  0.8890  0.0763
 5114SOL    HW126978   0.657   2.576   7.289 -0.2222 -0.5387  0.1501
 5114SOL    HW226979   0.614   2.610   7.424  0.4825 -0.0726  1.5304
 5115SOL     OW26980   3.223   0.423   3.919 -0.1563  0.2205  0.5035
 5115SOL    HW126981   3.159   0.367   3.963 -1.0529  0.3791 -0.6040
 5115SOL    HW226982   3.283   0.355   3.890 -1.7536 -1.3464  0.8811
 5116SOL     OW26983   2.717   4.199   5.363 -0.5673 -0.3670 -0.0706
 5116SOL    HW126984   2.660   4.234   5.431  0.7012 -0.4942  1.0468
 5116SOL    HW226985   2.783   4.268   5.356  0.4248 -1.1512  1.4978
 5117SOL     OW26986   1.292   0.688   3.112  0.3023  0.2265 -0.5989
 5117SOL    HW126987   1.313   0.678   3.019 -0.8237 -1.4894 -0.6809
 5117SOL    HW226988   1.252   0.775   3.106  1.3923  0.7266 -0.5483
 5118SOL     OW26989   0.670   3.030   5.850 -0.3112  0.4501  0.3235
 5118SOL    HW126990   0.754   3.030   5.805 -0.5785 -1.3837 -0.1514
 5118SOL    HW226991   0.609   3.034   5.777 -0.5323  0.6385  0.5170
 5119SOL     OW26992   0.225   0.423  16.091 -0.0975 -0.2587  0.1276
 5119SOL    HW126993   0.198   0.465  16.009  1.3229 -0.2594 -0.3443
 5119SOL    HW226994   0.320   0.410  16.083  0.0727  1.3842 -0.4921
 5120SOL     OW26995   0.448   0.007   9.335 -0.4530 -0.5176 -0.1855
 5120SOL    HW126996   0.374   0.044   9.383  0.3837  0.2330  0.5260
 5120SOL    HW226997   0.513   0.014   9.405  0.0725 -1.1082 -0.6133
 5121SOL     OW26998   2.918   4.713   7.579  0.1836 -1.3218 -0.0831
 5121SOL    HW126999   2.961   0.050   7.538 -2.0961  0.0543  0.0698
 5121SOL    HW227000   2.867   4.677   7.506 -3.1171  0.7157  1.2486
 5122SOL     OW27001   0.387   0.773   8.657  0.1108 -0.6429  0.2047
 5122SOL    HW127002   0.366   0.769   8.750 -2.2329 -3.2616 -0.4713
 5122SOL    HW227003   0.483   0.765   8.662  0.1112 -1.7103 -1.4491
 5123SOL     OW27004   1.385   0.886   7.584 -0.2930  0.2053  0.5136
 5123SOL    HW127005   1.366   0.826   7.656 -0.9442  1.3352  1.2669
 5123SOL    HW227006   1.434   0.957   7.625 -0.2212  1.0528 -1.0213
 5124SOL     OW27007   4.312   2.775   2.112 -0.4688 -0.0584 -0.2964
 5124SOL    HW127008   4.370   2.699   2.104 -1.1291 -0.3675 -2.1369
 5124SOL    HW227009   4.284   2.771   2.204  2.0275 -2.4145  0.3503
 5125SOL     OW27010   2.026   0.196   2.505  0.5634  0.0708 -0.0198
 5125SOL    HW127011   2.074   0.126   2.549  0.9026 -1.5227 -2.9053
 5125SOL    HW227012   1.997   0.258   2.572 -1.6659 -2.7744  1.6655
 5126SOL     OW27013   2.048   1.624  13.713  0.2672  0.2323  0.3650
 5126SOL    HW127014   1.998   1.547  13.741  1.9445 -1.3516 -0.9932
 5126SOL    HW227015   2.074   1.607  13.623  2.9599  1.7452  0.8491
 5127SOL     OW27016   0.808   2.103   1.748 -0.2839  0.3685 -0.3611
 5127SOL    HW127017   0.748   2.035   1.778  0.0548 -0.1714 -0.9266
 5127SOL    HW227018   0.848   2.054   1.677  1.8511  0.6989  0.6253
 5128SOL     OW27019   0.807   4.553   2.584 -0.0949 -0.2294  0.1757
 5128SOL    HW127020   0.808   4.459   2.603 -1.4330 -0.1102  0.8318
 5128SOL    HW227021   0.841   4.567   2.495 -2.0118 -1.9783 -0.8303
 5129SOL     OW27022   2.978   4.458   8.180  0.3240 -0.2098 -0.4346
 5129SOL    HW127023   2.992   4.512   8.257 -1.8481 -1.4827  0.8630
 5129SOL    HW227024   3.068   4.446   8.151  0.9486  2.1103  0.5533
 5130SOL     OW27025   3.724   1.247  15.064  0.0354 -0.0173  0.1129
 5130SOL    HW127026   3.708   1.174  15.004 -0.5160 -0.8195  1.2129
 5130SOL    HW227027   3.752   1.317  15.007 -1.2466  0.0727 -0.4055
 5131SOL     OW27028   1.022   2.566  15.936  0.1319  0.0820 -0.2693
 5131SOL    HW127029   0.938   2.608  15.954  0.2632  0.6171 -0.9091
 5131SOL    HW227030   1.090   2.611  15.986 -0.3680  0.1435  0.3537
 5132SOL     OW27031   2.158   3.088  10.870 -0.0314  0.3304 -0.6030
 5132SOL    HW127032   2.095   3.135  10.924  0.2154  1.5582 -1.3909
 5132SOL    HW227033   2.145   2.995  10.888  3.3782  0.1744  1.0440
 5133SOL     OW27034   1.411   2.001   4.215 -0.3036  0.6740  0.5530
 5133SOL    HW127035   1.350   2.047   4.274 -0.7131 -0.7017  1.2103
 5133SOL    HW227036   1.398   1.913   4.250  0.7028  1.1120  2.0303
 5134SOL     OW27037   0.453   3.871  10.190  0.2799  0.2252  0.5353
 5134SOL    HW127038   0.389   3.809  10.224  0.6037 -0.4535 -0.0807
 5134SOL    HW227039   0.487   3.826  10.112  1.7747  0.7879  0.8514
 5135SOL     OW27040   4.389   1.616   4.567  0.2935  0.2296  0.0289
 5135SOL    HW127041   4.442   1.695   4.561  0.2786  0.4222  2.1012
 5135SOL    HW227042   4.454   1.567   4.517 -0.8825 -1.0019 -0.3241
 5136SOL     OW27043   0.425   4.418   2.813 -0.1605  0.3027 -0.0905
 5136SOL    HW127044   0.358   4.359   2.847  0.2419  0.2335  0.5842
 5136SOL    HW227045   0.488   4.355   2.778 -1.9876 -1.1042 -0.8399
 5137SOL     OW27046   3.038   1.503   7.796 -0.2017 -0.5500 -0.0083
 5137SOL    HW127047   3.016   1.550   7.716  0.0985 -0.3896  0.0028
 5137SOL    HW227048   3.012   1.569   7.860  2.1569  0.1431  0.2503
 5138SOL     OW27049   3.175   2.370   3.190 -0.1082  0.0074 -0.5762
 5138SOL    HW127050   3.122   2.420   3.252  2.2450  1.0419  0.5929
 5138SOL    HW227051   3.218   2.440   3.141 -0.6690 -0.5024 -1.8020
 5139SOL     OW27052   1.112   2.393   1.565  0.0382 -0.2261 -0.1703
 5139SOL    HW127053   1.104   2.455   1.493 -0.7956  0.7143  0.7493
 5139SOL    HW227054   1.041   2.401   1.628  0.6891  0.0027  0.5370
 5140SOL     OW27055   4.299   2.723   6.479  0.5347  0.6241 -0.1389
 5140SOL    HW127056   4.348   2.756   6.404  2.3432  0.6500  1.0660
 5140SOL    HW227057   4.274   2.808   6.515 -1.6282 -0.5378  1.0963
 5141SOL     OW27058   0.490   2.226  15.174 -0.3637  0.5035  0.0368
 5141SOL    HW127059   0.478   2.303  15.119 -2.0035  0.3434  0.1758
 5141SOL    HW227060   0.540   2.166  15.118  0.8155  1.1684  0.3842
 5142SOL     OW27061   4.484   1.382  11.616 -0.4703 -0.0252  0.0689
 5142SOL    HW127062   4.518   1.292  11.614  0.0162  0.1384  0.9830
 5142SOL    HW227063   4.433   1.367  11.696 -2.3685  1.2202 -0.8914
 5143SOL     OW27064   1.903   0.821   6.972 -0.7513  0.2377  0.0269
 5143SOL    HW127065   1.843   0.879   7.018 -1.8539  0.8102 -2.1639
 5143SOL    HW227066   1.936   0.882   6.906  0.6431  0.6171  1.0667
 5144SOL     OW27067   0.484   1.391   3.061 -0.0109 -0.2665 -0.3341
 5144SOL    HW127068   0.425   1.389   2.985 -1.5979 -1.3512  0.9423
 5144SOL    HW227069   0.447   1.468   3.105  0.8181  0.4011 -0.7964
 5145SOL     OW27070   1.131   4.060   8.983 -1.1242  0.7623  0.1816
 5145SOL    HW127071   1.143   4.007   9.062 -2.1047  0.2830  0.0072
 5145SOL    HW227072   1.120   4.146   9.023 -0.6096  0.9580 -0.0987
 5146SOL     OW27073   3.960   1.683   1.574  0.0461  0.9388 -0.5734
 5146SOL    HW127074   4.027   1.750   1.561  0.3986  0.8494  0.6993
 5146SOL    HW227075   3.958   1.675   1.670 -1.1457  0.9735 -0.5937
 5147SOL     OW27076   1.033   0.636   3.740  1.0571  0.0382  0.0454
 5147SOL    HW127077   0.949   0.637   3.786  0.3862  1.5636 -1.2389
 5147SOL    HW227078   1.019   0.576   3.667  2.3193  1.5023 -1.4043
 5148SOL     OW27079   2.885   2.568   7.722  0.4953  0.5694 -0.2296
 5148SOL    HW127080   2.877   2.501   7.790  0.5915 -0.4254 -1.1892
 5148SOL    HW227081   2.818   2.629   7.753  0.1508 -0.0637  0.2737
 5149SOL     OW27082   0.946   0.589   7.303 -0.0004  0.2362 -0.4458
 5149SOL    HW127083   0.864   0.542   7.314  0.1657 -0.1037 -0.6554
 5149SOL    HW227084   1.000   0.548   7.371 -0.3952 -2.8038 -1.9485
 5150SOL     OW27085   0.244   1.033   8.528 -0.4744 -0.5547 -0.0681
 5150SOL    HW127086   0.326   1.017   8.575 -1.1005 -0.9678  0.8754
 5150SOL    HW227087   0.270   1.044   8.437  1.9302  0.7127  0.7589
 5151SOL     OW27088   1.736   1.922   8.228  0.3701 -0.0258 -0.4320
 5151SOL    HW127089   1.642   1.903   8.216 -0.2799  2.8762  0.1959
 5151SOL    HW227090   1.761   1.954   8.141 -1.9897  1.3695 -0.6094
 5152SOL     OW27091   4.094   0.788   7.067 -0.4898  0.0311  0.2668
 5152SOL    HW127092   4.061   0.851   7.131  1.4881  1.5293 -0.1983
 5152SOL    HW227093   4.095   0.708   7.120 -3.7773 -0.9581 -1.1145
 5153SOL     OW27094   1.474   1.876   1.426 -0.0858 -0.0502  0.6722
 5153SOL    HW127095   1.400   1.862   1.366  1.6018  1.1968 -1.7042
 5153SOL    HW227096   1.423   1.857   1.505 -0.0296 -0.7291  0.5438
 5154SOL     OW27097   2.591   2.234  11.536 -0.1558  0.6491 -0.0633
 5154SOL    HW127098   2.607   2.255  11.628  0.7741  1.7858 -0.4881
 5154SOL    HW227099   2.671   2.194  11.503 -0.3576  0.5434 -0.4274
 5155SOL     OW27100   0.019   0.378   4.764 -0.6521 -0.3019  0.1733
 5155SOL    HW127101   0.088   0.323   4.727  0.0526  0.9892 -0.4250
 5155SOL    HW227102   0.053   0.384   4.853  0.3453 -0.4452 -0.1948
 5156SOL     OW27103   1.879   2.541  16.381  0.2987  0.1145  0.5719
 5156SOL    HW127104   1.883   2.559  16.287  1.0792 -2.0737  0.1811
 5156SOL    HW227105   1.970   2.513  16.393  0.3190  0.7300  1.8619
 5157SOL     OW27106   2.481   1.606  13.806  0.4829  0.6660 -0.4976
 5157SOL    HW127107   2.566   1.621  13.848  0.2747 -1.0573  0.5571
 5157SOL    HW227108   2.431   1.596  13.887  2.1090 -2.5388  0.1604
 5158SOL     OW27109   1.296   3.211   6.001 -0.4027 -0.2168 -0.0694
 5158SOL    HW127110   1.298   3.305   6.018 -0.6072 -0.2659  0.2393
 5158SOL    HW227111   1.363   3.195   6.068 -1.9067 -1.0159  1.2534
 5159SOL     OW27112   2.402   4.385   2.428 -0.2001  0.5179 -0.2537
 5159SOL    HW127113   2.362   4.471   2.421 -1.2344 -0.0844 -1.7147
 5159SOL    HW227114   2.363   4.362   2.513  0.1405  1.2189  0.0955
 5160SOL     OW27115   3.343   3.387  16.474 -0.2783 -0.5182  0.4576
 5160SOL    HW127116   3.355   3.297  16.505  0.7916 -0.7365 -0.6099
 5160SOL    HW227117   3.290   3.420  16.546 -0.1891  0.6625 -0.0268
 5161SOL     OW27118   3.432   1.952  10.111  0.4681  0.1066  0.1176
 5161SOL    HW127119   3.408   1.860  10.098 -0.6719  0.5169 -0.6306
 5161SOL    HW227120   3.439   1.948  10.206 -2.2939 -0.3777  0.2921
 5162SOL     OW27121   1.722   0.305   4.389  0.1729  0.2032  0.3813
 5162SOL    HW127122   1.643   0.278   4.437  0.0143  1.2471  0.6974
 5162SOL    HW227123   1.789   0.268   4.447  2.0005  3.3015  0.2421
 5163SOL     OW27124   4.726   3.399   6.544  0.6154  0.3571 -0.3943
 5163SOL    HW127125   4.708   3.457   6.471 -1.8293  1.0278  0.7335
 5163SOL    HW227126   0.032   3.460   6.603  0.2042  1.1129 -0.8709
 5164SOL     OW27127   2.240   4.028  10.979 -0.2891 -0.2762  0.2140
 5164SOL    HW127128   2.225   3.994  11.067 -0.1045 -0.9885 -0.0289
 5164SOL    HW227129   2.274   4.116  10.998 -1.4685 -0.0240  1.1207
 5165SOL     OW27130   3.650   3.382   2.528  0.1419  0.0402  0.5006
 5165SOL    HW127131   3.729   3.328   2.531  0.2741  0.0632 -2.4974
 5165SOL    HW227132   3.679   3.463   2.487  1.2156 -1.3725 -1.4985
 5166SOL     OW27133   4.670   0.209   3.626 -0.0791  0.4230 -0.1060
 5166SOL    HW127134   4.585   0.222   3.584 -0.2481  0.5998  0.2964
 5166SOL    HW227135   0.002   0.228   3.563 -0.0939  2.3998  0.4718
 5167SOL     OW27136   2.906   1.033   7.207  0.0295  0.7632 -0.3489
 5167SOL    HW127137   2.838   1.084   7.162  0.7332  1.6378 -0.4224
 5167SOL    HW227138   2.871   1.024   7.296 -0.5369  2.8891 -0.3588
 5168SOL     OW27139   0.363   3.931   9.851 -0.3640 -0.1014  0.1275
 5168SOL    HW127140   0.453   3.946   9.882 -1.0015 -1.4402  2.6197
 5168SOL    HW227141   0.336   4.023   9.853 -0.1121  0.0350 -2.8524
 5169SOL     OW27142   1.859   0.652   7.313  0.5041  0.4529  0.2534
 5169SOL    HW127143   1.862   0.741   7.278  2.0142 -0.2164 -1.3812
 5169SOL    HW227144   1.768   0.659   7.341 -0.4837 -1.1191 -2.4694
 5170SOL     OW27145   4.696   2.200   9.251 -0.4472  0.0584  0.6257
 5170SOL    HW127146   4.658   2.126   9.299  1.0385 -1.8832 -1.2139
 5170SOL    HW227147   4.724   2.264   9.316 -0.0843 -0.4517  0.9779
 5171SOL     OW27148   0.636   1.346   8.176  0.0753 -0.2142 -0.2419
 5171SOL    HW127149   0.568   1.293   8.135  0.6731 -0.5694 -0.7881
 5171SOL    HW227150   0.702   1.351   8.106  0.2279  0.8461 -0.0327
 5172SOL     OW27151   0.131   4.586   4.878  0.1870 -0.0274  0.5649
 5172SOL    HW127152   0.145   4.496   4.906  0.3064 -0.5508 -1.1746
 5172SOL    HW227153   0.062   4.612   4.938  1.1645  0.6243  1.4127
 5173SOL     OW27154   0.839   3.925  10.289 -0.5347  1.6083 -0.2018
 5173SOL    HW127155   0.837   3.842  10.338  2.8941  0.4060 -2.1303
 5173SOL    HW227156   0.843   3.896  10.198 -2.9427 -0.8992  0.4678
 5174SOL     OW27157   3.353   2.130   8.349 -0.0703 -0.0422  0.4866
 5174SOL    HW127158   3.302   2.147   8.428 -0.2074 -2.1808  0.8745
 5174SOL    HW227159   3.308   2.063   8.297  0.7453  1.4358 -2.1086
 5175SOL     OW27160   2.727   2.768  17.035  0.4372 -0.5279 -0.6292
 5175SOL    HW127161   2.696   2.740  17.121  0.2606  2.9782  0.4724
 5175SOL    HW227162   2.643   2.795  16.995  0.3860 -0.7779 -0.6886
 5176SOL     OW27163   3.817   2.299   8.479 -0.5855  0.4159 -0.5341
 5176SOL    HW127164   3.785   2.333   8.396  1.9354 -2.0380 -2.4950
 5176SOL    HW227165   3.891   2.247   8.447 -1.4603 -1.3061  0.2316
 5177SOL     OW27166   1.676   4.363   4.404 -0.6962  0.5242  0.4759
 5177SOL    HW127167   1.607   4.396   4.347 -0.8937 -1.5584 -0.4724
 5177SOL    HW227168   1.719   4.300   4.346  0.9623  1.5320  0.5952
 5178SOL     OW27169   3.464   1.784   5.903  0.1830  0.3952  0.5078
 5178SOL    HW127170   3.458   1.720   5.973 -0.1332  1.5024  1.4934
 5178SOL    HW227171   3.382   1.763   5.859 -0.8172 -2.4727  3.7603
 5179SOL     OW27172   1.341   1.880   1.671 -0.0301 -0.0826  0.2321
 5179SOL    HW127173   1.408   1.869   1.738  0.3111 -2.6999 -0.5410
 5179SOL    HW227174   1.316   1.964   1.708 -0.6289 -0.0491 -0.2505
 5180SOL     OW27175   0.131   4.738  15.013 -0.4489 -0.4168  0.2394
 5180SOL    HW127176   0.156   4.658  14.965  1.6269 -1.2288  2.7047
 5180SOL    HW227177   0.139   0.058  14.938 -1.1046  0.4766  0.8657
 5181SOL     OW27178   1.197   4.414   6.816 -0.3538 -0.9754  0.2396
 5181SOL    HW127179   1.275   4.425   6.870 -1.1838 -0.1851  1.2662
 5181SOL    HW227180   1.191   4.319   6.824  1.9217 -1.2587 -1.4587
 5182SOL     OW27181   4.696   1.433   3.048  0.0293  0.5180 -0.7865
 5182SOL    HW127182   0.045   1.400   3.025 -0.3327  0.5751 -2.2090
 5182SOL    HW227183   4.651   1.349   3.043 -0.5963  1.0037 -3.2658
 5183SOL     OW27184   0.177   2.506   1.873 -0.1140 -0.6191  0.5185
 5183SOL    HW127185   0.235   2.460   1.933  1.0236  3.4855  2.5791
 5183SOL    HW227186   0.212   2.473   1.790  1.0346  1.6213  0.1127
 5184SOL     OW27187   0.280   4.246   2.542  0.0555 -0.4054  0.3969
 5184SOL    HW127188   0.276   4.262   2.636  0.8288  0.8070  0.2246
 5184SOL    HW227189   0.374   4.234   2.532 -0.4862 -2.5534 -1.8922
 5185SOL     OW27190   3.043   1.692   3.643  0.5188  0.4143  0.1526
 5185SOL    HW127191   2.982   1.729   3.579  1.5024  1.2304 -0.3146
 5185SOL    HW227192   3.033   1.753   3.717  0.8541  1.6027 -0.7767
 5186SOL     OW27193   3.635   1.437   4.350  0.3179 -0.3129  0.2140
 5186SOL    HW127194   3.572   1.380   4.394  1.0182  0.4285  2.1644
 5186SOL    HW227195   3.713   1.381   4.348 -0.5987 -1.5582 -0.6816
 5187SOL     OW27196   4.679   4.102   9.153 -0.1290  0.2058  0.0082
 5187SOL    HW127197   0.027   4.141   9.162  0.6678 -0.8925 -2.8257
 5187SOL    HW227198   4.670   4.087   9.248 -1.7672  0.1081 -0.1598
 5188SOL     OW27199   1.028   0.499   8.587  0.4385  0.3780 -0.0398
 5188SOL    HW127200   1.110   0.494   8.637  0.4325  1.7383  0.0829
 5188SOL    HW227201   1.056   0.488   8.496 -0.9615 -0.0127 -0.4126
 5189SOL     OW27202   1.258   1.790   3.653  0.0854  0.0155  0.3423
 5189SOL    HW127203   1.344   1.818   3.621  0.1868  0.1425  0.7164
 5189SOL    HW227204   1.210   1.856   3.603 -1.4355 -0.6151  0.9580
 5190SOL     OW27205   3.916   1.987   6.209 -0.2376  0.4197  0.3227
 5190SOL    HW127206   3.941   2.063   6.262 -2.1761  0.7184  0.7947
 5190SOL    HW227207   3.912   1.914   6.271  2.4931  1.1187  1.3506
 5191SOL     OW27208   0.002   1.098   5.699  0.3322 -0.2388 -0.2255
 5191SOL    HW127209   0.040   1.186   5.705  2.1504 -0.9728 -0.9225
 5191SOL    HW227210   4.655   1.117   5.739  0.3773  1.3694 -0.8746
 5192SOL     OW27211   3.610   1.122   9.666  0.0889 -0.2651  0.1024
 5192SOL    HW127212   3.543   1.120   9.734 -2.1364 -2.1583 -2.1010
 5192SOL    HW227213   3.659   1.041   9.678 -0.1005 -0.4862 -0.5896
 5193SOL     OW27214   0.325   3.338   4.701  0.2727  0.6230  0.3814
 5193SOL    HW127215   0.356   3.381   4.621  2.3847  0.8470  1.3384
 5193SOL    HW227216   0.411   3.339   4.743 -0.5121 -0.9556  1.9960
 5194SOL     OW27217   4.368   2.437   1.917 -0.2612 -0.4418 -0.3264
 5194SOL    HW127218   4.453   2.463   1.882 -0.1482 -1.5808 -0.9242
 5194SOL    HW227219   4.359   2.346   1.888 -0.5312 -0.5087 -0.0275
 5195SOL     OW27220   2.403   3.145  14.901  0.0249  0.1598  0.0609
 5195SOL    HW127221   2.428   3.153  14.993 -1.2203 -1.4969  0.5296
 5195SOL    HW227222   2.478   3.179  14.850 -0.6303 -2.6134 -2.7484
 5196SOL     OW27223   2.394   1.515   7.912  0.3138  0.3728 -0.0907
 5196SOL    HW127224   2.411   1.428   7.876  4.4213  0.4862  1.5379
 5196SOL    HW227225   2.410   1.491   8.004  1.1795 -1.7579 -0.8095
 5197SOL     OW27226   2.060   1.050   6.823 -0.2753 -0.4010  0.8936
 5197SOL    HW127227   2.110   1.032   6.743  1.5518  0.7748  1.7768
 5197SOL    HW227228   2.133   1.057   6.885  0.8373  0.5132 -0.5325
 5198SOL     OW27229   0.479   1.606   2.756 -0.2812 -0.5204 -0.1777
 5198SOL    HW127230   0.497   1.665   2.829 -1.4528 -3.3593  2.3907
 5198SOL    HW227231   0.562   1.595   2.709  1.1150  2.4730  1.5486
 5199SOL     OW27232   1.663   0.007   6.582 -0.0596  0.0171 -0.5985
 5199SOL    HW127233   1.720   0.069   6.628 -0.8058  1.7520 -1.9919
 5199SOL    HW227234   1.658   0.056   6.500 -1.2539 -0.7933 -1.0038
 5200SOL     OW27235   1.625   1.606  14.008 -0.1905  0.1918 -0.1197
 5200SOL    HW127236   1.692   1.561  14.060  0.9567  1.2939 -0.6568
 5200SOL    HW227237   1.685   1.670  13.970  1.0705 -1.2474 -0.5369
 5201SOL     OW27238   3.762   1.937  17.444  0.3194  0.1391 -0.5860
 5201SOL    HW127239   3.754   1.891  17.528 -1.2392  1.5346  0.0516
 5201SOL    HW227240   3.803   1.867  17.395 -0.7162  0.1877 -1.5176
 5202SOL     OW27241   1.255   2.426  11.881  0.0709  0.1518 -0.2538
 5202SOL    HW127242   1.267   2.334  11.857  0.5492  0.4507 -1.1483
 5202SOL    HW227243   1.162   2.428  11.903  0.0348  0.2787 -0.4167
 5203SOL     OW27244   1.500   1.887   8.457 -0.6142 -0.1405 -0.1998
 5203SOL    HW127245   1.567   1.954   8.448 -0.6144  0.0773  1.3938
 5203SOL    HW227246   1.445   1.927   8.524  0.8638  0.5222  0.6148
 5204SOL     OW27247   2.630   2.016   1.500  0.5537  0.2005 -0.2367
 5204SOL    HW127248   2.548   1.972   1.519 -0.7708  2.3247 -1.0530
 5204SOL    HW227249   2.633   1.994   1.406  2.1504 -1.1701  0.1286
 5205SOL     OW27250   0.307   3.799   3.610  0.0240 -0.4522 -0.4633
 5205SOL    HW127251   0.261   3.880   3.630  0.9624  0.2241 -0.9970
 5205SOL    HW227252   0.265   3.773   3.528 -0.3615 -0.9614 -0.1018
 5206SOL     OW27253   0.080   0.856  16.397 -0.5956  0.3279  0.5959
 5206SOL    HW127254   0.032   0.914  16.339  1.8199  1.1225 -0.5889
 5206SOL    HW227255   0.096   0.780  16.341  0.5133  1.7604 -1.0476
 5207SOL     OW27256   1.492   1.448   3.012  1.0035  0.1043  0.2017
 5207SOL    HW127257   1.497   1.353   3.006 -1.3277  0.0256 -0.4468
 5207SOL    HW227258   1.402   1.464   3.038  0.3742  2.2961 -3.2878
 5208SOL     OW27259   1.635   1.816   9.317 -0.6293 -0.4709  0.3219
 5208SOL    HW127260   1.675   1.736   9.351  1.7645 -0.0137 -1.4249
 5208SOL    HW227261   1.706   1.850   9.263 -0.9548  3.2692  2.2811
 5209SOL     OW27262   4.589   3.121   9.322 -0.2498 -0.3074  0.0709
 5209SOL    HW127263   4.546   3.192   9.369  1.4226  0.2281  0.8019
 5209SOL    HW227264   4.672   3.115   9.370  0.8108  2.2823 -1.3758
 5210SOL     OW27265   1.715   3.419  10.456 -0.1411 -0.5680 -0.1961
 5210SOL    HW127266   1.766   3.340  10.473  0.4426 -0.2804 -0.6140
 5210SOL    HW227267   1.784   3.485  10.465 -0.8158  0.0561  0.3746
 5211SOL     OW27268   0.158   2.143   0.481 -0.1394  0.4640  0.2312
 5211SOL    HW127269   0.226   2.152   0.414  0.1739 -2.9306  0.0849
 5211SOL    HW227270   0.089   2.205   0.456 -2.0403 -1.8595 -0.2886
 5212SOL     OW27271   4.454   3.585   6.329  0.2879  0.2525  0.3313
 5212SOL    HW127272   4.469   3.559   6.238 -0.2475  2.1316 -0.2833
 5212SOL    HW227273   4.507   3.665   6.323  0.1217  0.3934  0.7722
 5213SOL     OW27274   3.312   1.953   0.746 -0.0612  0.3883  0.0740
 5213SOL    HW127275   3.232   1.977   0.792  0.2304  0.5370  0.5001
 5213SOL    HW227276   3.379   1.970   0.812  0.8456 -1.0494 -0.4738
 5214SOL     OW27277   0.852   2.973   7.002  0.2437  0.0847  0.1925
 5214SOL    HW127278   0.794   2.961   6.928  0.1119 -1.0282  0.4847
 5214SOL    HW227279   0.929   2.930   6.964  2.1282  2.1869  1.5628
 5215SOL     OW27280   3.653   0.807  10.763 -0.0270  0.3936  0.5917
 5215SOL    HW127281   3.706   0.874  10.806 -0.8395 -0.0663  2.3101
 5215SOL    HW227282   3.723   0.743  10.754  0.8208  1.4694 -0.5242
 5216SOL     OW27283   4.048   0.658   1.906 -0.1066 -0.0493  0.6977
 5216SOL    HW127284   4.095   0.685   1.986 -0.0835 -2.0989  1.3692
 5216SOL    HW227285   4.116   0.649   1.840  1.0693  2.0861  1.5949
 5217SOL     OW27286   2.351   1.135  16.389  0.4126 -0.1271 -0.1736
 5217SOL    HW127287   2.278   1.164  16.443  0.3911  0.5953 -0.5879
 5217SOL    HW227288   2.321   1.052  16.353 -1.2631  0.0545  0.7922
 5218SOL     OW27289   2.520   1.336   3.964 -0.1464  0.6809  0.2921
 5218SOL    HW127290   2.458   1.266   3.945  0.4883  0.3000 -0.3822
 5218SOL    HW227291   2.545   1.293   4.046  0.3861  0.8604  0.2247
 5219SOL     OW27292   2.813   3.775   3.990 -0.0322 -1.1988 -0.5759
 5219SOL    HW127293   2.817   3.863   3.951  1.6893 -0.5097  1.1499
 5219SOL    HW227294   2.837   3.725   3.912 -1.8887  0.1190 -2.0271
 5220SOL     OW27295   2.403   4.393   7.321 -0.0120 -0.1326 -0.1678
 5220SOL    HW127296   2.309   4.388   7.303 -0.2960  0.4714  1.1199
 5220SOL    HW227297   2.434   4.388   7.231 -3.0930 -0.0498 -1.2124
 5221SOL     OW27298   0.147   3.933  15.934  0.2323  0.4396 -0.7034
 5221SOL    HW127299   0.136   3.946  15.840  0.0724 -2.2277 -1.0611
 5221SOL    HW227300   0.240   3.950  15.949  0.2668  0.8653 -1.4185
 5222SOL     OW27301   4.216   1.816   6.950  0.6919 -0.2555 -0.1665
 5222SOL    HW127302   4.284   1.849   6.891 -0.3931  1.4233 -0.4685
 5222SOL    HW227303   4.162   1.895   6.953  3.5371  1.6318  1.5109
 5223SOL     OW27304   3.688   2.181  14.779  0.0308 -0.0997 -0.3785
 5223SOL    HW127305   3.613   2.221  14.823 -0.4184 -1.5413  0.1772
 5223SOL    HW227306   3.674   2.087  14.789  1.5755 -0.2510  0.4022
 5224SOL     OW27307   1.358   3.647  13.398 -0.0896 -0.1599 -0.2405
 5224SOL    HW127308   1.324   3.736  13.386 -2.7262 -1.0430  0.7519
 5224SOL    HW227309   1.409   3.623  13.320 -2.9566 -0.1819 -2.1270
 5225SOL     OW27310   2.823   1.535  14.939  0.5716  0.0226 -0.2393
 5225SOL    HW127311   2.856   1.515  14.852 -2.1190 -0.8471 -1.0718
 5225SOL    HW227312   2.801   1.451  14.981  0.5480 -0.2260 -0.7466
 5226SOL     OW27313   2.815   3.294   6.901  0.2287  0.0236 -0.5979
 5226SOL    HW127314   2.900   3.338   6.911  0.7245 -0.3934 -2.8157
 5226SOL    HW227315   2.840   3.209   6.863 -2.1213 -1.1121  0.4287
 5227SOL     OW27316   4.416   1.970  17.453  0.2395  0.2890  0.5497
 5227SOL    HW127317   4.375   1.885  17.473  1.2316 -0.0421  1.1946
 5227SOL    HW227318   4.459   1.992  17.535  0.0891 -2.0610  1.2763
 5228SOL     OW27319   0.938   3.250   1.287 -0.4351 -0.1923  0.0882
 5228SOL    HW127320   0.929   3.168   1.336  0.0476  0.3105  1.0380
 5228SOL    HW227321   0.869   3.245   1.222  0.7266 -1.3545 -1.0527
 5229SOL     OW27322   0.241   3.363   8.556  0.2443  0.1637 -0.1953
 5229SOL    HW127323   0.213   3.453   8.575 -2.6173 -0.4900 -1.3684
 5229SOL    HW227324   0.336   3.370   8.546  0.2557  0.5597  0.1815
 5230SOL     OW27325   2.741   0.153  10.595 -0.4309  0.5345  0.7839
 5230SOL    HW127326   2.771   0.066  10.569  0.7483  1.4165 -0.8163
 5230SOL    HW227327   2.827   0.185  10.621  1.6057 -0.8663 -4.2958
 5231SOL     OW27328   2.185   3.601   2.819 -1.1450  1.1685  0.2561
 5231SOL    HW127329   2.155   3.572   2.905  0.5206  1.5640  0.9629
 5231SOL    HW227330   2.137   3.531   2.774 -2.1679  1.9457  0.1484
 5232SOL     OW27331   1.803   2.297   5.249 -0.1203 -0.2492  0.2206
 5232SOL    HW127332   1.741   2.286   5.321 -0.8978  2.7850  0.0153
 5232SOL    HW227333   1.774   2.224   5.194  1.1181 -0.3521 -0.3006
 5233SOL     OW27334   3.095   0.678   2.124 -0.2322  0.2542 -0.5806
 5233SOL    HW127335   3.006   0.644   2.129 -0.3306  0.6083  0.0334
 5233SOL    HW227336   3.117   0.707   2.212  0.3358 -0.7124 -0.4097
 5234SOL     OW27337   0.582   0.924   6.991  0.2684  0.2569 -0.7624
 5234SOL    HW127338   0.495   0.947   7.024 -1.1729 -1.6695 -3.2708
 5234SOL    HW227339   0.589   0.829   7.005 -0.1976  0.4104  0.5362
 5235SOL     OW27340   2.169   1.108   9.747 -0.1147  0.0684  0.2268
 5235SOL    HW127341   2.213   1.190   9.766  0.0333 -0.6536  3.0758
 5235SOL    HW227342   2.228   1.047   9.791 -0.3239 -0.5337 -0.3230
 5236SOL     OW27343   2.650   0.332   1.593  0.0708 -0.1782 -0.3054
 5236SOL    HW127344   2.586   0.349   1.523 -0.7254 -1.0258  0.2216
 5236SOL    HW227345   2.728   0.367   1.551  0.9716  1.6232  2.8349
 5237SOL     OW27346   1.770   3.347   7.309  0.0848  0.4314 -0.0028
 5237SOL    HW127347   1.776   3.440   7.330 -2.4543  0.2536  1.4750
 5237SOL    HW227348   1.843   3.344   7.247  1.3491  0.0812  1.4878
 5238SOL     OW27349   0.427   3.252   2.606  0.1970  0.0745 -0.2832
 5238SOL    HW127350   0.338   3.218   2.609 -0.2490  1.3054  0.4594
 5238SOL    HW227351   0.446   3.220   2.518  1.0193 -1.7607  0.5643
 5239SOL     OW27352   2.402   0.915   1.530 -0.4744 -0.6893  0.0613
 5239SOL    HW127353   2.319   0.872   1.551  0.1445 -1.9155  0.0059
 5239SOL    HW227354   2.404   0.986   1.594  0.1934 -0.8084  0.1767
 5240SOL     OW27355   2.805   4.196   8.449 -0.2406  0.0114 -0.1499
 5240SOL    HW127356   2.878   4.213   8.390  0.2875 -1.0085  0.2239
 5240SOL    HW227357   2.826   4.106   8.473 -1.2092 -0.0751  0.3909
 5241SOL     OW27358   0.309   2.354   1.657  0.1365 -0.0071 -0.1955
 5241SOL    HW127359   0.340   2.366   1.567 -0.0360  1.8762 -0.0140
 5241SOL    HW227360   0.386   2.309   1.694  0.9190  0.4560 -1.2458
 5242SOL     OW27361   4.554   3.458   8.078  0.0076 -0.3787 -0.0603
 5242SOL    HW127362   4.575   3.389   8.140 -0.3635 -1.0813 -0.7209
 5242SOL    HW227363   4.476   3.429   8.031  0.5864 -0.7697 -0.7807
 5243SOL     OW27364   1.141   4.083   3.732  0.6461  0.2783  0.4538
 5243SOL    HW127365   1.217   4.090   3.675  0.5543 -0.5855  0.2202
 5243SOL    HW227366   1.148   4.162   3.785  2.4386 -0.4229  1.2542
 5244SOL     OW27367   4.085   1.595   5.012  0.1115  0.2732 -0.3977
 5244SOL    HW127368   4.132   1.599   4.929  1.9756 -0.0162  0.6517
 5244SOL    HW227369   4.014   1.532   4.998  1.0471 -1.0737  0.9112
 5245SOL     OW27370   2.517   3.308  12.852  0.5231 -0.1135 -0.6039
 5245SOL    HW127371   2.482   3.397  12.844  2.5823  0.7797  0.3560
 5245SOL    HW227372   2.448   3.272  12.908  0.2609 -1.9255 -2.0841
 5246SOL     OW27373   1.839   2.961  11.339  0.2337 -0.5798  0.2057
 5246SOL    HW127374   1.813   3.049  11.369  0.3702  0.4410 -2.6400
 5246SOL    HW227375   1.856   2.976  11.246 -0.9669 -0.1249  0.0519
 5247SOL     OW27376   3.492   0.812   4.043  0.2563 -0.2844  0.2490
 5247SOL    HW127377   3.482   0.903   4.014  0.8029 -0.2770  0.0911
 5247SOL    HW227378   3.426   0.821   4.112 -0.7580 -0.2764 -0.7243
 5248SOL     OW27379   0.379   1.846  10.447 -0.0206 -0.3018 -0.0549
 5248SOL    HW127380   0.328   1.927  10.445 -1.1655 -1.0052  0.7303
 5248SOL    HW227381   0.463   1.880  10.477  1.5476 -3.2631 -1.1069
 5249SOL     OW27382   4.209   4.452   6.053  0.3253 -0.4448  0.2834
 5249SOL    HW127383   4.158   4.415   5.982  0.9830 -0.6511 -0.0837
 5249SOL    HW227384   4.301   4.434   6.032  0.7570  3.0111 -0.8444
 5250SOL     OW27385   4.422   1.834   2.148  0.1859  0.3546 -0.1175
 5250SOL    HW127386   4.431   1.740   2.164 -0.9688  0.9738  4.1314
 5250SOL    HW227387   4.514   1.855   2.131  0.4624 -1.1029 -0.4056
 5251SOL     OW27388   0.220   4.615   6.798  0.1368  0.1171  0.0321
 5251SOL    HW127389   0.306   4.589   6.765 -0.5711 -0.9738 -0.9341
 5251SOL    HW227390   0.256   4.640   6.883 -1.5924  1.9024  0.2434
 5252SOL     OW27391   4.030   3.530   7.227 -0.8399 -0.0665  0.4415
 5252SOL    HW127392   3.964   3.593   7.199 -2.4302 -0.9652  2.1410
 5252SOL    HW227393   3.997   3.459   7.172  0.8045  1.6583 -2.7704
 5253SOL     OW27394   2.174   0.673   4.336  0.2720 -0.4207  0.3278
 5253SOL    HW127395   2.109   0.676   4.266  2.2690  0.4038 -1.5142
 5253SOL    HW227396   2.248   0.715   4.291  0.1465  0.0323  0.5444
 5254SOL     OW27397   1.483   4.063   8.350  0.8648  0.2165 -0.4440
 5254SOL    HW127398   1.438   4.030   8.273  0.3171 -1.4883  0.5980
 5254SOL    HW227399   1.419   4.118   8.395 -0.0844  1.1180 -2.9017
 5255SOL     OW27400   1.243   2.332  15.946  0.9945 -0.0743 -0.1986
 5255SOL    HW127401   1.281   2.412  15.983 -1.9603  1.2317  0.0971
 5255SOL    HW227402   1.298   2.268  15.991 -0.9483 -1.6698 -0.0984
 5256SOL     OW27403   2.827   4.315   5.917  0.0265 -0.1004 -0.3197
 5256SOL    HW127404   2.799   4.380   5.852 -2.3030  1.1049  1.9124
 5256SOL    HW227405   2.908   4.282   5.879 -0.5514  0.7573 -2.2992
 5257SOL     OW27406   0.474   2.845   8.564 -0.1586  0.3318 -0.3006
 5257SOL    HW127407   0.530   2.867   8.638 -1.3846  1.5472  0.2855
 5257SOL    HW227408   0.508   2.758   8.545 -1.6243 -0.5326  1.0405
 5258SOL     OW27409   2.106   3.733  11.873 -0.5812  0.4540  1.0109
 5258SOL    HW127410   2.027   3.680  11.866  0.1868 -0.9700  3.0186
 5258SOL    HW227411   2.110   3.757  11.966  0.1981 -0.2547  1.1623
 5259SOL     OW27412   0.858   3.179   9.097 -0.3247  0.6462 -0.2719
 5259SOL    HW127413   0.776   3.207   9.056 -0.0988  0.5188 -0.8125
 5259SOL    HW227414   0.906   3.260   9.116 -2.7605  2.2416 -1.0020
 5260SOL     OW27415   1.811   3.842  10.274  0.0693 -0.4311 -0.0036
 5260SOL    HW127416   1.869   3.879  10.341 -0.9359  0.6059  0.2854
 5260SOL    HW227417   1.869   3.832  10.198  0.9937 -1.1730  0.7942
 5261SOL     OW27418   2.673   3.700   5.018 -0.0723  0.5640  0.6360
 5261SOL    HW127419   2.735   3.753   5.069 -1.9607  2.1083  1.3133
 5261SOL    HW227420   2.619   3.668   5.090 -0.5471  0.5386  0.2638
 5262SOL     OW27421   0.833   2.956   0.429 -0.1905 -0.5336 -0.3593
 5262SOL    HW127422   0.822   3.025   0.493 -0.4073 -1.4599  0.6106
 5262SOL    HW227423   0.746   2.971   0.391 -0.6355 -2.6245 -0.1875
 5263SOL     OW27424   3.230   2.011   2.535 -0.2815  0.1974 -0.5956
 5263SOL    HW127425   3.194   2.100   2.539  0.4862  0.4043  1.5681
 5263SOL    HW227426   3.253   1.990   2.626  0.1482 -0.2027 -0.7957
 5264SOL     OW27427   1.140   1.783   9.141 -0.1033 -0.2293  0.3289
 5264SOL    HW127428   1.117   1.827   9.060  0.1270 -1.2047 -0.2747
 5264SOL    HW227429   1.227   1.745   9.128 -0.6949 -0.5222 -2.5900
 5265SOL     OW27430   2.880   1.848   1.413 -0.0832  0.1867 -0.1218
 5265SOL    HW127431   2.891   1.918   1.476 -2.3500  1.3712 -1.0180
 5265SOL    HW227432   2.788   1.855   1.387 -0.1777  1.4330  0.5602
 5266SOL     OW27433   2.803   3.716  13.106 -0.2670 -0.6857 -0.0077
 5266SOL    HW127434   2.793   3.627  13.073 -1.5495 -1.4032  2.2887
 5266SOL    HW227435   2.710   3.737  13.106 -0.5675 -2.0222  0.6966
 5267SOL     OW27436   0.895   1.633   8.275 -0.2271 -0.5114  0.0333
 5267SOL    HW127437   0.953   1.654   8.348 -2.0629 -1.0805  1.6748
 5267SOL    HW227438   0.953   1.652   8.201 -1.6721  0.1775 -0.9238
 5268SOL     OW27439   1.740   1.960  12.489  0.2101 -0.0016 -0.4775
 5268SOL    HW127440   1.709   2.040  12.533 -0.9882 -1.3066  1.0351
 5268SOL    HW227441   1.664   1.906  12.510 -1.7523  1.9307 -2.5740
 5269SOL     OW27442   2.829   2.755  12.889  0.1300  0.4403 -0.3091
 5269SOL    HW127443   2.745   2.741  12.846  1.0893 -0.6494 -1.8053
 5269SOL    HW227444   2.815   2.841  12.930  0.0487 -0.0554  0.7249
 5270SOL     OW27445   2.214   1.832  13.832  0.1058  0.5572  0.3283
 5270SOL    HW127446   2.163   1.751  13.836  1.9121 -0.5271  1.2310
 5270SOL    HW227447   2.253   1.819  13.746 -0.2353 -0.1329  0.2766
 5271SOL     OW27448   3.793   0.310  10.032 -0.5115  0.3642  0.1687
 5271SOL    HW127449   3.736   0.244   9.993  1.4327  0.1811 -2.3846
 5271SOL    HW227450   3.748   0.393  10.015  0.2844  1.0895  1.5706
 5272SOL     OW27451   1.381   0.638  13.409  0.0913 -0.6422  0.0025
 5272SOL    HW127452   1.450   0.699  13.435  0.8523 -0.9429 -1.3763
 5272SOL    HW227453   1.395   0.568  13.473 -2.3380 -0.4133  0.8165
 5273SOL     OW27454   4.150   1.208   0.490  0.3117 -0.5519  0.1542
 5273SOL    HW127455   4.150   1.147   0.416 -0.9386 -0.2829 -0.0807
 5273SOL    HW227456   4.095   1.280   0.460  3.3624  1.5492 -0.3805
 5274SOL     OW27457   2.456   2.624   5.078  0.0576 -0.3588 -0.0980
 5274SOL    HW127458   2.423   2.547   5.125 -1.3976  0.3975  0.1102
 5274SOL    HW227459   2.386   2.631   5.014  0.7070  0.9503 -0.6641
 5275SOL     OW27460   2.232   3.818   3.131 -0.0914  0.2033 -0.6166
 5275SOL    HW127461   2.238   3.823   3.036  0.1737  0.2977 -0.5936
 5275SOL    HW227462   2.299   3.880   3.159  0.5006 -0.2813 -0.9807
 5276SOL     OW27463   0.719   4.136   2.880 -0.1511  0.7260  0.0775
 5276SOL    HW127464   0.730   4.222   2.922 -1.8169  0.2508  1.4699
 5276SOL    HW227465   0.789   4.080   2.913 -1.6786 -1.7910 -1.0036
 5277SOL     OW27466   0.638   0.913   6.624 -0.8301  0.4042 -0.2328
 5277SOL    HW127467   0.656   0.952   6.709  1.8365 -0.9052 -0.1747
 5277SOL    HW227468   0.714   0.941   6.572 -0.4760  0.7542  0.4784
 5278SOL     OW27469   2.882   4.320   7.569 -0.2808 -0.2244 -0.3364
 5278SOL    HW127470   2.896   4.310   7.475 -0.1186  2.2202 -0.5717
 5278SOL    HW227471   2.950   4.385   7.583 -0.4377 -0.0845 -0.2224
 5279SOL     OW27472   2.539   4.288   5.551  0.1974 -0.1108 -0.4918
 5279SOL    HW127473   2.505   4.223   5.612  0.9192  0.8621  0.9608
 5279SOL    HW227474   2.563   4.362   5.607 -2.5351 -0.2921  0.8828
 5280SOL     OW27475   3.801   4.290   4.576 -0.7632 -0.0117  0.0802
 5280SOL    HW127476   3.781   4.352   4.507  0.1105 -0.2300 -0.3624
 5280SOL    HW227477   3.895   4.274   4.567 -0.3228  2.2235  0.7929
 5281SOL     OW27478   3.370   1.007  14.460 -0.1169 -0.8732  0.2015
 5281SOL    HW127479   3.356   1.015  14.554 -0.2889  0.1708  0.0875
 5281SOL    HW227480   3.458   1.042  14.450  0.2482 -1.4845  1.3377
 5282SOL     OW27481   0.651   3.743   2.978 -0.0533 -0.2042 -0.1323
 5282SOL    HW127482   0.677   3.659   2.941  0.0469 -0.4147  0.4109
 5282SOL    HW227483   0.686   3.746   3.067  0.5277  0.2512 -0.3784
 5283SOL     OW27484   0.254   1.004   5.624  0.2013  0.2999  0.8591
 5283SOL    HW127485   0.171   1.050   5.630  0.5673  0.8359  1.7378
 5283SOL    HW227486   0.313   1.077   5.604  1.3506 -0.8188  0.1184
 5284SOL     OW27487   4.192   1.230  11.100  0.2787 -0.9112  0.1353
 5284SOL    HW127488   4.257   1.175  11.057 -0.4873 -1.1235 -0.7584
 5284SOL    HW227489   4.226   1.244  11.189  0.6626 -0.0563 -0.1514
 5285SOL     OW27490   4.002   0.888   6.231 -0.0740  0.6214 -0.2676
 5285SOL    HW127491   4.044   0.813   6.190  1.0331  2.0305 -1.6725
 5285SOL    HW227492   4.031   0.888   6.322 -2.5778 -0.9555  0.5521
 5286SOL     OW27493   3.022   2.509   3.347 -0.5516  0.7978 -0.5411
 5286SOL    HW127494   3.029   2.604   3.357  0.0843  0.9370 -2.4479
 5286SOL    HW227495   3.067   2.481   3.427  0.4037 -2.8219 -2.3565
 5287SOL     OW27496   3.922   0.838   9.892  0.2884  0.0072 -0.1126
 5287SOL    HW127497   3.989   0.816   9.957  0.0795 -1.8399 -0.5130
 5287SOL    HW227498   3.930   0.764   9.831  0.6512  0.2968 -0.4166
 5288SOL     OW27499   0.717   1.273   4.669 -0.0313 -0.1913 -0.1104
 5288SOL    HW127500   0.776   1.260   4.744  1.1248  1.4536 -0.7129
 5288SOL    HW227501   0.772   1.322   4.608 -0.0902  0.9768  0.7724
 5289SOL     OW27502   0.192   3.391   3.715 -0.0958  0.0892 -0.1239
 5289SOL    HW127503   0.157   3.479   3.731  1.9774  0.6298  1.4060
 5289SOL    HW227504   0.159   3.375   3.627  0.5445  0.6390 -0.4570
 5290SOL     OW27505   4.235   3.007  17.656 -0.1860 -0.2412 -0.3292
 5290SOL    HW127506   4.181   2.981  17.731  0.5705  0.5545  0.4866
 5290SOL    HW227507   4.183   2.974  17.583 -2.0013  0.3411  0.6717
 5291SOL     OW27508   4.184   3.986   0.665  0.3288 -0.6343 -0.1089
 5291SOL    HW127509   4.135   4.041   0.727  0.8905  0.6853 -0.8359
 5291SOL    HW227510   4.111   3.946   0.618 -2.7011  2.1299  2.1959
 5292SOL     OW27511   1.664   2.875  16.498  0.6650  0.2212 -0.0967
 5292SOL    HW127512   1.582   2.916  16.525  0.6700 -0.8657  1.6055
 5292SOL    HW227513   1.691   2.853  16.587 -1.8745  1.4926  0.9895
 5293SOL     OW27514   0.233   0.201   7.286  0.8117 -0.0813 -0.3732
 5293SOL    HW127515   0.165   0.174   7.224  1.7168 -2.0865 -0.5120
 5293SOL    HW227516   0.206   0.162   7.369  0.9959 -1.5149 -0.9882
 5294SOL     OW27517   0.018   0.615   1.991 -0.5269 -0.1424  0.0805
 5294SOL    HW127518   0.064   0.545   1.945  1.1690  0.2189  1.2226
 5294SOL    HW227519   4.661   0.604   1.980 -0.6248  0.6515  0.1226
 5295SOL     OW27520   3.109   0.824   3.219 -0.4012  0.1927  0.4641
 5295SOL    HW127521   3.146   0.909   3.194  0.4876 -0.4801 -0.5377
 5295SOL    HW227522   3.029   0.858   3.259 -1.4604 -2.2693  0.4298
 5296SOL     OW27523   3.041   0.704  11.119 -0.0313  0.7579  0.2013
 5296SOL    HW127524   3.079   0.668  11.039 -1.3800 -0.7811  0.2456
 5296SOL    HW227525   2.999   0.785  11.088  1.3178  0.7576 -1.6344
 5297SOL     OW27526   2.605   0.409   1.062  0.5630 -0.6138 -0.5437
 5297SOL    HW127527   2.544   0.482   1.077  0.9380 -0.2662 -0.7001
 5297SOL    HW227528   2.681   0.465   1.046  0.9539 -0.9374  0.1975
 5298SOL     OW27529   4.199   3.036   1.155  0.3688 -0.5578 -0.8827
 5298SOL    HW127530   4.207   2.982   1.076  0.0193 -0.5414 -0.9299
 5298SOL    HW227531   4.284   3.080   1.163 -1.5770  3.2750 -0.9217
 5299SOL     OW27532   1.711   3.358  11.154  0.0189  0.1466 -0.2441
 5299SOL    HW127533   1.799   3.388  11.133 -0.2523 -0.4380 -2.2240
 5299SOL    HW227534   1.725   3.311  11.236 -0.4023  0.4848  0.0167
 5300SOL     OW27535   0.757   0.418   8.117  0.1607 -0.1324  0.0245
 5300SOL    HW127536   0.805   0.454   8.043  0.9148 -0.8701  0.1612
 5300SOL    HW227537   0.797   0.332   8.115  1.3848  0.3602  3.2290
 5301SOL     OW27538   4.257   2.821   5.082 -0.3722  0.1546  0.0897
 5301SOL    HW127539   4.234   2.728   5.089 -2.5004  0.7388  0.8385
 5301SOL    HW227540   4.268   2.835   5.176 -0.7324 -0.6442  0.2498
 5302SOL     OW27541   4.169   4.360   3.825 -0.7073 -0.3111  0.0109
 5302SOL    HW127542   4.255   4.319   3.831 -0.3406  0.6090  1.0046
 5302SOL    HW227543   4.180   4.411   3.905 -1.2656 -1.5521  0.8549
 5303SOL     OW27544   2.463   1.850   0.779  0.0449  0.0407  0.7342
 5303SOL    HW127545   2.421   1.786   0.722 -1.1445  2.6865 -1.3360
 5303SOL    HW227546   2.472   1.925   0.721 -0.9712  0.3146  0.9253
 5304SOL     OW27547   3.442   1.857   3.114  0.5308  0.2943 -0.1124
 5304SOL    HW127548   3.465   1.938   3.159  1.2946  0.5689 -0.9798
 5304SOL    HW227549   3.514   1.800   3.141 -0.8498 -0.7074  1.4565
 5305SOL     OW27550   3.771   1.060   9.903 -0.4448 -0.0911  0.6606
 5305SOL    HW127551   3.688   1.036   9.944 -2.2836  0.8871 -2.4477
 5305SOL    HW227552   3.830   0.985   9.904  0.1878  0.3974 -0.1374
 5306SOL     OW27553   0.935   0.144   7.827 -0.4938  0.1396  0.1727
 5306SOL    HW127554   0.958   0.216   7.769  0.8178 -0.1681  0.3046
 5306SOL    HW227555   0.846   0.176   7.843 -0.4862  0.9159 -1.3598
 5307SOL     OW27556   1.263   0.156  10.110  0.2661 -0.3555  0.0617
 5307SOL    HW127557   1.331   0.119  10.168  0.3630 -1.2600 -0.6269
 5307SOL    HW227558   1.186   0.155  10.166 -0.9166  1.0583 -1.5601
 5308SOL     OW27559   2.040   3.962   3.717 -0.2425 -0.3939 -0.1845
 5308SOL    HW127560   1.981   3.913   3.774 -2.3705  1.1748 -1.0679
 5308SOL    HW227561   2.039   3.901   3.644  1.1086 -0.8644  0.1852
 5309SOL     OW27562   1.278   3.986   2.819  0.8273 -0.1056  0.1634
 5309SOL    HW127563   1.323   3.905   2.844 -0.2416 -0.4714  0.8871
 5309SOL    HW227564   1.247   4.015   2.905  2.2056 -0.5364  0.8194
 5310SOL     OW27565   3.003   4.581   8.408 -0.4528 -0.2032 -0.0009
 5310SOL    HW127566   2.998   4.676   8.400  0.7690 -0.1359  0.0888
 5310SOL    HW227567   2.916   4.563   8.443 -1.1188 -0.7846 -1.9385
 5311SOL     OW27568   0.413   0.598   4.057 -0.1493 -0.4128 -0.9309
 5311SOL    HW127569   0.423   0.595   4.152  0.2055 -1.0641 -0.9928
 5311SOL    HW227570   0.327   0.556   4.056  0.5315 -1.8258  1.4144
 5312SOL     OW27571   0.470   2.076   9.371  0.5397 -0.4009  0.2907
 5312SOL    HW127572   0.391   2.117   9.336 -0.4363 -1.1131  1.6978
 5312SOL    HW227573   0.500   2.017   9.301 -0.7210  0.3721 -0.9058
 5313SOL     OW27574   3.850   2.588   5.104  0.1122  0.0544  0.6526
 5313SOL    HW127575   3.873   2.672   5.144  0.3867  0.8593 -1.2143
 5313SOL    HW227576   3.756   2.594   5.093  0.4316 -0.0080 -1.9973
 5314SOL     OW27577   0.833   0.269   2.652 -0.5469  0.4978  0.2325
 5314SOL    HW127578   0.824   0.269   2.747 -0.9035 -0.8406  0.2016
 5314SOL    HW227579   0.774   0.196   2.632 -0.2032  0.4390 -0.5612
 5315SOL     OW27580   3.752   1.900   3.441 -0.3357  0.3713  0.1977
 5315SOL    HW127581   3.778   1.970   3.381 -0.5442 -0.0128 -0.3532
 5315SOL    HW227582   3.673   1.876   3.392  0.4953 -2.1532  0.1034
 5316SOL     OW27583   0.505   1.190   8.006 -0.3702 -0.4050  0.0938
 5316SOL    HW127584   0.417   1.186   8.042 -1.1016 -0.1168 -1.6521
 5316SOL    HW227585   0.508   1.104   7.965 -1.0261 -0.6066  0.4735
 5317SOL     OW27586   4.130   0.794   4.655  0.0645  0.2593  0.1692
 5317SOL    HW127587   4.069   0.851   4.702  0.0632 -0.4894  1.0591
 5317SOL    HW227588   4.190   0.865   4.631  0.7062 -0.2604  0.2252
 5318SOL     OW27589   2.032   1.482   6.826  0.3858 -0.0519 -0.5680
 5318SOL    HW127590   2.054   1.572   6.849  1.6530 -0.5279  0.0972
 5318SOL    HW227591   2.042   1.438   6.910  0.8781  0.5800 -0.2961
 5319SOL     OW27592   1.952   4.383   4.950  0.3097 -0.2478 -0.0274
 5319SOL    HW127593   1.956   4.474   4.920 -4.0812 -0.4663 -1.2661
 5319SOL    HW227594   1.977   4.344   4.866 -0.5043 -0.7270 -0.0467
 5320SOL     OW27595   4.089   0.695   5.415 -0.1519 -0.0366  0.2285
 5320SOL    HW127596   4.127   0.729   5.497  3.1507 -0.2375 -1.2501
 5320SOL    HW227597   4.010   0.750   5.415 -0.1656 -0.0562 -0.1590
 5321SOL     OW27598   3.337   4.409   3.135 -0.1994 -0.1779 -0.3956
 5321SOL    HW127599   3.422   4.441   3.105 -1.2731  0.5614 -2.6581
 5321SOL    HW227600   3.344   4.398   3.230 -0.8480  2.1828 -0.0710
 5322SOL     OW27601   2.847   0.111   5.000 -0.4885 -0.2893  0.2682
 5322SOL    HW127602   2.784   0.145   5.063 -0.9901 -0.9595  0.1263
 5322SOL    HW227603   2.797   0.044   4.954 -1.2193  1.4449 -1.4292
 5323SOL     OW27604   3.453   1.193   8.963 -0.1692 -0.2829 -0.1620
 5323SOL    HW127605   3.513   1.259   8.928  0.4539 -0.3358  0.8118
 5323SOL    HW227606   3.508   1.116   8.976  1.0894  0.3595 -1.6423
 5324SOL     OW27607   3.737   0.591  15.069 -0.3631  0.5010  1.0364
 5324SOL    HW127608   3.802   0.650  15.030  0.5311 -2.9633 -2.8288
 5324SOL    HW227609   3.792   0.542  15.131 -1.0428 -1.4583  0.1071
 5325SOL     OW27610   2.745   4.037   5.966 -0.3751  0.8028  0.3313
 5325SOL    HW127611   2.669   4.060   6.020 -1.0517 -1.7827  0.4792
 5325SOL    HW227612   2.772   4.125   5.940  1.2766  0.1109 -0.2735
 5326SOL     OW27613   2.575   3.098  13.678 -0.1448  0.3891 -0.3486
 5326SOL    HW127614   2.603   3.135  13.762 -1.5089  3.3145 -1.1930
 5326SOL    HW227615   2.545   3.180  13.640  1.8045  0.9092 -0.7425
 5327SOL     OW27616   0.212   2.404   6.337  0.7004 -0.1689  0.0450
 5327SOL    HW127617   0.123   2.370   6.331  0.2027  1.4564 -1.9896
 5327SOL    HW227618   0.214   2.483   6.283 -1.0740  0.1986  0.4885
 5328SOL     OW27619   3.149   4.096   6.015  0.0483  0.4232  0.0536
 5328SOL    HW127620   3.234   4.125   6.047 -0.8428  2.1525  0.8888
 5328SOL    HW227621   3.108   4.084   6.101 -1.0982  2.5123 -0.1840
 5329SOL     OW27622   4.693   2.516   8.327 -0.0455  0.3566  0.1069
 5329SOL    HW127623   0.027   2.470   8.371  0.7243  1.6566  0.2118
 5329SOL    HW227624   4.627   2.499   8.393  0.9688  2.2159  1.5974
 5330SOL     OW27625   4.649   3.847   5.268  0.3476  0.8914  0.1426
 5330SOL    HW127626   4.655   3.900   5.188 -0.9328  0.9840  0.1049
 5330SOL    HW227627   4.630   3.921   5.324  1.7858  0.2821  1.4469
 5331SOL     OW27628   1.232   2.715  16.024 -0.0724  0.5456 -0.0389
 5331SOL    HW127629   1.280   2.690  15.946  0.8833 -0.8918  1.0252
 5331SOL    HW227630   1.254   2.808  16.024 -1.9914  0.9990 -0.7978
 5332SOL     OW27631   4.591   3.584   6.071  0.4533  0.4959 -0.6318
 5332SOL    HW127632   4.643   3.665   6.076 -2.6199  2.5698 -2.2876
 5332SOL    HW227633   4.632   3.550   5.992 -0.0931  1.1776 -1.2112
 5333SOL     OW27634   3.383   3.847  11.082  0.1591 -0.4335  1.3040
 5333SOL    HW127635   3.386   3.771  11.139  0.4493 -1.6662 -0.3588
 5333SOL    HW227636   3.431   3.819  11.004  1.3999 -0.3902  2.0507
 5334SOL     OW27637   2.767   4.500  11.756 -0.0927  0.2192 -0.0041
 5334SOL    HW127638   2.767   4.593  11.781 -2.4746  0.1479  0.2682
 5334SOL    HW227639   2.848   4.497  11.706  0.2680 -0.6310  0.6408
 5335SOL     OW27640   1.835   3.839   5.594 -0.0723 -0.0871  0.2874
 5335SOL    HW127641   1.858   3.926   5.563  0.6980 -0.1869  0.5772
 5335SOL    HW227642   1.914   3.788   5.582 -1.1403 -1.6454 -0.1469
 5336SOL     OW27643   1.615   0.042   9.470  0.0475  0.0542  0.0948
 5336SOL    HW127644   1.699   0.052   9.426  1.1443 -0.2028  2.1243
 5336SOL    HW227645   1.639   0.053   9.562  2.2804  1.6803 -0.6857
 5337SOL     OW27646   3.077   4.474   0.973 -0.6960  0.3204 -0.2030
 5337SOL    HW127647   3.004   4.484   1.034 -1.4545 -0.1090 -1.0427
 5337SOL    HW227648   3.131   4.550   0.994 -2.5127  1.9088 -1.3145
 5338SOL     OW27649   3.343   0.427   6.348  0.0162  0.3726  0.2355
 5338SOL    HW127650   3.366   0.450   6.258 -0.4675 -2.7163 -0.6650
 5338SOL    HW227651   3.331   0.510   6.394  2.1230  0.6977  0.2004
 5339SOL     OW27652   3.324   3.187   0.718 -0.2117 -0.3958 -0.5886
 5339SOL    HW127653   3.259   3.235   0.769 -0.3067 -3.4006  2.0738
 5339SOL    HW227654   3.379   3.155   0.789 -0.1940 -1.2271 -0.9827
 5340SOL     OW27655   1.988   4.591   6.283 -0.2804  0.2250 -0.2941
 5340SOL    HW127656   2.009   4.667   6.337 -1.9843  1.3691 -1.2557
 5340SOL    HW227657   2.066   4.539   6.306 -0.5442 -0.5404 -1.1439
 5341SOL     OW27658   2.619   3.198   6.097  0.1676 -0.1192  0.8412
 5341SOL    HW127659   2.586   3.133   6.159  1.6732 -0.3119  1.4318
 5341SOL    HW227660   2.687   3.143   6.059 -0.1682  0.8064 -1.0912
 5342SOL     OW27661   2.347   2.506  12.429  0.7835 -0.1844 -0.4429
 5342SOL    HW127662   2.257   2.513  12.399  0.4103 -0.0299  0.7131
 5342SOL    HW227663   2.372   2.598  12.422 -2.4599  0.8024  1.1739
 5343SOL     OW27664   2.640   2.897   0.959  0.3716  0.1689  0.4425
 5343SOL    HW127665   2.711   2.897   1.024 -0.7478  1.3739  1.6648
 5343SOL    HW227666   2.582   2.963   0.996 -0.2352 -0.4337  0.5532
 5344SOL     OW27667   3.834   2.541  16.599 -0.0721  0.2429  0.0804
 5344SOL    HW127668   3.815   2.474  16.533  0.3659 -0.5606  0.7617
 5344SOL    HW227669   3.815   2.490  16.678 -0.1810  0.6377  0.3069
 5345SOL     OW27670   3.708   3.446   0.289 -0.1370  0.1065 -0.0711
 5345SOL    HW127671   3.669   3.412   0.209 -0.2319 -3.1255  1.3515
 5345SOL    HW227672   3.629   3.481   0.328  1.2088  1.5884  1.3053
 5346SOL     OW27673   4.688   2.355   6.347  0.4574 -0.6363 -0.0453
 5346SOL    HW127674   4.650   2.373   6.261 -1.4906  1.7736  1.3019
 5346SOL    HW227675   4.639   2.276   6.368  1.6903 -0.8492  2.0579
 5347SOL     OW27676   4.401   2.545   7.180  0.2439  0.1354  0.2018
 5347SOL    HW127677   4.447   2.507   7.255  0.7645 -1.2537 -0.8254
 5347SOL    HW227678   4.403   2.637   7.208  2.0488 -0.3638  1.7003
 5348SOL     OW27679   2.912   3.391  14.412  0.1280 -0.7521  0.5892
 5348SOL    HW127680   2.875   3.358  14.494 -1.6525  0.1750  0.1568
 5348SOL    HW227681   2.992   3.428  14.448 -0.9554  0.6940  1.4741
 5349SOL     OW27682   1.362   4.724   9.556 -0.4586 -0.3954 -0.2634
 5349SOL    HW127683   1.439   0.016   9.508 -0.4699  1.1039  0.6602
 5349SOL    HW227684   1.400   4.648   9.600 -2.3479 -0.2231  1.7106
 5350SOL     OW27685   2.096   1.402  16.743 -0.0207 -0.1850  0.1762
 5350SOL    HW127686   2.120   1.367  16.657  1.8775 -0.4599  0.8141
 5350SOL    HW227687   2.043   1.330  16.780 -0.2616  0.2299  0.6358
 5351SOL     OW27688   2.521   1.912  11.073  0.3628 -0.0986 -0.1264
 5351SOL    HW127689   2.549   2.002  11.090 -1.6292  0.5226 -0.1335
 5351SOL    HW227690   2.437   1.929  11.030  0.5938  0.4429 -0.3641
 5352SOL     OW27691   3.965   3.906   9.206  0.0742 -0.2126 -0.3969
 5352SOL    HW127692   3.903   3.833   9.200 -0.2936  0.1836 -1.4842
 5352SOL    HW227693   4.040   3.881   9.260 -0.8974 -0.6474  0.7404
 5353SOL     OW27694   2.772   4.442   8.537 -0.0332  0.1955  0.2232
 5353SOL    HW127695   2.690   4.452   8.586 -0.6479  1.6770 -1.0930
 5353SOL    HW227696   2.777   4.348   8.524 -1.1932  0.1108  0.3449
 5354SOL     OW27697   0.974   4.169   0.492  0.2441 -0.0709  0.3180
 5354SOL    HW127698   0.879   4.166   0.500  0.0626  0.2246 -1.7068
 5354SOL    HW227699   0.996   4.260   0.472 -1.7059  0.6136  1.2866
 5355SOL     OW27700   0.944   3.448   7.650 -0.3799  0.5374  0.3492
 5355SOL    HW127701   0.849   3.445   7.649 -0.4066  1.0019  2.1082
 5355SOL    HW227702   0.970   3.357   7.665 -0.8065  0.5037  0.8593
 5356SOL     OW27703   1.230   1.160  12.570  0.2503  0.8199 -0.8287
 5356SOL    HW127704   1.307   1.215  12.578  0.5330  0.4636 -1.0825
 5356SOL    HW227705   1.154   1.218  12.581 -1.5646 -1.3472 -1.8761
 5357SOL     OW27706   0.853   2.410   2.321  0.5445  0.2538 -0.2216
 5357SOL    HW127707   0.805   2.332   2.348 -1.6349  1.4344 -0.7731
 5357SOL    HW227708   0.858   2.388   2.228 -1.1368 -2.7881  0.4192
 5358SOL     OW27709   4.401   1.582  10.661 -0.0391  0.0124  0.1853
 5358SOL    HW127710   4.333   1.517  10.648  2.0058 -2.0076 -0.4886
 5358SOL    HW227711   4.408   1.615  10.571 -1.0503 -1.1311 -0.3074
 5359SOL     OW27712   0.988   3.793  12.030 -0.6400  0.7719 -0.5170
 5359SOL    HW127713   1.076   3.770  12.061 -1.4657 -0.9731  0.4914
 5359SOL    HW227714   0.943   3.745  12.099  0.8896  1.0394  0.6774
 5360SOL     OW27715   2.489   3.711   9.847  0.3324 -0.2485 -0.0468
 5360SOL    HW127716   2.528   3.640   9.898  0.4537 -0.8820 -1.0165
 5360SOL    HW227717   2.401   3.680   9.826  0.0795  0.4285  0.0248
 5361SOL     OW27718   3.543   4.430  10.956 -0.4070 -0.3782  0.0182
 5361SOL    HW127719   3.457   4.394  10.976 -1.0101  0.1805 -1.5860
 5361SOL    HW227720   3.553   4.497  11.024  1.3474  0.6265 -1.2146
 5362SOL     OW27721   1.756   4.114  10.174  0.4783 -0.2478 -0.2050
 5362SOL    HW127722   1.823   4.102  10.242  1.4857  1.2127 -0.9557
 5362SOL    HW227723   1.722   4.025  10.182 -0.5814 -0.0087 -2.0706
 5363SOL     OW27724   3.304   0.807   4.223  0.2409  0.0120 -0.1860
 5363SOL    HW127725   3.213   0.807   4.193 -0.2545  0.6083  1.3112
 5363SOL    HW227726   3.298   0.751   4.300 -1.6613  2.6550  1.5981
 5364SOL     OW27727   3.367   2.056   6.602  0.3547 -0.0678 -0.0726
 5364SOL    HW127728   3.449   2.104   6.589  0.4029  0.4432  2.1613
 5364SOL    HW227729   3.299   2.112   6.563  0.4679  1.5214  2.0429
 5365SOL     OW27730   4.612   3.325   4.590 -1.0848 -0.0679  0.7155
 5365SOL    HW127731   4.546   3.267   4.626 -0.9005 -0.8280 -0.1630
 5365SOL    HW227732   4.578   3.415   4.593 -0.2802  0.3272 -1.6289
 5366SOL     OW27733   3.677   0.306   7.435  0.5997 -0.6730 -0.4715
 5366SOL    HW127734   3.755   0.314   7.381 -0.3947  1.2213 -1.6286
 5366SOL    HW227735   3.611   0.354   7.385  1.5255  3.2416  2.0287
 5367SOL     OW27736   4.574   3.392   8.374  0.0473  0.0483 -0.2141
 5367SOL    HW127737   4.509   3.462   8.375  0.7609  0.7175 -0.3858
 5367SOL    HW227738   4.579   3.368   8.466 -2.1134  1.7575  0.3292
 5368SOL     OW27739   3.330   0.852   6.139 -0.0116 -0.4417  1.2326
 5368SOL    HW127740   3.278   0.795   6.082 -1.5243  0.8756  1.2891
 5368SOL    HW227741   3.268   0.871   6.209 -0.6066 -0.7900  0.8052
 5369SOL     OW27742   0.718   2.566   4.632  0.2168  0.5259 -0.3291
 5369SOL    HW127743   0.639   2.536   4.588  0.4882  0.5894 -0.8649
 5369SOL    HW227744   0.696   2.659   4.628 -0.4403  0.3456 -0.9582
 5370SOL     OW27745   3.496   4.178   3.604  0.1760 -0.0985  0.0326
 5370SOL    HW127746   3.435   4.234   3.653  0.9197 -0.5226  1.4427
 5370SOL    HW227747   3.555   4.135   3.666 -0.9149 -1.1412  0.3514
 5371SOL     OW27748   2.049   3.378  11.886 -0.5316 -0.1936  0.7089
 5371SOL    HW127749   2.075   3.451  11.831  1.1488 -1.1679  0.2364
 5371SOL    HW227750   2.111   3.383  11.959  1.1939 -1.5479 -0.6819
 5372SOL     OW27751   3.556   0.726   6.041  0.4962 -0.6388  0.4269
 5372SOL    HW127752   3.481   0.770   6.082  2.1343  0.0127  2.7220
 5372SOL    HW227753   3.627   0.785   6.067  1.0109  0.2180 -2.9228
 5373SOL     OW27754   3.145   0.038   4.690 -0.1420 -0.0277 -0.3281
 5373SOL    HW127755   3.064   4.728   4.675 -0.1963 -0.3605  0.9809
 5373SOL    HW227756   3.122   0.119   4.645 -2.3017 -1.0473 -1.0484
 5374SOL     OW27757   0.269   4.667   5.212  0.0846  0.0017  0.2121
 5374SOL    HW127758   0.264   4.576   5.183  2.8532  0.2026 -0.8983
 5374SOL    HW227759   0.343   4.677   5.271  0.7056  0.4184 -0.6400
 5375SOL     OW27760   2.865   4.480   1.702  0.3566  0.2602 -0.0104
 5375SOL    HW127761   2.849   4.512   1.790 -1.8921 -2.7970  0.6678
 5375SOL    HW227762   2.874   4.563   1.655  0.0507  0.6257  0.5867
 5376SOL     OW27763   3.910   3.588   7.621 -0.0786  0.8484 -0.4567
 5376SOL    HW127764   3.839   3.526   7.603 -1.4798  2.3750 -0.1477
 5376SOL    HW227765   3.935   3.570   7.712  0.8643  1.4876 -0.5891
 5377SOL     OW27766   0.063   2.727  13.486 -0.5089  0.1994 -0.9509
 5377SOL    HW127767   0.141   2.757  13.440 -0.0646 -0.1293 -0.4063
 5377SOL    HW227768   0.034   2.813  13.518 -1.5293 -0.4735 -0.0846
 5378SOL     OW27769   0.240   2.300   5.877  0.1715  0.3389 -0.3423
 5378SOL    HW127770   0.274   2.376   5.829 -0.8331  0.5832 -0.6692
 5378SOL    HW227771   0.248   2.230   5.812  4.7273 -0.1080  0.7140
 5379SOL     OW27772   3.949   3.176   6.864 -0.0765 -0.1558  0.4917
 5379SOL    HW127773   3.993   3.261   6.855  1.2768 -0.6063  3.0045
 5379SOL    HW227774   4.007   3.116   6.818 -0.5389 -2.0416  2.4025
 5380SOL     OW27775   0.341   2.004   1.708 -0.4501 -0.0108  0.2050
 5380SOL    HW127776   0.316   1.997   1.616 -1.3330 -0.7970  0.5009
 5380SOL    HW227777   0.305   1.923   1.744  0.5149 -0.6529 -0.2782
 5381SOL     OW27778   0.351   4.682   7.044 -0.2308 -0.5498 -0.3393
 5381SOL    HW127779   0.435   4.643   7.022  0.5786  2.3984 -2.6140
 5381SOL    HW227780   0.383   0.027   7.080  0.3579 -1.0152  0.1995
 5382SOL     OW27781   3.453   0.314   3.449  0.2435  0.2872  0.5937
 5382SOL    HW127782   3.451   0.319   3.354  0.4322 -1.1606  0.5085
 5382SOL    HW227783   3.360   0.324   3.470 -0.3729 -0.3059 -1.8862
 5383SOL     OW27784   1.430   1.811  10.819  0.1893 -0.5569  0.4345
 5383SOL    HW127785   1.412   1.720  10.843  1.9621 -0.3653  2.4925
 5383SOL    HW227786   1.394   1.801  10.731 -0.8388 -0.3320  0.8301
 5384SOL     OW27787   0.192   0.560  16.326 -0.2194  0.0449 -0.1455
 5384SOL    HW127788   0.219   0.480  16.371 -1.4550 -0.6785 -0.6834
 5384SOL    HW227789   0.216   0.538  16.236  2.8342 -1.6777  1.0915
 5385SOL     OW27790   2.339   1.526  17.164  0.2816 -0.3030  0.1309
 5385SOL    HW127791   2.288   1.470  17.222  1.5706  1.1004  2.6052
 5385SOL    HW227792   2.270   1.551  17.102  1.3728  0.7993 -0.6382
 5386SOL     OW27793   3.670   3.980   2.466 -0.2380 -0.8959  0.1715
 5386SOL    HW127794   3.711   4.064   2.446  2.0646 -1.9719  0.4358
 5386SOL    HW227795   3.668   3.944   2.377 -0.4979  2.4715 -1.2010
 5387SOL     OW27796   0.607   4.026   6.217  0.0098  0.4050 -0.0465
 5387SOL    HW127797   0.669   4.018   6.289 -0.6558 -2.2055  0.2613
 5387SOL    HW227798   0.659   4.090   6.169 -2.0795  0.4136 -2.2816
 5388SOL     OW27799   4.144   2.991   1.437 -0.1212  0.0962 -0.3689
 5388SOL    HW127800   4.173   3.078   1.408  0.3808  0.0040 -0.1544
 5388SOL    HW227801   4.065   3.010   1.487  0.5351  0.4621  0.5229
 5389SOL     OW27802   1.114   0.564  16.597  0.0398 -0.2119 -0.2867
 5389SOL    HW127803   1.129   0.593  16.687 -2.0773 -0.2932  0.0886
 5389SOL    HW227804   1.180   0.601  16.538  0.8939  0.6515  1.2015
 5390SOL     OW27805   2.663   4.287  12.718  0.2653  0.1397 -0.2185
 5390SOL    HW127806   2.716   4.357  12.679 -0.4700  1.1312  0.5632
 5390SOL    HW227807   2.729   4.222  12.742 -0.4832 -0.9920 -1.2673
 5391SOL     OW27808   3.889   1.893   3.119 -0.2239  0.1547 -0.1010
 5391SOL    HW127809   3.921   1.878   3.208 -1.2138  1.0841  0.4173
 5391SOL    HW227810   3.889   1.989   3.126  0.5136  0.0845  0.8684
 5392SOL     OW27811   2.057   2.841   2.196  0.0044 -0.6657  0.1446
 5392SOL    HW127812   2.116   2.788   2.141  1.5903 -0.0662  1.2784
 5392SOL    HW227813   1.985   2.780   2.211  1.2717 -2.1373  0.3256
 5393SOL     OW27814   0.017   0.399   8.207  0.0442 -0.1591 -0.0796
 5393SOL    HW127815   4.672   0.370   8.169 -0.8507  1.5831  0.5313
 5393SOL    HW227816   0.039   0.320   8.255  1.1268  1.3321  1.9015
 5394SOL     OW27817   4.287   2.790  17.122  0.7803 -0.0614 -0.4276
 5394SOL    HW127818   4.232   2.763  17.048 -1.2314  1.8508  0.3611
 5394SOL    HW227819   4.358   2.727  17.118  0.8314 -0.0344  0.0412
 5395SOL     OW27820   4.377   0.220  14.766  0.3561 -0.2580 -0.4556
 5395SOL    HW127821   4.342   0.303  14.733  0.3092  0.1009  0.5143
 5395SOL    HW227822   4.460   0.209  14.719  1.8553 -1.8826  2.5726
 5396SOL     OW27823   0.704   1.051   2.152 -0.1727 -0.2827 -0.6579
 5396SOL    HW127824   0.750   0.967   2.153 -0.3646 -0.3679  1.7680
 5396SOL    HW227825   0.622   1.025   2.193 -0.8337  3.2528  0.2036
 5397SOL     OW27826   1.302   4.332   5.634 -0.1166  0.7122 -0.0499
 5397SOL    HW127827   1.363   4.262   5.657  0.4050  0.4101 -2.4085
 5397SOL    HW227828   1.286   4.365   5.723 -1.2803  0.8524 -0.3092
 5398SOL     OW27829   3.567   2.326   8.937  0.0396  0.0747  0.0498
 5398SOL    HW127830   3.619   2.406   8.946 -1.3749  1.1496 -1.3100
 5398SOL    HW227831   3.635   2.261   8.950 -0.3107 -0.0691  1.2176
 5399SOL     OW27832   0.564   1.919   8.203 -0.4592  0.1003 -0.6053
 5399SOL    HW127833   0.514   1.903   8.123  2.0157 -2.2677 -1.6769
 5399SOL    HW227834   0.624   1.990   8.178 -2.6700  2.0369 -0.4698
 5400SOL     OW27835   0.783   2.430   3.191  0.2096  0.2111  0.6563
 5400SOL    HW127836   0.765   2.520   3.219 -1.3723 -0.0073  0.3129
 5400SOL    HW227837   0.793   2.435   3.096 -0.3618 -0.2606  0.5739
 5401SOL     OW27838   4.444   3.372  10.939  0.0262  0.4040  0.0919
 5401SOL    HW127839   4.386   3.405  10.871 -1.6631 -1.3713  0.6572
 5401SOL    HW227840   4.432   3.434  11.011  0.0734  1.2101 -0.6061
 5402SOL     OW27841   0.997   2.951   2.687 -0.3000  0.3479 -0.2301
 5402SOL    HW127842   1.008   3.034   2.733  2.6361  0.4865 -1.1860
 5402SOL    HW227843   0.943   2.971   2.610 -0.2060 -0.7984 -0.5840
 5403SOL     OW27844   0.980   2.481   8.114 -0.4768  0.5415 -0.1209
 5403SOL    HW127845   0.977   2.559   8.058  0.1256  0.4790 -0.2432
 5403SOL    HW227846   0.935   2.412   8.067  1.8054 -1.6976  0.9622
 5404SOL     OW27847   4.285   0.889   1.933 -0.2379 -0.2434 -0.1992
 5404SOL    HW127848   4.378   0.876   1.950 -0.3618  0.8574  1.2463
 5404SOL    HW227849   4.248   0.824   1.992 -1.3369  1.1611  0.6413
 5405SOL     OW27850   3.270   0.509   5.803  1.0791  0.4443 -0.0131
 5405SOL    HW127851   3.241   0.530   5.892 -1.1402  0.1815 -0.6811
 5405SOL    HW227852   3.224   0.584   5.764  1.4547  1.5848  1.7366
 5406SOL     OW27853   4.009   4.088   3.355 -0.2236 -0.3517 -0.1545
 5406SOL    HW127854   4.024   4.128   3.441  0.0507  1.5644 -1.1135
 5406SOL    HW227855   4.059   4.007   3.343  3.2617  1.9238 -0.6645
 5407SOL     OW27856   3.949   2.864   1.151 -0.0484 -0.5182  0.1045
 5407SOL    HW127857   3.913   2.788   1.196 -0.9801 -0.5661 -0.7438
 5407SOL    HW227858   3.996   2.912   1.220 -1.4114 -0.8391  1.2415
 5408SOL     OW27859   1.187   0.891  12.628 -0.0591  0.2920 -0.5256
 5408SOL    HW127860   1.118   0.879  12.693 -1.1824 -1.3309 -2.0355
 5408SOL    HW227861   1.178   0.984  12.605 -2.0350 -0.7154 -3.8286
 5409SOL     OW27862   2.045   2.567  15.867 -0.4997  0.3074  0.1384
 5409SOL    HW127863   1.978   2.575  15.799  0.0814 -0.2100 -0.4972
 5409SOL    HW227864   2.101   2.498  15.831 -0.0599  0.2235  0.9733
 5410SOL     OW27865   1.541   2.481   9.389 -0.3434 -0.7185 -0.0956
 5410SOL    HW127866   1.456   2.440   9.378 -1.9539  2.1065  1.9596
 5410SOL    HW227867   1.513   2.556   9.441  1.6243 -0.1813  0.2194
 5411SOL     OW27868   4.618   2.723   6.119  0.5842  0.2262 -0.4317
 5411SOL    HW127869   4.593   2.631   6.122  0.5325  0.2542  0.0047
 5411SOL    HW227870   4.713   2.714   6.122  0.2494 -2.7357  1.6525
 5412SOL     OW27871   4.386   2.180  16.058  0.2184 -0.1100  0.0214
 5412SOL    HW127872   4.468   2.132  16.049  0.8345  0.6644  1.5244
 5412SOL    HW227873   4.416   2.271  16.053 -1.6451  0.4663 -1.0506
 5413SOL     OW27874   0.377   4.590  11.692 -0.4572 -0.7578  0.0497
 5413SOL    HW127875   0.414   4.665  11.738 -1.4666 -0.4207  0.3234
 5413SOL    HW227876   0.437   4.574  11.619  0.2756 -3.5809  1.2932
 5414SOL     OW27877   2.965   3.384  13.913 -0.0542  0.5160  1.0178
 5414SOL    HW127878   3.041   3.436  13.941  0.0452 -0.3274  2.2790
 5414SOL    HW227879   2.943   3.328  13.987 -0.5302  2.6036  2.4581
 5415SOL     OW27880   4.380   3.347   5.341 -0.2178 -0.3960  0.3127
 5415SOL    HW127881   4.428   3.413   5.391 -0.2587 -0.3762  0.3267
 5415SOL    HW227882   4.342   3.290   5.408  0.5334 -1.1935  0.0570
 5416SOL     OW27883   0.044   3.542   3.469  0.2340  0.0224 -0.3040
 5416SOL    HW127884   4.688   3.553   3.455  0.2237  1.8037  1.1393
 5416SOL    HW227885   0.083   3.627   3.450  2.4133 -1.4586 -2.3895
 5417SOL     OW27886   2.961   4.680  10.496 -0.4894  0.0991  0.0673
 5417SOL    HW127887   2.972   4.585  10.494 -3.3276 -0.2355  1.1209
 5417SOL    HW227888   2.905   4.698  10.421 -2.5420  1.0996  1.8490
 5418SOL     OW27889   0.103   1.077   3.747 -0.5549  0.2171 -0.4951
 5418SOL    HW127890   0.093   1.171   3.728  1.9496  0.2625 -1.5465
 5418SOL    HW227891   0.085   1.041   3.660 -3.7161  1.4174 -0.3648
 5419SOL     OW27892   3.185   0.668   3.839 -0.6085  0.1701 -0.3667
 5419SOL    HW127893   3.205   0.579   3.869  0.9564  0.2450 -1.2109
 5419SOL    HW227894   3.115   0.689   3.900 -1.0485 -2.0050 -0.1357
 5420SOL     OW27895   2.982   1.112   6.853 -0.0635 -0.1102  0.3703
 5420SOL    HW127896   2.909   1.164   6.885  0.3278  0.7568 -0.1626
 5420SOL    HW227897   3.038   1.107   6.931 -0.4393 -0.0504  0.6460
 5421SOL     OW27898   4.670   2.810   9.436  0.0381  0.4901  0.3101
 5421SOL    HW127899   4.714   2.798   9.520 -0.8382  0.9870  0.8383
 5421SOL    HW227900   4.698   2.732   9.388 -0.4541 -1.2641  2.8621
 5422SOL     OW27901   0.228   2.136   9.303  0.0129  0.5583  0.6548
 5422SOL    HW127902   0.245   2.058   9.251 -1.3806  0.3638  0.5028
 5422SOL    HW227903   0.133   2.141   9.289 -0.1880 -1.7706  1.3607
 5423SOL     OW27904   3.507   0.445   8.620  0.2149  0.0996  0.4532
 5423SOL    HW127905   3.534   0.431   8.711  1.1433 -1.6881 -0.0917
 5423SOL    HW227906   3.420   0.407   8.630 -0.0689  0.5146 -0.4648
 5424SOL     OW27907   1.581   3.446   8.731  0.6084  0.1990  0.4834
 5424SOL    HW127908   1.609   3.463   8.822 -0.4166  1.0278  0.6454
 5424SOL    HW227909   1.506   3.504   8.718 -0.0095 -0.5841  0.5411
 5425SOL     OW27910   0.197   4.101   8.306 -0.2642  0.7024  0.2833
 5425SOL    HW127911   0.229   4.024   8.259  0.0573  1.2916 -0.4494
 5425SOL    HW227912   0.112   4.088   8.264 -0.6272 -0.7204  1.4374
 5426SOL     OW27913   3.167   3.673   3.862 -0.3604  0.5385 -0.3778
 5426SOL    HW127914   3.185   3.735   3.791 -0.2143  0.7809 -0.1277
 5426SOL    HW227915   3.245   3.684   3.917 -0.2424 -4.0522  0.3673
 5427SOL     OW27916   0.610   3.452  11.297 -0.2988  0.3196 -0.0884
 5427SOL    HW127917   0.702   3.429  11.291 -0.6819 -1.3761  0.5040
 5427SOL    HW227918   0.596   3.460  11.392 -1.3318 -1.2414 -0.0977
 5428SOL     OW27919   1.342   0.656   2.130 -0.0088 -0.7385  0.4723
 5428SOL    HW127920   1.350   0.717   2.057 -0.1173  0.5422  1.5368
 5428SOL    HW227921   1.341   0.577   2.077  2.0837 -1.4127  1.4345
 5429SOL     OW27922   2.842   2.169   1.600  0.0150  0.4174 -0.2700
 5429SOL    HW127923   2.843   2.191   1.693 -1.8822 -0.7231  0.0415
 5429SOL    HW227924   2.755   2.128   1.592  0.3318  0.0292 -1.6294
 5430SOL     OW27925   2.103   0.249  14.330  0.1720 -0.3423  0.3594
 5430SOL    HW127926   2.037   0.199  14.281  1.0385 -1.4407  0.3079
 5430SOL    HW227927   2.177   0.255  14.270 -0.3076  0.7371 -0.1139
 5431SOL     OW27928   4.375   3.837   2.104  0.2622 -0.3032 -0.3548
 5431SOL    HW127929   4.440   3.854   2.036 -1.1460  0.1682 -1.5835
 5431SOL    HW227930   4.338   3.752   2.083  1.0602 -0.4401 -1.2388
 5432SOL     OW27931   2.960   4.082   6.559 -0.3094 -0.0021 -0.7690
 5432SOL    HW127932   2.886   4.142   6.571  0.2130  0.5278 -0.2214
 5432SOL    HW227933   3.027   4.130   6.608 -0.2929 -1.0486  0.2104
 5433SOL     OW27934   1.536   0.208  14.801  0.8024  0.9145  0.5088
 5433SOL    HW127935   1.479   0.131  14.797  0.4693  1.2874 -1.9080
 5433SOL    HW227936   1.484   0.267  14.746  0.9468 -0.2457 -0.8666
 5434SOL     OW27937   1.000   4.616  11.475 -0.2050 -0.2505  0.2388
 5434SOL    HW127938   1.076   4.654  11.432 -0.3786 -0.1574  0.0157
 5434SOL    HW227939   0.937   4.600  11.405  0.8357 -2.1984 -0.2565
 5435SOL     OW27940   1.356   0.078   2.690 -0.1773 -0.1664  0.3656
 5435SOL    HW127941   1.382   0.119   2.608  0.3615 -0.1340  0.5501
 5435SOL    HW227942   1.379   0.145   2.754 -0.7531 -0.5187  0.9482
 5436SOL     OW27943   0.665   0.346  11.028  0.6181 -0.3217  0.2801
 5436SOL    HW127944   0.741   0.310  11.074 -0.2107  0.1797  2.0391
 5436SOL    HW227945   0.678   0.438  11.051  0.9081 -0.1214 -0.6745
 5437SOL     OW27946   0.263   3.635   4.515  0.4274 -0.1376  0.1539
 5437SOL    HW127947   0.327   3.563   4.514 -2.9737 -3.1814  1.2703
 5437SOL    HW227948   0.233   3.631   4.606  0.5111 -2.6817  0.0818
 5438SOL     OW27949   3.151   2.192   9.176 -0.0947 -0.0840  0.1183
 5438SOL    HW127950   3.229   2.209   9.228  0.4109  2.9489 -1.6126
 5438SOL    HW227951   3.090   2.178   9.249 -0.4123 -0.1203 -0.1548
 5439SOL     OW27952   2.874   4.573   1.108  0.1898 -0.0173  0.2202
 5439SOL    HW127953   2.793   4.605   1.070 -0.2851 -1.5436 -0.0737
 5439SOL    HW227954   2.909   4.647   1.157  1.3320 -1.3285  1.4108
 5440SOL     OW27955   1.434   2.489   3.636 -0.5703  0.5502 -0.1658
 5440SOL    HW127956   1.472   2.437   3.566  0.0113 -2.2122  2.1964
 5440SOL    HW227957   1.424   2.576   3.597 -1.1272  1.3969  1.8389
 5441SOL     OW27958   2.224   1.080   7.040 -0.3429  0.0092  0.0218
 5441SOL    HW127959   2.165   1.119   7.105 -0.2602  1.6488 -0.8962
 5441SOL    HW227960   2.258   1.012   7.098  0.9422 -0.6057 -1.4512
 5442SOL     OW27961   2.088   3.516   7.887  0.2515 -0.2830 -0.9089
 5442SOL    HW127962   2.030   3.442   7.902  0.5080 -0.8149 -2.5105
 5442SOL    HW227963   2.133   3.496   7.804 -0.9187  0.0591 -1.6312
 5443SOL     OW27964   2.905   3.435   2.218 -0.2593 -0.1065 -0.2874
 5443SOL    HW127965   2.829   3.491   2.233 -0.0702  0.3650 -1.0819
 5443SOL    HW227966   2.971   3.505   2.212 -0.0103 -0.4013 -1.0850
 5444SOL     OW27967   0.509   1.166  11.238  0.1758  0.0632 -0.1386
 5444SOL    HW127968   0.555   1.239  11.197  3.0962 -1.1624  0.9804
 5444SOL    HW227969   0.516   1.183  11.331 -0.5803 -0.4482  0.0159
 5445SOL     OW27970   4.472   0.096   7.687  0.1707  0.3863 -0.3392
 5445SOL    HW127971   4.394   0.127   7.733 -0.2218  0.5304 -1.1144
 5445SOL    HW227972   4.501   0.031   7.752 -1.6121 -0.8501 -0.7934
 5446SOL     OW27973   3.794   3.780   8.836 -0.3716  0.0890  0.2914
 5446SOL    HW127974   3.846   3.814   8.909 -1.2247  1.0697  0.4621
 5446SOL    HW227975   3.841   3.700   8.817  0.8638  0.5739  1.3323
 5447SOL     OW27976   3.429   4.053   7.513  0.0638  0.2310 -0.1451
 5447SOL    HW127977   3.357   4.092   7.562  0.7817  2.2245 -0.6665
 5447SOL    HW227978   3.493   4.124   7.522 -1.4349  1.9396 -2.9442
 5448SOL     OW27979   1.298   2.088   2.293 -0.6398  0.1995 -0.4550
 5448SOL    HW127980   1.208   2.091   2.327 -0.8824 -0.5076 -1.0441
 5448SOL    HW227981   1.284   2.138   2.213  0.8295 -0.4752 -1.1282
 5449SOL     OW27982   2.656   2.416  12.009 -0.6515  0.6686  0.0474
 5449SOL    HW127983   2.712   2.402  12.085  0.4003 -0.1111 -0.8667
 5449SOL    HW227984   2.601   2.488  12.041 -1.8043 -0.2173  0.0425
 5450SOL     OW27985   2.467   2.149   0.646 -0.3153 -0.3186 -0.4079
 5450SOL    HW127986   2.377   2.168   0.618 -0.1442  2.0302  0.6674
 5450SOL    HW227987   2.468   2.158   0.741  4.0855 -2.5495 -0.2915
 5451SOL     OW27988   1.673   1.475   7.485  0.3032  0.3202  0.1869
 5451SOL    HW127989   1.621   1.397   7.469 -0.3207  0.1347  3.0229
 5451SOL    HW227990   1.646   1.487   7.576  0.0671 -2.1100  0.4547
 5452SOL     OW27991   2.623   1.592   8.573 -0.7843  0.3954 -0.1084
 5452SOL    HW127992   2.636   1.585   8.668 -1.3109 -0.4243 -0.0948
 5452SOL    HW227993   2.574   1.513   8.552 -1.3322  0.3620  1.2977
 5453SOL     OW27994   2.581   4.134   3.430  0.3628  0.0750 -0.5516
 5453SOL    HW127995   2.534   4.055   3.456  0.2506 -0.5341 -2.6434
 5453SOL    HW227996   2.519   4.205   3.447  0.2869 -0.9291  3.3937
 5454SOL     OW27997   2.690   1.204   4.731 -0.1589 -0.0581  0.8901
 5454SOL    HW127998   2.760   1.191   4.667 -1.4342  0.1262 -0.5389
 5454SOL    HW227999   2.622   1.228   4.668  0.5451  1.3877  0.6881
 5455SOL     OW28000   0.876   0.481   0.889 -0.0249 -0.4922  0.2466
 5455SOL    HW128001   0.814   0.415   0.916  1.2122 -2.3612 -1.4458
 5455SOL    HW228002   0.877   0.530   0.971  1.0694  0.1308 -0.1387
 5456SOL     OW28003   3.979   2.182   9.707  0.1197 -0.1614  0.4721
 5456SOL    HW128004   3.951   2.273   9.692 -0.0353 -0.3219 -0.1897
 5456SOL    HW228005   3.904   2.124   9.695 -0.1185  0.3864 -0.6881
 5457SOL     OW28006   4.357   1.256   3.670 -0.1467 -0.1693 -0.3617
 5457SOL    HW128007   4.267   1.284   3.650  0.0840 -0.3714 -1.6721
 5457SOL    HW228008   4.385   1.318   3.738 -0.0351  0.1103 -0.6582
 5458SOL     OW28009   0.994   0.707   5.020  0.4325 -0.3042  0.4681
 5458SOL    HW128010   1.036   0.670   5.098  0.6226  0.3488  0.6686
 5458SOL    HW228011   1.018   0.799   5.008  0.7617 -0.2480  1.5976
 5459SOL     OW28012   3.061   2.193   4.922 -0.0263 -0.1237 -0.4658
 5459SOL    HW128013   3.079   2.194   5.016  1.7415  0.4906 -0.8047
 5459SOL    HW228014   3.062   2.288   4.914 -1.6417  0.2131  3.3872
 5460SOL     OW28015   2.954   1.091   8.087  0.0109 -0.3721  0.0520
 5460SOL    HW128016   2.871   1.100   8.040  0.0187  2.0019  0.4736
 5460SOL    HW228017   3.010   1.055   8.018  0.2201  0.1442 -0.0492
 5461SOL     OW28018   4.267   3.193   4.351  0.2172 -0.1881 -0.5680
 5461SOL    HW128019   4.356   3.166   4.373 -0.6110 -1.7612  0.8404
 5461SOL    HW228020   4.275   3.218   4.259 -0.5712 -2.0391 -1.1396
 5462SOL     OW28021   2.611   4.095  16.718  0.2904 -0.4949  0.4002
 5462SOL    HW128022   2.580   4.184  16.703  1.4523 -0.3603 -1.2171
 5462SOL    HW228023   2.689   4.095  16.663 -0.7465  1.4656 -1.0478
 5463SOL     OW28024   2.515   2.296   7.025  0.1517 -0.3858  0.5231
 5463SOL    HW128025   2.514   2.247   6.943 -1.8973  0.8045 -0.1628
 5463SOL    HW228026   2.547   2.230   7.088  0.6349 -0.5183  0.1370
 5464SOL     OW28027   2.658   2.797   5.168  0.1465 -0.0037 -0.1821
 5464SOL    HW128028   2.619   2.857   5.232 -1.1349  1.8313 -2.6546
 5464SOL    HW228029   2.584   2.741   5.147  0.1557  0.0195 -0.2776
 5465SOL     OW28030   3.231   0.918   8.927 -0.2957 -0.6196 -0.3106
 5465SOL    HW128031   3.150   0.906   8.878  0.8499 -0.2219 -2.2813
 5465SOL    HW228032   3.298   0.871   8.878  0.1004 -0.9016  0.5013
 5466SOL     OW28033   2.150   0.750  13.307 -0.2652  0.4783 -0.3840
 5466SOL    HW128034   2.090   0.681  13.335 -1.6167  0.9559 -2.1302
 5466SOL    HW228035   2.170   0.719  13.219  0.1895  1.8335 -0.7615
 5467SOL     OW28036   2.873   1.488   3.511  0.0682 -0.5550 -0.3321
 5467SOL    HW128037   2.813   1.563   3.508 -0.5341 -0.9827  1.2530
 5467SOL    HW228038   2.944   1.536   3.554  0.1650 -2.7287  1.9526
 5468SOL     OW28039   3.250   3.134   0.129 -0.6015  0.0917  0.1129
 5468SOL    HW128040   3.337   3.140   0.089  0.4691  2.4746  2.7784
 5468SOL    HW228041   3.203   3.102   0.052 -3.6800 -0.6074  2.2451
 5469SOL     OW28042   3.898   3.973   6.211 -0.1683  0.1209 -0.4562
 5469SOL    HW128043   3.941   4.057   6.195  1.6027 -1.1171 -2.1536
 5469SOL    HW228044   3.971   3.931   6.256 -0.2786  1.3264  0.8690
 5470SOL     OW28045   4.038   4.695   2.151  0.4788 -0.3725 -0.2267
 5470SOL    HW128046   4.024   4.687   2.057  0.5029 -0.6256 -0.2092
 5470SOL    HW228047   4.134   4.702   2.154  0.1711  3.9970 -1.2312
 5471SOL     OW28048   4.424   3.573  11.114 -0.4235  0.6375 -0.0199
 5471SOL    HW128049   4.387   3.598  11.199 -1.0394  0.1373 -0.1433
 5471SOL    HW228050   4.495   3.636  11.101 -0.5565  1.4184  3.0541
 5472SOL     OW28051   2.370   0.837  12.543 -0.3746  0.2403 -0.2885
 5472SOL    HW128052   2.416   0.860  12.624 -0.8425 -0.7804  0.2757
 5472SOL    HW228053   2.282   0.823  12.578  0.1973  0.9646  1.4312
 5473SOL     OW28054   3.351   1.342   4.404  0.4698 -0.0316 -0.5078
 5473SOL    HW128055   3.296   1.328   4.327  0.1947  0.2455 -0.3625
 5473SOL    HW228056   3.407   1.266   4.416 -0.4366 -0.3574  1.6672
 5474SOL     OW28057   4.295   1.925   6.545 -0.0979 -0.4324 -0.8241
 5474SOL    HW128058   4.282   2.019   6.555 -2.6200 -1.0091  1.1693
 5474SOL    HW228059   4.382   1.917   6.505  1.2839  0.2008  2.1000
 5475SOL     OW28060   2.625   2.942   3.594 -0.7677 -0.5008 -0.5540
 5475SOL    HW128061   2.534   2.915   3.578 -0.9807 -0.9882  1.4714
 5475SOL    HW228062   2.617   3.020   3.649 -0.4324 -2.1407  1.8388
 5476SOL     OW28063   1.401   3.418   5.096 -0.0977  0.0621  0.0105
 5476SOL    HW128064   1.456   3.461   5.162  0.6825 -3.1469  1.4312
 5476SOL    HW228065   1.321   3.469   5.085 -2.5714 -4.3828 -2.6578
 5477SOL     OW28066   1.231   2.373  10.913  0.2308 -0.4696  0.0575
 5477SOL    HW128067   1.252   2.401  11.002 -0.5070 -0.7236  0.3103
 5477SOL    HW228068   1.137   2.390  10.912  0.9070  3.2518 -2.1702
 5478SOL     OW28069   2.619   1.168   8.089  0.1098  0.4605  0.3097
 5478SOL    HW128070   2.564   1.244   8.109 -0.1129  0.8976 -1.9536
 5478SOL    HW228071   2.615   1.173   7.993  1.1213 -0.8304  0.2005
 5479SOL     OW28072   3.195   4.360   6.152  0.1967  0.3043 -0.2773
 5479SOL    HW128073   3.202   4.382   6.245  0.7868 -0.3820 -0.1670
 5479SOL    HW228074   3.261   4.292   6.155  0.3510  0.3599 -2.3630
 5480SOL     OW28075   2.084   2.448  15.539 -0.2854  0.5769  0.1671
 5480SOL    HW128076   2.167   2.430  15.494 -1.2606 -0.6877 -1.1331
 5480SOL    HW228077   2.092   2.384  15.609  0.1228  2.0080  1.4455
 5481SOL     OW28078   2.415   4.122  16.312  0.4553  0.0645 -0.2563
 5481SOL    HW128079   2.497   4.082  16.284  1.9933  2.7641  0.3658
 5481SOL    HW228080   2.352   4.088  16.249  0.1473 -0.9144  0.5906
 5482SOL     OW28081   3.042   1.642  11.844  0.2427  0.1247  0.1678
 5482SOL    HW128082   2.993   1.560  11.852 -0.0122  0.3190  0.5726
 5482SOL    HW228083   3.121   1.602  11.808 -0.8897 -2.0345  0.0655
 5483SOL     OW28084   0.499   3.592   6.877  0.5863 -0.5205  0.1010
 5483SOL    HW128085   0.580   3.543   6.891  1.9358  0.5515 -4.0040
 5483SOL    HW228086   0.495   3.637   6.961  0.3415 -2.6184  1.2251
 5484SOL     OW28087   2.771   2.475   6.821 -0.4310 -0.1193  0.6219
 5484SOL    HW128088   2.772   2.384   6.851  1.6821  0.4986  2.4302
 5484SOL    HW228089   2.778   2.523   6.904 -0.4303  0.5550  0.2370
 5485SOL     OW28090   2.218   1.581   4.687  0.5751 -0.4337 -0.0845
 5485SOL    HW128091   2.303   1.607   4.653  0.3221 -1.4895 -1.5290
 5485SOL    HW228092   2.168   1.658   4.659 -2.2083 -2.6559 -1.1577
 5486SOL     OW28093   2.718   0.612  12.916 -0.2530  0.2858  0.2930
 5486SOL    HW128094   2.760   0.647  12.837  0.0690  1.5650  1.0448
 5486SOL    HW228095   2.752   0.665  12.988  0.7349 -1.0160  0.7935
 5487SOL     OW28096   3.214   1.507   3.128 -0.7015 -0.3303  0.5049
 5487SOL    HW128097   3.266   1.548   3.197  0.9709 -2.4809  0.5214
 5487SOL    HW228098   3.157   1.454   3.183 -0.3692 -0.1169  1.0470
 5488SOL     OW28099   2.666   1.339   0.330  0.0990  0.1544 -0.4216
 5488SOL    HW128100   2.711   1.378   0.256  1.6568 -1.7388 -0.4924
 5488SOL    HW228101   2.623   1.416   0.366 -0.2703  0.5288 -1.6842
 5489SOL     OW28102   4.213   0.995   8.978 -0.9688 -0.3219 -0.1353
 5489SOL    HW128103   4.180   1.057   9.043 -0.9794 -0.8786  0.3955
 5489SOL    HW228104   4.307   1.010   8.985 -0.5048 -3.1657  0.0675
 5490SOL     OW28105   4.500   3.835   8.814  0.2900  0.2970 -0.8197
 5490SOL    HW128106   4.580   3.860   8.860  0.2052 -1.7532  0.4435
 5490SOL    HW228107   4.438   3.881   8.871  0.9448  0.7402 -0.4644
 5491SOL     OW28108   1.279   4.236   4.198  0.3400 -0.0410  0.6364
 5491SOL    HW128109   1.187   4.214   4.182  0.4629 -0.7731  0.9062
 5491SOL    HW228110   1.328   4.202   4.123 -1.2913  2.5859 -1.5990
 5492SOL     OW28111   4.117   0.921   8.731 -0.0053  0.3898 -0.6497
 5492SOL    HW128112   4.144   0.936   8.821  0.3342  0.1756 -0.7165
 5492SOL    HW228113   4.192   0.959   8.685 -0.2419  0.7955 -0.7033
 5493SOL     OW28114   2.711   0.236   2.109  0.0801  0.3066 -0.6642
 5493SOL    HW128115   2.648   0.293   2.153  3.0124  2.3585  0.9005
 5493SOL    HW228116   2.667   0.221   2.026 -0.0505 -1.5433 -0.2651
 5494SOL     OW28117   2.934   0.232   6.836 -0.3830 -0.3853 -0.4275
 5494SOL    HW128118   2.878   0.288   6.890 -1.3921 -1.9819  0.1772
 5494SOL    HW228119   3.012   0.287   6.845 -1.1288  0.4194  1.0469
 5495SOL     OW28120   1.585   2.194   8.846 -0.3917  0.3423  0.2813
 5495SOL    HW128121   1.522   2.134   8.806  0.7198  1.7884 -3.5834
 5495SOL    HW228122   1.579   2.157   8.934 -0.8818 -2.9238 -1.0900
 5496SOL     OW28123   0.959   3.414   3.616 -0.0637 -0.0752 -0.0600
 5496SOL    HW128124   0.866   3.413   3.636 -0.1868  0.6123 -0.6153
 5496SOL    HW228125   0.986   3.502   3.641  1.3484 -0.0795 -1.5312
 5497SOL     OW28126   2.113   1.307  17.568  0.5826 -0.1930  0.4054
 5497SOL    HW128127   2.138   1.308  17.660  0.0892 -0.8426  0.5398
 5497SOL    HW228128   2.061   1.387  17.578  1.0028  0.1758 -0.2844
 5498SOL     OW28129   4.450   0.397   3.079 -0.1920  0.4936  0.0140
 5498SOL    HW128130   4.369   0.347   3.090  0.2976  0.2427  2.5235
 5498SOL    HW228131   4.488   0.378   3.165  0.7686  0.1249 -0.4956
 5499SOL     OW28132   1.100   3.842   6.757 -0.0404  0.7653  0.0204
 5499SOL    HW128133   1.101   3.814   6.666  0.3528  1.5260 -0.2045
 5499SOL    HW228134   1.189   3.829   6.789  0.7068 -0.4897 -2.5806
 5500SOL     OW28135   3.796   1.167   4.355  0.0607  0.4690 -0.0789
 5500SOL    HW128136   3.814   1.076   4.381 -0.1798  0.4646  0.0709
 5500SOL    HW228137   3.873   1.186   4.301 -0.3250  0.5292 -0.6095
 5501SOL     OW28138   1.108   1.394   8.397 -0.1022  0.5296  0.3764
 5501SOL    HW128139   1.136   1.470   8.346 -1.1646 -0.8703 -2.3293
 5501SOL    HW228140   1.147   1.319   8.353 -0.5490  1.0086 -0.8540
 5502SOL     OW28141   3.128   0.140  11.006 -0.2384 -0.1513  0.3740
 5502SOL    HW128142   3.220   0.117  10.992 -0.3093 -0.4478  0.4087
 5502SOL    HW228143   3.143   0.184  11.090  0.6481 -0.6571  0.4868
 5503SOL     OW28144   3.793   2.883   5.498 -0.2911 -0.0136  0.3906
 5503SOL    HW128145   3.813   2.974   5.520  1.7247 -0.4594  0.3640
 5503SOL    HW228146   3.723   2.862   5.560 -0.6343  0.1404  0.0593
 5504SOL     OW28147   1.417   2.793  11.042  0.5124 -0.0109 -0.4601
 5504SOL    HW128148   1.481   2.815  11.110 -2.3667  1.4236  1.8212
 5504SOL    HW228149   1.342   2.785  11.101  0.0682  0.2038 -0.9996
 5505SOL     OW28150   4.276   3.556  13.093 -0.0870  0.2391  0.3054
 5505SOL    HW128151   4.206   3.545  13.157 -1.0402 -0.5908 -0.8805
 5505SOL    HW228152   4.344   3.615  13.125 -1.3380  1.5245  0.5859
 5506SOL     OW28153   2.703   1.185   7.103  0.2852 -0.1787 -0.1319
 5506SOL    HW128154   2.612   1.168   7.128 -0.5515  1.9342 -1.7078
 5506SOL    HW228155   2.697   1.265   7.051  2.6612 -1.5299 -2.4505
 5507SOL     OW28156   3.642   1.208   8.288 -0.1176  0.2098  0.5379
 5507SOL    HW128157   3.580   1.212   8.215  0.8142 -1.6330 -0.3795
 5507SOL    HW228158   3.710   1.160   8.241 -0.6235  0.3079 -0.3019
 5508SOL     OW28159   2.163   3.241   5.350  0.4899 -0.9360 -1.1678
 5508SOL    HW128160   2.228   3.309   5.332  0.5303 -0.4880  0.6521
 5508SOL    HW228161   2.146   3.209   5.262  1.9913  1.3511 -2.2823
 5509SOL     OW28162   0.139   1.168   4.298  0.3381  0.1356 -0.5167
 5509SOL    HW128163   0.050   1.143   4.272  0.6398 -0.4770 -0.9845
 5509SOL    HW228164   0.198   1.140   4.228 -0.7769 -0.4600 -1.2355
 5510SOL     OW28165   2.550   3.669  17.461  0.4297 -0.0759  0.2887
 5510SOL    HW128166   2.574   3.759  17.482 -2.1382  0.6495  0.1443
 5510SOL    HW228167   2.568   3.623  17.543 -2.6793  2.3016  2.2873
 5511SOL     OW28168   1.961   2.209   1.024  0.0174 -0.3727  0.0807
 5511SOL    HW128169   1.890   2.268   0.999  0.5827  0.3124  0.0914
 5511SOL    HW228170   2.038   2.266   1.030 -0.6590  0.6441 -0.9445
 5512SOL     OW28171   0.484   0.305   2.855  0.7071 -0.3966  0.5384
 5512SOL    HW128172   0.473   0.310   2.760  0.4065  1.1000  0.6528
 5512SOL    HW228173   0.520   0.217   2.870 -0.6424 -0.8375  1.1691
 5513SOL     OW28174   4.550   4.433   1.607 -0.3734 -0.8172  0.2001
 5513SOL    HW128175   4.495   4.492   1.658 -0.1766  0.6847 -1.3321
 5513SOL    HW228176   4.493   4.358   1.592 -0.2525 -0.6704 -0.9911
 5514SOL     OW28177   4.551   3.197   6.665 -0.1347  0.0203  0.3804
 5514SOL    HW128178   4.489   3.270   6.671 -0.5920 -0.2970 -0.4555
 5514SOL    HW228179   4.614   3.243   6.609  2.1331 -1.0794  2.0635
 5515SOL     OW28180   1.463   1.963   8.210  0.7414 -0.2915  0.4555
 5515SOL    HW128181   1.460   2.052   8.245  2.2637  0.2339 -0.7574
 5515SOL    HW228182   1.412   1.923   8.280  0.1880 -0.1765  0.1211
 5516SOL     OW28183   0.115   4.204  17.743 -0.4152 -0.2152 -0.6094
 5516SOL    HW128184   0.087   4.269   0.058  0.1345  0.4780 -1.0751
 5516SOL    HW228185   0.035   4.179  17.697 -1.3877  2.3408 -0.2742
 5517SOL     OW28186   0.136   1.785   1.237 -0.0389 -0.5210 -0.3192
 5517SOL    HW128187   0.134   1.838   1.157 -2.4363 -0.4965 -0.2266
 5517SOL    HW228188   0.092   1.707   1.204  0.9345 -0.1504 -2.4802
 5518SOL     OW28189   1.432   3.291   3.200 -0.4926 -0.2297 -0.2192
 5518SOL    HW128190   1.368   3.336   3.145  0.5428 -0.8998 -1.9883
 5518SOL    HW228191   1.514   3.332   3.173 -0.1113 -0.2607  0.8959
 5519SOL     OW28192   0.237   1.245   1.774 -0.3095 -0.0575 -0.7526
 5519SOL    HW128193   0.273   1.200   1.851  0.1905  2.7847  0.6623
 5519SOL    HW228194   0.144   1.254   1.795 -0.0507 -1.4017  1.0122
 5520SOL     OW28195   2.449   2.569   5.518  0.6921  0.0561  0.1390
 5520SOL    HW128196   2.384   2.629   5.482 -0.7511 -1.9937 -0.6673
 5520SOL    HW228197   2.440   2.593   5.610 -0.2727 -0.1584  0.0947
 5521SOL     OW28198   3.896   4.016   3.844 -0.0895 -0.0026 -0.3026
 5521SOL    HW128199   3.923   3.926   3.827 -0.5777 -0.2180  0.0485
 5521SOL    HW228200   3.875   4.050   3.756  0.6650 -0.7045 -0.7539
 5522SOL     OW28201   3.985   1.695   3.380 -0.6490  0.1405  0.2523
 5522SOL    HW128202   3.917   1.749   3.420 -0.4925  1.3268 -1.0811
 5522SOL    HW228203   4.005   1.638   3.454  1.0080  0.4109  0.0142
 5523SOL     OW28204   2.114   3.625   0.024 -0.0529  0.0238 -0.0891
 5523SOL    HW128205   2.087   3.704   0.071 -0.5414  0.2815 -0.8193
 5523SOL    HW228206   2.113   3.656  17.684 -3.2354 -1.3002 -0.4872
 5524SOL     OW28207   1.076   3.185   0.352  0.2474  0.1384  0.0742
 5524SOL    HW128208   1.161   3.215   0.320  0.9275 -1.4387  0.4444
 5524SOL    HW228209   1.047   3.138   0.274  2.8924 -1.4837  0.0682
 5525SOL     OW28210   0.220   2.389   8.215 -0.1581  0.4134 -0.0999
 5525SOL    HW128211   0.281   2.319   8.190  0.9857  1.3745 -0.0466
 5525SOL    HW228212   0.143   2.380   8.159  0.2383  0.6455 -0.6843
 5526SOL     OW28213   3.816   4.495   5.172 -0.3651  0.2585 -0.0563
 5526SOL    HW128214   3.810   4.415   5.120  1.1105  0.2982 -0.2974
 5526SOL    HW228215   3.801   4.560   5.104  1.8427  0.4829 -0.3382
 5527SOL     OW28216   2.824   3.080   1.530 -0.3987 -0.9252  0.4528
 5527SOL    HW128217   2.859   3.038   1.452  3.2828 -0.7615  2.0132
 5527SOL    HW228218   2.844   3.012   1.594 -0.8279 -1.6626 -0.2017
 5528SOL     OW28219   4.174   4.386   5.427  0.3903  0.0044  0.1243
 5528SOL    HW128220   4.177   4.468   5.379 -1.8070  1.0266  1.7428
 5528SOL    HW228221   4.256   4.348   5.396  0.8755  0.1490  1.2353
 5529SOL     OW28222   1.227   4.672   4.953 -0.4355 -0.2808 -0.2417
 5529SOL    HW128223   1.209   4.578   4.955 -1.1134 -0.1670 -0.9156
 5529SOL    HW228224   1.145   4.710   4.922 -1.1970  0.0184  2.0808
 5530SOL     OW28225   3.590   0.811  14.925  0.0497 -0.0940  0.1702
 5530SOL    HW128226   3.628   0.724  14.934 -0.3952 -0.6805 -3.4976
 5530SOL    HW228227   3.501   0.777  14.934  1.0770 -2.7325  0.1147
 5531SOL     OW28228   0.111   3.704   7.625  0.0999  0.3184  0.0309
 5531SOL    HW128229   0.052   3.629   7.616 -0.7155  0.8670  0.6723
 5531SOL    HW228230   0.190   3.677   7.580  0.3277  0.1480  0.5266
 5532SOL     OW28231   1.756   1.285   4.643 -0.1963 -0.1720 -0.1844
 5532SOL    HW128232   1.762   1.281   4.739 -0.3641 -2.6094 -0.2769
 5532SOL    HW228233   1.844   1.258   4.617  0.1447 -0.3361  1.1505
 5533SOL     OW28234   2.263   3.603   5.599  0.0419 -0.1694 -0.4742
 5533SOL    HW128235   2.292   3.692   5.617 -1.4229  0.2571 -0.2134
 5533SOL    HW228236   2.350   3.565   5.585 -0.3735 -1.0925 -0.5470
 5534SOL     OW28237   0.520   1.256   3.638 -0.2831  0.0155 -0.1198
 5534SOL    HW128238   0.489   1.215   3.557 -1.4790 -0.2932  0.4903
 5534SOL    HW228239   0.594   1.203   3.667 -1.8168 -2.6722 -1.0537
 5535SOL     OW28240   2.152   4.048   5.413  0.0455  0.1951  0.0082
 5535SOL    HW128241   2.195   4.109   5.473 -0.2534  0.0460  0.3712
 5535SOL    HW228242   2.118   3.991   5.483 -1.8456  0.7353 -0.4728
 5536SOL     OW28243   1.171   1.102   2.165  0.5146  0.2950 -0.7079
 5536SOL    HW128244   1.105   1.060   2.220  0.9133  0.3873 -0.1629
 5536SOL    HW228245   1.180   1.188   2.207  0.0477 -0.3807  0.7571
 5537SOL     OW28246   4.179   0.667   3.300 -0.4397  0.6541  0.6956
 5537SOL    HW128247   4.273   0.659   3.282 -0.6461 -1.4162  0.4921
 5537SOL    HW228248   4.151   0.579   3.326  0.5429  1.0447  3.0607
 5538SOL     OW28249   3.756   2.463   4.775 -0.1786  0.5339  0.1170
 5538SOL    HW128250   3.713   2.385   4.810  2.9676 -2.0713 -1.8275
 5538SOL    HW228251   3.764   2.443   4.682 -0.3311 -0.0139  0.2163
 5539SOL     OW28252   0.285   2.863  13.326 -0.0958  0.8446 -0.1301
 5539SOL    HW128253   0.218   2.890  13.264  0.4194  0.5430 -0.8075
 5539SOL    HW228254   0.342   2.810  13.270 -1.6933 -0.8189 -0.1642
 5540SOL     OW28255   1.951   0.250   7.164 -0.0575 -0.0872 -0.1821
 5540SOL    HW128256   1.953   0.322   7.227  2.4213  0.3987 -0.8217
 5540SOL    HW228257   2.007   0.278   7.092 -1.2607 -0.1165 -1.1252
 5541SOL     OW28258   2.076   0.962   3.526 -0.1948  0.0985 -0.7167
 5541SOL    HW128259   2.107   0.927   3.610  0.3336  0.6016 -0.7021
 5541SOL    HW228260   2.041   1.047   3.553  1.7780  0.4778  0.6651
 5542SOL     OW28261   1.559   3.695   7.952 -0.8970  0.2669  0.0735
 5542SOL    HW128262   1.654   3.690   7.962 -0.9782  0.3125  0.8425
 5542SOL    HW228263   1.534   3.758   8.020  0.7457 -0.5255  1.3850
 5543SOL     OW28264   3.216   4.643   5.711 -0.2060 -0.1682 -0.0858
 5543SOL    HW128265   3.215   4.570   5.772 -2.1354  0.2921  0.4279
 5543SOL    HW228266   3.252   4.598   5.635  0.2813 -0.2099  0.1712
 5544SOL     OW28267   0.712   1.792   5.457  0.0215 -0.5389 -0.0319
 5544SOL    HW128268   0.750   1.761   5.375 -1.4109  0.3894 -1.0536
 5544SOL    HW228269   0.717   1.888   5.457  0.7443 -0.5773  0.4889
 5545SOL     OW28270   2.627   0.532   5.544 -0.1113  0.0255  0.2414
 5545SOL    HW128271   2.628   0.555   5.451 -0.6423 -1.9879 -0.2568
 5545SOL    HW228272   2.682   0.598   5.586 -1.8655  1.5225  0.2079
 5546SOL     OW28273   0.956   1.647   5.183 -0.5756  0.2752  0.8727
 5546SOL    HW128274   0.977   1.723   5.237  1.0345  0.3977  0.0562
 5546SOL    HW228275   0.919   1.689   5.106  1.3795  0.1729 -0.1216
 5547SOL     OW28276   3.037   0.623   9.323 -0.2560  0.0444 -0.4664
 5547SOL    HW128277   3.015   0.646   9.413  0.3965  0.3447 -0.3855
 5547SOL    HW228278   3.080   0.704   9.298 -0.2120 -0.3120 -1.5513
 5548SOL     OW28279   3.084   4.218   6.763 -0.8241 -0.4792  0.0405
 5548SOL    HW128280   3.053   4.164   6.836 -0.2003 -0.6982  0.1427
 5548SOL    HW228281   3.022   4.290   6.768  0.1185  0.3358 -0.0754
 5549SOL     OW28282   2.717   1.987   4.396 -0.1528  0.1914 -0.2417
 5549SOL    HW128283   2.804   1.949   4.385 -0.6768 -0.9777 -0.3963
 5549SOL    HW228284   2.725   2.068   4.346  0.0899 -0.3353 -1.0589
 5550SOL     OW28285   1.112   1.166   3.981 -0.2659  0.2526  0.8670
 5550SOL    HW128286   1.051   1.130   4.045  0.9318 -1.4133  1.0790
 5550SOL    HW228287   1.071   1.249   3.957  0.0053  0.1330 -0.0327
 5551SOL     OW28288   0.018   3.877   8.940  0.2225 -0.0713 -0.1772
 5551SOL    HW128289   0.098   3.877   8.888  0.1565 -0.3792 -0.2740
 5551SOL    HW228290   0.009   3.960   8.988  2.6731  1.1658 -1.8736
 5552SOL     OW28291   1.861   1.034   5.173  0.3394  0.1416 -0.3299
 5552SOL    HW128292   1.870   0.942   5.147  1.0089  0.3125 -0.7078
 5552SOL    HW228293   1.948   1.056   5.207  0.0289 -0.7387  1.0400
 5553SOL     OW28294   3.428   3.628   0.374 -0.0686 -1.2449 -0.5385
 5553SOL    HW128295   3.381   3.617   0.292  0.7033  1.4587 -1.3519
 5553SOL    HW228296   3.381   3.562   0.425  0.4986  0.2180  1.8870
 5554SOL     OW28297   1.743   1.217   1.992 -0.2849 -0.5099 -0.1726
 5554SOL    HW128298   1.728   1.138   2.045  1.4192 -0.2554  0.6754
 5554SOL    HW228299   1.827   1.237   2.032  0.4259  1.1920 -2.5387
 5555SOL     OW28300   4.552   2.436   6.117 -0.5890  0.3081 -0.5104
 5555SOL    HW128301   4.599   2.430   6.034  1.4395 -0.3798  0.6892
 5555SOL    HW228302   4.475   2.381   6.102  1.0040 -1.7545 -1.1005
 5556SOL     OW28303   2.000   1.740   8.891 -0.0871  0.3117  0.4545
 5556SOL    HW128304   2.021   1.833   8.887  0.0059  0.1362 -3.3307
 5556SOL    HW228305   1.992   1.731   8.985  0.4426 -1.8361  0.2962
 5557SOL     OW28306   2.347   0.039  13.331 -0.3045  0.0395 -0.3067
 5557SOL    HW128307   2.277   0.064  13.271 -1.2208 -1.8142 -0.0190
 5557SOL    HW228308   2.350   4.682  13.316  1.2699  0.2006 -1.0260
 5558SOL     OW28309   0.667   0.045   2.642  0.6238  0.4563 -0.2144
 5558SOL    HW128310   0.668   0.025   2.736 -2.4333  1.5071  0.0306
 5558SOL    HW228311   0.695   4.697   2.612  0.0671  0.1820  0.0493
 5559SOL     OW28312   4.700   4.248   6.632  0.0360 -0.0751 -0.4389
 5559SOL    HW128313   4.708   4.288   6.545 -1.9551 -2.2508 -1.6216
 5559SOL    HW228314   4.730   4.318   6.689 -2.5193  0.3473  0.3793
 5560SOL     OW28315   2.271   0.469   3.360  0.1029 -0.0860 -0.2980
 5560SOL    HW128316   2.258   0.397   3.298 -0.2588 -1.7351  1.6982
 5560SOL    HW228317   2.214   0.537   3.324 -0.0847 -0.3536 -0.5069
 5561SOL     OW28318   2.033   4.124  16.946 -0.4389 -0.2453  0.1400
 5561SOL    HW128319   2.060   4.085  17.029 -2.0848 -2.4506 -0.3864
 5561SOL    HW228320   1.949   4.079  16.940  0.3368 -1.7704  0.6871
 5562SOL     OW28321   0.682   0.154   9.773  0.3357 -0.5891 -0.0340
 5562SOL    HW128322   0.682   0.152   9.869  0.5974  1.2857  0.0077
 5562SOL    HW228323   0.764   0.201   9.761  0.5154 -1.6036 -2.5920
 5563SOL     OW28324   0.723   0.618   6.466 -0.3193  0.1570  0.6053
 5563SOL    HW128325   0.646   0.566   6.446 -0.5971  0.3118  1.2781
 5563SOL    HW228326   0.730   0.596   6.559  3.7129 -1.6487 -0.0944
 5564SOL     OW28327   2.261   0.657   6.385  0.0760  0.6759 -0.0532
 5564SOL    HW128328   2.196   0.662   6.315  1.5832  0.0164 -1.4795
 5564SOL    HW228329   2.294   0.745   6.401  1.4270  0.1889 -0.1446
 5565SOL     OW28330   0.881   1.523  11.953  0.0835  0.4486 -0.0104
 5565SOL    HW128331   0.945   1.500  11.886 -1.1250 -0.2509 -0.9223
 5565SOL    HW228332   0.804   1.529  11.897  2.0750  1.9562 -2.5808
 5566SOL     OW28333   1.122   4.663  12.267  0.1949  0.3204  0.1809
 5566SOL    HW128334   1.062   4.730  12.235 -2.8982 -1.4066  2.3890
 5566SOL    HW228335   1.113   4.594  12.202  0.0582 -0.6846  1.2669
 5567SOL     OW28336   4.189   3.816   9.596  0.2247 -0.1535  0.3885
 5567SOL    HW128337   4.235   3.826   9.680  0.3930  0.2709  0.2477
 5567SOL    HW228338   4.104   3.849   9.626  0.2591  0.2617  0.0276
 5568SOL     OW28339   1.561   2.915   9.419 -0.0551 -0.1667 -0.1091
 5568SOL    HW128340   1.653   2.888   9.413  0.0290  0.2313 -0.5848
 5568SOL    HW228341   1.574   2.969   9.497  2.6440 -0.4396 -0.3591
 5569SOL     OW28342   3.560   1.387   6.743  0.0735  0.2720 -0.6422
 5569SOL    HW128343   3.555   1.449   6.816 -1.5888 -0.2395 -0.3258
 5569SOL    HW228344   3.641   1.405   6.695  1.1827 -1.3316  0.6729
 5570SOL     OW28345   0.513   2.088   7.113  0.2675  0.3495  0.0646
 5570SOL    HW128346   0.515   2.005   7.065 -0.2484  0.1686  0.3505
 5570SOL    HW228347   0.419   2.094   7.131  0.2264 -0.7777  0.2535
 5571SOL     OW28348   4.503   2.926  12.781  0.0846  0.5668  0.2272
 5571SOL    HW128349   4.579   2.886  12.739 -0.3562  0.0880 -0.1164
 5571SOL    HW228350   4.501   3.013  12.741 -0.6654  0.5857  0.3131
 5572SOL     OW28351   4.588   0.470  12.448  0.2625  1.0911  0.3799
 5572SOL    HW128352   4.567   0.462  12.541  1.7927  0.5687  0.6763
 5572SOL    HW228353   4.682   0.489  12.451  0.9090 -2.2386  0.3960
 5573SOL     OW28354   4.342   1.466   1.294  0.2417  0.2721 -0.0496
 5573SOL    HW128355   4.264   1.441   1.343 -0.6582  0.4297 -1.3825
 5573SOL    HW228356   4.312   1.444   1.205 -1.6781  0.6611  0.4975
 5574SOL     OW28357   4.097   0.597   4.488 -0.1005  0.6002 -0.1927
 5574SOL    HW128358   4.161   0.540   4.530  1.1146 -0.2505 -3.2561
 5574SOL    HW228359   4.111   0.669   4.550  0.6070  1.6036 -1.5491
 5575SOL     OW28360   4.014   4.682  14.386 -0.3155 -0.1122  0.4438
 5575SOL    HW128361   4.004   4.586  14.386 -2.3168  0.0965 -0.2973
 5575SOL    HW228362   4.021   4.704  14.478  0.8155  1.2761  0.0244
 5576SOL     OW28363   1.212   4.063   2.338 -0.3121  0.1211 -1.4259
 5576SOL    HW128364   1.302   4.060   2.372 -0.2674 -0.5994 -1.6181
 5576SOL    HW228365   1.175   4.146   2.369 -1.7453 -1.4705  1.0969
 5577SOL     OW28366   2.633   3.209   3.365  0.7245 -0.4832  0.5916
 5577SOL    HW128367   2.640   3.138   3.301 -1.8707  1.5362 -1.9262
 5577SOL    HW228368   2.595   3.161   3.438 -3.0696 -0.4008 -1.3102
 5578SOL     OW28369   2.128   4.495   0.703  0.7522 -0.0612  0.0659
 5578SOL    HW128370   2.059   4.554   0.672  1.5802  0.3394 -1.0335
 5578SOL    HW228371   2.206   4.549   0.715  0.2868  0.5046  0.5149
 5579SOL     OW28372   3.449   2.535   7.332  0.7707  0.2197 -0.1640
 5579SOL    HW128373   3.407   2.591   7.266 -1.7190 -0.6074  0.7299
 5579SOL    HW228374   3.405   2.452   7.314 -2.3024  2.0160 -0.8552
 5580SOL     OW28375   1.397   2.936   8.400 -0.6180 -0.1522  0.2516
 5580SOL    HW128376   1.396   2.926   8.305 -0.7387 -0.7220  0.3145
 5580SOL    HW228377   1.486   2.966   8.416 -0.9758  0.3867  1.2180
 5581SOL     OW28378   2.169   2.935   3.103  0.9881  0.3468 -0.7133
 5581SOL    HW128379   2.124   2.859   3.139  1.5333  0.8849  1.1278
 5581SOL    HW228380   2.242   2.899   3.053  0.0475 -0.0923 -1.7659
 5582SOL     OW28381   1.942   4.442   4.108  0.0049  0.4190  0.1257
 5582SOL    HW128382   1.982   4.430   4.022 -1.9213  0.4930 -0.7882
 5582SOL    HW228383   1.878   4.511   4.089  0.1128  0.7814  1.0418
 5583SOL     OW28384   3.225   3.711   8.784 -0.3078 -1.0134 -0.1679
 5583SOL    HW128385   3.150   3.688   8.839 -0.7958  0.3650 -0.2574
 5583SOL    HW228386   3.298   3.677   8.836 -0.2838 -1.0772 -0.2446
 5584SOL     OW28387   4.255   1.914   8.005  0.0544 -0.7103 -0.3940
 5584SOL    HW128388   4.203   1.873   7.936 -0.1196  2.1106 -1.9293
 5584SOL    HW228389   4.240   2.008   7.996  0.4279 -0.4521  1.6307
 5585SOL     OW28390   0.776   1.004   7.650  0.2017 -0.9376  0.2024
 5585SOL    HW128391   0.732   1.059   7.585  0.4905  0.0972  0.8825
 5585SOL    HW228392   0.787   0.919   7.607  1.1049  0.8083 -3.0533
 5586SOL     OW28393   4.737   1.215   7.197 -0.0250  0.0122  0.0642
 5586SOL    HW128394   0.038   1.183   7.116 -1.6619  1.5894 -1.3716
 5586SOL    HW228395   0.070   1.273   7.225  0.4480 -0.8573  0.6274
 5587SOL     OW28396   3.904   0.637   2.675  0.1141 -0.1685  0.6302
 5587SOL    HW128397   3.892   0.578   2.750 -2.0389  0.3873  0.7319
 5587SOL    HW228398   3.828   0.691   2.696  0.1156 -0.4114  1.2598
 5588SOL     OW28399   2.542   2.844  12.548  0.3203 -0.2239  0.1801
 5588SOL    HW128400   2.613   2.862  12.486  1.2455  0.1241  1.3446
 5588SOL    HW228401   2.472   2.825  12.486 -0.2446 -0.5034  0.9090
 5589SOL     OW28402   0.858   0.255   2.952 -0.0707  0.0994 -0.1839
 5589SOL    HW128403   0.815   0.300   3.024  0.6299 -0.0336  0.3163
 5589SOL    HW228404   0.870   0.167   2.986  0.5669  0.2158 -0.1068
 5590SOL     OW28405   3.359   3.841   5.058 -0.0889  0.1921 -0.2915
 5590SOL    HW128406   3.374   3.758   5.012 -1.8252  0.2803 -1.0419
 5590SOL    HW228407   3.275   3.871   5.021 -0.4201  0.1784  0.4457
 5591SOL     OW28408   3.455   3.452  12.324 -0.0473 -0.5355 -0.1462
 5591SOL    HW128409   3.403   3.515  12.374 -0.6165 -0.2070 -1.1381
 5591SOL    HW228410   3.529   3.449  12.384 -0.1563 -1.4401 -0.0569
 5592SOL     OW28411   1.347   2.060   3.880  0.2762  0.4516 -0.3191
 5592SOL    HW128412   1.279   2.126   3.892  0.6066  0.8398 -0.5402
 5592SOL    HW228413   1.365   2.086   3.789 -1.4960  0.7753 -0.5796
 5593SOL     OW28414   0.755   0.667   8.274 -0.0606  0.1438 -0.2684
 5593SOL    HW128415   0.760   0.585   8.224  0.7289  0.0546 -0.0382
 5593SOL    HW228416   0.835   0.709   8.243  0.8534 -0.6238  1.0643
 5594SOL     OW28417   2.651   4.327   2.515 -0.0633  0.4417 -0.0790
 5594SOL    HW128418   2.577   4.325   2.453 -1.4010 -0.1736  1.5381
 5594SOL    HW228419   2.642   4.408   2.566 -2.0548 -1.5717  2.7433
 5595SOL     OW28420   3.757   2.562   7.045 -0.3291 -0.7560  0.4783
 5595SOL    HW128421   3.706   2.643   7.044 -0.1768 -0.6428  1.1499
 5595SOL    HW228422   3.834   2.600   7.001 -1.5289  0.0627 -0.8899
 5596SOL     OW28423   1.438   2.978   1.611 -0.3411 -0.0088 -0.7468
 5596SOL    HW128424   1.527   2.944   1.606 -0.4907 -0.8217  2.3220
 5596SOL    HW228425   1.458   3.071   1.598  2.0784 -0.2104  1.5342
 5597SOL     OW28426   2.968   1.305   3.675 -0.8822  0.3959  0.4332
 5597SOL    HW128427   2.923   1.343   3.599 -1.7685  1.3952  1.4502
 5597SOL    HW228428   2.902   1.316   3.744 -1.1738 -0.5669  0.3109
 5598SOL     OW28429   2.260   0.194  13.534 -0.1390  0.2386 -0.1036
 5598SOL    HW128430   2.285   0.130  13.468  0.3409  2.5733 -2.2075
 5598SOL    HW228431   2.295   0.155  13.614 -0.9517  0.0176  0.1520
 5599SOL     OW28432   4.511   1.507   8.138 -0.4613 -0.2866  0.0939
 5599SOL    HW128433   4.429   1.498   8.187 -0.8493  2.3104 -0.0710
 5599SOL    HW228434   4.484   1.590   8.098 -0.6212 -0.3460  0.0777
 5600SOL     OW28435   4.228   3.775  11.704  0.4074 -0.0077 -0.0091
 5600SOL    HW128436   4.218   3.801  11.612 -1.1466 -0.9082 -0.0977
 5600SOL    HW228437   4.321   3.753  11.706  0.5114  0.5002  0.7152
 5601SOL     OW28438   0.832   4.108   2.219  0.0723  0.0914 -0.4544
 5601SOL    HW128439   0.745   4.085   2.252 -0.0744 -1.9326 -2.2506
 5601SOL    HW228440   0.864   4.169   2.285 -1.5838  0.7705 -0.2793
 5602SOL     OW28441   1.429   3.071   4.278 -0.4810 -0.0974 -0.5608
 5602SOL    HW128442   1.512   3.075   4.325 -0.1739  2.4979 -1.3362
 5602SOL    HW228443   1.450   3.030   4.194 -2.1560  1.9075 -1.9749
 5603SOL     OW28444   0.478   2.881   2.214 -0.1579  0.1898  0.4716
 5603SOL    HW128445   0.422   2.902   2.139 -1.4350  0.3438  1.4604
 5603SOL    HW228446   0.423   2.896   2.291  0.4287  2.2810  0.4781
 5604SOL     OW28447   4.534   2.494   3.194 -0.5100  0.0571  0.3775
 5604SOL    HW128448   4.515   2.570   3.249  0.9986  0.1325  0.7845
 5604SOL    HW228449   4.594   2.546   3.140 -0.8236  0.6438  0.5935
 5605SOL     OW28450   3.025   3.420   2.794  0.1055 -0.3444 -0.8944
 5605SOL    HW128451   2.975   3.367   2.732  0.3583 -0.3620 -1.0847
 5605SOL    HW228452   2.983   3.394   2.876  0.2558  0.3669 -0.5921
 5606SOL     OW28453   3.010   2.694   8.079 -0.5337 -0.2546 -0.4615
 5606SOL    HW128454   2.966   2.777   8.100 -1.3142 -0.3561 -1.6784
 5606SOL    HW228455   3.079   2.725   8.021 -0.3394  0.7189  0.2857
 5607SOL     OW28456   4.333   0.854   7.743  0.4155  0.2827 -0.2938
 5607SOL    HW128457   4.421   0.839   7.778 -0.0832  0.0193  0.8576
 5607SOL    HW228458   4.356   0.897   7.661 -0.1910  0.6451 -0.2794
 5608SOL     OW28459   2.153   2.855   9.756 -0.3092  0.3519 -0.0337
 5608SOL    HW128460   2.076   2.818   9.800  0.9592  0.3941  2.2008
 5608SOL    HW228461   2.200   2.890   9.831 -0.3920  0.7613 -0.1735
 5609SOL     OW28462   0.892   2.870   2.956  0.2674  0.7598 -0.1661
 5609SOL    HW128463   0.960   2.860   3.023 -0.1363  0.2025  0.1581
 5609SOL    HW228464   0.855   2.783   2.946 -2.4190  2.0530 -1.1962
 5610SOL     OW28465   4.490   3.644   3.859 -0.1069  0.3800 -0.1386
 5610SOL    HW128466   4.509   3.715   3.921 -2.4287  0.4935  0.4414
 5610SOL    HW228467   4.574   3.633   3.813  1.1773  2.5285  1.6687
 5611SOL     OW28468   4.710   4.550   7.593  0.3231  0.0590  0.0936
 5611SOL    HW128469   4.662   4.612   7.537  0.1536  0.3568  0.5691
 5611SOL    HW228470   4.643   4.482   7.596  0.6506 -0.3505 -2.1571
 5612SOL     OW28471   0.483   3.253   7.511  0.2723 -0.0118  0.0244
 5612SOL    HW128472   0.494   3.167   7.550  0.3859  0.9892  2.2002
 5612SOL    HW228473   0.467   3.233   7.418 -0.1684 -0.7630  0.2667
 5613SOL     OW28474   3.539   3.407  14.833  0.3608  0.0715  0.2326
 5613SOL    HW128475   3.445   3.402  14.850  0.2790  1.9867  0.3269
 5613SOL    HW228476   3.534   3.418  14.738  1.3224 -0.6146  0.1015
 5614SOL     OW28477   0.068   2.021   8.683 -0.1332  0.2270  0.2225
 5614SOL    HW128478   0.020   1.953   8.636  1.5791 -0.9064  0.1338
 5614SOL    HW228479   0.160   2.020   8.657  0.2361 -0.0510  1.5534
 5615SOL     OW28480   0.624   1.186   6.513  0.0203  0.3220 -0.1202
 5615SOL    HW128481   0.654   1.159   6.427 -1.6130  0.7940 -0.8391
 5615SOL    HW228482   0.560   1.254   6.492 -2.1870 -1.4212  0.9149
 5616SOL     OW28483   4.380   1.986   8.251  0.7037 -0.1083 -0.1584
 5616SOL    HW128484   4.336   1.971   8.167  0.2048 -1.7207  0.3820
 5616SOL    HW228485   4.463   2.031   8.235  1.5063 -0.7543  2.2455
 5617SOL     OW28486   3.956   3.624  16.026 -0.7072 -0.1301  0.1191
 5617SOL    HW128487   3.982   3.543  16.070 -0.7566 -0.7202 -0.9378
 5617SOL    HW228488   3.954   3.680  16.104 -0.1811  0.2214 -0.1247
 5618SOL     OW28489   1.730   0.794   9.285 -0.6323 -0.2105 -0.2710
 5618SOL    HW128490   1.682   0.872   9.260  1.2918  0.5602 -1.5965
 5618SOL    HW228491   1.812   0.841   9.299 -1.5846  1.2464  0.4168
 5619SOL     OW28492   2.998   4.294  13.473 -0.4749 -0.6684 -0.1511
 5619SOL    HW128493   2.988   4.382  13.438 -0.8889 -1.3890 -1.8278
 5619SOL    HW228494   3.067   4.252  13.422 -1.7383 -0.4650 -2.0401
 5620SOL     OW28495   0.709   1.411   3.398 -0.3197  0.0127 -0.4075
 5620SOL    HW128496   0.685   1.407   3.305  0.2129 -0.7823 -0.5201
 5620SOL    HW228497   0.773   1.481   3.406  1.1239 -1.5057  1.3963
 5621SOL     OW28498   3.527   3.032   8.489 -0.2279 -0.6121  0.1647
 5621SOL    HW128499   3.599   2.987   8.534  1.5044 -0.2129 -2.1651
 5621SOL    HW228500   3.545   3.002   8.400 -2.8679  1.1852 -0.9722
 5622SOL     OW28501   2.393   4.059  13.745  0.2490 -0.2666 -0.0954
 5622SOL    HW128502   2.468   4.077  13.688  1.2535 -1.5390  0.8126
 5622SOL    HW228503   2.379   4.139  13.795  3.1279  0.5385 -0.5796
 5623SOL     OW28504   2.739   1.738   9.225  0.2105 -0.4903  0.2884
 5623SOL    HW128505   2.779   1.651   9.232 -0.1802 -0.6521  0.5231
 5623SOL    HW228506   2.648   1.710   9.237 -0.3875  1.3081 -0.0031
 5624SOL     OW28507   0.122   3.120   8.621 -0.1777 -0.1306 -0.3415
 5624SOL    HW128508   0.172   3.052   8.576  0.2872 -0.4406  0.6318
 5624SOL    HW228509   0.175   3.197   8.599 -0.7274  0.2453 -0.3587
 5625SOL     OW28510   3.442   0.551  16.838 -0.1129 -0.8479  0.1180
 5625SOL    HW128511   3.361   0.594  16.812  0.1963 -0.4477 -0.1714
 5625SOL    HW228512   3.515   0.603  16.804 -1.3538 -0.1289 -1.4296
 5626SOL     OW28513   1.931   1.532  17.642  0.9442  0.1525 -0.3357
 5626SOL    HW128514   1.957   1.613  17.598  1.3445  1.3974  2.1860
 5626SOL    HW228515   1.930   1.571  17.729  2.6950 -2.9134  1.0867
 5627SOL     OW28516   4.194   2.056   2.922  0.9011 -0.2892  0.4040
 5627SOL    HW128517   4.184   1.969   2.883 -2.3139  1.2273 -2.1312
 5627SOL    HW228518   4.110   2.069   2.967  1.3253 -2.9100  2.0021
 5628SOL     OW28519   1.178   0.196   3.439 -0.3165 -0.4844  0.3018
 5628SOL    HW128520   1.198   0.290   3.435  0.4787 -0.6900 -0.5771
 5628SOL    HW228521   1.195   0.168   3.529  0.8494  1.3348  0.6451
 5629SOL     OW28522   0.057   3.274   3.916  0.4401  0.6629 -0.0148
 5629SOL    HW128523   0.116   3.312   3.851 -0.1985  0.0795 -0.9433
 5629SOL    HW228524   0.033   3.348   3.971 -1.3164  0.8872 -1.0610
 5630SOL     OW28525   3.008   0.940   2.878  0.1999  0.0472 -0.0564
 5630SOL    HW128526   2.915   0.960   2.867  0.6443  2.4765  0.5372
 5630SOL    HW228527   3.048   1.015   2.922  0.5061 -0.4192  0.4650
 5631SOL     OW28528   0.949   1.052   9.571 -0.3869 -0.4421 -0.1618
 5631SOL    HW128529   0.996   1.065   9.489 -1.3971  2.0632 -0.3355
 5631SOL    HW228530   0.885   0.982   9.556  0.5407 -1.2003 -0.5353
 5632SOL     OW28531   3.461   0.911  15.320 -0.1237  0.3702  0.6805
 5632SOL    HW128532   3.435   0.819  15.317 -1.1945  0.7204 -0.6110
 5632SOL    HW228533   3.469   0.923  15.415  2.9242  1.5103  0.2742
 5633SOL     OW28534   3.441   0.916   7.073  0.0022 -0.7391 -0.1055
 5633SOL    HW128535   3.433   0.998   7.024 -0.0968 -0.0121  1.1127
 5633SOL    HW228536   3.490   0.861   7.012  0.7736 -1.1374  0.8766
 5634SOL     OW28537   1.978   2.907   0.334 -0.1369  0.3128 -0.2178
 5634SOL    HW128538   1.963   2.980   0.274  1.9426  0.6568 -0.3025
 5634SOL    HW228539   1.918   2.842   0.298 -0.0778  0.7038 -1.0127
 5635SOL     OW28540   3.649   3.442   8.023 -0.9598 -0.4244 -0.5481
 5635SOL    HW128541   3.558   3.427   7.998 -1.4877  2.4896 -0.3177
 5635SOL    HW228542   3.656   3.389   8.102 -1.4039  1.4524  0.7363
 5636SOL     OW28543   2.395   1.619  13.533  0.6584  0.1730  0.0311
 5636SOL    HW128544   2.449   1.583  13.603 -0.4301  0.3860  0.9689
 5636SOL    HW228545   2.314   1.569  13.528  0.7126  0.3443 -2.4888
 5637SOL     OW28546   3.165   3.846   9.731 -0.3707  0.5712 -0.4002
 5637SOL    HW128547   3.231   3.915   9.728  0.7747 -0.5852 -1.4986
 5637SOL    HW228548   3.218   3.778   9.772 -0.9409  1.2266  1.3944
 5638SOL     OW28549   1.275   3.695   5.797  0.3741 -0.5528  0.7599
 5638SOL    HW128550   1.301   3.784   5.818 -2.1314  1.1378 -3.3440
 5638SOL    HW228551   1.328   3.649   5.862  1.9086 -1.2733 -1.0105
 5639SOL     OW28552   2.789   3.645   6.643 -0.3097 -0.0242 -0.0613
 5639SOL    HW128553   2.792   3.720   6.585  0.3364  0.8885  1.1462
 5639SOL    HW228554   2.795   3.687   6.729  0.9826  0.2195 -0.2810
 5640SOL     OW28555   3.537   4.151   2.179  0.3741  0.4440  0.1146
 5640SOL    HW128556   3.564   4.164   2.088  2.2313 -0.6257  0.5199
 5640SOL    HW228557   3.618   4.151   2.229  1.0507 -0.4140 -0.9695
 5641SOL     OW28558   3.885   2.195   4.435 -0.0885  0.2611 -0.4821
 5641SOL    HW128559   3.950   2.255   4.473  1.1936 -1.7275  0.4391
 5641SOL    HW228560   3.914   2.110   4.467  1.8299  0.5694 -1.3262
 5642SOL     OW28561   3.458   2.803   9.575  0.1235 -0.1101 -0.0130
 5642SOL    HW128562   3.389   2.811   9.640  0.0136 -1.3169  0.0184
 5642SOL    HW228563   3.441   2.868   9.507 -0.3111 -0.3961 -0.1768
 5643SOL     OW28564   0.675   0.739   5.256  0.4665 -0.4331 -0.2437
 5643SOL    HW128565   0.679   0.684   5.334  0.9555  0.2589  0.2260
 5643SOL    HW228566   0.628   0.681   5.196 -0.2467  1.4373 -1.4868
 5644SOL     OW28567   2.261   0.414   6.706  0.0150 -0.0839  0.1620
 5644SOL    HW128568   2.268   0.394   6.612  1.0751 -0.7761  0.3997
 5644SOL    HW228569   2.280   0.508   6.708 -0.9208  0.1348 -0.6972
 5645SOL     OW28570   1.100   4.544  15.787  0.2282 -0.3619 -0.5264
 5645SOL    HW128571   1.017   4.577  15.754 -1.4343 -1.6207  2.3704
 5645SOL    HW228572   1.146   4.527  15.705 -0.1841 -2.1729 -0.4029
 5646SOL     OW28573   4.189   3.326   3.748  0.2672 -0.4899 -0.3046
 5646SOL    HW128574   4.176   3.231   3.740 -3.1937  0.0752 -1.3639
 5646SOL    HW228575   4.253   3.354   3.683 -0.3749  1.2454 -0.2068
 5647SOL     OW28576   0.415   3.699   1.236 -0.0016  0.1633  0.1966
 5647SOL    HW128577   0.400   3.761   1.306  0.5860  1.1660 -0.5670
 5647SOL    HW228578   0.509   3.680   1.236 -0.6560 -2.9833  2.4605
 5648SOL     OW28579   1.685   2.992  10.831 -0.8874 -0.0809  0.2916
 5648SOL    HW128580   1.615   3.057  10.834 -0.4531  0.3976  0.0029
 5648SOL    HW228581   1.750   3.041  10.781 -1.7590  0.7844  0.0139
 5649SOL     OW28582   3.038   4.600   3.244  0.2873 -0.2531  0.1351
 5649SOL    HW128583   3.071   4.512   3.261  1.9331  0.4950  0.8725
 5649SOL    HW228584   3.108   4.645   3.197 -0.2336 -0.1261 -0.5224
 5650SOL     OW28585   1.223   0.543   4.961  0.0488 -0.0680  0.0375
 5650SOL    HW128586   1.199   0.513   5.048  0.8810  0.5050  0.4611
 5650SOL    HW228587   1.159   0.613   4.947  2.3416  1.8320 -0.9066
 5651SOL     OW28588   3.797   0.384   7.952  0.3267 -0.0558  0.1381
 5651SOL    HW128589   3.891   0.371   7.945  0.2233 -1.8223  2.1385
 5651SOL    HW228590   3.781   0.389   7.857 -0.8098 -3.0259  0.1536
 5652SOL     OW28591   3.399   1.958  17.007 -0.4853 -0.2303 -0.4347
 5652SOL    HW128592   3.350   1.926  17.083 -1.5813 -0.6022 -1.2825
 5652SOL    HW228593   3.401   2.049  17.036 -1.8292 -0.3038 -0.0811
 5653SOL     OW28594   1.186   1.112   2.716 -0.0959 -0.0854  0.1427
 5653SOL    HW128595   1.153   1.149   2.634 -1.2517  0.9306  1.0671
 5653SOL    HW228596   1.111   1.119   2.775 -0.2769 -1.1044  0.0428
 5654SOL     OW28597   3.009   3.684   2.689  0.1344 -0.4656 -0.1683
 5654SOL    HW128598   3.100   3.694   2.663  0.0401 -0.6701 -0.5666
 5654SOL    HW228599   3.005   3.589   2.703 -0.3775 -0.6300 -1.4467
 5655SOL     OW28600   2.808   1.383   8.180  0.1258  0.4298  0.4775
 5655SOL    HW128601   2.721   1.381   8.221 -0.9016 -0.5972 -1.7220
 5655SOL    HW228602   2.834   1.291   8.169  2.3743  1.3901 -2.0132
 5656SOL     OW28603   4.591   0.192   5.351 -0.7371 -0.0970 -0.4540
 5656SOL    HW128604   4.664   0.233   5.306 -0.1583  0.4204  0.9515
 5656SOL    HW228605   4.533   0.267   5.368 -0.1294 -0.1810  2.0411
 5657SOL     OW28606   2.898   1.852   0.949  0.6368  0.5153 -0.2486
 5657SOL    HW128607   2.891   1.806   1.033 -2.7839  0.8492 -0.3254
 5657SOL    HW228608   2.835   1.924   0.960  0.0792  0.4024 -2.5763
 5658SOL     OW28609   1.860   2.643   3.404 -0.2834  0.8732 -0.5328
 5658SOL    HW128610   1.812   2.618   3.325 -0.4026  0.2453 -0.2640
 5658SOL    HW228611   1.954   2.641   3.391 -0.3536 -2.4064 -0.4827
 5659SOL     OW28612   4.644   0.358  10.319  0.1056 -0.3058  0.2872
 5659SOL    HW128613   4.708   0.294  10.352  0.7986  1.4423  2.2922
 5659SOL    HW228614   4.590   0.295  10.271  0.2457 -0.9139  0.9160
 5660SOL     OW28615   0.556   0.221   8.378 -0.1937 -0.0798 -0.4638
 5660SOL    HW128616   0.549   0.317   8.380  1.7280  0.0640  0.0833
 5660SOL    HW228617   0.637   0.213   8.327  0.0036  1.3974 -0.3906
 5661SOL     OW28618   1.377   3.926   3.904 -0.4457 -0.0635 -0.4953
 5661SOL    HW128619   1.398   3.907   3.813  0.6450  0.8812 -0.4298
 5661SOL    HW228620   1.406   4.016   3.918  0.5288 -0.6056  1.0852
 5662SOL     OW28621   1.879   4.551   9.318 -0.0023 -0.1519  0.7009
 5662SOL    HW128622   1.841   4.634   9.292  1.1827 -0.1660 -1.0597
 5662SOL    HW228623   1.800   4.498   9.310 -0.3689  0.3046  1.3854
 5663SOL     OW28624   1.270   4.656   7.586  0.2365  0.7579  0.0109
 5663SOL    HW128625   1.304   4.700   7.664  1.7943 -1.1437  0.4134
 5663SOL    HW228626   1.344   4.606   7.550  0.8450  1.2896  0.5259
 5664SOL     OW28627   3.903   2.306  10.835  0.7039 -0.1315 -0.3297
 5664SOL    HW128628   3.931   2.277  10.748  1.0784 -0.7012 -0.0172
 5664SOL    HW228629   3.943   2.392  10.824 -1.6999  1.0682  0.3177
 5665SOL     OW28630   4.343   0.116   5.192  0.0997  0.2843  0.5096
 5665SOL    HW128631   4.258   0.158   5.202  0.4361  1.7407 -2.4664
 5665SOL    HW228632   4.402   0.174   5.239  0.1438  0.5437  0.1394
 5666SOL     OW28633   1.525   2.873   8.143 -0.0246 -0.0087  0.0806
 5666SOL    HW128634   1.612   2.874   8.182  0.9106 -0.7873 -1.9732
 5666SOL    HW228635   1.547   2.903   8.055  1.1848 -0.2632  0.2921
 5667SOL     OW28636   2.700   0.210   5.214  0.6916 -0.2371  0.4256
 5667SOL    HW128637   2.700   0.148   5.287 -0.9674 -0.6461  0.0844
 5667SOL    HW228638   2.613   0.249   5.225  0.8652  0.1577  0.4057
 5668SOL     OW28639   2.997   2.217   2.031 -0.4498 -0.2930 -0.1191
 5668SOL    HW128640   3.027   2.203   2.121 -0.0648 -1.7111 -0.4686
 5668SOL    HW228641   3.036   2.142   1.987  1.7840  1.1320 -0.6183
 5669SOL     OW28642   1.604   1.628   6.730  0.3432 -0.1158 -0.3659
 5669SOL    HW128643   1.661   1.554   6.711 -0.8468 -0.3921 -2.8749
 5669SOL    HW228644   1.522   1.578   6.736 -0.2924  1.0120  0.3186
 5670SOL     OW28645   0.093   0.673  17.007 -0.1382  0.1562 -0.1716
 5670SOL    HW128646   4.737   0.687  17.001 -0.6403 -3.5091 -0.9664
 5670SOL    HW228647   0.100   0.677  17.102  0.4588 -1.6880 -0.1286
 5671SOL     OW28648   4.709   3.290  13.140 -0.0115 -0.7552 -0.1228
 5671SOL    HW128649   4.662   3.249  13.068  2.7076  0.4161 -2.5619
 5671SOL    HW228650   0.037   3.344  13.097 -1.3941 -1.2432 -2.8238
 5672SOL     OW28651   0.496   2.858   9.091  0.2123  0.8407  0.4060
 5672SOL    HW128652   0.529   2.852   9.181  0.6791 -0.7685  0.1349
 5672SOL    HW228653   0.409   2.822   9.111  1.1544 -0.8427  1.5247
 5673SOL     OW28654   0.046   0.795   3.749  0.3858 -0.0751 -0.5823
 5673SOL    HW128655   4.715   0.855   3.777  0.2086  0.0502 -1.3013
 5673SOL    HW228656   0.128   0.846   3.749  0.5503 -0.3331  0.4421
 5674SOL     OW28657   4.704   1.216   8.371 -0.0459 -0.1640  0.0636
 5674SOL    HW128658   0.002   1.223   8.460  0.0774 -1.0062  0.0725
 5674SOL    HW228659   4.619   1.178   8.393 -0.7080  1.1998 -0.1190
 5675SOL     OW28660   1.136   0.059   8.623  0.1312  0.4463 -0.6132
 5675SOL    HW128661   1.161   4.721   8.571  1.1047  0.2046  0.2087
 5675SOL    HW228662   1.101   0.120   8.558  0.3157  0.0709 -1.0606
 5676SOL     OW28663   4.642   4.231   2.561 -0.2581  0.0299 -0.2753
 5676SOL    HW128664   4.689   4.173   2.502 -2.0967 -1.4274 -0.2989
 5676SOL    HW228665   4.636   4.299   2.493 -0.8070 -0.9814 -1.2302
 5677SOL     OW28666   4.376   0.091   6.723 -0.0750  0.3580  0.2859
 5677SOL    HW128667   4.413   0.176   6.701 -0.6436  0.0818 -1.7276
 5677SOL    HW228668   4.310   0.090   6.654  0.1049 -1.7309  0.1417
 5678SOL     OW28669   3.903   3.175  15.934  0.0252  0.3346  0.7155
 5678SOL    HW128670   3.889   3.103  15.996  1.1463  0.5066  1.1762
 5678SOL    HW228671   3.814   3.204  15.916 -0.0607 -1.0453 -1.1110
 5679SOL     OW28672   3.721   0.732  16.428  0.5364 -0.0012 -0.3603
 5679SOL    HW128673   3.718   0.640  16.452  1.4834  0.2912  0.8918
 5679SOL    HW228674   3.811   0.732  16.394  0.7078 -0.6316  0.0824
 5680SOL     OW28675   0.643   1.605   1.680 -0.5482 -0.7282 -0.3768
 5680SOL    HW128676   0.616   1.564   1.762 -0.7832 -1.2266 -0.7051
 5680SOL    HW228677   0.695   1.538   1.635  0.2083  1.9379 -3.3931
 5681SOL     OW28678   1.101   3.329   6.801 -0.2140 -0.0916  0.7100
 5681SOL    HW128679   1.166   3.259   6.792 -0.3967 -0.4991  2.6046
 5681SOL    HW228680   1.152   3.401   6.837  0.7625 -0.3077 -0.2516
 5682SOL     OW28681   0.014   1.537  16.432 -0.0570  0.1459  0.4078
 5682SOL    HW128682   0.063   1.480  16.491  0.5327 -0.2121 -0.4250
 5682SOL    HW228683   4.715   1.473  16.371  2.5603  0.1761 -1.2019
 5683SOL     OW28684   2.963   0.149   2.349  0.3795 -0.4622 -0.0612
 5683SOL    HW128685   2.999   0.082   2.407  2.3899  0.1818 -0.5869
 5683SOL    HW228686   2.961   0.095   2.270  0.1106 -0.7301  0.1259
 5684SOL     OW28687   0.874   1.135   7.871 -0.7609  0.2182 -0.0776
 5684SOL    HW128688   0.836   1.126   7.784 -1.7474  1.2950  0.2374
 5684SOL    HW228689   0.849   1.051   7.910  0.5560 -0.4642 -0.7076
 5685SOL     OW28690   2.434   2.968   5.811  0.0810 -0.6863  0.2418
 5685SOL    HW128691   2.462   3.056   5.836  0.6439 -1.9126  3.8311
 5685SOL    HW228692   2.339   2.971   5.817  0.0080 -0.2619 -1.0187
 5686SOL     OW28693   0.867   0.147  14.507  0.3698  0.7857  0.7209
 5686SOL    HW128694   0.876   0.061  14.548  0.2465  0.1499 -0.5906
 5686SOL    HW228695   0.782   0.179  14.538 -0.2637 -0.3513  0.1395
 5687SOL     OW28696   0.827   2.966   2.206  0.4946 -0.2729 -0.4339
 5687SOL    HW128697   0.818   2.938   2.114 -0.8886  0.3590 -0.4985
 5687SOL    HW228698   0.761   3.036   2.213 -0.7967 -1.6014  0.6211
 5688SOL     OW28699   0.943   1.531  12.686 -0.6958  0.2728 -0.4417
 5688SOL    HW128700   1.018   1.590  12.690 -1.2011  0.7824  1.5461
 5688SOL    HW228701   0.880   1.582  12.737 -0.3686  0.5637 -0.3331
 5689SOL     OW28702   1.987   1.179   3.656 -0.4891  0.2269  0.3446
 5689SOL    HW128703   1.918   1.201   3.719 -2.7103 -2.3701 -1.1724
 5689SOL    HW228704   2.060   1.215   3.707 -1.9759  1.0585  1.8940
 5690SOL     OW28705   4.435   1.898   3.646 -0.7268 -0.3631 -0.0501
 5690SOL    HW128706   4.431   1.954   3.569  0.3977  0.8023  0.7467
 5690SOL    HW228707   4.408   1.960   3.714  1.3927  1.5819 -1.0182
 5691SOL     OW28708   3.582   0.180   6.044  0.0552 -0.1721 -0.9857
 5691SOL    HW128709   3.617   0.099   6.006  0.9645 -0.3467  0.2018
 5691SOL    HW228710   3.539   0.222   5.970  0.7955  2.3579  0.0199
 5692SOL     OW28711   1.275   4.201   7.752 -0.1751  0.3165 -0.4005
 5692SOL    HW128712   1.364   4.178   7.779  0.3489 -1.0808 -3.3358
 5692SOL    HW228713   1.264   4.138   7.681  0.1650 -1.9413  1.5398
 5693SOL     OW28714   0.073   1.908   4.164 -0.2912 -0.3593  0.3087
 5693SOL    HW128715   0.138   1.912   4.094 -1.3016 -1.8201 -0.7123
 5693SOL    HW228716   0.091   1.822   4.204  1.1514  0.6841  1.9293
 5694SOL     OW28717   3.695   0.257   1.653 -0.3730 -0.6027  0.3106
 5694SOL    HW128718   3.756   0.320   1.615 -1.9950  1.3409  0.9092
 5694SOL    HW228719   3.615   0.276   1.604 -0.5471  1.4617  1.4240
 5695SOL     OW28720   2.861   0.915   3.325  0.4682  0.3000  0.2957
 5695SOL    HW128721   2.848   1.002   3.363 -5.0903  0.4887 -1.9444
 5695SOL    HW228722   2.821   0.864   3.396  1.8854 -0.8191  0.2775
 5696SOL     OW28723   3.442   0.631   3.019  0.0068  0.2169  0.1306
 5696SOL    HW128724   3.362   0.661   2.976  1.0881  0.6167 -1.6292
 5696SOL    HW228725   3.473   0.710   3.063 -1.3595  1.5815 -1.3743
 5697SOL     OW28726   1.209   4.097   6.826  0.2143  0.0649 -0.0286
 5697SOL    HW128727   1.270   4.121   6.756 -0.3383 -3.3981 -1.7335
 5697SOL    HW228728   1.179   4.012   6.792  1.1667 -1.0638  1.9452
 5698SOL     OW28729   3.399   3.411   3.212  0.3497 -0.2860  1.0170
 5698SOL    HW128730   3.408   3.503   3.235 -1.3961  0.3974 -0.9061
 5698SOL    HW228731   3.376   3.411   3.119 -0.1661  0.8845  1.1405
 5699SOL     OW28732   0.007   2.461  12.456 -0.1877 -0.1889  0.3183
 5699SOL    HW128733   4.716   2.397  12.391  4.6046 -0.9762 -1.0715
 5699SOL    HW228734   0.040   2.405  12.526 -0.2949 -0.8232 -0.1356
 5700SOL     OW28735   2.531   4.587   7.470 -0.2688 -0.6048 -0.1030
 5700SOL    HW128736   2.506   4.515   7.412 -0.3456  0.0523 -0.8871
 5700SOL    HW228737   2.452   4.584   7.523 -0.5307 -1.0115 -0.5209
 5701SOL     OW28738   2.013   4.630  12.431 -0.1897 -0.0136 -0.0632
 5701SOL    HW128739   2.035   4.656  12.342 -0.8333 -0.2499 -0.2890
 5701SOL    HW228740   2.100   4.609  12.467  0.2378 -0.6503 -1.4748
 5702SOL     OW28741   4.687   3.989  13.094  0.2383 -0.2731  0.2067
 5702SOL    HW128742   4.681   3.936  13.015  0.3352 -1.2141  0.8310
 5702SOL    HW228743   4.621   4.054  13.070 -0.4015 -1.4497 -1.1792
 5703SOL     OW28744   4.081   2.532   3.294  0.2144  0.0089 -0.0158
 5703SOL    HW128745   4.009   2.563   3.348 -0.1336 -0.3606 -0.2598
 5703SOL    HW228746   4.117   2.615   3.263 -2.3507  1.3295  0.5522
 5704SOL     OW28747   4.671   1.637  11.295 -0.0372  0.0726 -0.0410
 5704SOL    HW128748   4.664   1.615  11.202 -0.6636 -1.0403  0.2580
 5704SOL    HW228749   4.675   1.732  11.286  2.7952 -0.3787 -3.3439
 5705SOL     OW28750   2.934   2.477   1.447  0.0763 -0.1840 -0.4510
 5705SOL    HW128751   2.935   2.382   1.461  2.6264 -0.1161 -0.1076
 5705SOL    HW228752   3.025   2.495   1.423  0.7877 -2.5781  0.4118
 5706SOL     OW28753   3.945   3.289   8.259  0.3129 -0.0296  0.4697
 5706SOL    HW128754   3.943   3.384   8.254  1.0359 -0.0911 -0.9404
 5706SOL    HW228755   3.897   3.268   8.339  1.3613  1.5296  1.5110
 5707SOL     OW28756   4.377   0.310  13.115 -0.1284  0.7843  0.2060
 5707SOL    HW128757   4.398   0.403  13.125 -0.9422  0.9130  0.7542
 5707SOL    HW228758   4.343   0.306  13.026  1.6450  3.0622 -0.5743
 5708SOL     OW28759   3.829   0.067   4.172  0.1088 -0.3271 -0.2745
 5708SOL    HW128760   3.888   0.121   4.225  0.8053  0.2141 -1.6168
 5708SOL    HW228761   3.892   0.033   4.108  0.9479 -0.0562  0.4063
 5709SOL     OW28762   1.336   3.167   6.763  0.3037 -0.0752  0.4522
 5709SOL    HW128763   1.305   3.112   6.835  0.0794  0.0841  0.4791
 5709SOL    HW228764   1.320   3.101   6.696  0.7917  2.3604 -2.0592
 5710SOL     OW28765   2.708   0.913   5.511 -0.5528  0.0031 -0.2852
 5710SOL    HW128766   2.689   1.003   5.536 -0.2764 -0.4080  1.3817
 5710SOL    HW228767   2.785   0.920   5.454  1.4361 -1.2365  2.2931
 5711SOL     OW28768   0.132   0.784   9.693 -0.4004  0.6554  0.5840
 5711SOL    HW128769   0.169   0.870   9.710  1.3868  0.0550 -0.3057
 5711SOL    HW228770   0.209   0.732   9.715 -0.9230 -0.2863  0.2208
 5712SOL     OW28771   1.469   1.457   1.214  0.1509 -0.1727 -0.7867
 5712SOL    HW128772   1.540   1.473   1.276  0.0548 -2.3285 -0.1250
 5712SOL    HW228773   1.521   1.488   1.140  2.3449 -3.4117 -0.6222
 5713SOL     OW28774   2.275   1.946   2.850  0.4316  0.0548 -0.4629
 5713SOL    HW128775   2.247   1.934   2.760  1.7629  3.0206 -1.2567
 5713SOL    HW228776   2.209   1.890   2.893 -1.2005  0.8262 -1.9830
 5714SOL     OW28777   0.704   1.277   0.359  0.9310 -0.2213  0.2947
 5714SOL    HW128778   0.782   1.297   0.411  0.1298 -0.6763  1.6655
 5714SOL    HW228779   0.745   1.240   0.280  1.9413 -0.6737  1.0368
 5715SOL     OW28780   4.019   2.936   4.815 -0.4246  0.1982 -0.0379
 5715SOL    HW128781   3.946   2.873   4.810 -2.2823  2.2329  1.2039
 5715SOL    HW228782   3.974   3.020   4.804  1.2850  0.8897 -1.7250
 5716SOL     OW28783   2.457   1.093   2.776  0.2055 -0.3990  0.2209
 5716SOL    HW128784   2.483   1.184   2.763  0.2202 -0.1709  1.8628
 5716SOL    HW228785   2.502   1.052   2.702 -0.0987 -0.4070  0.0442
 5717SOL     OW28786   3.977   3.733   2.570 -0.3802 -0.1276 -0.2975
 5717SOL    HW128787   3.991   3.825   2.547 -0.5198 -0.3528 -1.2935
 5717SOL    HW228788   4.030   3.725   2.649 -0.4570 -3.8235 -0.6479
 5718SOL     OW28789   3.010   1.517  15.982  0.4086 -0.1483  0.1173
 5718SOL    HW128790   2.946   1.565  15.929  0.7224  1.5811  1.3101
 5718SOL    HW228791   2.960   1.466  16.046 -0.7678  0.5499 -0.2327
 5719SOL     OW28792   0.948   3.906   3.382 -0.1594  0.8422  0.1421
 5719SOL    HW128793   0.913   3.832   3.432 -1.9863  0.9562 -0.9724
 5719SOL    HW228794   1.042   3.900   3.401 -0.3735  1.9653  1.5788
 5720SOL     OW28795   0.133   2.034   4.405  0.3953 -0.2388 -0.0594
 5720SOL    HW128796   0.068   2.078   4.461  1.3453  0.3683  0.5569
 5720SOL    HW228797   0.086   2.021   4.323  0.7780  1.2284 -0.5043
 5721SOL     OW28798   0.905   3.472   0.279 -0.1519  0.2987 -0.4036
 5721SOL    HW128799   0.962   3.464   0.203 -1.1334  0.3034 -1.1470
 5721SOL    HW228800   0.881   3.381   0.292  1.4848 -0.1930 -0.8601
 5722SOL     OW28801   2.293   2.417   7.718 -0.0708 -0.0586 -0.7080
 5722SOL    HW128802   2.293   2.512   7.701  1.5451  0.2982  1.3461
 5722SOL    HW228803   2.342   2.383   7.644  2.0094  1.2999  0.0644
 5723SOL     OW28804   0.796   0.607   2.822  0.0088  0.6864  0.2528
 5723SOL    HW128805   0.819   0.612   2.730  0.2462 -0.5177  0.2486
 5723SOL    HW228806   0.872   0.572   2.869 -0.3202 -0.2542  0.0746
 5724SOL     OW28807   1.143   4.727   0.422  0.7160 -0.0076 -0.2765
 5724SOL    HW128808   1.082   4.737   0.348  0.0434 -0.5550  0.2075
 5724SOL    HW228809   1.118   0.056   0.486  0.2230 -0.7043  0.2491
 5725SOL     OW28810   0.460   1.110   3.404  0.0334  0.2637  0.1506
 5725SOL    HW128811   0.418   1.149   3.327  0.3211  0.5209  0.1236
 5725SOL    HW228812   0.431   1.020   3.388  0.8976  0.1166 -0.5389
 5726SOL     OW28813   4.426   2.191   6.007 -0.1254  0.0633 -0.0827
 5726SOL    HW128814   4.366   2.208   5.934 -1.2614  0.4906  0.9671
 5726SOL    HW228815   4.375   2.133   6.063 -0.4453  0.6327  0.2149
 5727SOL     OW28816   1.542   2.678   9.111 -0.2906 -0.1884  0.3295
 5727SOL    HW128817   1.465   2.731   9.095 -0.3427  0.7243  3.6902
 5727SOL    HW228818   1.532   2.670   9.206  0.7041  2.5097  0.6422
 5728SOL     OW28819   0.140   4.702   8.297  0.5106  0.2187  0.0082
 5728SOL    HW128820   0.091   4.639   8.244  1.1732 -1.3618  1.2567
 5728SOL    HW228821   0.202   4.647   8.345 -0.7308 -0.5869  0.6831
 5729SOL     OW28822   0.297   0.510   9.095  0.0581 -0.1785 -0.1958
 5729SOL    HW128823   0.221   0.541   9.144  0.4056  0.4716 -0.0514
 5729SOL    HW228824   0.314   0.590   9.046  0.6928  0.0670  0.4062
 5730SOL     OW28825   3.393   1.455   0.712 -0.0266  0.5567  0.4549
 5730SOL    HW128826   3.368   1.418   0.627 -3.6832  0.1791  1.7162
 5730SOL    HW228827   3.415   1.374   0.758 -2.9999 -0.5592 -0.0810
 5731SOL     OW28828   0.435   1.209   0.355 -0.0082 -0.2016 -0.1761
 5731SOL    HW128829   0.450   1.234   0.263  0.0838 -0.0469 -0.1190
 5731SOL    HW228830   0.523   1.237   0.382  0.1374 -1.3023  0.4700
 5732SOL     OW28831   2.688   2.986   4.488 -0.2932  0.8084  0.3731
 5732SOL    HW128832   2.681   3.080   4.505  0.0199  0.4736  2.3693
 5732SOL    HW228833   2.631   2.943   4.552  1.1351 -0.4597  0.8125
 5733SOL     OW28834   1.994   2.214  11.933 -0.4932 -0.9256  0.6475
 5733SOL    HW128835   2.039   2.182  11.854 -1.4307  1.9244 -1.0315
 5733SOL    HW228836   1.979   2.126  11.969  1.5516 -1.2938  0.5640
 5734SOL     OW28837   4.542   3.600   7.461  0.3967 -0.1181  0.4105
 5734SOL    HW128838   4.477   3.541   7.422  0.0058 -0.0881  1.0195
 5734SOL    HW228839   4.497   3.629   7.540  2.1712 -0.4065  1.5525
 5735SOL     OW28840   0.978   2.220   3.736  0.1157  0.2664 -0.1319
 5735SOL    HW128841   0.972   2.284   3.807 -0.9651 -0.2303  0.2340
 5735SOL    HW228842   1.063   2.244   3.700  1.4812 -0.7222  2.4107
 5736SOL     OW28843   3.487   2.686  14.628 -0.2002 -0.3460 -0.2586
 5736SOL    HW128844   3.458   2.610  14.578 -1.1683 -1.8109  2.5372
 5736SOL    HW228845   3.456   2.657  14.713  2.5069 -0.7371  0.6006
 5737SOL     OW28846   0.367   4.418   9.537  0.3931  0.5204 -0.5200
 5737SOL    HW128847   0.292   4.397   9.592 -0.1837 -3.0283 -2.6171
 5737SOL    HW228848   0.416   4.474   9.596  0.6261  0.4210 -0.6182
 5738SOL     OW28849   4.092   0.840  14.775  0.4247 -0.4030 -0.2698
 5738SOL    HW128850   4.078   0.906  14.707 -0.7250 -2.1203 -1.7201
 5738SOL    HW228851   4.014   0.785  14.760 -0.7803  0.2489  3.5959
 5739SOL     OW28852   3.683   1.488   3.625 -0.3618  0.8504 -0.3994
 5739SOL    HW128853   3.652   1.578   3.639  0.4291  0.8840  1.0788
 5739SOL    HW228854   3.777   1.502   3.634 -0.2936  0.9100 -1.1800
 5740SOL     OW28855   0.387   4.139  10.161  0.6226 -0.6111  0.8537
 5740SOL    HW128856   0.411   4.051  10.188 -0.3844 -0.9786  0.5539
 5740SOL    HW228857   0.432   4.144  10.076  1.3698 -2.7824  1.1340
 5741SOL     OW28858   4.163   4.735   5.438 -0.0875  0.2832  0.7070
 5741SOL    HW128859   4.206   4.711   5.356 -0.8284 -0.7016  0.5991
 5741SOL    HW228860   4.244   0.017   5.485  0.4206 -0.1631  0.0103
 5742SOL     OW28861   1.207   3.573  15.212 -0.3562 -0.0883 -0.1148
 5742SOL    HW128862   1.272   3.507  15.187 -0.1932 -0.1335  0.4265
 5742SOL    HW228863   1.247   3.654  15.180 -2.3443  1.5619  1.5196
 5743SOL     OW28864   4.583   3.034   7.415  0.3107 -0.3120 -0.4296
 5743SOL    HW128865   4.604   3.052   7.324 -0.9546  0.9810 -0.4696
 5743SOL    HW228866   4.645   3.088   7.465  0.9668 -1.7506  0.3077
 5744SOL     OW28867   1.522   2.196   3.187  0.4078 -0.1435  0.1263
 5744SOL    HW128868   1.461   2.132   3.151  0.8007 -0.7336  0.4959
 5744SOL    HW228869   1.592   2.170   3.128  0.1931  0.5631 -0.4279
 5745SOL     OW28870   4.369   4.368   9.056  0.5146  0.3392  0.3263
 5745SOL    HW128871   4.456   4.406   9.066  0.1681  1.6294 -1.5631
 5745SOL    HW228872   4.326   4.449   9.029  0.1938  0.1764  0.3400
 5746SOL     OW28873   1.341   3.327  13.369  0.5107  0.0061 -0.6760
 5746SOL    HW128874   1.431   3.344  13.338  0.8130  0.6720  0.5818
 5746SOL    HW228875   1.349   3.308  13.462  0.0055 -1.3955 -0.9099
 5747SOL     OW28876   2.830   3.708   9.914 -0.7398 -0.0361 -0.1702
 5747SOL    HW128877   2.774   3.783   9.895  1.0276  0.9024 -1.6317
 5747SOL    HW228878   2.759   3.658   9.955  1.2677 -2.0015  0.8609
 5748SOL     OW28879   2.899   2.270   2.624  0.3016 -0.0952  0.5851
 5748SOL    HW128880   2.818   2.218   2.622  0.0058  0.2239  3.1785
 5748SOL    HW228881   2.848   2.350   2.640 -2.6782 -1.6978 -0.9848
 5749SOL     OW28882   2.442   2.869   8.089 -0.1703  0.1596  0.5005
 5749SOL    HW128883   2.384   2.904   8.157 -1.0641 -0.5340  0.0911
 5749SOL    HW228884   2.449   2.931   8.016 -0.7382 -0.1683  0.1693
 5750SOL     OW28885   0.949   1.874  16.850  0.1302  0.5608 -0.1317
 5750SOL    HW128886   1.019   1.937  16.866 -0.5321  1.5898 -1.3010
 5750SOL    HW228887   0.977   1.794  16.895  2.0424  0.1447 -2.0527
 5751SOL     OW28888   0.183   3.637   4.012 -0.0048 -0.1877  0.1965
 5751SOL    HW128889   0.131   3.568   4.051  1.4574 -1.3634  0.0883
 5751SOL    HW228890   0.173   3.712   4.070 -1.1410 -1.6641  1.9030
 5752SOL     OW28891   0.841   2.159  11.357  0.3650  0.1961  0.0579
 5752SOL    HW128892   0.747   2.143  11.363  0.5480 -0.4605  1.0705
 5752SOL    HW228893   0.875   2.091  11.298 -0.6357 -0.6909  0.5042
 5753SOL     OW28894   3.746   1.710   5.619  0.0451  0.0711  0.1780
 5753SOL    HW128895   3.783   1.786   5.574 -2.3344 -0.4733 -2.6464
 5753SOL    HW228896   3.830   1.667   5.633 -0.4022 -0.5606  0.9648
 5754SOL     OW28897   2.558   1.223   9.036 -0.1394  0.4226 -0.5517
 5754SOL    HW128898   2.548   1.309   8.996 -0.4323 -0.7302 -2.9844
 5754SOL    HW228899   2.523   1.185   8.955  2.0467  1.1123 -1.8164
 5755SOL     OW28900   0.035   0.029   6.664 -0.0715  0.2141 -0.3805
 5755SOL    HW128901   0.113   4.729   6.704 -1.8331 -0.7935  2.0910
 5755SOL    HW228902   0.072   0.062   6.582  0.5374 -0.1767 -0.2599
 5756SOL     OW28903   0.082   2.663   3.838  0.1714 -0.8020 -0.3223
 5756SOL    HW128904   0.129   2.634   3.917 -0.2957  0.7620  0.5360
 5756SOL    HW228905   0.084   2.588   3.779  0.3662 -0.9323 -0.1524
 5757SOL     OW28906   1.437   0.284   7.222  0.1635  0.2688 -0.0624
 5757SOL    HW128907   1.467   0.260   7.134 -0.4732 -0.3059 -0.1240
 5757SOL    HW228908   1.483   0.366   7.242 -0.2753  0.2241  1.1284
 5758SOL     OW28909   1.602   0.359   0.573  0.4116  0.7108 -0.0112
 5758SOL    HW128910   1.656   0.368   0.494  0.1629  0.1724 -0.2437
 5758SOL    HW228911   1.515   0.347   0.534  0.6001 -2.6903  0.5998
 5759SOL     OW28912   4.600   3.940  10.471  0.1353  0.4553  0.3147
 5759SOL    HW128913   4.535   3.954  10.540  0.0326  0.6555  0.1810
 5759SOL    HW228914   4.539   3.917  10.400 -0.4255  1.4211  0.4801
 5760SOL     OW28915   0.771   0.235  14.931 -0.0785  0.0580 -0.1571
 5760SOL    HW128916   0.685   0.217  14.969 -0.0871  0.1930 -0.1119
 5760SOL    HW228917   0.815   0.292  14.994 -1.0413 -0.4366  0.9729
 5761SOL     OW28918   3.104   1.517   2.397  0.3858 -0.0696 -0.3141
 5761SOL    HW128919   3.189   1.559   2.410  0.1414 -0.0304  1.1394
 5761SOL    HW228920   3.046   1.593   2.391  0.8705  0.2533 -0.9283
 5762SOL     OW28921   3.096   3.841   5.250 -0.7585 -0.6551  0.1017
 5762SOL    HW128922   3.139   3.926   5.247 -0.7346 -0.6442  0.9318
 5762SOL    HW228923   3.156   3.770   5.276  2.0147  1.3673 -0.8083
 5763SOL     OW28924   3.692   4.281   3.424 -0.3604  0.3235  0.0304
 5763SOL    HW128925   3.669   4.273   3.332 -0.9865  0.7364  0.1530
 5763SOL    HW228926   3.606   4.282   3.466  1.1024  1.4165  2.9668
 5764SOL     OW28927   1.108   3.623   1.546 -0.1442 -0.0127  0.1065
 5764SOL    HW128928   1.150   3.547   1.505  1.8116  0.1634  1.7210
 5764SOL    HW228929   1.063   3.572   1.614  0.1231  1.0400  1.0893
 5765SOL     OW28930   1.698   1.929   2.045 -0.0770  0.3321  0.0236
 5765SOL    HW128931   1.697   2.023   2.028  1.8371  0.3362 -0.0523
 5765SOL    HW228932   1.670   1.928   2.137 -1.9038 -1.4921 -0.5578
 5766SOL     OW28933   4.513   2.551   9.382 -0.2476 -0.2087  0.1919
 5766SOL    HW128934   4.425   2.516   9.372  0.3992 -2.6056  3.0618
 5766SOL    HW228935   4.492   2.609   9.455 -1.3553 -1.0404  0.5341
 5767SOL     OW28936   0.434   1.630   8.579 -0.0008 -0.7844 -0.3788
 5767SOL    HW128937   0.503   1.564   8.585 -1.7130 -2.4408  0.9083
 5767SOL    HW228938   0.443   1.651   8.486  0.5577 -0.1771 -0.1926
 5768SOL     OW28939   0.086   3.530   2.399 -0.1171 -0.3993  0.7494
 5768SOL    HW128940   0.127   3.583   2.468  3.3283 -2.3175  0.1941
 5768SOL    HW228941   0.143   3.456   2.380  3.6445  2.3473  1.2619
 5769SOL     OW28942   0.573   1.295   0.007  0.3591  0.7217  0.2401
 5769SOL    HW128943   0.657   1.259   0.037 -0.9982  0.1029  3.2913
 5769SOL    HW228944   0.600   1.357  17.689 -0.9127  0.8252 -0.1766
 5770SOL     OW28945   1.060   2.939  15.781  0.7425  0.6158  0.1622
 5770SOL    HW128946   1.078   2.848  15.755  1.3318  0.8819 -0.3486
 5770SOL    HW228947   1.052   2.986  15.698 -3.7985  2.4298  1.6062
 5771SOL     OW28948   2.392   4.632   1.221 -0.0235 -0.5492  0.4484
 5771SOL    HW128949   2.312   4.596   1.258 -1.1418 -0.0654 -1.5014
 5771SOL    HW228950   2.391   4.716   1.268 -3.6410 -1.5687  2.1766
 5772SOL     OW28951   2.150   2.356   9.439  0.6010  0.1420 -0.1645
 5772SOL    HW128952   2.200   2.435   9.419  0.1043  0.8917  1.5571
 5772SOL    HW228953   2.159   2.312   9.354 -0.1961 -1.6306  0.6760
 5773SOL     OW28954   1.196   3.932   7.946  0.4102 -0.0646 -0.3387
 5773SOL    HW128955   1.210   3.933   7.852  0.0412  0.3996 -0.3869
 5773SOL    HW228956   1.104   3.957   7.946  0.1059 -1.1904 -1.2095
 5774SOL     OW28957   4.052   4.106   0.863  0.4405  0.1750 -0.5250
 5774SOL    HW128958   3.979   4.154   0.900  0.7818  1.6515 -1.7918
 5774SOL    HW228959   4.078   4.060   0.943 -2.7678 -1.1141 -0.2320
 5775SOL     OW28960   4.263   4.509   6.660 -0.2161  0.0632 -0.2776
 5775SOL    HW128961   4.339   4.455   6.683 -2.2077 -2.8285 -0.5158
 5775SOL    HW228962   4.289   4.564   6.585 -0.0508  0.3541 -0.0078
 5776SOL     OW28963   1.590   2.409   1.641 -0.3950 -0.4930  0.1416
 5776SOL    HW128964   1.555   2.327   1.605 -0.5808 -0.5622  0.4834
 5776SOL    HW228965   1.503   2.447   1.645  0.4219  1.2366  1.4165
 5777SOL     OW28966   4.725   4.211   7.912  0.1577 -0.4922 -0.4998
 5777SOL    HW128967   0.017   4.302   7.914 -0.5302 -0.2580 -0.7201
 5777SOL    HW228968   4.655   4.216   7.847  0.2969  1.5077 -0.4911
 5778SOL     OW28969   3.793   4.625   5.406  0.4612 -0.0141 -0.1741
 5778SOL    HW128970   3.791   4.580   5.321  0.6132 -1.9131  0.8401
 5778SOL    HW228971   3.826   4.709   5.374 -0.2533  0.0177 -0.8392
 5779SOL     OW28972   0.035   2.198   1.207  0.2262  0.2533 -0.3761
 5779SOL    HW128973   0.016   2.269   1.146  2.0165  2.1736  1.3146
 5779SOL    HW228974   0.129   2.215   1.214  0.6832 -1.8087 -1.2819
 5780SOL     OW28975   1.198   4.016   7.305  0.6703  0.0911 -0.2910
 5780SOL    HW128976   1.152   3.932   7.304  1.9946 -0.6254 -1.2493
 5780SOL    HW228977   1.288   3.983   7.296  0.7861  0.3287  0.0170
 5781SOL     OW28978   2.727   1.900  12.675 -0.4431 -0.1946 -0.2242
 5781SOL    HW128979   2.637   1.922  12.699 -0.7468 -1.8231  0.1023
 5781SOL    HW228980   2.732   1.926  12.583 -1.0967  0.1454 -0.1631
 5782SOL     OW28981   0.651   1.306  11.830  0.2352 -0.2697  0.4836
 5782SOL    HW128982   0.644   1.214  11.855  1.3037 -0.8832 -1.5262
 5782SOL    HW228983   0.586   1.349  11.887 -0.3454  0.7794 -0.9575
 5783SOL     OW28984   1.423   0.485   4.743 -0.3030  0.4903  0.2437
 5783SOL    HW128985   1.359   0.508   4.811 -0.2019 -1.2669  0.9338
 5783SOL    HW228986   1.468   0.420   4.798  1.7975  0.9107 -0.9692
 5784SOL     OW28987   3.811   0.676   9.388 -0.2365  0.3320  0.0221
 5784SOL    HW128988   3.903   0.655   9.374 -0.4197  0.2537 -1.0566
 5784SOL    HW228989   3.812   0.690   9.483  1.4619 -0.1920  0.0804
 5785SOL     OW28990   0.391   4.578   8.556  0.3213  0.5776 -0.5227
 5785SOL    HW128991   0.351   4.524   8.487  0.7657 -1.1501  0.5726
 5785SOL    HW228992   0.386   4.520   8.632 -0.7817  1.0833 -0.2104
 5786SOL     OW28993   0.584   4.545  15.257 -0.1412 -0.0436 -0.7023
 5786SOL    HW128994   0.560   4.468  15.206  0.2368 -1.5373  1.3775
 5786SOL    HW228995   0.508   4.602  15.246 -0.1997  0.0291  0.0610
 5787SOL     OW28996   0.583   0.625   8.792  0.1681 -0.5460 -0.3498
 5787SOL    HW128997   0.675   0.647   8.780  0.2529 -0.7855 -0.1406
 5787SOL    HW228998   0.584   0.530   8.778 -1.6676 -0.6875  0.4237
 5788SOL     OW28999   0.148   4.052   4.974 -0.3262 -0.0316  0.1715
 5788SOL    HW129000   0.232   4.097   4.978 -0.3237  0.0137 -0.5242
 5788SOL    HW229001   0.168   3.983   4.912 -2.2009  0.7585 -1.3098
 5789SOL     OW29002   1.357   3.448   6.266 -0.0052 -0.0439  0.2335
 5789SOL    HW129003   1.394   3.421   6.350 -0.3831  2.1976  1.1229
 5789SOL    HW229004   1.269   3.462   6.302 -0.2295 -0.4303 -0.1741
 5790SOL     OW29005   2.531   0.743   9.741  0.5844 -0.1835  0.4928
 5790SOL    HW129006   2.462   0.700   9.690  2.4521  0.0946 -2.2671
 5790SOL    HW229007   2.591   0.668   9.745 -0.6315 -1.2447 -1.1233
 5791SOL     OW29008   1.371   2.307  13.517  0.0592  0.4330  0.0063
 5791SOL    HW129009   1.300   2.347  13.567 -1.3725  0.8057 -2.3300
 5791SOL    HW229010   1.443   2.325  13.578  1.5578  0.9643 -1.9105
 5792SOL     OW29011   0.637   3.559   2.050 -0.4467  0.3279  0.2336
 5792SOL    HW129012   0.689   3.496   2.001  0.2829  0.9424  0.2181
 5792SOL    HW229013   0.554   3.544   2.004 -0.6831  0.1194  0.7273
 5793SOL     OW29014   4.429   1.874   6.807 -0.4469  0.1608 -0.2671
 5793SOL    HW129015   4.369   1.882   6.732  1.5480 -3.3976 -2.2517
 5793SOL    HW229016   4.508   1.868   6.754  0.0367 -0.8344  0.5591
 5794SOL     OW29017   4.027   1.688  10.116 -0.6569 -0.1613  0.4289
 5794SOL    HW129018   4.118   1.673  10.091 -0.9947  0.6844 -1.2731
 5794SOL    HW229019   3.968   1.654  10.048  0.6103 -0.4724 -0.5270
 5795SOL     OW29020   3.102   3.484   6.421  0.2060 -0.1791  0.4066
 5795SOL    HW129021   3.133   3.541   6.492 -0.3263 -0.8048  1.1365
 5795SOL    HW229022   3.031   3.537   6.385  1.3166  0.9818 -0.1023
 5796SOL     OW29023   2.663   3.925  11.899 -0.3304 -0.0562  0.0144
 5796SOL    HW129024   2.606   3.852  11.920 -0.7120  0.1255 -0.3739
 5796SOL    HW229025   2.707   3.892  11.820 -0.1730 -3.9516  1.7486
 5797SOL     OW29026   3.890   3.450   7.871 -0.3384 -0.1156 -0.2140
 5797SOL    HW129027   3.936   3.368   7.889 -0.1038 -0.2028 -1.1677
 5797SOL    HW229028   3.802   3.433   7.905  0.0614  1.1861  1.4749
 5798SOL     OW29029   3.546   4.213   4.675  0.7950  0.4066 -0.0519
 5798SOL    HW129030   3.497   4.293   4.658  0.5113  0.0450 -0.9280
 5798SOL    HW229031   3.633   4.242   4.649  1.5436  0.3641  2.3314
 5799SOL     OW29032   4.128   1.382   5.980 -0.0535 -0.1965 -0.2720
 5799SOL    HW129033   4.147   1.298   6.021 -2.0155 -0.8677 -0.7354
 5799SOL    HW229034   4.100   1.356   5.893 -1.9614  0.0257  0.2769
 5800SOL     OW29035   0.076   3.764   0.929 -0.4946  0.2583 -0.0507
 5800SOL    HW129036   0.022   3.826   0.880 -1.5136 -0.4283  0.1975
 5800SOL    HW229037   0.023   3.685   0.940  0.8193 -0.5720  0.3430
 5801SOL     OW29038   4.417   2.845   1.457  0.4145 -0.3815  0.0437
 5801SOL    HW129039   4.417   2.830   1.362 -1.7784  1.1811 -0.1820
 5801SOL    HW229040   4.323   2.843   1.475 -0.1049  0.8525 -2.4473
 5802SOL     OW29041   3.377   3.797  15.580 -0.0572  0.1554  0.0886
 5802SOL    HW129042   3.330   3.877  15.605  0.5582  0.6430 -0.3218
 5802SOL    HW229043   3.466   3.828  15.594  0.7005 -1.8384 -0.3386
 5803SOL     OW29044   1.574   1.269   8.745  0.2541  0.0503  0.2732
 5803SOL    HW129045   1.670   1.265   8.742  0.2271 -1.5686  1.3765
 5803SOL    HW229046   1.551   1.251   8.836 -2.1775 -0.2959 -0.4174
 5804SOL     OW29047   1.047   2.906   6.241  0.1955  0.1512 -0.0031
 5804SOL    HW129048   0.958   2.900   6.205  0.3740 -0.9614 -0.2616
 5804SOL    HW229049   1.059   2.998   6.266 -1.3979 -0.8286  4.4836
 5805SOL     OW29050   0.918   3.416   8.359  0.6012  0.0926  0.0662
 5805SOL    HW129051   0.879   3.398   8.274 -0.5534 -1.3468  0.8889
 5805SOL    HW229052   0.855   3.478   8.397 -2.4424 -0.8778 -3.3727
 5806SOL     OW29053   1.574   2.600  10.921 -0.2960  0.5371 -0.3337
 5806SOL    HW129054   1.630   2.603  10.998  0.3583  2.7825 -0.8937
 5806SOL    HW229055   1.499   2.647  10.957 -0.4766 -0.6492  0.8528
 5807SOL     OW29056   1.550   1.975   5.329 -0.2467 -0.1664 -0.1175
 5807SOL    HW129057   1.563   2.055   5.278 -1.7925 -0.1633 -0.5078
 5807SOL    HW229058   1.461   1.978   5.364 -0.0321 -0.2222  0.4451
 5808SOL     OW29059   2.504   3.935   7.493 -0.5049 -0.0599 -0.3926
 5808SOL    HW129060   2.482   4.027   7.482 -3.3628 -0.6925  0.0822
 5808SOL    HW229061   2.590   3.954   7.531 -0.9405 -0.1713  0.6574
 5809SOL     OW29062   4.422   1.186  13.231 -0.1810 -0.0026  0.1927
 5809SOL    HW129063   4.438   1.262  13.287 -0.9554 -1.6261  2.6161
 5809SOL    HW229064   4.479   1.204  13.156 -2.1736  0.2407 -1.2680
 5810SOL     OW29065   4.526   0.441   7.119  0.2387  0.3776  0.3590
 5810SOL    HW129066   4.445   0.491   7.128  0.0389 -0.1180  1.3256
 5810SOL    HW229067   4.562   0.422   7.206 -1.4116  1.6499  1.3276
 5811SOL     OW29068   3.337   0.611   0.139 -1.0938 -0.7047 -0.6764
 5811SOL    HW129069   3.399   0.673   0.176  1.3214 -3.0355 -0.8502
 5811SOL    HW229070   3.394   0.540   0.111  1.1994  0.8586  0.0129
 5812SOL     OW29071   1.866   3.033   8.088 -0.2833  0.4311 -0.1617
 5812SOL    HW129072   1.782   3.078   8.087 -0.9307 -0.7553  0.4641
 5812SOL    HW229073   1.840   2.970   8.021 -0.5235  0.0987  0.2498
 5813SOL     OW29074   1.767   0.748   3.980 -0.6309  0.1663  0.0591
 5813SOL    HW129075   1.841   0.732   3.921  0.8307 -1.2418  2.2564
 5813SOL    HW229076   1.720   0.667   3.960 -0.0857 -0.3411  0.8483
 5814SOL     OW29077   2.073   3.814   4.031 -0.3719 -0.1978  0.3380
 5814SOL    HW129078   2.001   3.786   3.975 -0.2653 -0.3685  0.2872
 5814SOL    HW229079   2.015   3.854   4.096  0.3702 -0.5105  1.1958
 5815SOL     OW29080   1.805   1.111   6.805 -0.0664 -0.0636 -0.3250
 5815SOL    HW129081   1.798   1.046   6.734  0.1159 -1.4047  0.8754
 5815SOL    HW229082   1.900   1.111   6.815 -0.2637  0.3807  1.5947
 5816SOL     OW29083   1.688   3.629   2.049  0.2127  0.4119  0.0893
 5816SOL    HW129084   1.692   3.536   2.026  0.0504  0.4825 -0.2257
 5816SOL    HW229085   1.709   3.673   1.967 -1.7233  0.4544 -0.3644
 5817SOL     OW29086   2.927   1.340  16.172  0.0185 -0.4460  0.2685
 5817SOL    HW129087   3.023   1.346  16.175 -0.1325  1.4962  1.3285
 5817SOL    HW229088   2.905   1.255  16.211  1.4669 -0.6206  0.7256
 5818SOL     OW29089   1.591   2.577   4.152  0.3450 -0.5870  0.3635
 5818SOL    HW129090   1.652   2.507   4.175  0.7718 -0.5280 -0.5959
 5818SOL    HW229091   1.650   2.645   4.120  0.6098  0.2989  2.7541
 5819SOL     OW29092   4.729   2.769   8.550  0.1578  0.0326 -0.0764
 5819SOL    HW129093   0.063   2.781   8.613  0.2924  0.9334 -0.4102
 5819SOL    HW229094   4.713   2.675   8.558  1.5391 -0.3996 -2.1636
 5820SOL     OW29095   0.855   3.433   7.350  0.8274  0.1706  0.0050
 5820SOL    HW129096   0.787   3.440   7.417  0.6442 -1.0490 -0.0452
 5820SOL    HW229097   0.852   3.338   7.338  1.3288  0.1730 -0.1588
 5821SOL     OW29098   0.772   4.695   7.582  0.7366 -0.1199 -0.2069
 5821SOL    HW129099   0.715   4.636   7.630  0.4525  2.1799  2.2620
 5821SOL    HW229100   0.850   4.639   7.579  0.2051 -0.8989  0.6672
 5822SOL     OW29101   2.193   0.638   7.858  1.0203 -0.0097  0.5510
 5822SOL    HW129102   2.171   0.691   7.934 -1.1719 -1.5335  0.9555
 5822SOL    HW229103   2.130   0.664   7.791  1.8805  1.3776  0.2718
 5823SOL     OW29104   0.791   0.023   8.375  0.3484 -0.2555  0.1348
 5823SOL    HW129105   0.739   4.690   8.412 -2.0169  1.6254  0.4099
 5823SOL    HW229106   0.840   4.706   8.314 -0.3080  0.1810 -0.7928
 5824SOL     OW29107   2.311   0.758   5.437  0.3647  0.1792 -0.0168
 5824SOL    HW129108   2.218   0.775   5.452  0.3446 -1.2633  1.5650
 5824SOL    HW229109   2.307   0.662   5.444 -0.8495  0.1413 -1.0932
 5825SOL     OW29110   0.555   2.572   1.748  0.7536  0.1222  0.3930
 5825SOL    HW129111   0.588   2.503   1.805 -0.3329 -1.2942 -0.6671
 5825SOL    HW229112   0.641   2.584   1.708  1.2715  0.3583  1.5877
 5826SOL     OW29113   3.384   2.525   6.919 -0.4098 -0.3575 -0.4035
 5826SOL    HW129114   3.313   2.549   6.860 -0.6579  0.1084  0.0983
 5826SOL    HW229115   3.418   2.607   6.954  0.7524 -0.6051 -0.9279
 5827SOL     OW29116   2.962   3.843   4.822 -0.0916  0.3286  0.3084
 5827SOL    HW129117   2.974   3.787   4.898  0.5835 -0.7911 -0.6197
 5827SOL    HW229118   2.898   3.796   4.769 -0.1449  0.0077  0.6548
 5828SOL     OW29119   3.921   1.289   4.606  0.1757 -0.1800  0.2405
 5828SOL    HW129120   3.916   1.251   4.518 -0.0261 -0.1787  0.2512
 5828SOL    HW229121   3.829   1.288   4.630  0.0582  1.2431 -0.1658
 5829SOL     OW29122   2.443   2.832  16.964  0.0710 -0.7320  0.3808
 5829SOL    HW129123   2.415   2.878  17.044  0.8405  1.6419 -0.7008
 5829SOL    HW229124   2.432   2.903  16.900 -0.5620 -1.0220  0.1730
 5830SOL     OW29125   2.261   3.584   8.066  0.1047  0.1572 -0.0037
 5830SOL    HW129126   2.276   3.670   8.025  2.7478  0.4133  1.5338
 5830SOL    HW229127   2.201   3.558   7.996 -1.0221  0.5511  0.8073
 5831SOL     OW29128   1.572   3.945   4.137  0.0298  0.1791  0.8181
 5831SOL    HW129129   1.492   3.988   4.108  1.3017  0.6932 -1.9159
 5831SOL    HW229130   1.547   3.927   4.228 -0.6288 -0.4853  0.5027
 5832SOL     OW29131   2.585   1.554  11.667  0.9299 -0.4425 -0.4812
 5832SOL    HW129132   2.616   1.633  11.711 -1.8738 -0.4067  1.3693
 5832SOL    HW229133   2.542   1.591  11.591 -0.3329 -1.5323 -0.2934
 5833SOL     OW29134   2.410   1.199  14.738 -0.1994  0.2574  0.2515
 5833SOL    HW129135   2.393   1.283  14.781  3.1285  1.1363 -0.1773
 5833SOL    HW229136   2.337   1.143  14.766 -0.9025  1.2163  0.3195
 5834SOL     OW29137   1.789   2.044   7.946 -1.2407  0.4899  0.4541
 5834SOL    HW129138   1.883   2.038   7.961 -1.3807 -1.1008  0.6557
 5834SOL    HW229139   1.785   2.137   7.925  1.4638  0.4406 -0.1956
 5835SOL     OW29140   0.388   3.356  13.417 -0.1534 -0.3524  0.1408
 5835SOL    HW129141   0.307   3.407  13.422  0.1327 -0.1213  2.3494
 5835SOL    HW229142   0.445   3.426  13.447 -1.5470  1.7219 -2.0378
 5836SOL     OW29143   0.908   4.664   0.574  0.7782  0.2644  0.0124
 5836SOL    HW129144   0.881   4.685   0.485 -1.8335  1.6757  1.1345
 5836SOL    HW229145   0.933   0.013   0.602 -0.3341  0.8605 -0.8338
 5837SOL     OW29146   4.074   3.005   8.777 -0.0645  0.4967  0.2833
 5837SOL    HW129147   4.014   2.939   8.812  1.8877 -0.8897  1.0346
 5837SOL    HW229148   4.157   2.958   8.768 -0.0280  0.8815 -1.4037
 5838SOL     OW29149   3.063   0.962   4.916  0.2601  0.0403 -0.1835
 5838SOL    HW129150   2.977   1.004   4.919 -0.0716 -0.6680  0.0667
 5838SOL    HW229151   3.125   1.026   4.951  3.2747 -3.0337  0.0582
 5839SOL     OW29152   4.366   1.918   3.933  0.3750 -0.0204  0.2992
 5839SOL    HW129153   4.271   1.923   3.921  0.4299 -0.4551 -0.3523
 5839SOL    HW229154   4.371   1.823   3.945 -0.5584 -0.1697 -0.4821
 5840SOL     OW29155   0.719   1.249   5.698  0.3902  0.2080 -0.7390
 5840SOL    HW129156   0.765   1.266   5.616  1.1875 -0.1545 -0.3619
 5840SOL    HW229157   0.751   1.325   5.747  1.4067 -1.4738  1.1694
 5841SOL     OW29158   2.958   1.449  14.413 -0.0073  0.1461 -0.0213
 5841SOL    HW129159   2.931   1.370  14.366  0.4218  1.4522 -2.4533
 5841SOL    HW229160   3.031   1.475  14.358 -1.0091  1.8969 -0.5132
 5842SOL     OW29161   4.565   0.250   2.649 -0.2334  0.0570 -0.0545
 5842SOL    HW129162   4.563   0.209   2.735 -1.7380  1.0440  0.3787
 5842SOL    HW229163   4.492   0.312   2.654 -0.0711  0.1306  1.4238
 5843SOL     OW29164   3.245   4.149   2.563 -0.1418  0.0002 -0.2715
 5843SOL    HW129165   3.268   4.187   2.648  0.0716 -1.7437  0.4334
 5843SOL    HW229166   3.154   4.124   2.581 -0.5747  1.6550 -0.0987
 5844SOL     OW29167   4.265   3.474   8.715  0.7449  0.4911 -0.1354
 5844SOL    HW129168   4.208   3.401   8.696 -1.0306  1.7535  0.3555
 5844SOL    HW229169   4.317   3.436   8.785  1.4170  0.0624 -0.8648
 5845SOL     OW29170   1.048   3.718   8.309  0.3058  0.3799 -0.0198
 5845SOL    HW129171   1.134   3.708   8.268 -0.2881 -1.3908 -0.8271
 5845SOL    HW229172   0.989   3.726   8.234 -0.8581 -0.7922  0.7734
 5846SOL     OW29173   1.529   4.007   6.456  0.0234  0.4697  0.2949
 5846SOL    HW129174   1.568   3.991   6.542  2.0775  3.4527 -0.0745
 5846SOL    HW229175   1.585   3.949   6.404  1.1231 -0.7806  2.8777
 5847SOL     OW29176   1.785   3.468  17.115  0.6459  0.0018  0.2457
 5847SOL    HW129177   1.869   3.470  17.071  0.9745  1.7886  0.9257
 5847SOL    HW229178   1.812   3.480  17.206 -0.8264  0.2370  0.6647
 5848SOL     OW29179   1.999   0.014   6.491  0.0912 -0.2453 -0.0345
 5848SOL    HW129180   2.005   4.679   6.552 -0.9082 -2.1366 -2.2296
 5848SOL    HW229181   1.960   0.085   6.543  0.1714  0.8356 -1.4454
 5849SOL     OW29182   4.241   2.528   5.087  0.2325 -0.4110  0.0280
 5849SOL    HW129183   4.172   2.527   5.021  0.8209 -3.4831 -0.5234
 5849SOL    HW229184   4.193   2.492   5.162 -1.2961  1.9641  0.1908
 5850SOL     OW29185   0.582   3.320  17.576 -0.3015  0.1005  0.4050
 5850SOL    HW129186   0.600   3.384  17.645  0.3795  0.6414 -0.2714
 5850SOL    HW229187   0.486   3.324  17.571 -0.3219  0.6330  1.3083
 5851SOL     OW29188   2.453   1.900   7.898 -0.8038 -0.3858 -0.9196
 5851SOL    HW129189   2.391   1.906   7.824 -4.8592 -0.1333  2.4749
 5851SOL    HW229190   2.402   1.929   7.974  1.9387 -2.9035  1.8964
 5852SOL     OW29191   2.855   4.326   9.340  0.1801  0.1801  0.1915
 5852SOL    HW129192   2.790   4.344   9.407 -1.9242  0.5464 -1.9349
 5852SOL    HW229193   2.841   4.233   9.323  0.5654  0.0363  0.6764
 5853SOL     OW29194   4.069   4.195   7.467 -0.0387 -0.4633  0.5417
 5853SOL    HW129195   4.057   4.258   7.396  3.4606  0.0047  0.3717
 5853SOL    HW229196   4.151   4.155   7.438 -0.4109 -0.1600 -0.9367
 5854SOL     OW29197   2.816   3.018   5.940 -0.1804 -0.2324  0.2000
 5854SOL    HW129198   2.846   2.974   5.861 -2.2760 -0.8303 -0.2755
 5854SOL    HW229199   2.893   3.022   5.996 -0.3828 -0.6742  0.5100
 5855SOL     OW29200   1.997   1.366   0.679  0.7607  0.1415  0.6500
 5855SOL    HW129201   2.054   1.430   0.722  1.9165  0.4939 -1.4269
 5855SOL    HW229202   1.939   1.333   0.748 -1.7810 -0.7067 -1.8705
 5856SOL     OW29203   0.168   1.063   9.720 -0.0135  0.0456 -0.1940
 5856SOL    HW129204   0.217   1.098   9.794 -1.2516  1.2893  0.0350
 5856SOL    HW229205   0.211   1.116   9.653  1.2410 -0.4868  0.2000
 5857SOL     OW29206   1.728   2.626   7.297  0.0610  0.2905 -0.4946
 5857SOL    HW129207   1.809   2.593   7.337 -0.8451  1.8397  2.5828
 5857SOL    HW229208   1.747   2.719   7.307 -3.1519  1.0724 -1.7340
 5858SOL     OW29209   4.285   2.481  17.611 -0.3365 -0.0407 -0.5747
 5858SOL    HW129210   4.265   2.431  17.532 -2.9426 -1.9142  1.2912
 5858SOL    HW229211   4.335   2.556  17.578  2.8519 -1.2091  1.5434
 5859SOL     OW29212   0.363   0.072  15.469  0.1651  0.2051 -0.0658
 5859SOL    HW129213   0.273   0.076  15.499 -0.0966 -2.2599 -0.5568
 5859SOL    HW229214   0.393   0.162  15.481 -0.3797  0.3306  0.3278
 5860SOL     OW29215   0.007   1.237  11.583 -0.2429  0.0006  0.0667
 5860SOL    HW129216   0.033   1.230  11.491 -1.3245  0.7664 -0.3015
 5860SOL    HW229217   0.093   1.253  11.621  0.1785  1.5558 -1.5314
 5861SOL     OW29218   3.448   1.942   2.016 -0.0450 -0.1211 -0.0904
 5861SOL    HW129219   3.531   1.897   2.024 -0.2520 -0.2277  1.3412
 5861SOL    HW229220   3.402   1.865   1.983 -2.0354  0.8021  0.4897
 5862SOL     OW29221   2.071   2.533   4.171  0.3121 -0.8777 -0.3696
 5862SOL    HW129222   2.157   2.507   4.138 -0.0726  1.4555 -3.2062
 5862SOL    HW229223   2.033   2.448   4.151 -3.2163  1.1959 -2.5043
 5863SOL     OW29224   1.204   1.479   7.108  0.5313 -0.2030 -0.3264
 5863SOL    HW129225   1.170   1.501   7.021  2.5992 -0.0646 -1.1131
 5863SOL    HW229226   1.250   1.562   7.123  1.5255 -0.4604 -1.8379
 5864SOL     OW29227   3.789   0.238   6.629 -0.1800 -0.4550 -0.6192
 5864SOL    HW129228   3.872   0.197   6.604 -0.1025  1.0412 -2.8028
 5864SOL    HW229229   3.735   0.159   6.631 -2.2537  0.9253 -2.2657
 5865SOL     OW29230   3.725   0.869   4.895  0.5843 -0.3198  0.8318
 5865SOL    HW129231   3.639   0.853   4.934  0.4236  0.4200  0.7694
 5865SOL    HW229232   3.696   0.850   4.806  0.8741 -1.7506  1.0393
 5866SOL     OW29233   2.931   2.852   4.484  0.2173 -0.5510  0.2073
 5866SOL    HW129234   2.919   2.857   4.578  2.6185 -0.1322  0.4804
 5866SOL    HW229235   2.858   2.903   4.449 -1.4616 -2.2913  1.1456
 5867SOL     OW29236   3.556   1.133   4.243 -0.0877  0.2716 -0.6694
 5867SOL    HW129237   3.643   1.153   4.277  0.4984 -2.5778 -0.4961
 5867SOL    HW229238   3.581   1.090   4.161  1.4370  2.1387 -1.1857
 5868SOL     OW29239   2.907   0.428  14.024  0.0358 -0.0601 -0.0013
 5868SOL    HW129240   2.998   0.453  14.041  0.0552 -1.4899  1.9949
 5868SOL    HW229241   2.910   0.355  13.963  1.1528  0.3045 -0.3854
 5869SOL     OW29242   4.687   2.170  16.104 -0.1291 -0.4258 -0.3066
 5869SOL    HW129243   4.652   2.168  16.193 -0.0960 -1.3815 -0.3148
 5869SOL    HW229244   4.648   2.246  16.062  0.3971 -0.4353 -0.8135
 5870SOL     OW29245   4.487   4.119   7.792 -0.2182  0.1402 -0.2504
 5870SOL    HW129246   4.402   4.125   7.750 -0.9357 -0.1886  1.1640
 5870SOL    HW229247   4.503   4.028   7.765  1.0913  0.8580 -1.8578
 5871SOL     OW29248   3.708   0.667   5.772 -0.4254 -0.6867 -0.1344
 5871SOL    HW129249   3.634   0.663   5.832  0.4734 -0.1629  1.0082
 5871SOL    HW229250   3.767   0.721   5.825  0.7052 -2.2107  0.1669
 5872SOL     OW29251   0.264   4.445   8.340  0.1431  0.0424 -0.2176
 5872SOL    HW129252   0.298   4.419   8.254 -0.5241 -0.1856 -0.4146
 5872SOL    HW229253   0.191   4.384   8.353 -1.0323  0.6814 -3.6531
 5873SOL     OW29254   0.067   2.584  13.061 -0.6033  0.6916 -0.3707
 5873SOL    HW129255   0.102   2.536  13.137 -2.0573  0.4388  0.1481
 5873SOL    HW229256   0.100   2.672  13.082  0.3049 -0.3207  2.5269
 5874SOL     OW29257   2.131   4.412   2.145 -0.2259  0.1284  0.4111
 5874SOL    HW129258   2.164   4.375   2.227  0.9662 -0.3153 -0.2648
 5874SOL    HW229259   2.058   4.457   2.187  0.5953  3.3631 -1.5686
 5875SOL     OW29260   4.012   2.890   0.033 -0.6922 -0.5525 -0.6573
 5875SOL    HW129261   4.038   2.800   0.012 -1.5365 -0.7239 -0.9446
 5875SOL    HW229262   3.917   2.883   0.039 -0.3660 -2.6433  1.9055
 5876SOL     OW29263   2.751   4.453  13.994  0.9307 -0.3835  0.2293
 5876SOL    HW129264   2.674   4.499  13.960  1.1368 -0.9971 -1.0923
 5876SOL    HW229265   2.715   4.396  14.062  1.1810  0.5670  1.1561
 5877SOL     OW29266   0.651   0.034   5.065  0.2329  0.1338  0.0300
 5877SOL    HW129267   0.705   4.727   5.130  2.5845  1.6649 -0.8820
 5877SOL    HW229268   0.584   0.070   5.123  1.1649 -0.3614  1.4227
 5878SOL     OW29269   0.313   2.372   6.861 -0.7040  0.1319  0.1192
 5878SOL    HW129270   0.308   2.277   6.878 -2.7217  0.3632  0.8630
 5878SOL    HW229271   0.306   2.363   6.766  1.1719 -2.5845  0.2234
 5879SOL     OW29272   2.327   1.232  17.420  0.1885 -0.5049  0.1291
 5879SOL    HW129273   2.243   1.254  17.461 -0.5371 -2.4156 -0.3051
 5879SOL    HW229274   2.306   1.140  17.402  0.3568 -0.2312 -1.4620
 5880SOL     OW29275   0.285   1.943   6.684  0.1218 -0.2346  0.5560
 5880SOL    HW129276   0.253   1.906   6.766 -3.7252  2.4530  0.2688
 5880SOL    HW229277   0.236   2.025   6.674 -1.1694 -1.1318 -0.4682
 5881SOL     OW29278   4.208   2.169   7.953  0.6707  0.3170  0.1024
 5881SOL    HW129279   4.125   2.207   7.981 -0.0546 -1.9231  1.0117
 5881SOL    HW229280   4.275   2.232   7.982  0.4075  0.1606  1.0742
 5882SOL     OW29281   3.145   1.652   8.526 -0.1509 -0.3074  0.0163
 5882SOL    HW129282   3.190   1.732   8.551  0.0832 -0.5740  0.4389
 5882SOL    HW229283   3.052   1.676   8.526  0.4036  1.7799  1.7312
 5883SOL     OW29284   2.007   3.689   3.205 -0.4370 -0.1154  0.1443
 5883SOL    HW129285   1.941   3.747   3.169 -0.4736 -0.4362 -0.2995
 5883SOL    HW229286   2.090   3.730   3.183 -0.4316 -1.6572 -2.7022
 5884SOL     OW29287   3.345   1.210   5.539 -0.9021 -0.0121  0.0032
 5884SOL    HW129288   3.417   1.158   5.573  0.2609  2.1458  0.8524
 5884SOL    HW229289   3.371   1.267   5.467 -0.9583 -0.8360 -0.6600
 5885SOL     OW29290   2.272   1.290   6.717 -0.2970  0.2506  0.5465
 5885SOL    HW129291   2.188   1.335   6.717  0.2370  1.2594 -0.4576
 5885SOL    HW229292   2.333   1.345   6.668  1.2298 -2.6922 -0.8582
 5886SOL     OW29293   4.585   0.728   5.643 -0.2129 -0.3949 -0.0280
 5886SOL    HW129294   4.600   0.800   5.582 -0.0468 -0.9256 -0.6230
 5886SOL    HW229295   4.672   0.713   5.680 -0.2173  0.2891  0.2573
 5887SOL     OW29296   0.812   2.246   4.783 -0.0744  0.2618  0.8331
 5887SOL    HW129297   0.773   2.334   4.787 -1.4737 -0.3006 -0.3314
 5887SOL    HW229298   0.854   2.246   4.868  0.5171  0.2177  0.5363
 5888SOL     OW29299   1.210   3.726   9.065  0.4948 -0.0067 -0.2772
 5888SOL    HW129300   1.139   3.712   9.003  1.2972 -1.6888 -0.8134
 5888SOL    HW229301   1.253   3.644   9.042  1.8050 -0.0358  2.2601
 5889SOL     OW29302   3.288   1.165  16.961  0.2960 -0.0401 -0.6340
 5889SOL    HW129303   3.257   1.242  16.914 -1.3091  0.1091  0.6468
 5889SOL    HW229304   3.381   1.178  16.980 -0.2212  1.0775  1.0924
 5890SOL     OW29305   3.985   1.586  16.855 -0.4815 -0.1739 -0.3599
 5890SOL    HW129306   4.047   1.652  16.884 -2.6874  1.7189  0.0828
 5890SOL    HW229307   3.977   1.527  16.930  0.3134  1.5920  1.1025
 5891SOL     OW29308   3.084   2.701  16.104 -0.2116 -0.2064 -0.0142
 5891SOL    HW129309   3.162   2.656  16.072 -0.6783 -0.7854 -0.3490
 5891SOL    HW229310   3.107   2.793  16.093 -2.8887  0.6893  1.8023
 5892SOL     OW29311   4.547   0.919   3.813  0.4086 -0.2634 -0.2855
 5892SOL    HW129312   4.495   0.992   3.845  1.2091  0.0057  0.4179
 5892SOL    HW229313   4.551   0.944   3.721 -2.3043 -0.0640 -0.3577
 5893SOL     OW29314   0.453   4.482   2.315  0.0087  0.0726  0.3382
 5893SOL    HW129315   0.515   4.547   2.349  1.4610 -0.0483 -2.0729
 5893SOL    HW229316   0.400   4.538   2.257 -0.9761  0.2682  1.4223
 5894SOL     OW29317   3.596   3.638  13.699  0.3604  0.6900  0.6575
 5894SOL    HW129318   3.630   3.618  13.786  0.4567 -1.4303  0.1406
 5894SOL    HW229319   3.526   3.702  13.709  0.2870  0.9227 -1.2449
 5895SOL     OW29320   4.181   3.503   3.332  0.1833 -0.6411  0.2200
 5895SOL    HW129321   4.190   3.416   3.371 -3.4739 -1.5455 -0.9111
 5895SOL    HW229322   4.113   3.481   3.268 -1.0328  1.0774  0.9245
 5896SOL     OW29323   2.576   3.276  12.560  0.2509  0.5585 -0.2198
 5896SOL    HW129324   2.574   3.247  12.651  0.7147  0.7541 -0.1450
 5896SOL    HW229325   2.631   3.206  12.525 -0.0943  0.0806  0.2023
 5897SOL     OW29326   0.140   1.356  11.947 -0.6235 -0.5442 -0.4991
 5897SOL    HW129327   0.125   1.438  11.900  1.4266 -1.0078 -1.9273
 5897SOL    HW229328   0.052   1.318  11.950 -0.2143 -1.5201 -1.2003
 5898SOL     OW29329   0.939   4.587   1.754  0.0186 -0.8362  0.1787
 5898SOL    HW129330   0.998   4.653   1.718 -0.9091  0.9353  1.8976
 5898SOL    HW229331   0.970   4.513   1.702 -2.1491 -1.2406 -0.5510
 5899SOL     OW29332   1.750   0.900  16.449  0.1474  0.5749 -0.2254
 5899SOL    HW129333   1.720   0.867  16.534 -0.8402  1.7817 -0.1135
 5899SOL    HW229334   1.734   0.823  16.395 -0.3926 -0.3756  1.2771
 5900SOL     OW29335   2.069   2.003   0.177 -0.1774 -0.0988 -0.3714
 5900SOL    HW129336   2.006   2.065   0.139  0.5649  0.8166 -0.1184
 5900SOL    HW229337   2.006   1.943   0.217 -0.7957  1.2011  0.6073
 5901SOL     OW29338   2.673   1.232   7.605 -0.2254  0.0368  0.2072
 5901SOL    HW129339   2.721   1.236   7.522 -0.5758  0.1063  0.0104
 5901SOL    HW229340   2.602   1.290   7.578  0.5288  0.3244 -1.1544
 5902SOL     OW29341   1.555   1.832   2.541 -0.7267 -0.0566 -0.7466
 5902SOL    HW129342   1.477   1.780   2.522 -0.3826 -0.7170 -0.3409
 5902SOL    HW229343   1.588   1.795   2.623  0.3659 -0.2065 -1.2638
 5903SOL     OW29344   0.208   2.772   5.954  0.0421  0.1799 -0.7248
 5903SOL    HW129345   0.146   2.750   5.884 -0.2048  1.6881 -0.9888
 5903SOL    HW229346   0.284   2.800   5.903 -0.1800  0.2436 -1.0232
 5904SOL     OW29347   3.513   0.833  13.567 -0.5402  0.5586  0.4495
 5904SOL    HW129348   3.591   0.798  13.610 -0.3558  2.1105  1.3646
 5904SOL    HW229349   3.541   0.837  13.476 -0.4479  2.3770  0.5522
 5905SOL     OW29350   1.028   2.742  10.329 -0.2277 -0.2793 -0.2180
 5905SOL    HW129351   1.100   2.706  10.381  0.7480  0.3438 -1.1410
 5905SOL    HW229352   0.970   2.665  10.330  1.2613 -1.4154 -1.1482
 5906SOL     OW29353   3.857   4.227  11.554  0.2309 -0.5533  0.3948
 5906SOL    HW129354   3.875   4.137  11.528 -0.1563 -0.2045 -1.0854
 5906SOL    HW229355   3.942   4.268  11.541  0.6472 -2.3378 -2.4243
 5907SOL     OW29356   1.685   2.845   6.873 -0.2023  0.7362  0.1646
 5907SOL    HW129357   1.695   2.916   6.936  3.8439 -0.3617  0.7291
 5907SOL    HW229358   1.753   2.860   6.807  1.2885  0.5207  1.6444
 5908SOL     OW29359   0.349   2.908  14.429  0.6298  0.1863  0.1128
 5908SOL    HW129360   0.419   2.844  14.419  1.2126  0.8650 -0.1665
 5908SOL    HW229361   0.277   2.859  14.469  1.3912  0.0673  1.3620
 5909SOL     OW29362   3.663   1.178  14.486 -0.4213 -0.3934  0.3821
 5909SOL    HW129363   3.732   1.233  14.449  0.9176 -0.9244  2.1113
 5909SOL    HW229364   3.628   1.236  14.554 -0.8188 -1.8136  1.3905
 5910SOL     OW29365   1.508   2.469   0.958  0.3088  0.3593  0.0869
 5910SOL    HW129366   1.523   2.398   1.020 -0.0431  0.7823  0.6516
 5910SOL    HW229367   1.571   2.536   0.986  1.6801 -0.8423 -0.1048
 5911SOL     OW29368   1.033   4.256   3.439  0.4786  0.1902  0.3285
 5911SOL    HW129369   0.991   4.178   3.475 -0.6504  0.9081  0.5690
 5911SOL    HW229370   0.958   4.315   3.436 -1.0086 -1.8783 -2.5766
 5912SOL     OW29371   2.109   2.833  10.748  0.1843  0.9223  0.1253
 5912SOL    HW129372   2.176   2.831  10.680 -0.8324  1.0658 -0.8761
 5912SOL    HW229373   2.119   2.744  10.784 -0.8240  0.7151 -0.1212
 5913SOL     OW29374   2.047   1.267   9.285 -0.0043 -0.9042  0.1378
 5913SOL    HW129375   2.018   1.345   9.333  2.5276  0.1897 -0.1232
 5913SOL    HW229376   2.141   1.260   9.302  0.1684 -1.8916 -1.2731
 5914SOL     OW29377   1.768   1.416   6.710 -0.1470 -0.1596  0.0776
 5914SOL    HW129378   1.737   1.389   6.796  2.2907 -0.5956  0.8136
 5914SOL    HW229379   1.861   1.426   6.730 -0.5617 -0.9258  2.4389
 5915SOL     OW29380   4.374   2.499  12.508  0.4257 -0.8795  0.0208
 5915SOL    HW129381   4.449   2.528  12.559  1.1944 -0.5983 -1.2767
 5915SOL    HW229382   4.407   2.535  12.426  0.8190  0.4486  0.7641
 5916SOL     OW29383   1.576   1.092   1.788  0.2971  0.0383 -0.3537
 5916SOL    HW129384   1.645   1.149   1.820 -0.0300  0.3457 -0.1953
 5916SOL    HW229385   1.506   1.104   1.852  0.7974  1.2512 -0.0383
 5917SOL     OW29386   4.072   3.144   4.111 -0.2894 -0.1689 -0.5012
 5917SOL    HW129387   4.167   3.143   4.101 -0.2230 -0.0003  0.1283
 5917SOL    HW229388   4.052   3.238   4.109  1.1746  0.1410 -0.8256
 5918SOL     OW29389   1.562   4.338  15.610 -0.0014  0.1287  0.1210
 5918SOL    HW129390   1.542   4.245  15.620  2.7307 -0.6444 -1.2300
 5918SOL    HW229391   1.657   4.353  15.613  0.0310 -0.0894  0.1913
 5919SOL     OW29392   2.454   2.423   3.075  0.5504 -0.5819  0.3379
 5919SOL    HW129393   2.364   2.441   3.100  0.3874  1.7869 -1.9650
 5919SOL    HW229394   2.504   2.472   3.141 -3.7313  2.4443  1.3264
 5920SOL     OW29395   3.707   4.456   9.902 -0.0794 -0.1817  0.0216
 5920SOL    HW129396   3.700   4.551   9.904 -1.4930 -0.2441 -1.5717
 5920SOL    HW229397   3.789   4.438   9.948  0.6273  0.6149 -0.9190
 5921SOL     OW29398   0.557   0.441   9.569  0.4444  0.0971 -0.1583
 5921SOL    HW129399   0.634   0.463   9.622  0.9664 -1.3336 -0.3240
 5921SOL    HW229400   0.576   0.351   9.543 -0.7758  0.3288 -1.7978
 5922SOL     OW29401   0.432   3.734   8.753 -0.4311 -0.1248  0.2207
 5922SOL    HW129402   0.390   3.659   8.795  2.5732 -0.9879  1.7132
 5922SOL    HW229403   0.494   3.689   8.696 -0.1879 -0.1402  0.4965
 5923SOL     OW29404   0.672   3.458   7.557 -0.3946 -0.0852  0.0047
 5923SOL    HW129405   0.619   3.378   7.551  0.3736 -0.5238 -0.9705
 5923SOL    HW229406   0.666   3.481   7.650  0.0657 -2.3630  0.6102
 5924SOL     OW29407   2.493   3.963   0.737 -0.0152  0.0629  0.7802
 5924SOL    HW129408   2.433   4.004   0.800  0.8888  0.6008  1.2913
 5924SOL    HW229409   2.575   3.952   0.786 -0.0560 -0.2394  0.7818
 5925SOL     OW29410   3.445   3.573  16.942 -0.1126  0.3742  0.2220
 5925SOL    HW129411   3.385   3.589  17.014  0.7685  2.6108  0.4464
 5925SOL    HW229412   3.510   3.521  16.989 -0.7107  0.4712  1.1589
 5926SOL     OW29413   1.637   2.631   2.347  0.0860  0.7268 -0.3954
 5926SOL    HW129414   1.567   2.567   2.331 -1.1161  2.2090 -1.0388
 5926SOL    HW229415   1.582   2.710   2.344 -1.4696 -0.2945  1.0398
 5927SOL     OW29416   2.868   1.124  11.682  0.0980  0.5165  0.2967
 5927SOL    HW129417   2.843   1.209  11.646 -1.0677  1.4380  3.2182
 5927SOL    HW229418   2.961   1.134  11.699  0.6852 -1.1614 -1.9773
 5928SOL     OW29419   3.061   0.272   4.997 -0.5499 -0.0795 -0.3859
 5928SOL    HW129420   3.110   0.262   4.915  0.3936 -1.0123  0.2908
 5928SOL    HW229421   2.998   0.201   4.992 -1.5513  0.9194 -2.1636
 5929SOL     OW29422   3.242   1.430   9.608  0.3774  0.1247 -0.3179
 5929SOL    HW129423   3.243   1.388   9.694  3.4220  0.0842 -0.3724
 5929SOL    HW229424   3.222   1.520   9.633 -1.7095 -0.2980 -0.4258
 5930SOL     OW29425   1.423   3.472   7.936  0.5108  0.2525 -0.3450
 5930SOL    HW129426   1.421   3.484   7.841 -2.0713 -1.1721 -0.4680
 5930SOL    HW229427   1.468   3.553   7.960 -2.6745  1.7833  0.5918
 5931SOL     OW29428   1.711   2.837   2.720 -0.5288  0.0547 -0.2770
 5931SOL    HW129429   1.618   2.859   2.730 -0.3791  0.1688  0.8111
 5931SOL    HW229430   1.745   2.911   2.671  0.2466 -0.8429 -1.1017
 5932SOL     OW29431   2.518   1.371   2.498 -0.1975  0.1564  0.3939
 5932SOL    HW129432   2.610   1.392   2.516 -0.1612 -1.2994  1.9025
 5932SOL    HW229433   2.473   1.407   2.574 -1.5985  0.6966 -0.6889
 5933SOL     OW29434   1.966   3.314   7.500 -0.2774  0.2915 -0.0813
 5933SOL    HW129435   1.886   3.288   7.454  0.7978  0.3334 -1.9832
 5933SOL    HW229436   1.955   3.293   7.593  2.0230 -2.3116 -0.4014
 5934SOL     OW29437   3.767   0.131   8.053  0.1797  0.5654  0.4972
 5934SOL    HW129438   3.784   0.214   8.009  2.2888 -1.5005 -2.5839
 5934SOL    HW229439   3.852   0.115   8.094  0.5734 -0.0108 -0.5554
 5935SOL     OW29440   3.661   2.738  12.758  0.1633 -0.4193 -0.0605
 5935SOL    HW129441   3.627   2.654  12.726  0.2892  0.2146 -1.8610
 5935SOL    HW229442   3.744   2.707  12.794  0.3547 -1.7727 -1.6589
 5936SOL     OW29443   4.591   0.818   4.059  0.5640  0.1496  0.0769
 5936SOL    HW129444   4.499   0.800   4.076  1.0990 -1.3306  1.4600
 5936SOL    HW229445   4.595   0.842   3.967  2.0250  1.0179  0.3538
 5937SOL     OW29446   4.304   4.660   2.150  0.4202  1.0343  0.1565
 5937SOL    HW129447   4.376   4.718   2.175  1.0674  0.9296 -1.4178
 5937SOL    HW229448   4.326   4.629   2.062 -0.8112 -1.0218  0.5762
 5938SOL     OW29449   1.673   1.523   2.374  0.1126 -0.1612 -0.8084
 5938SOL    HW129450   1.661   1.428   2.385 -1.3055  0.3484  1.9819
 5938SOL    HW229451   1.582   1.544   2.353 -0.2022 -0.0756  0.6480
 5939SOL     OW29452   3.659   3.227   2.981 -0.3388  0.5644 -0.0875
 5939SOL    HW129453   3.604   3.158   2.944 -1.4602  1.6625 -0.5005
 5939SOL    HW229454   3.640   3.222   3.075 -3.2786 -0.9154 -0.7715
 5940SOL     OW29455   4.627   3.646  13.166 -0.0343 -0.3500 -0.3849
 5940SOL    HW129456   4.720   3.666  13.160 -0.2704  2.0530  3.9885
 5940SOL    HW229457   4.632   3.564  13.215 -2.3471  0.5906  1.3957
 5941SOL     OW29458   0.068   4.498   3.104  0.5631 -0.0809 -0.0975
 5941SOL    HW129459   0.142   4.443   3.080  0.8702  0.4039 -0.2774
 5941SOL    HW229460   0.095   4.576   3.056  1.9342 -1.7335 -1.9834
 5942SOL     OW29461   0.656   4.727   5.829  0.2328  0.3941 -0.7889
 5942SOL    HW129462   0.720   4.733   5.758 -1.7835  1.6081 -2.4928
 5942SOL    HW229463   0.649   4.632   5.835  0.0905  0.3720 -1.2878
 5943SOL     OW29464   1.111   0.970   4.971 -0.2430 -0.1319 -0.5864
 5943SOL    HW129465   1.104   1.017   5.054  0.1202 -1.6596  0.3179
 5943SOL    HW229466   1.198   0.935   4.989 -0.1537  0.3582 -0.0380
 5944SOL     OW29467   4.232   2.487   9.343 -0.4887  0.6522 -0.2551
 5944SOL    HW129468   4.205   2.401   9.376 -0.8546  0.4094 -1.1951
 5944SOL    HW229469   4.159   2.547   9.361 -1.3465 -0.0847 -1.3240
 5945SOL     OW29470   3.393   4.675   4.696  0.1259  0.0982 -0.6108
 5945SOL    HW129471   3.302   4.696   4.718 -0.3161  0.0101 -2.3860
 5945SOL    HW229472   3.387   4.582   4.677  0.2460 -0.3187  1.4581
 5946SOL     OW29473   3.722   1.415   8.465 -0.5439  0.5135 -0.0631
 5946SOL    HW129474   3.707   1.323   8.442  1.8004  0.2338 -0.4593
 5946SOL    HW229475   3.700   1.460   8.383  1.6216  1.0909 -0.3190
 5947SOL     OW29476   3.766   4.041   4.081 -0.3450 -0.3148 -0.2394
 5947SOL    HW129477   3.687   4.010   4.037 -1.1403 -0.8062  1.5640
 5947SOL    HW229478   3.831   4.020   4.014 -0.8957  1.4936 -1.3592
 5948SOL     OW29479   2.677   3.245   2.731 -0.2244  1.0917  0.4086
 5948SOL    HW129480   2.752   3.250   2.672 -0.3649  0.4995  0.1747
 5948SOL    HW229481   2.604   3.235   2.671  0.5577 -2.7853  0.0825
 5949SOL     OW29482   3.901   0.413   7.291 -0.0107 -0.4693 -0.6912
 5949SOL    HW129483   3.981   0.460   7.314 -0.6865  0.8367 -1.0332
 5949SOL    HW229484   3.932   0.356   7.220  0.0335 -0.5593 -0.5998
 5950SOL     OW29485   2.425   2.243   8.853  0.8184 -0.2085  0.0034
 5950SOL    HW129486   2.369   2.166   8.854  0.4463  0.0693  1.6243
 5950SOL    HW229487   2.435   2.275   8.943  2.2974 -0.2889 -0.1199
 5951SOL     OW29488   4.692   3.002   6.788  0.4522  0.3640  0.3001
 5951SOL    HW129489   4.630   2.944   6.832  1.5690 -1.2377 -0.2565
 5951SOL    HW229490   4.624   3.057   6.749  0.6887  2.1617  2.4250
 5952SOL     OW29491   3.137   1.344   1.863 -0.1907 -0.1373  0.0602
 5952SOL    HW129492   3.178   1.344   1.949  0.7031  0.8319 -0.3673
 5952SOL    HW229493   3.214   1.363   1.809  0.4864  1.4175  1.5838
 5953SOL     OW29494   3.888   1.808   1.965  0.0028 -0.7134 -0.0197
 5953SOL    HW129495   3.962   1.761   2.004  2.2959  0.5422 -2.8301
 5953SOL    HW229496   3.942   1.846   1.895  0.3332  0.6346  0.9740
 5954SOL     OW29497   1.899   1.962  17.287  0.0618  0.6896 -0.2057
 5954SOL    HW129498   1.957   1.922  17.222 -1.5207  1.0695 -1.8301
 5954SOL    HW229499   1.818   1.954  17.237  0.1835 -0.0470 -0.2814
 5955SOL     OW29500   1.872   4.438   0.547 -0.0653  0.5193  0.2856
 5955SOL    HW129501   1.815   4.401   0.614 -1.8265 -1.2905 -2.1956
 5955SOL    HW229502   1.917   4.360   0.516  0.3313  1.0860 -0.6013
 5956SOL     OW29503   1.943   3.001  15.956  0.2894 -0.3474 -0.0165
 5956SOL    HW129504   1.918   2.929  16.014 -0.7447  0.4699  0.5469
 5956SOL    HW229505   1.928   2.959  15.871  0.2526 -1.6774  0.6467
 5957SOL     OW29506   3.094   1.987   6.295  0.4232  0.0692 -0.1047
 5957SOL    HW129507   3.156   1.915   6.287  1.1706  0.5689  1.0954
 5957SOL    HW229508   3.139   2.051   6.239  2.3480 -1.8746 -0.7830
 5958SOL     OW29509   1.884   2.944   5.460  0.1685  0.2797  1.0582
 5958SOL    HW129510   1.869   2.941   5.366 -1.4007  0.4545  1.3053
 5958SOL    HW229511   1.911   3.034   5.475  1.5498 -0.2855  1.9414
 5959SOL     OW29512   3.823   1.520  14.180 -0.3472  0.6326  0.2133
 5959SOL    HW129513   3.756   1.565  14.129  0.2546 -0.7623 -1.8406
 5959SOL    HW229514   3.809   1.431  14.147  0.5325  0.1407  1.1701
 5960SOL     OW29515   1.325   3.720  11.824  0.2991  0.0765  0.3287
 5960SOL    HW129516   1.254   3.713  11.888  0.2032  1.4775  0.3673
 5960SOL    HW229517   1.280   3.720  11.739  1.4227  1.5556 -0.2729
 5961SOL     OW29518   2.338   1.349   1.158 -0.6846 -0.0876  0.4037
 5961SOL    HW129519   2.271   1.409   1.190 -2.4006 -2.0199  0.4362
 5961SOL    HW229520   2.340   1.390   1.071 -0.5985  0.9741  0.9071
 5962SOL     OW29521   3.423   4.404   1.213 -0.5327 -0.5494 -0.1979
 5962SOL    HW129522   3.413   4.496   1.189 -2.1228 -0.8276 -0.5453
 5962SOL    HW229523   3.348   4.402   1.272 -1.3595  1.2389 -1.2142
 5963SOL     OW29524   2.592   4.146   2.981 -0.0274 -0.1483  0.4989
 5963SOL    HW129525   2.555   4.125   2.895 -1.0666  1.5360  0.5435
 5963SOL    HW229526   2.602   4.061   3.025 -0.0548  0.6414  2.0425
 5964SOL     OW29527   4.140   1.796   9.493  0.6282  0.2710 -0.1273
 5964SOL    HW129528   4.168   1.874   9.446  0.4679  1.5448  1.8818
 5964SOL    HW229529   4.197   1.735   9.447  0.6109  0.5054 -0.4645
 5965SOL     OW29530   3.737   1.455   2.055 -0.2832 -1.1627  0.2837
 5965SOL    HW129531   3.753   1.367   2.019 -0.4244 -1.3328  0.6342
 5965SOL    HW229532   3.782   1.452   2.140  2.4507  3.0917 -1.0013
 5966SOL     OW29533   4.462   3.683   8.564 -0.0026 -0.2713 -0.1931
 5966SOL    HW129534   4.446   3.705   8.656  0.1533 -0.3424 -0.1475
 5966SOL    HW229535   4.544   3.635   8.576  0.2091 -0.2662 -1.6229
 5967SOL     OW29536   0.440   4.359   7.951  0.1158 -0.6030  0.4967
 5967SOL    HW129537   0.412   4.310   8.028 -0.9662  0.2571  0.6406
 5967SOL    HW229538   0.497   4.425   7.990  1.2556  0.1865 -2.4924
 5968SOL     OW29539   2.838   0.259   8.599 -0.1946 -0.0451 -0.0369
 5968SOL    HW129540   2.859   0.318   8.526  1.2103  1.0045  1.2144
 5968SOL    HW229541   2.906   0.196   8.576  0.3032  0.5690 -0.2596
 5969SOL     OW29542   3.712   2.687   2.956  0.5917  0.1535  0.1021
 5969SOL    HW129543   3.714   2.651   2.868 -2.1516  0.4968 -0.1210
 5969SOL    HW229544   3.629   2.734   2.949 -0.4093 -1.3857  1.5546
 5970SOL     OW29545   4.618   0.558  15.210 -0.5375 -0.0235  0.2044
 5970SOL    HW129546   4.668   0.494  15.160  3.1469  1.4917  1.9059
 5970SOL    HW229547   4.676   0.634  15.207 -2.1849  1.0273 -3.9360
 5971SOL     OW29548   2.651   3.785   1.674 -0.0243  0.5311 -0.1869
 5971SOL    HW129549   2.635   3.720   1.743 -0.3811  1.0435  0.2082
 5971SOL    HW229550   2.743   3.803   1.694  0.5182 -0.8181 -1.4058
 5972SOL     OW29551   0.116   3.367   3.289  0.0328 -0.3167 -0.2673
 5972SOL    HW129552   0.141   3.455   3.262 -1.7218  0.9646  2.2799
 5972SOL    HW229553   0.100   3.378   3.383 -0.9734 -0.0832 -0.4679
 5973SOL     OW29554   3.580   0.641  13.124 -0.0407 -0.1124 -0.3830
 5973SOL    HW129555   3.592   0.611  13.034  0.2252 -0.9550 -0.0763
 5973SOL    HW229556   3.670   0.631  13.156 -0.0093 -0.1110 -0.4719
 5974SOL     OW29557   2.357   4.268   8.886  0.2728  0.0935  0.3966
 5974SOL    HW129558   2.287   4.326   8.914  0.7514  0.9137 -0.0794
 5974SOL    HW229559   2.320   4.222   8.811 -0.7716 -0.3979  1.2275
 5975SOL     OW29560   1.566   1.186   9.954 -0.3659 -0.0364  0.2747
 5975SOL    HW129561   1.474   1.197   9.974 -0.5818  0.1160 -0.7915
 5975SOL    HW229562   1.591   1.112  10.009 -0.9794 -1.0698 -0.8458
 5976SOL     OW29563   1.826   0.706  14.142 -0.1267  0.5126  0.2250
 5976SOL    HW129564   1.793   0.795  14.147 -1.1923  0.2191 -1.5202
 5976SOL    HW229565   1.752   0.664  14.188 -1.5640  0.2625 -2.2834
 5977SOL     OW29566   2.684   0.110   1.340 -0.1353  0.0701  0.4314
 5977SOL    HW129567   2.591   0.127   1.324 -0.1339 -1.5985 -1.3792
 5977SOL    HW229568   2.731   0.193   1.342  1.9786 -1.0837 -0.1134
 5978SOL     OW29569   3.419   0.516   6.893  0.9368  0.1440 -0.3470
 5978SOL    HW129570   3.470   0.440   6.921  0.0613 -1.1752 -2.3499
 5978SOL    HW229571   3.455   0.535   6.807  2.6899 -1.0389  0.1312
 5979SOL     OW29572   3.140   1.916   5.261 -0.2241 -0.2296 -0.2049
 5979SOL    HW129573   3.113   1.834   5.219  0.9861  0.3752 -2.1726
 5979SOL    HW229574   3.126   1.881   5.349 -0.5838 -0.0867 -0.2028
 5980SOL     OW29575   4.396   1.721  14.345 -0.3863  0.1188  0.0277
 5980SOL    HW129576   4.457   1.659  14.305 -0.0675  0.8780 -0.6799
 5980SOL    HW229577   4.312   1.692  14.309  0.9698 -1.3744 -1.9526
 5981SOL     OW29578   0.320   2.542  17.498 -0.1499 -0.0945 -0.0020
 5981SOL    HW129579   0.359   2.490  17.428 -0.3286 -2.0268  1.3283
 5981SOL    HW229580   0.337   2.633  17.472  2.5698 -0.3724  0.7995
 5982SOL     OW29581   3.501   3.948   3.912  0.6696  0.4985  0.2611
 5982SOL    HW129582   3.533   3.955   3.821 -2.3154 -1.4102 -0.9119
 5982SOL    HW229583   3.522   3.859   3.941 -0.7394  0.4231  1.0087
 5983SOL     OW29584   1.320   0.468   2.731 -0.1470  0.1055 -0.0013
 5983SOL    HW129585   1.229   0.462   2.758  0.1787 -3.2757  0.2554
 5983SOL    HW229586   1.309   0.482   2.637  0.4198  0.4621 -0.0191
 5984SOL     OW29587   1.692   2.718   1.350 -0.1437 -0.3011  0.4978
 5984SOL    HW129588   1.699   2.652   1.419  2.8301 -0.2997  0.1848
 5984SOL    HW229589   1.779   2.756   1.364  0.0720 -0.6924  0.2205
 5985SOL     OW29590   0.059   1.402   9.288  0.3714 -0.3674  0.6077
 5985SOL    HW129591   0.058   1.397   9.193  2.0693 -0.2298  0.5820
 5985SOL    HW229592   0.071   1.497   9.295  3.3333 -0.8041  1.3637
 5986SOL     OW29593   1.372   2.573   4.893  0.6877  0.3197  0.3455
 5986SOL    HW129594   1.464   2.587   4.869  0.9654 -0.2922  1.0545
 5986SOL    HW229595   1.359   2.590   4.986 -1.3905  1.6881 -0.1930
 5987SOL     OW29596   4.417   0.971   6.831 -0.3014 -0.1204  0.1666
 5987SOL    HW129597   4.472   0.893   6.836 -1.4155 -0.9211  0.1630
 5987SOL    HW229598   4.347   0.934   6.777  0.9168 -0.7108 -0.9819
 5988SOL     OW29599   1.113   3.076   3.027  0.2181  0.0684  0.3509
 5988SOL    HW129600   1.056   3.101   2.954  1.7441 -0.9923 -1.2085
 5988SOL    HW229601   1.111   3.157   3.078  0.5773  1.4658 -1.8191
 5989SOL     OW29602   2.894   2.756   5.049  0.1332  0.1357 -0.1062
 5989SOL    HW129603   2.822   2.787   5.105  0.3881  0.4293  0.0637
 5989SOL    HW229604   2.943   2.837   5.034  0.5863 -0.1651 -0.2238
 5990SOL     OW29605   2.617   3.595   4.759 -0.0306 -0.1557  0.4286
 5990SOL    HW129606   2.699   3.616   4.715  0.5289 -0.6807  1.2003
 5990SOL    HW229607   2.636   3.631   4.846  1.5652 -1.8798  0.8073
 5991SOL     OW29608   0.993   4.653   4.803  0.1828 -0.0080 -0.4798
 5991SOL    HW129609   0.922   4.718   4.804 -0.6358 -0.8930 -0.9334
 5991SOL    HW229610   0.978   4.605   4.722 -1.5161  0.3764 -0.4050
 5992SOL     OW29611   0.888   4.000   7.953  0.4137 -0.9879 -0.0797
 5992SOL    HW129612   0.855   4.048   8.029  0.4311 -1.8626  0.4875
 5992SOL    HW229613   0.903   4.071   7.890 -1.7804  0.2616  0.7940
 5993SOL     OW29614   0.553   3.458   7.205  0.2620 -0.4277 -0.3480
 5993SOL    HW129615   0.505   3.389   7.159  1.1162 -1.4790  0.3463
 5993SOL    HW229616   0.639   3.442   7.168  0.3339  0.9276 -0.7719
 5994SOL     OW29617   2.001   1.432   4.204 -0.9934 -0.2017  0.4066
 5994SOL    HW129618   1.930   1.496   4.212 -2.2961 -1.5993  0.0580
 5994SOL    HW229619   2.072   1.475   4.251 -1.8076  0.4732  1.0167
 5995SOL     OW29620   0.124   0.809   2.814 -0.1794 -0.4542 -0.2634
 5995SOL    HW129621   0.081   0.749   2.753  0.5420  0.6480 -1.8619
 5995SOL    HW229622   0.071   0.889   2.811  0.1765 -0.1702  0.9106
 5996SOL     OW29623   0.650   2.557  16.983  0.2492 -0.0918 -0.2096
 5996SOL    HW129624   0.670   2.567  17.076 -1.2552  0.5959  0.0430
 5996SOL    HW229625   0.574   2.612  16.962 -0.3022 -0.4245  0.8816
 5997SOL     OW29626   4.316   3.416  16.737 -0.1406 -0.3274  0.2966
 5997SOL    HW129627   4.340   3.461  16.656  2.0038 -1.0984  0.4948
 5997SOL    HW229628   4.402   3.399  16.775  1.2272 -2.1454 -3.6116
 5998SOL     OW29629   3.390   0.746   1.686 -0.4102  0.9027 -0.1270
 5998SOL    HW129630   3.478   0.716   1.708 -0.8647  1.2895  2.2684
 5998SOL    HW229631   3.404   0.825   1.634  1.5708 -0.7595 -2.0602
 5999SOL     OW29632   1.575   0.786  12.703  0.2257  0.2218  0.5061
 5999SOL    HW129633   1.660   0.805  12.665 -0.5566 -1.5960 -2.1373
 5999SOL    HW229634   1.603   0.769  12.793  1.6206  0.3371  0.0931
 6000SOL     OW29635   3.209   1.371   8.753 -0.1232  0.6284  0.2666
 6000SOL    HW129636   3.255   1.451   8.776 -2.2249  1.0485  2.9439
 6000SOL    HW229637   3.276   1.307   8.728 -1.6971 -0.2015 -1.8267
 6001SOL     OW29638   1.417   0.998  10.679 -0.2672  0.5146  0.2985
 6001SOL    HW129639   1.391   0.996  10.587  1.2754 -0.4446 -0.1049
 6001SOL    HW229640   1.490   1.060  10.685  0.0603  0.0070  1.6689
 6002SOL     OW29641   1.277   2.928   6.605  0.1089  0.0031 -0.5222
 6002SOL    HW129642   1.211   2.864   6.580  0.1507 -0.8752  1.6517
 6002SOL    HW229643   1.348   2.878   6.646  1.2271  0.5045 -1.8423
 6003SOL     OW29644   2.922   0.484  16.808 -0.1218 -0.6263 -0.0052
 6003SOL    HW129645   2.949   0.563  16.762  1.1278 -0.5312  0.8656
 6003SOL    HW229646   2.846   0.513  16.859 -1.2285 -1.0025 -1.4463
 6004SOL     OW29647   0.818   0.291  13.590 -0.4093 -0.1148 -0.3844
 6004SOL    HW129648   0.904   0.249  13.580 -0.5672 -0.2225 -1.3132
 6004SOL    HW229649   0.765   0.246  13.524 -0.5641 -2.1516  1.1387
 6005SOL     OW29650   4.180   1.975   4.976 -0.7165 -0.5498 -0.3021
 6005SOL    HW129651   4.218   1.939   5.055  0.5955  1.7293  0.0924
 6005SOL    HW229652   4.085   1.960   4.980 -0.6654 -1.2846 -1.6866
 6006SOL     OW29653   2.481   0.820  11.771  0.1727  0.1725  0.0954
 6006SOL    HW129654   2.537   0.897  11.777 -2.1973  1.9492 -0.7218
 6006SOL    HW229655   2.518   0.777  11.694 -0.7377  0.1841 -0.3453
 6007SOL     OW29656   1.799   4.490   6.125  0.4343  0.1094 -0.0558
 6007SOL    HW129657   1.873   4.508   6.182  0.1731  2.3308 -0.4107
 6007SOL    HW229658   1.737   4.445   6.184 -0.5506  1.4302 -0.0887
 6008SOL     OW29659   2.817   2.537   8.330  0.2426 -0.0470 -0.2672
 6008SOL    HW129660   2.790   2.474   8.264  0.3307 -1.4820  1.0639
 6008SOL    HW229661   2.746   2.600   8.317 -0.4321 -0.7598 -0.0801
 6009SOL     OW29662   1.375   1.501   2.438  0.4842 -0.6265 -0.1931
 6009SOL    HW129663   1.339   1.585   2.466  0.7475 -1.1610  1.7667
 6009SOL    HW229664   1.392   1.456   2.521 -0.8257  1.5170  1.2419
 6010SOL     OW29665   0.339   4.163   3.524  0.1811  0.2902 -0.9569
 6010SOL    HW129666   0.392   4.099   3.572 -1.7225 -0.2694  0.3757
 6010SOL    HW229667   0.259   4.128   3.563 -0.1328  0.8476 -1.1083
 6011SOL     OW29668   0.593   0.535   9.229  0.4770 -0.0345 -0.2486
 6011SOL    HW129669   0.528   0.467   9.247  0.8891 -0.2571  0.4069
 6011SOL    HW229670   0.629   0.492   9.152 -0.3671 -0.0634 -0.6294
 6012SOL     OW29671   3.773   0.257   2.681 -0.5753  0.4345 -0.0210
 6012SOL    HW129672   3.705   0.324   2.673  1.8333  2.9115  0.2484
 6012SOL    HW229673   3.727   0.191   2.630 -0.6484  1.0203 -0.7132
 6013SOL     OW29674   1.120   0.273  13.600  0.0760 -0.1579  0.1083
 6013SOL    HW129675   1.144   0.258  13.691 -2.5605  0.9024  0.9749
 6013SOL    HW229676   1.183   0.222  13.548 -0.8090  1.1135 -2.2212
 6014SOL     OW29677   1.375   2.316   2.865  0.1223 -0.1318  0.1988
 6014SOL    HW129678   1.410   2.384   2.808  3.1106 -0.1369  2.0038
 6014SOL    HW229679   1.458   2.268   2.874 -0.4902 -1.4295 -1.2523
 6015SOL     OW29680   2.220   4.350   6.217  0.4903 -0.1275  0.3479
 6015SOL    HW129681   2.218   4.323   6.125  0.7339 -1.3784  0.7091
 6015SOL    HW229682   2.299   4.404   6.221  0.2499  0.2898 -0.4479
 6016SOL     OW29683   1.209   1.288  16.177 -0.0233  0.0486 -0.8699
 6016SOL    HW129684   1.163   1.316  16.256  0.5162 -0.9171 -0.2221
 6016SOL    HW229685   1.143   1.226  16.145 -0.1723 -0.7738  1.0390
 6017SOL     OW29686   1.027   2.690   4.880 -0.7680 -0.1558  0.1068
 6017SOL    HW129687   1.080   2.747   4.824 -1.9417  2.2156  1.4254
 6017SOL    HW229688   1.069   2.605   4.863 -2.4294 -0.9401 -0.0370
 6018SOL     OW29689   2.512   4.415   0.268  0.3059 -0.4220 -0.0907
 6018SOL    HW129690   2.420   4.434   0.247  0.3240  0.4033  0.5664
 6018SOL    HW229691   2.496   4.404   0.362  1.3911 -0.4080  0.0873
 6019SOL     OW29692   2.612   3.860   5.808 -0.1109  0.4967  0.4570
 6019SOL    HW129693   2.658   3.934   5.847  1.0232  1.6604 -3.0266
 6019SOL    HW229694   2.613   3.796   5.879 -0.4521 -0.4208 -0.3644
 6020SOL     OW29695   3.145   1.405  15.762  0.4018 -0.0791  0.2232
 6020SOL    HW129696   3.170   1.477  15.705 -0.1875 -1.5045 -1.8687
 6020SOL    HW229697   3.121   1.440  15.848 -0.2776  0.5070 -0.2143
 6021SOL     OW29698   2.509   3.266   1.986 -0.1513  0.2800 -0.3514
 6021SOL    HW129699   2.470   3.344   2.025 -1.8705 -0.0457 -1.4023
 6021SOL    HW229700   2.603   3.284   1.991 -0.6360  2.1681  1.7673
 6022SOL     OW29701   3.425   1.828   9.171 -0.1097  0.2849 -0.1808
 6022SOL    HW129702   3.331   1.826   9.190  0.2568  0.1236  1.5680
 6022SOL    HW229703   3.476   1.839   9.251  0.3096  0.8001 -0.5190
 6023SOL     OW29704   3.064   2.922  17.418  0.5069  0.6161 -0.9778
 6023SOL    HW129705   3.130   2.863  17.381  0.1025  0.9834 -2.2758
 6023SOL    HW229706   2.987   2.865  17.408 -0.4292  1.3744  1.8892
 6024SOL     OW29707   3.194   1.440   0.283 -0.3083  0.3530 -0.1398
 6024SOL    HW129708   3.182   1.516   0.339  1.3721 -0.0496  0.7856
 6024SOL    HW229709   3.255   1.466   0.214 -0.5578  1.2943 -0.0051
 6025SOL     OW29710   2.339   1.739   3.867  0.1393  0.2205 -0.6274
 6025SOL    HW129711   2.418   1.696   3.833 -0.0690  0.5319 -1.4951
 6025SOL    HW229712   2.347   1.831   3.841  0.4900  0.1977 -0.6053
 6026SOL     OW29713   1.935   0.563   5.701 -0.1616 -0.2988 -0.2352
 6026SOL    HW129714   2.006   0.521   5.750 -2.1268 -3.1059  0.2694
 6026SOL    HW229715   1.865   0.520   5.750  1.2870 -1.8485  0.4741
 6027SOL     OW29716   4.691   4.432   2.356 -0.1059 -0.3918 -0.1905
 6027SOL    HW129717   4.710   4.423   2.262  0.3379  0.9306 -0.2313
 6027SOL    HW229718   0.001   4.511   2.379  0.4147 -0.6483 -0.3833
 6028SOL     OW29719   3.329   0.570   2.303 -0.2509  0.2801  0.2726
 6028SOL    HW129720   3.387   0.548   2.230 -0.9715  0.2620 -0.2848
 6028SOL    HW229721   3.383   0.645   2.329 -0.6014  0.0973  1.5475
 6029SOL     OW29722   2.843   3.298   9.643  0.1605  0.4801 -0.0396
 6029SOL    HW129723   2.838   3.262   9.732 -1.8919 -0.6914 -0.6277
 6029SOL    HW229724   2.864   3.387   9.669  0.8511 -0.0362  1.1918
 6030SOL     OW29725   2.326   0.517   8.112  0.0772 -0.0392 -0.2391
 6030SOL    HW129726   2.351   0.468   8.190 -0.7544  0.1868  0.1747
 6030SOL    HW229727   2.327   0.449   8.045  1.8418 -1.0299  0.8125
 6031SOL     OW29728   4.040   1.238   3.894 -0.1899  0.1249 -0.7507
 6031SOL    HW129729   4.122   1.252   3.941 -1.5801 -1.6307  2.1271
 6031SOL    HW229730   4.055   1.152   3.854 -0.6105 -1.2058  1.9911
 6032SOL     OW29731   3.437   1.303   2.414  0.0367  0.7361 -0.3316
 6032SOL    HW129732   3.427   1.364   2.487 -2.8138 -0.7954  0.5653
 6032SOL    HW229733   3.349   1.267   2.426  0.8916 -1.2563  0.0981
 6033SOL     OW29734   0.660   0.526   5.410  0.2719 -0.5054  0.0907
 6033SOL    HW129735   0.585   0.475   5.441  1.3301 -2.0637  0.0876
 6033SOL    HW229736   0.701   0.542   5.495  0.7674 -1.7957  0.0894
 6034SOL     OW29737   0.792   1.088   3.754 -0.3484  0.3074  0.2562
 6034SOL    HW129738   0.866   1.119   3.702  0.1697  0.7342  1.2582
 6034SOL    HW229739   0.790   1.005   3.705  0.5007  0.4429 -0.0092
 6035SOL     OW29740   2.115   0.010   4.356 -0.7482 -0.6643  0.1061
 6035SOL    HW129741   2.106   4.655   4.336 -0.1613 -1.0617  1.6755
 6035SOL    HW229742   2.121   4.735   4.450 -0.1862 -1.5390 -0.0564
 6036SOL     OW29743   3.348   0.739  13.894 -0.5746  0.3164 -0.1337
 6036SOL    HW129744   3.366   0.819  13.943  0.5910  1.0474 -1.7259
 6036SOL    HW229745   3.261   0.723  13.929 -0.3803 -0.2233  0.0868
 6037SOL     OW29746   1.415   0.238   4.354 -0.0437  0.0703 -0.2625
 6037SOL    HW129747   1.366   0.285   4.421  2.3955  2.5766 -0.1990
 6037SOL    HW229748   1.368   0.278   4.281 -2.3110 -3.1713 -0.5571
 6038SOL     OW29749   2.690   2.639   7.514 -0.1953 -0.4412  0.2151
 6038SOL    HW129750   2.669   2.556   7.471 -0.2834  0.1259 -0.8493
 6038SOL    HW229751   2.749   2.604   7.580  0.4322 -1.3425 -0.8133
 6039SOL     OW29752   2.108   3.308   4.258 -0.2083  0.6620  0.0101
 6039SOL    HW129753   2.054   3.297   4.337  1.0891  1.0435  0.9468
 6039SOL    HW229754   2.169   3.376   4.286  1.1394  0.3928 -2.2789
 6040SOL     OW29755   2.868   3.496   5.210  0.4731 -0.4296  0.0732
 6040SOL    HW129756   2.888   3.581   5.248  1.7426 -0.6410 -0.1427
 6040SOL    HW229757   2.805   3.464   5.275 -1.0303 -2.1111 -2.2421
 6041SOL     OW29758   3.850   2.601   2.517 -0.1168 -0.5769 -0.4732
 6041SOL    HW129759   3.917   2.669   2.529  2.0462 -2.7308 -0.3921
 6041SOL    HW229760   3.828   2.608   2.424  1.4872 -0.9986 -0.8852
 6042SOL     OW29761   1.367   1.194   4.840  0.0956 -0.1259  0.2804
 6042SOL    HW129762   1.405   1.107   4.828 -0.7774 -0.8203  2.5887
 6042SOL    HW229763   1.403   1.229   4.759 -0.6361 -0.8064 -0.3320
 6043SOL     OW29764   4.509   2.455  14.276 -0.2453  0.0665 -0.1745
 6043SOL    HW129765   4.534   2.364  14.295 -0.0860  0.3112  0.7858
 6043SOL    HW229766   4.420   2.435  14.248 -0.9679 -0.7860  2.6518
 6044SOL     OW29767   2.243   0.225   7.564 -0.0338  0.1954  0.1926
 6044SOL    HW129768   2.297   0.215   7.486  0.5096  0.3681  0.5436
 6044SOL    HW229769   2.177   0.157   7.553  1.4816 -1.1662 -0.6294
 6045SOL     OW29770   0.219   0.418  16.979  0.2262  0.1600  0.0535
 6045SOL    HW129771   0.186   0.483  17.041 -2.2021 -0.2244 -0.8263
 6045SOL    HW229772   0.299   0.390  17.024 -1.4972 -0.4839  2.7343
 6046SOL     OW29773   2.434   2.442  11.429 -0.0207  0.2316 -0.4960
 6046SOL    HW129774   2.493   2.373  11.458 -0.2478  0.5062  0.6059
 6046SOL    HW229775   2.490   2.519  11.420 -0.5185  0.8060  1.3596
 6047SOL     OW29776   1.597   0.763   7.411 -0.9688 -0.3598  0.2951
 6047SOL    HW129777   1.647   0.775   7.492  1.5882 -1.5856 -1.0860
 6047SOL    HW229778   1.514   0.796   7.445  0.2901  0.8820  2.1653
 6048SOL     OW29779   4.229   1.507   3.813 -0.2863 -0.1259 -0.9706
 6048SOL    HW129780   4.193   1.560   3.884  1.6491 -0.7063  0.4362
 6048SOL    HW229781   4.282   1.448   3.867  0.0155 -1.6359 -2.9061
 6049SOL     OW29782   3.047   1.590   1.221  0.1676 -0.4210  0.1878
 6049SOL    HW129783   3.030   1.502   1.255 -0.5854 -0.5283 -0.4550
 6049SOL    HW229784   3.046   1.579   1.126  0.3261 -0.6143  0.2104
 6050SOL     OW29785   2.663   1.931  13.919 -0.5271 -0.1897 -0.2215
 6050SOL    HW129786   2.577   1.953  13.954  0.7066  1.3178  1.9405
 6050SOL    HW229787   2.681   1.841  13.946  1.5823  0.3019  0.0658
 6051SOL     OW29788   3.481   1.848  16.760 -0.2065 -0.0007  0.1878
 6051SOL    HW129789   3.483   1.874  16.852  0.7709  0.4765  0.0320
 6051SOL    HW229790   3.469   1.753  16.767  1.4086  0.0047  2.9229
 6052SOL     OW29791   1.896   4.308  16.550  0.3117 -0.4756  0.2165
 6052SOL    HW129792   1.961   4.367  16.588  2.6763 -2.0772 -1.3379
 6052SOL    HW229793   1.940   4.287  16.468 -0.7629 -0.9078 -0.2471
 6053SOL     OW29794   1.282   1.051   3.381  0.6729 -0.3244  0.0294
 6053SOL    HW129795   1.367   1.029   3.420  0.3367 -2.7673 -0.6341
 6053SOL    HW229796   1.238   1.080   3.461  0.5988  0.9197 -0.4670
 6054SOL     OW29797   3.036   3.627  10.041  0.1509 -0.4420 -0.1768
 6054SOL    HW129798   3.026   3.703  10.099  0.3560 -0.1626 -0.5084
 6054SOL    HW229799   2.968   3.650   9.977 -1.8848 -0.4567  1.9671
 6055SOL     OW29800   4.608   1.476   8.826 -0.3601 -0.8233 -0.0920
 6055SOL    HW129801   4.678   1.512   8.770 -1.7498  0.2970 -1.1133
 6055SOL    HW229802   4.530   1.531   8.816 -1.6104 -2.7710 -0.9347
 6056SOL     OW29803   3.974   3.068  12.066 -0.2147  0.0764 -0.2350
 6056SOL    HW129804   3.913   3.137  12.040 -0.0607  0.5316  0.6142
 6056SOL    HW229805   4.002   3.039  11.979 -1.2205  1.2144 -0.9548
 6057SOL     OW29806   1.597   2.237  14.811  0.2157 -0.3808  0.0938
 6057SOL    HW129807   1.571   2.238  14.903  0.8833 -0.6691  0.2875
 6057SOL    HW229808   1.675   2.293  14.813  0.3053 -0.4694 -0.8533
 6058SOL     OW29809   1.132   0.392   0.816  0.4343  0.0487 -0.3029
 6058SOL    HW129810   1.060   0.426   0.869 -0.8106 -0.2824 -1.8069
 6058SOL    HW229811   1.203   0.453   0.839  0.3118 -0.0459  0.3316
 6059SOL     OW29812   2.953   1.657   4.703  0.0610 -0.4395 -0.1230
 6059SOL    HW129813   2.967   1.751   4.697 -0.9150 -0.4440 -2.6981
 6059SOL    HW229814   3.041   1.624   4.720  0.1394  0.4726  1.2233
 6060SOL     OW29815   2.824   4.655   7.833  0.1386 -0.2338  0.3167
 6060SOL    HW129816   2.874   4.671   7.752 -1.0058 -1.0019 -0.5404
 6060SOL    HW229817   2.888   4.659   7.904 -0.6882  0.8965  0.9896
 6061SOL     OW29818   1.607   3.194   7.820  0.0804 -0.1304  0.1110
 6061SOL    HW129819   1.624   3.140   7.743 -0.1548  1.0316 -0.7557
 6061SOL    HW229820   1.657   3.272   7.795  0.2738  0.5405  2.6405
 6062SOL     OW29821   1.815   3.313   6.009 -0.2739  0.1125 -0.0420
 6062SOL    HW129822   1.848   3.238   6.059  2.3893  1.6982  0.5551
 6062SOL    HW229823   1.726   3.280   5.993 -0.6159  0.2203  1.6503
 6063SOL     OW29824   4.618   4.050   3.539  0.5280  0.1675 -0.8649
 6063SOL    HW129825   4.545   3.995   3.567  2.5550 -1.0674  1.9731
 6063SOL    HW229826   4.644   4.000   3.461  0.2869 -2.7947  0.9657
 6064SOL     OW29827   1.002   2.377   8.646  0.4733 -0.0933 -0.5705
 6064SOL    HW129828   0.950   2.398   8.569 -1.5815 -0.9639  0.5809
 6064SOL    HW229829   0.995   2.282   8.656 -0.8840  0.0531 -0.2394
 6065SOL     OW29830   1.263   2.123   6.333 -0.2276 -0.2823 -0.3768
 6065SOL    HW129831   1.337   2.151   6.279  0.2192 -1.5486 -0.4188
 6065SOL    HW229832   1.309   2.101   6.414  3.2599  0.3887 -2.1712
 6066SOL     OW29833   0.718   2.709   7.775  0.6431  0.1281  0.0730
 6066SOL    HW129834   0.710   2.631   7.720  0.1090 -0.4144  0.9146
 6066SOL    HW229835   0.669   2.679   7.851  0.2045  1.1373  0.1794
 6067SOL     OW29836   3.948   4.572  10.995  0.1316  0.1401  0.1149
 6067SOL    HW129837   3.911   4.532  11.074  2.0820  0.5903  1.2800
 6067SOL    HW229838   4.013   4.640  11.015 -0.2402 -0.1270  2.2283
 6068SOL     OW29839   0.529   2.442   4.024  0.0977  0.1201  0.4654
 6068SOL    HW129840   0.484   2.459   3.941  0.6617 -0.0550  0.1171
 6068SOL    HW229841   0.612   2.436   3.975  0.0693  1.6232  0.2338
 6069SOL     OW29842   1.084   2.814   1.074  0.3562 -0.2327  0.0841
 6069SOL    HW129843   1.034   2.823   0.992 -1.7986  0.5180  1.4903
 6069SOL    HW229844   1.170   2.803   1.035  0.0619  0.2568 -0.7206
 6070SOL     OW29845   1.187   0.543   0.537 -0.2686  0.7960 -0.1213
 6070SOL    HW129846   1.226   0.456   0.543 -0.1220  0.8960  0.3661
 6070SOL    HW229847   1.116   0.542   0.601  0.4246  1.7552  0.6601
 6071SOL     OW29848   3.594   2.253   8.275 -0.3982  0.1074  0.4955
 6071SOL    HW129849   3.570   2.320   8.211  0.4449 -1.8701 -1.8724
 6071SOL    HW229850   3.506   2.228   8.303 -0.4258  0.4069  0.6782
 6072SOL     OW29851   1.469   4.245   7.961  0.1428  0.2897  0.9341
 6072SOL    HW129852   1.463   4.338   7.985 -1.0670  0.7004 -0.9349
 6072SOL    HW229853   1.422   4.200   8.031 -0.5054  0.6276  0.7244
 6073SOL     OW29854   1.001   3.406   9.129 -0.0760  0.5020  0.0327
 6073SOL    HW129855   1.059   3.352   9.183  0.3843 -0.4702 -1.4328
 6073SOL    HW229856   1.074   3.441   9.077  0.7325 -0.7396  0.3461
 6074SOL     OW29857   1.930   1.816   3.681  0.0949 -0.2080  0.4111
 6074SOL    HW129858   2.013   1.809   3.633 -0.4949  2.1568 -0.9974
 6074SOL    HW229859   1.880   1.742   3.646  0.8889 -0.7085  0.3341
 6075SOL     OW29860   4.660   4.732   7.374  0.2542 -0.5470  0.3914
 6075SOL    HW129861   4.632   4.693   7.291 -1.1966 -0.4157  0.8172
 6075SOL    HW229862   4.590   0.059   7.386  0.2268 -0.6819  0.9640
 6076SOL     OW29863   4.366   3.357   7.907  0.9320 -0.2820  0.1802
 6076SOL    HW129864   4.303   3.400   7.850  0.0933 -2.3433 -0.4190
 6076SOL    HW229865   4.432   3.346   7.837 -0.0029  0.5396 -0.8245
 6077SOL     OW29866   3.439   0.347  10.137 -0.3910  0.3721 -0.3459
 6077SOL    HW129867   3.357   0.298  10.136  0.1250 -0.5103  0.8823
 6077SOL    HW229868   3.440   0.372  10.044 -1.3387 -1.1693 -0.7743
 6078SOL     OW29869   1.585   0.686   7.134  0.2790  0.7004 -0.5821
 6078SOL    HW129870   1.610   0.729   7.216 -0.3436 -0.0383 -0.0043
 6078SOL    HW229871   1.496   0.654   7.143  1.4404 -1.7949  1.8943
 6079SOL     OW29872   1.685   0.937   8.868 -0.4945  0.1484  0.1898
 6079SOL    HW129873   1.655   0.925   8.778 -1.7224 -0.3255  0.6706
 6079SOL    HW229874   1.772   0.898   8.875 -0.9658 -0.9470 -0.1421
 6080SOL     OW29875   2.297   4.570   2.903 -0.0237  0.2386  0.4471
 6080SOL    HW129876   2.373   4.520   2.930 -0.4653 -0.2728  0.7352
 6080SOL    HW229877   2.238   4.523   2.963  0.6559 -1.1295  0.0346
 6081SOL     OW29878   0.635   2.355   9.441 -0.5801  1.0526  0.0848
 6081SOL    HW129879   0.585   2.286   9.397 -0.1432  1.0879 -0.4748
 6081SOL    HW229880   0.712   2.370   9.386 -0.1899  0.0568  0.3715
 6082SOL     OW29881   4.687   2.389   1.046 -0.2356 -0.2521  0.1910
 6082SOL    HW129882   4.627   2.383   0.972 -0.1916  2.0762 -0.0413
 6082SOL    HW229883   4.640   2.458   1.094 -1.0589  0.4024 -1.5515
 6083SOL     OW29884   2.260   0.871   7.463  0.0478 -0.2107 -0.0382
 6083SOL    HW129885   2.216   0.916   7.391  1.0601  0.3555 -0.2985
 6083SOL    HW229886   2.294   0.799   7.410 -0.0880 -0.7508  0.6158
 6084SOL     OW29887   0.500   1.979   1.181  0.2597 -0.2226  0.0167
 6084SOL    HW129888   0.480   1.907   1.122 -0.3247 -1.4861  1.7537
 6084SOL    HW229889   0.423   1.983   1.238  0.6077 -0.2848  0.4943
 6085SOL     OW29890   2.991   1.047   2.108 -0.4909  0.0748 -0.1002
 6085SOL    HW129891   2.972   1.141   2.114  0.0934  0.0566  1.9699
 6085SOL    HW229892   2.950   1.018   2.026 -0.5088 -1.6606  0.5245
 6086SOL     OW29893   1.534   4.254   9.315 -0.1138  0.1089 -0.8668
 6086SOL    HW129894   1.475   4.193   9.359  0.3797 -0.8459 -1.5409
 6086SOL    HW229895   1.481   4.334   9.307  1.3764  1.3464  1.7567
 6087SOL     OW29896   3.856   3.008  16.132 -0.6882 -0.5726  0.0983
 6087SOL    HW129897   3.807   3.059  16.197  0.8954 -0.5570  1.2678
 6087SOL    HW229898   3.916   2.957  16.186  2.4832  2.9475 -0.1250
 6088SOL     OW29899   1.683   4.028   1.946 -0.0408  0.0956  0.3099
 6088SOL    HW129900   1.669   3.956   2.008  0.3774 -0.3639 -0.1324
 6088SOL    HW229901   1.600   4.027   1.898  0.5629 -2.5043 -0.7041
 6089SOL     OW29902   2.167   3.475   7.406 -0.1376 -0.2493  0.1293
 6089SOL    HW129903   2.216   3.456   7.486 -0.9970 -0.1404  0.6900
 6089SOL    HW229904   2.092   3.423   7.437  1.1797 -1.6189  1.0166
 6090SOL     OW29905   3.980   3.788   5.333 -0.6600 -0.1759  0.3665
 6090SOL    HW129906   3.947   3.772   5.245  0.2463 -0.8755  0.1614
 6090SOL    HW229907   3.954   3.880   5.342  0.9617  0.3710 -0.5040
 6091SOL     OW29908   0.687   3.425   5.099  0.0102 -0.7997 -0.0922
 6091SOL    HW129909   0.727   3.511   5.113  0.0213 -0.8060 -0.0857
 6091SOL    HW229910   0.628   3.409   5.174  0.1707 -0.6939  0.0552
 6092SOL     OW29911   2.239   3.471  14.786 -0.4542  0.3578 -0.3374
 6092SOL    HW129912   2.293   3.400  14.819 -1.2043 -0.1203 -0.1232
 6092SOL    HW229913   2.294   3.511  14.719 -1.0210  2.9783  0.7444
 6093SOL     OW29914   3.498   2.418   6.459  0.0955  0.4057  0.3598
 6093SOL    HW129915   3.413   2.376   6.447  0.4152 -0.5313  1.3758
 6093SOL    HW229916   3.501   2.437   6.553 -1.7691  0.5969  0.3714
 6094SOL     OW29917   1.065   1.504   4.861 -0.2020 -0.3156 -0.0095
 6094SOL    HW129918   1.005   1.452   4.808 -1.5615  1.1824  0.0781
 6094SOL    HW229919   1.075   1.433   4.924  2.3356 -0.9143 -1.0747
 6095SOL     OW29920   4.347   3.901   6.369 -0.4375 -0.4299  0.0846
 6095SOL    HW129921   4.334   3.919   6.462  0.5374 -0.9150  0.3264
 6095SOL    HW229922   4.267   3.850   6.358 -1.1165  0.4451  1.0351
 6096SOL     OW29923   2.425   4.370   2.982  0.3565  0.6348  0.4781
 6096SOL    HW129924   2.509   4.324   2.987 -0.0587 -0.0429  1.3713
 6096SOL    HW229925   2.383   4.306   3.040 -0.7971  0.2171 -0.8064
 6097SOL     OW29926   4.544   1.780   5.330 -0.2630 -0.3089 -0.1194
 6097SOL    HW129927   4.509   1.770   5.418  0.9564  0.6120  0.4699
 6097SOL    HW229928   4.482   1.722   5.286 -1.3892  0.8572 -0.0741
 6098SOL     OW29929   4.377   2.350  15.768 -0.1656  0.2485  0.4826
 6098SOL    HW129930   4.422   2.433  15.760 -1.8904  1.0524 -0.8304
 6098SOL    HW229931   4.314   2.368  15.838 -0.0391  3.2278 -0.1805
 6099SOL     OW29932   0.431   0.295   4.397  0.1114 -0.4812  0.3190
 6099SOL    HW129933   0.447   0.379   4.439  0.0569 -1.6853  2.7315
 6099SOL    HW229934   0.493   0.305   4.324 -2.5642  4.2145 -1.3101
 6100SOL     OW29935   0.050   0.084  15.892 -0.2651  0.4889  0.0612
 6100SOL    HW129936   0.056   0.123  15.979  0.4631  0.5605 -0.0186
 6100SOL    HW229937   0.008   4.738  15.907  0.6777  0.2150  1.1637
 6101SOL     OW29938   2.133   1.040   9.060 -0.0453  0.3793 -0.5527
 6101SOL    HW129939   2.139   1.135   9.074  4.9778 -0.1437  0.9261
 6101SOL    HW229940   2.121   0.999   9.145 -0.7639 -3.2462 -2.3808
 6102SOL     OW29941   0.011   0.477   6.496 -0.2854  0.8569  0.3482
 6102SOL    HW129942   0.087   0.507   6.545  0.1994 -1.6609  1.1327
 6102SOL    HW229943   0.043   0.395   6.460 -3.0028 -0.2121  0.3388
 6103SOL     OW29944   1.237   4.145   5.415 -0.6078  0.1699 -0.4878
 6103SOL    HW129945   1.166   4.090   5.447  0.7557 -1.2280  0.1665
 6103SOL    HW229946   1.229   4.219   5.476  0.9387  0.6239 -0.8357
 6104SOL     OW29947   1.790   1.392   3.842  0.3681  0.9245  0.0350
 6104SOL    HW129948   1.844   1.375   3.919 -0.6613  0.2122  0.5832
 6104SOL    HW229949   1.722   1.450   3.875 -1.4122 -1.6854  0.9486
 6105SOL     OW29950   4.093   0.532  13.068 -0.3473 -0.4772  0.2208
 6105SOL    HW129951   4.140   0.466  13.017  0.0760 -1.8008  2.3098
 6105SOL    HW229952   4.083   0.604  13.006 -0.5739 -1.5685 -0.9999
 6106SOL     OW29953   2.583   4.631   1.027  0.6023 -0.1942  0.2392
 6106SOL    HW129954   2.524   4.609   1.100 -0.3176 -0.9102 -0.7144
 6106SOL    HW229955   2.596   4.722   1.053 -0.2848 -0.0407  0.1570
 6107SOL     OW29956   1.250   3.090   7.033 -0.3547 -0.2227  0.0198
 6107SOL    HW129957   1.206   3.013   7.070  1.2024 -0.6177  1.0642
 6107SOL    HW229958   1.194   3.158   7.070 -0.3708 -0.0474 -0.3272
 6108SOL     OW29959   0.529   0.502   3.829 -0.2084 -0.7038  0.0391
 6108SOL    HW129960   0.515   0.529   3.920 -0.3047  0.6806 -0.3817
 6108SOL    HW229961   0.441   0.516   3.795  0.3988  1.6337 -0.5509
 6109SOL     OW29962   3.527   3.246   4.897  0.0848  0.1442  0.3497
 6109SOL    HW129963   3.593   3.295   4.946  0.5073  0.0346 -0.1197
 6109SOL    HW229964   3.572   3.162   4.887  1.6948  1.0795 -0.1798
 6110SOL     OW29965   1.142   1.871   5.895 -0.4633 -0.4805  0.4566
 6110SOL    HW129966   1.154   1.853   5.988 -1.2777  0.2405  0.7053
 6110SOL    HW229967   1.190   1.952   5.880 -1.0227 -0.5799 -1.9192
 6111SOL     OW29968   2.014   0.059   0.703 -0.6296  0.2417  0.3900
 6111SOL    HW129969   2.089   0.116   0.723  1.0522 -1.7944 -0.1232
 6111SOL    HW229970   1.960   0.092   0.775 -3.0356  0.4546 -1.5326
 6112SOL     OW29971   4.403   0.933   4.623 -0.1359  0.4181  0.7669
 6112SOL    HW129972   4.399   0.880   4.543 -0.0501  1.4981  0.0438
 6112SOL    HW229973   4.483   0.981   4.603 -0.2355 -0.7593 -2.4250
 6113SOL     OW29974   3.386   2.492   2.319 -0.0592  0.1651  0.0228
 6113SOL    HW129975   3.432   2.515   2.238 -1.4602  0.9926 -0.5417
 6113SOL    HW229976   3.460   2.475   2.377 -0.1692  0.8337  0.3561
 6114SOL     OW29977   1.214   1.064   5.224  0.2855  0.0871 -0.2165
 6114SOL    HW129978   1.121   1.056   5.246  0.6485  0.0254  1.3053
 6114SOL    HW229979   1.257   1.051   5.309 -0.9071  0.2071  0.4049
 6115SOL     OW29980   1.675   0.294   3.228  0.0287 -0.4048 -0.3833
 6115SOL    HW129981   1.657   0.234   3.156 -0.3345 -0.3784 -0.3176
 6115SOL    HW229982   1.591   0.339   3.238 -0.4680 -1.3785 -0.1466
 6116SOL     OW29983   0.805   1.703   3.500 -0.3641  0.5673 -0.3309
 6116SOL    HW129984   0.895   1.681   3.475 -1.2634 -3.5205  0.0363
 6116SOL    HW229985   0.823   1.750   3.581 -0.5729  0.0550  0.0097
 6117SOL     OW29986   1.697   0.287  13.943  0.0471  0.8736  0.2587
 6117SOL    HW129987   1.777   0.302  13.994  1.3872 -1.7750 -1.1135
 6117SOL    HW229988   1.634   0.259  14.010  1.2151 -1.0824  0.5110
 6118SOL     OW29989   1.257   0.081  12.563  0.0410 -0.0159  0.6331
 6118SOL    HW129990   1.342   0.107  12.599  0.3750  1.2921 -1.1228
 6118SOL    HW229991   1.279   4.730  12.536  2.0638  0.7772 -0.3760
 6119SOL     OW29992   4.334   1.431   7.495 -0.3620  0.7359  0.2846
 6119SOL    HW129993   4.354   1.434   7.401  0.3055 -0.4742  0.3853
 6119SOL    HW229994   4.408   1.381   7.530  0.3170  1.1152 -0.5997
 6120SOL     OW29995   2.729   2.167   9.104  0.2967 -0.0055  0.3936
 6120SOL    HW129996   2.736   2.262   9.094  0.2831 -0.1880 -1.3587
 6120SOL    HW229997   2.673   2.158   9.181  0.3525 -2.8768  0.0841
 6121SOL     OW29998   1.351   1.152   3.784  0.7218  0.5292 -0.0159
 6121SOL    HW129999   1.412   1.225   3.799  2.1038 -0.2995 -1.4905
 6121SOL    HW230000   1.272   1.184   3.827  1.1413  1.4363  0.0939
 6122SOL     OW30001   4.203   2.247   9.500  0.1721 -0.3766  0.1631
 6122SOL    HW130002   4.129   2.206   9.545 -1.8088  4.3514  1.2286
 6122SOL    HW230003   4.269   2.261   9.568 -0.3811  1.4876  0.3300
 6123SOL     OW30004   3.259   1.293   0.502 -1.2366 -0.2899 -0.5334
 6123SOL    HW130005   3.204   1.218   0.524  0.6672 -2.3701 -2.7622
 6123SOL    HW230006   3.246   1.326   0.413  1.3448  0.7755 -0.5402
 6124SOL     OW30007   0.049   4.298   4.547 -0.3994  0.2452 -0.3700
 6124SOL    HW130008   0.053   4.318   4.454  1.2094 -2.5837 -0.8931
 6124SOL    HW230009   0.051   4.389   4.577 -2.4546  0.4199 -0.7559
 6125SOL     OW30010   2.893   3.817   1.754 -0.2732  0.3798 -0.0599
 6125SOL    HW130011   2.878   3.846   1.844  0.0224  0.8695 -0.1686
 6125SOL    HW230012   2.938   3.896   1.722  0.4290 -0.4134 -1.0364
 6126SOL     OW30013   4.268   2.429   0.350 -0.9122 -0.3370 -0.1518
 6126SOL    HW130014   4.270   2.481   0.270 -0.0160 -1.7183 -1.0221
 6126SOL    HW230015   4.328   2.477   0.406 -2.2034  0.6829  0.3607
 6127SOL     OW30016   0.023   2.467   9.720 -0.4198 -0.4499  0.0072
 6127SOL    HW130017   4.691   2.512   9.766  0.3588  0.5957  0.1543
 6127SOL    HW230018   0.088   2.454   9.789  0.1205  1.5665 -0.1254
 6128SOL     OW30019   2.640   2.721   0.502  0.0883  0.4268  0.0160
 6128SOL    HW130020   2.733   2.703   0.485 -0.0105 -1.6861  1.7541
 6128SOL    HW230021   2.655   2.773   0.581  1.6618  0.7959 -0.5189
 6129SOL     OW30022   1.861   1.864   6.274 -0.6025 -0.1878 -0.1061
 6129SOL    HW130023   1.836   1.774   6.292  0.7693 -1.1347 -2.9900
 6129SOL    HW230024   1.945   1.864   6.319 -0.0165  2.1971 -1.1859
 6130SOL     OW30025   1.679   2.079   6.320  0.1694 -0.0706  0.1196
 6130SOL    HW130026   1.730   1.999   6.308 -0.4399 -0.0602 -2.7365
 6130SOL    HW230027   1.748   2.141   6.296 -0.7040  0.7181 -0.3547
 6131SOL     OW30028   1.359   1.985   8.722  0.1214  0.2453 -0.1214
 6131SOL    HW130029   1.306   2.056   8.758 -1.5337 -0.8740 -0.3515
 6131SOL    HW230030   1.413   1.961   8.798 -0.6683  2.0799  1.0263
 6132SOL     OW30031   1.892   0.238  15.203 -0.2862  0.2128  0.2147
 6132SOL    HW130032   1.881   0.177  15.275  0.3799 -0.9036 -0.6286
 6132SOL    HW230033   1.986   0.256  15.205 -0.5929  1.8103  0.4463
 6133SOL     OW30034   1.626   2.407   5.761 -0.1634  0.0590  0.1064
 6133SOL    HW130035   1.671   2.367   5.835 -0.0139 -0.2455 -0.1464
 6133SOL    HW230036   1.537   2.385   5.789 -1.4975  1.9528 -2.6413
 6134SOL     OW30037   0.342   0.128  11.826  0.3886 -0.1072  0.8001
 6134SOL    HW130038   0.428   0.120  11.868  1.0432  1.1230 -0.2864
 6134SOL    HW230039   0.307   0.187  11.892 -1.8097 -0.6673  0.1186
 6135SOL     OW30040   3.661   3.577  10.546 -0.0323  0.0959  0.1017
 6135SOL    HW130041   3.651   3.547  10.637 -1.3626 -0.0800 -0.0972
 6135SOL    HW230042   3.593   3.528  10.500 -0.1815 -0.9755  1.4800
 6136SOL     OW30043   0.628   4.278   6.950 -0.1341 -0.0946  0.0317
 6136SOL    HW130044   0.673   4.252   7.030  2.3629  0.9702 -1.0249
 6136SOL    HW230045   0.636   4.372   6.966 -1.1204 -0.2047  1.1364
 6137SOL     OW30046   4.262   4.083   4.501  0.4477  0.3903  0.5452
 6137SOL    HW130047   4.175   4.097   4.464  0.7067 -0.0372 -0.2291
 6137SOL    HW230048   4.301   4.167   4.479 -0.9329  1.1486  0.9699
 6138SOL     OW30049   3.522   3.410  14.554 -0.5954  0.0931 -0.3684
 6138SOL    HW130050   3.607   3.374  14.526 -0.2573 -0.9477  1.9635
 6138SOL    HW230051   3.461   3.350  14.511 -2.2175 -0.1458  2.2674
 6139SOL     OW30052   1.247   1.381  12.404  0.1083 -0.1634 -0.5582
 6139SOL    HW130053   1.219   1.291  12.385 -0.5199  0.1949 -1.3058
 6139SOL    HW230054   1.186   1.413  12.470 -0.1527 -0.0833 -0.8397
 6140SOL     OW30055   2.883   0.352   7.267  0.6655  0.3810 -0.0156
 6140SOL    HW130056   2.930   0.336   7.350 -1.3593 -1.0497  0.8576
 6140SOL    HW230057   2.877   0.447   7.271  0.2271  0.3598 -0.1485
 6141SOL     OW30058   4.566   3.246   7.709 -0.4223 -0.3500 -0.0115
 6141SOL    HW130059   4.533   3.156   7.711 -1.3210  0.0741  3.6944
 6141SOL    HW230060   4.634   3.256   7.642 -0.9894  0.7260 -0.4257
 6142SOL     OW30061   3.360   3.429   8.016  0.4012 -0.1433  0.0582
 6142SOL    HW130062   3.344   3.522   8.001 -1.4689 -0.1446  2.0019
 6142SOL    HW230063   3.298   3.411   8.087  0.7026 -2.6910 -0.3225
 6143SOL     OW30064   4.436   2.687   8.397  0.1269 -0.2352 -0.6466
 6143SOL    HW130065   4.394   2.617   8.347 -1.1008 -0.9114  1.3008
 6143SOL    HW230066   4.478   2.733   8.325 -1.8920  1.5467 -0.6661
 6144SOL     OW30067   3.461   1.761   5.168  0.3206  0.6428 -0.5414
 6144SOL    HW130068   3.511   1.684   5.194  3.8558  3.2407  0.3518
 6144SOL    HW230069   3.512   1.835   5.202  2.4845 -1.5485  0.9846
 6145SOL     OW30070   2.670   1.665   4.247 -0.5744 -0.4553  0.5738
 6145SOL    HW130071   2.661   1.749   4.201 -2.3705  0.4212  2.5911
 6145SOL    HW230072   2.718   1.616   4.179 -1.3229 -0.7980  0.2923
 6146SOL     OW30073   0.267   0.465  14.607  0.1057  0.3502 -0.3476
 6146SOL    HW130074   0.338   0.429  14.554 -0.3167  0.1923 -0.8022
 6146SOL    HW230075   0.192   0.446  14.551 -0.4477 -1.9326  1.2037
 6147SOL     OW30076   2.919   3.434   4.109 -0.5062 -0.6582 -0.1445
 6147SOL    HW130077   2.880   3.511   4.151  2.0278 -0.1633  1.3397
 6147SOL    HW230078   2.989   3.475   4.058 -0.1093  0.0974  1.0044
 6148SOL     OW30079   0.279   1.990   8.343 -0.2772 -0.4240 -0.2921
 6148SOL    HW130080   0.284   1.974   8.437 -2.3929 -2.0369 -0.4471
 6148SOL    HW230081   0.359   1.952   8.308 -0.3737  0.5323 -1.5718
 6149SOL     OW30082   4.701   3.315   9.654  0.1006 -0.6661  0.4414
 6149SOL    HW130083   4.671   3.245   9.595 -0.0634  1.8616 -2.4806
 6149SOL    HW230084   0.027   3.277   9.714  0.7307 -0.1576  0.0930
 6150SOL     OW30085   1.675   2.402   4.626  0.4524 -0.7599 -0.1139
 6150SOL    HW130086   1.699   2.310   4.641  0.4955 -0.6851  0.2902
 6150SOL    HW230087   1.733   2.422   4.553  0.9567 -0.1821  0.4414
 6151SOL     OW30088   0.762   1.178   8.398  0.1453  0.1158  0.1212
 6151SOL    HW130089   0.837   1.193   8.455 -1.0658 -1.1794  2.0711
 6151SOL    HW230090   0.728   1.263   8.371 -0.8051 -0.8861 -1.8407
 6152SOL     OW30091   2.708   1.892  14.279  0.1197 -0.4604  0.3969
 6152SOL    HW130092   2.778   1.868  14.340  2.3275 -0.8300 -2.2838
 6152SOL    HW230093   2.658   1.951  14.336  1.8255  0.1103  1.3009
 6153SOL     OW30094   0.595   2.316  17.588  0.5963  0.6579  0.9391
 6153SOL    HW130095   0.535   2.365  17.645  0.0452  0.7716  0.2644
 6153SOL    HW230096   0.600   2.373  17.511  0.5444  1.3619  1.4504
 6154SOL     OW30097   3.402   1.576  16.766 -0.3734  0.0021 -0.2804
 6154SOL    HW130098   3.441   1.554  16.681 -2.1074  2.0320 -1.6042
 6154SOL    HW230099   3.311   1.582  16.738 -0.2756  0.8098 -0.4215
 6155SOL     OW30100   3.637   1.484   1.456  0.0018 -0.1216 -0.0450
 6155SOL    HW130101   3.595   1.420   1.513 -1.7405  0.8662 -0.2157
 6155SOL    HW230102   3.720   1.474   1.503  0.9330 -0.1946 -1.6756
 6156SOL     OW30103   0.901   2.081   5.924  0.1023  0.0975  0.2540
 6156SOL    HW130104   0.841   2.126   5.984 -2.3168 -2.1863 -0.4220
 6156SOL    HW230105   0.927   2.146   5.859 -1.2090  0.9028  0.5220
 6157SOL     OW30106   2.484   1.582   9.262  0.7136  0.2565 -0.4797
 6157SOL    HW130107   2.467   1.665   9.218  2.2781  0.3793 -0.8588
 6157SOL    HW230108   2.510   1.525   9.190  1.4594  0.7723 -0.6295
 6158SOL     OW30109   0.629   0.181   9.040  0.2061  0.8039 -0.0717
 6158SOL    HW130110   0.622   0.086   9.051  1.5034  0.6583 -0.4410
 6158SOL    HW230111   0.548   0.198   8.993 -2.5695 -1.4910  3.7753
 6159SOL     OW30112   3.683   0.359  12.139 -0.0777  0.3809  0.2377
 6159SOL    HW130113   3.620   0.303  12.183  1.0884 -0.6643  0.5713
 6159SOL    HW230114   3.631   0.430  12.101  1.1583 -0.0911 -2.3440
 6160SOL     OW30115   0.873   1.596  17.465  0.0834 -0.2398 -0.5015
 6160SOL    HW130116   0.964   1.573  17.485 -0.7300 -2.1652  0.9219
 6160SOL    HW230117   0.844   1.514  17.424 -0.3645  0.5876 -1.8348
 6161SOL     OW30118   2.798   2.610  11.211 -0.6926 -0.0022 -0.0950
 6161SOL    HW130119   2.801   2.705  11.202  1.6707 -0.1029 -0.2177
 6161SOL    HW230120   2.868   2.588  11.150 -1.4040 -0.3588 -0.7746
 6162SOL     OW30121   1.149   4.343   3.877 -0.5909  0.5845  0.7575
 6162SOL    HW130122   1.162   4.405   3.805  1.5198 -0.2434  0.4159
 6162SOL    HW230123   1.056   4.362   3.890 -1.0175 -0.4727 -0.8478
 6163SOL     OW30124   1.313   2.441   7.577  0.1324 -0.1794 -0.1163
 6163SOL    HW130125   1.266   2.424   7.495 -1.2221  1.4362  0.3275
 6163SOL    HW230126   1.242   2.460   7.639 -0.9992 -0.4228 -1.3367
 6164SOL     OW30127   1.348   0.748  12.279  0.4171  0.4796  0.1879
 6164SOL    HW130128   1.386   0.789  12.356  2.4528 -0.2514 -0.4156
 6164SOL    HW230129   1.277   0.695  12.314  0.7036 -0.6165 -0.8857
 6165SOL     OW30130   2.201   1.269   5.803 -0.2038 -0.1288  0.1817
 6165SOL    HW130131   2.269   1.336   5.809 -0.0702 -0.1974 -0.5630
 6165SOL    HW230132   2.127   1.326   5.819  1.1400  1.6154  0.1628
 6166SOL     OW30133   0.858   4.183   0.158  0.0047 -0.0467 -0.0458
 6166SOL    HW130134   0.796   4.111   0.148  1.0700 -0.5419 -3.2694
 6166SOL    HW230135   0.807   4.221   0.229  0.1845  1.4586 -0.7293
 6167SOL     OW30136   1.789   0.250   7.484 -0.0161  0.4217 -0.0349
 6167SOL    HW130137   1.855   0.301   7.436 -0.3631  1.5826  0.7406
 6167SOL    HW230138   1.757   0.308   7.552 -0.8390  0.6227 -0.5977
 6168SOL     OW30139   3.699   4.424   8.248  0.1622  0.4211 -0.0989
 6168SOL    HW130140   3.647   4.431   8.328  1.9941 -0.6505  1.2098
 6168SOL    HW230141   3.682   4.509   8.207 -1.2152 -0.4683 -1.3537
 6169SOL     OW30142   3.522   4.355  17.258  0.1330  0.0299  0.4147
 6169SOL    HW130143   3.524   4.413  17.182  2.4436 -1.2917 -0.5292
 6169SOL    HW230144   3.436   4.316  17.241 -0.2584  0.0361  2.4126
 6170SOL     OW30145   1.347   0.473   1.219  0.6184 -0.2349  0.4419
 6170SOL    HW130146   1.382   0.401   1.272 -1.6561 -0.7831  1.2208
 6170SOL    HW230147   1.383   0.451   1.133 -0.6442 -0.1375 -0.1109
 6171SOL     OW30148   3.365   1.461  15.445 -0.3645  0.4837  0.3777
 6171SOL    HW130149   3.282   1.418  15.466  0.1575 -1.0511 -0.7536
 6171SOL    HW230150   3.319   1.542  15.421 -2.3548 -0.4411  1.0702
 6172SOL     OW30151   1.613   3.202   8.085 -0.2684  0.0503 -0.1337
 6172SOL    HW130152   1.583   3.197   7.995  0.2963 -1.8634 -0.2207
 6172SOL    HW230153   1.602   3.295   8.102 -1.0379  0.1912 -1.4880
 6173SOL     OW30154   4.498   0.550  10.445 -0.3361 -0.4172  0.7515
 6173SOL    HW130155   4.459   0.480  10.496  0.7312 -0.2347  1.8306
 6173SOL    HW230156   4.550   0.494  10.387  0.0887 -0.2664  0.9813
 6174SOL     OW30157   3.901   4.046   5.347  0.8269  0.6938 -1.0506
 6174SOL    HW130158   3.815   4.035   5.385  0.2485  4.9773 -1.1694
 6174SOL    HW230159   3.924   4.138   5.355  1.6466  0.3935  0.0735
 6175SOL     OW30160   0.808   2.992   2.497  0.4972 -0.3022  0.3400
 6175SOL    HW130161   0.762   3.069   2.466 -0.4128 -1.1403 -0.3864
 6175SOL    HW230162   0.869   2.984   2.424  2.2566  3.0900  1.4268
 6176SOL     OW30163   0.666   3.256  17.210  0.5334 -0.1188 -0.0694
 6176SOL    HW130164   0.615   3.229  17.286 -0.2467  0.0336 -0.5378
 6176SOL    HW230165   0.632   3.200  17.140  1.0292 -0.5493  0.0368
 6177SOL     OW30166   0.107   1.118   8.176  0.1995  0.0648  0.8696
 6177SOL    HW130167   0.049   1.145   8.247 -1.8602 -0.9173 -0.4235
 6177SOL    HW230168   0.041   1.082   8.116 -0.3566  1.9519  0.3363
 6178SOL     OW30169   1.403   1.334   7.543  0.7205 -0.4575 -0.1571
 6178SOL    HW130170   1.324   1.332   7.489  1.0928  1.5684 -0.7867
 6178SOL    HW230171   1.379   1.395   7.612  1.3277 -0.6280  0.2010
 6179SOL     OW30172   1.738   0.822   7.678  0.5940 -0.1982 -0.1790
 6179SOL    HW130173   1.767   0.852   7.764  0.0621  0.6661 -0.3050
 6179SOL    HW230174   1.693   0.740   7.699  0.8729  0.3046  2.3457
 6180SOL     OW30175   1.135   1.916  12.132  0.1717  0.1215  0.2889
 6180SOL    HW130176   1.138   2.012  12.132 -0.9983  0.1524  1.9477
 6180SOL    HW230177   1.222   1.889  12.162  0.1372 -1.2907 -0.8742
 6181SOL     OW30178   2.485   0.356   2.353  0.3758 -0.7323  0.2458
 6181SOL    HW130179   2.536   0.412   2.412 -1.3857  1.0414  0.1303
 6181SOL    HW230180   2.496   0.402   2.270 -3.4284  0.5680  0.4151
 6182SOL     OW30181   1.036   4.339   8.901  0.1488  0.2862  0.3746
 6182SOL    HW130182   1.016   4.330   8.995  0.1535  3.1994  0.6363
 6182SOL    HW230183   1.029   4.432   8.882 -1.7022  0.6331  2.6717
 6183SOL     OW30184   0.348   1.803   7.092 -0.3080 -0.1694 -0.2183
 6183SOL    HW130185   0.382   1.784   7.179 -0.0962 -0.7588 -0.4274
 6183SOL    HW230186   0.429   1.805   7.040  0.2983  3.7754  0.9138
 6184SOL     OW30187   0.107   0.670   6.971 -0.4636  0.3620 -0.0224
 6184SOL    HW130188   0.113   0.714   7.056 -0.9815 -1.5554  1.0044
 6184SOL    HW230189   0.139   0.745   6.921  2.1099  0.0060  1.0635
 6185SOL     OW30190   3.324   4.098   6.731  0.5068 -0.3824 -0.2669
 6185SOL    HW130191   3.242   4.143   6.748 -0.7100 -1.7147 -2.6471
 6185SOL    HW230192   3.301   4.012   6.695 -0.0443 -1.3947  2.4739
 6186SOL     OW30193   0.880   0.321   8.872  0.0500 -0.2056  0.1417
 6186SOL    HW130194   0.962   0.271   8.869  0.3695  0.3087  0.4166
 6186SOL    HW230195   0.861   0.308   8.779  0.2521  3.2418 -0.3595
 6187SOL     OW30196   4.408   2.012   5.470  0.1027  0.0500  0.4137
 6187SOL    HW130197   4.452   2.097   5.466 -0.1980  0.2686  1.5478
 6187SOL    HW230198   4.478   1.965   5.515  1.2625  0.4858 -0.9367
 6188SOL     OW30199   3.458   3.104   3.678 -0.2702 -0.4033 -0.5443
 6188SOL    HW130200   3.374   3.127   3.717  0.5538  0.9336  0.4479
 6188SOL    HW230201   3.437   3.088   3.586  1.4657 -0.1840 -0.9756
 6189SOL     OW30202   4.470   3.558   5.542 -0.2425  0.1567 -0.2796
 6189SOL    HW130203   4.562   3.549   5.515  0.0128  0.7363  0.4204
 6189SOL    HW230204   4.440   3.623   5.478  0.4757 -2.1276 -2.9650
 6190SOL     OW30205   1.214   0.089  13.796  0.2296  0.1137  0.1886
 6190SOL    HW130206   1.308   0.106  13.796  0.6268 -2.1164  1.5534
 6190SOL    HW230207   1.210   0.014  13.737 -0.9672 -0.5870  1.1737
 6191SOL     OW30208   3.248   4.117  15.776 -0.5666 -0.1596 -0.1217
 6191SOL    HW130209   3.327   4.118  15.721 -0.3999  0.4553  0.1379
 6191SOL    HW230210   3.182   4.081  15.717 -0.2196  4.3104 -3.2299
 6192SOL     OW30211   3.884   2.185  17.394  0.3676 -0.2964  0.7367
 6192SOL    HW130212   3.854   2.096  17.417  2.2539 -0.7797  1.3514
 6192SOL    HW230213   3.977   2.173  17.412 -0.1698 -2.7448  1.9922
 6193SOL     OW30214   1.182   1.482  16.599 -0.5070 -0.5233  0.2975
 6193SOL    HW130215   1.277   1.497  16.593 -0.7960 -0.0210 -3.0719
 6193SOL    HW230216   1.153   1.451  16.684  0.0800 -1.7633  0.0476
 6194SOL     OW30217   3.381   0.605  11.377 -0.4969  0.2593 -0.0674
 6194SOL    HW130218   3.465   0.564  11.357 -0.7969 -0.6753  0.5859
 6194SOL    HW230219   3.410   0.675  11.436 -0.8840  0.6977 -0.3941
 6195SOL     OW30220   0.358   1.963   2.413  0.2389 -1.0732 -0.3030
 6195SOL    HW130221   0.281   1.950   2.357  0.5263  2.8420 -1.6101
 6195SOL    HW230222   0.341   2.047   2.456 -1.0349 -0.4968 -1.9113
 6196SOL     OW30223   4.468   1.474   8.480 -0.2138 -0.0812  0.4575
 6196SOL    HW130224   4.384   1.514   8.455 -0.1414 -0.4283 -0.3499
 6196SOL    HW230225   4.523   1.545   8.448 -1.5811  1.1118  0.7423
 6197SOL     OW30226   3.188   0.547   8.275  0.2158 -0.3055 -0.3654
 6197SOL    HW130227   3.143   0.624   8.239 -0.2567 -0.5108 -0.2181
 6197SOL    HW230228   3.143   0.475   8.232  0.4810 -0.3531 -0.5655
 6198SOL     OW30229   1.261   0.203   6.449 -0.0312 -0.0691 -0.0292
 6198SOL    HW130230   1.214   0.147   6.387  1.5697 -2.7798  1.2637
 6198SOL    HW230231   1.246   0.288   6.407 -1.3560 -0.2689  0.0323
 6199SOL     OW30232   3.238   1.686   0.720 -0.3461  0.0245  0.1192
 6199SOL    HW130233   3.295   1.610   0.733 -0.0361 -0.0598 -1.6813
 6199SOL    HW230234   3.286   1.762   0.753 -1.9384  1.1714 -0.2310
 6200SOL     OW30235   1.028   0.788   5.939 -0.6387 -0.0079  0.5989
 6200SOL    HW130236   1.035   0.845   6.015  1.1315 -1.2126  1.3461
 6200SOL    HW230237   1.058   0.848   5.871  0.2889 -1.3097 -0.1408
 6201SOL     OW30238   3.771   0.238   5.719 -0.0127  0.3761 -0.3296
 6201SOL    HW130239   3.811   0.265   5.636  1.2310  2.4223  0.9305
 6201SOL    HW230240   3.846   0.197   5.763 -0.2724  0.2536 -0.0010
 6202SOL     OW30241   1.570   1.114   9.019  0.1692  0.1901 -0.4223
 6202SOL    HW130242   1.617   1.047   8.969  0.5412 -0.6774  1.0918
 6202SOL    HW230243   1.618   1.122   9.101 -0.3987 -1.3428  0.0488
 6203SOL     OW30244   4.213   1.021   3.098 -0.2236  0.0622  0.0667
 6203SOL    HW130245   4.128   0.981   3.078 -2.3355  4.4405  0.3088
 6203SOL    HW230246   4.179   1.111   3.101  0.3495  0.2249  1.4944
 6204SOL     OW30247   2.656   2.235   4.610 -0.0585  0.3716 -1.0059
 6204SOL    HW130248   2.746   2.209   4.589  0.2095  0.8891 -0.5015
 6204SOL    HW230249   2.671   2.322   4.646 -1.1301  0.8164 -1.6492
 6205SOL     OW30250   3.584   0.098   8.830  0.4916  0.0353 -0.4135
 6205SOL    HW130251   3.541   0.183   8.839 -2.9051 -1.4969 -2.2570
 6205SOL    HW230252   3.541   0.055   8.756  0.4906  2.0963 -1.6186
 6206SOL     OW30253   3.191   1.952   1.818  0.1114  0.9196 -0.3515
 6206SOL    HW130254   3.274   1.999   1.833 -0.9799  2.8703 -0.4238
 6206SOL    HW230255   3.211   1.907   1.735 -0.8941  0.3101 -0.2585
 6207SOL     OW30256   0.047   1.121  17.714 -0.4919 -0.0520 -0.0575
 6207SOL    HW130257   0.140   1.140  17.697 -0.0393 -0.7713  1.6397
 6207SOL    HW230258   0.025   1.082  17.629 -1.9465 -0.8912  0.7153
 6208SOL     OW30259   4.280   1.902   9.738  0.1413 -0.0337  0.4706
 6208SOL    HW130260   4.223   1.963   9.785 -1.0621  0.3345 -1.4781
 6208SOL    HW230261   4.224   1.878   9.665 -0.8558  1.4054  0.7621
 6209SOL     OW30262   1.981   2.765   5.125  0.2680  0.4635  0.1200
 6209SOL    HW130263   2.019   2.690   5.170  3.2551  1.1697 -1.2579
 6209SOL    HW230264   1.895   2.745   5.164 -0.2269  1.4795 -0.4655
 6210SOL     OW30265   2.680   4.654  16.407 -0.4687  0.0120 -0.5881
 6210SOL    HW130266   2.677   4.621  16.497  0.5734 -1.5667 -1.1239
 6210SOL    HW230267   2.718   0.002  16.423  0.5932 -0.1181 -2.3918
 6211SOL     OW30268   1.830   2.263  11.714  0.3213 -0.1800  0.6691
 6211SOL    HW130269   1.844   2.358  11.711 -0.2874 -0.0632  1.2693
 6211SOL    HW230270   1.853   2.239  11.804  0.5528 -0.8048  0.4384
 6212SOL     OW30271   2.245   1.608   2.117 -0.0229  0.2540 -0.4198
 6212SOL    HW130272   2.303   1.554   2.170 -0.1641 -0.3821 -0.9134
 6212SOL    HW230273   2.210   1.539   2.060  0.5932 -0.6973  0.3465
 6213SOL     OW30274   3.233   0.228   8.335  0.5289  0.0393 -0.2046
 6213SOL    HW130275   3.212   0.314   8.296  1.2967  0.4138  0.2165
 6213SOL    HW230276   3.318   0.199   8.302  1.0947  1.4615  0.0153
 6214SOL     OW30277   3.763   0.149   2.976 -0.0572  0.3932  0.0342
 6214SOL    HW130278   3.855   0.167   2.994  0.1166 -0.4752  0.0282
 6214SOL    HW230279   3.751   0.203   2.898 -0.2831 -1.1650 -1.0063
 6215SOL     OW30280   3.571   1.363  13.816  0.6259  0.1705  0.3224
 6215SOL    HW130281   3.502   1.347  13.880  0.8527 -0.1897  0.4762
 6215SOL    HW230282   3.561   1.293  13.752 -4.6128  1.5643 -0.3506
 6216SOL     OW30283   0.894   2.420   0.010 -0.4070  0.0792 -0.3732
 6216SOL    HW130284   0.879   2.475  17.683  0.7085  0.8648 -0.0277
 6216SOL    HW230285   0.831   2.349  17.746 -0.5712  0.2791 -0.6341
 6217SOL     OW30286   4.018   3.393   6.576 -0.8241  0.5461  0.1419
 6217SOL    HW130287   4.009   3.482   6.612  1.5917  0.6912  0.4236
 6217SOL    HW230288   4.103   3.374   6.615 -1.6229  1.4152  2.3038
 6218SOL     OW30289   0.895   4.260   6.782  0.5444  0.0382 -0.3809
 6218SOL    HW130290   0.907   4.308   6.864 -0.8526  3.4887 -2.2053
 6218SOL    HW230291   0.887   4.176   6.827 -1.7349  1.0884  1.2361
 6219SOL     OW30292   3.535   1.946   0.420  0.3989  1.0629  0.0490
 6219SOL    HW130293   3.505   1.912   0.505  1.0338 -1.4079 -0.7333
 6219SOL    HW230294   3.620   1.905   0.412  0.0778  0.5252 -0.5500
 6220SOL     OW30295   0.508   2.046   3.216 -0.5444  0.3060 -0.4586
 6220SOL    HW130296   0.439   2.043   3.150 -0.8888 -0.4509 -0.0601
 6220SOL    HW230297   0.532   2.139   3.210  0.5695 -0.0657 -1.5424
 6221SOL     OW30298   2.610   2.583   2.310 -0.3363  0.1284 -0.0620
 6221SOL    HW130299   2.646   2.541   2.231 -0.9624 -3.5743  1.6356
 6221SOL    HW230300   2.678   2.537   2.360  0.0981  0.4392 -0.3612
 6222SOL     OW30301   4.665   2.129   0.906 -0.0290  0.7608  0.1712
 6222SOL    HW130302   4.578   2.170   0.902 -0.8564 -0.6317  3.6728
 6222SOL    HW230303   4.667   2.078   0.825 -0.9009 -0.7283  1.0862
 6223SOL     OW30304   2.101   1.558  15.996  0.6780  0.3604  0.4282
 6223SOL    HW130305   2.091   1.512  15.912  0.9284  0.0543  0.5658
 6223SOL    HW230306   2.030   1.621  16.008  0.7117  0.7007 -1.1333
 6224SOL     OW30307   3.050   1.543   5.400 -0.0348  0.4004 -0.5004
 6224SOL    HW130308   3.081   1.461   5.362  2.7735  0.9275  0.6221
 6224SOL    HW230309   2.975   1.575   5.351  0.0325 -0.1969 -0.9913
 6225SOL     OW30310   2.702   4.631   1.492  0.2767 -0.1217 -0.3148
 6225SOL    HW130311   2.714   4.700   1.427  0.9227  1.2452  1.2464
 6225SOL    HW230312   2.704   4.550   1.441  4.3554 -0.0459 -0.2764
 6226SOL     OW30313   4.157   0.299   0.280  0.2764  0.2727  0.0167
 6226SOL    HW130314   4.140   0.269   0.190 -1.9971  0.3067  0.4302
 6226SOL    HW230315   4.071   0.285   0.320 -1.5485  1.5680 -3.4308
 6227SOL     OW30316   0.445   2.047   4.751  0.0854 -0.0151  0.0766
 6227SOL    HW130317   0.530   2.046   4.795  0.4590 -0.0238 -0.6526
 6227SOL    HW230318   0.453   2.105   4.675  0.5565  0.1261  0.2314
 6228SOL     OW30319   1.981   4.114   6.226 -0.3559  1.1223  0.5535
 6228SOL    HW130320   1.910   4.081   6.281 -1.7480 -0.4689 -2.1462
 6228SOL    HW230321   2.031   4.169   6.286  0.9881  1.7240 -1.1180
 6229SOL     OW30322   4.064   1.011  14.590  0.4020 -0.3514 -0.0869
 6229SOL    HW130323   4.028   1.080  14.646  0.1825 -0.1100 -0.5231
 6229SOL    HW230324   4.102   1.060  14.517  0.1581 -0.2661 -0.1557
 6230SOL     OW30325   3.219   1.724   6.269 -0.3809 -0.3014  0.1537
 6230SOL    HW130326   3.300   1.767   6.295 -0.3755 -0.6242  0.6690
 6230SOL    HW230327   3.243   1.636   6.300 -1.0051 -0.9580 -1.1967
 6231SOL     OW30328   4.410   3.303  13.328  0.2502 -0.1751  0.1155
 6231SOL    HW130329   4.327   3.293  13.281  1.3969 -0.9688 -1.7326
 6231SOL    HW230330   4.426   3.213  13.356  1.6330 -0.2261 -0.8152
 6232SOL     OW30331   1.819   1.177   8.373  0.0129 -0.0200 -0.0948
 6232SOL    HW130332   1.783   1.257   8.409  0.8522  1.0929 -1.6982
 6232SOL    HW230333   1.748   1.151   8.314 -1.5838 -0.2195  1.9158
 6233SOL     OW30334   3.627   4.042   5.640  0.5289 -0.1395 -0.2496
 6233SOL    HW130335   3.701   4.023   5.698  1.9174 -0.7282 -2.2252
 6233SOL    HW230336   3.570   4.074   5.710 -0.4656  0.8309 -1.5110
 6234SOL     OW30337   3.919   1.193  14.720 -0.1532 -0.4358 -0.0229
 6234SOL    HW130338   3.857   1.242  14.774 -0.6294 -0.4653 -0.5377
 6234SOL    HW230339   3.907   1.249  14.643  0.6478 -0.6426 -0.2983
 6235SOL     OW30340   3.815   1.046  11.826  0.2411  0.1021 -0.0812
 6235SOL    HW130341   3.756   1.054  11.901  1.0493  0.5173  0.5073
 6235SOL    HW230342   3.892   1.006  11.866 -0.6740 -1.3592  0.2164
 6236SOL     OW30343   0.869   2.004   7.324 -0.1541  0.2710 -0.2673
 6236SOL    HW130344   0.785   2.047   7.343  0.0374  0.4308  0.2242
 6236SOL    HW230345   0.840   1.912   7.326 -1.7415  0.7648 -0.4936
 6237SOL     OW30346   2.811   1.030   1.647  0.0082 -0.2694 -0.0628
 6237SOL    HW130347   2.739   1.040   1.709  1.5919 -0.1805  1.7544
 6237SOL    HW230348   2.850   1.118   1.650  0.5190 -0.4048 -2.4105
 6238SOL     OW30349   3.862   3.628   5.540 -0.0510  0.0759 -0.2363
 6238SOL    HW130350   3.834   3.644   5.449 -0.1448 -2.3827 -0.6341
 6238SOL    HW230351   3.941   3.682   5.538  0.8056 -1.1889 -0.0520
 6239SOL     OW30352   0.547   1.845  14.551 -0.5032  0.1151  0.0788
 6239SOL    HW130353   0.454   1.840  14.575 -0.6789  0.2079 -0.5972
 6239SOL    HW230354   0.550   1.820  14.459  0.3365  1.8500 -0.3675
 6240SOL     OW30355   0.695   3.440   9.220  0.0701 -0.3658 -0.1624
 6240SOL    HW130356   0.605   3.440   9.253 -0.5600 -0.1424 -1.9069
 6240SOL    HW230357   0.714   3.532   9.204  1.3645 -0.9420 -1.9475
 6241SOL     OW30358   1.452   0.047  10.267  0.3721  0.0625  0.1015
 6241SOL    HW130359   1.505   0.022  10.191  0.6226  0.2057  0.2277
 6241SOL    HW230360   1.409   4.705  10.297 -1.6286  1.6359  1.3751
 6242SOL     OW30361   0.701   0.510   3.616  0.3316 -0.1576  0.1355
 6242SOL    HW130362   0.674   0.468   3.697  0.6372 -1.7784 -0.5875
 6242SOL    HW230363   0.617   0.552   3.598 -0.0908 -1.1061 -0.1090
 6243SOL     OW30364   0.972   1.429   2.248  0.1886  0.6342 -0.1426
 6243SOL    HW130365   0.983   1.442   2.154 -1.1394  1.9019 -0.1174
 6243SOL    HW230366   1.062   1.411   2.277 -0.2324  0.4471  1.0454
 6244SOL     OW30367   2.451   2.183   7.620 -0.7362  0.2637 -0.4429
 6244SOL    HW130368   2.414   2.113   7.673  0.4663  1.9368  2.6310
 6244SOL    HW230369   2.402   2.179   7.538  0.4463  3.0343 -1.2930
 6245SOL     OW30370   0.527   1.747   6.730 -0.7707  0.2531  0.5811
 6245SOL    HW130371   0.461   1.813   6.706  2.1439  2.6854 -0.7568
 6245SOL    HW230372   0.546   1.775   6.820 -1.5289  0.4916  0.6769
 6246SOL     OW30373   3.045   4.212   4.205 -0.0341  0.0048  0.2584
 6246SOL    HW130374   3.028   4.132   4.156  0.2178 -0.0061  0.1872
 6246SOL    HW230375   3.128   4.196   4.251  0.3106 -0.3146 -0.4748
 6247SOL     OW30376   3.676   2.459   0.858 -0.3527  0.3247  0.4329
 6247SOL    HW130377   3.592   2.426   0.889 -0.9039  1.8072  0.4921
 6247SOL    HW230378   3.707   2.392   0.796 -0.2345  2.1994 -1.5227
 6248SOL     OW30379   1.382   4.713  10.653 -0.5230 -0.2043 -0.6962
 6248SOL    HW130380   1.368   0.070  10.650 -0.6373 -0.1356  1.4664
 6248SOL    HW230381   1.356   4.684  10.566  0.0588  1.6972 -1.5079
 6249SOL     OW30382   2.456   2.402   2.535 -0.2367 -0.2631  0.2697
 6249SOL    HW130383   2.441   2.425   2.444 -0.1765  4.1844  1.4079
 6249SOL    HW230384   2.424   2.311   2.534  0.9189 -0.6857  2.4268
 6250SOL     OW30385   0.639   0.382   8.697 -0.4237  0.0199  0.0491
 6250SOL    HW130386   0.567   0.331   8.734  0.5755 -2.5332 -1.6176
 6250SOL    HW230387   0.697   0.321   8.653 -0.1827 -0.9588  1.7098
 6251SOL     OW30388   3.690   3.678   1.808 -0.2353  0.0610 -0.1476
 6251SOL    HW130389   3.638   3.732   1.867 -0.5584 -0.1007 -0.2838
 6251SOL    HW230390   3.719   3.749   1.750  1.6978 -0.6896 -0.0925
 6252SOL     OW30391   4.302   1.135  10.625 -0.0265  0.5577 -0.3861
 6252SOL    HW130392   4.365   1.117  10.556 -0.5338  1.5172 -1.1083
 6252SOL    HW230393   4.273   1.224  10.605  0.8382  0.7893 -0.5746
 6253SOL     OW30394   0.105   1.854   8.911  0.0630 -0.1320 -0.5589
 6253SOL    HW130395   0.136   1.789   8.848  1.5651 -1.4076  1.4999
 6253SOL    HW230396   0.093   1.935   8.861  0.2018  1.5551  2.1950
 6254SOL     OW30397   1.894   1.141   4.440 -0.2171 -0.0046  0.1274
 6254SOL    HW130398   1.954   1.103   4.376 -0.5418  0.1502 -0.2642
 6254SOL    HW230399   1.957   1.179   4.502 -2.0578 -0.1491  2.1123
 6255SOL     OW30400   1.793   2.146   5.646  0.0259  0.0296 -0.7194
 6255SOL    HW130401   1.811   2.119   5.557  0.2207  0.3544 -0.7764
 6255SOL    HW230402   1.874   2.193   5.665  0.1620 -0.2097 -0.7085
 6256SOL     OW30403   2.490   4.307   3.785  0.8095 -0.2931 -0.0161
 6256SOL    HW130404   2.464   4.296   3.693 -0.7237 -0.9315  0.5080
 6256SOL    HW230405   2.479   4.216   3.812 -0.3952 -0.2372 -0.3180
 6257SOL     OW30406   3.961   0.614   3.936 -0.1522  0.2568 -0.1474
 6257SOL    HW130407   3.976   0.555   3.862  0.6927 -0.8782  0.9240
 6257SOL    HW230408   3.916   0.679   3.882 -0.6108  1.0182  1.1587
 6258SOL     OW30409   0.363   0.856   3.366 -0.4678  0.1667 -0.1253
 6258SOL    HW130410   0.282   0.887   3.326 -0.0221  0.2446 -0.9704
 6258SOL    HW230411   0.390   0.773   3.326  1.1818  1.4012 -1.5822
 6259SOL     OW30412   4.676   2.680   0.695 -0.1664  0.3535 -0.3177
 6259SOL    HW130413   4.656   2.774   0.693 -0.9308  0.2334  1.6336
 6259SOL    HW230414   0.032   2.667   0.694 -0.0996  0.7515  0.7768
 6260SOL     OW30415   4.082   2.307  17.716  0.3354 -0.0929 -0.4229
 6260SOL    HW130416   4.080   2.231  17.658 -1.4864 -0.1236 -0.3221
 6260SOL    HW230417   4.171   2.340  17.703  1.1232 -1.8873  0.4302
 6261SOL     OW30418   0.161   3.621   8.541 -0.5702  0.0970 -0.0399
 6261SOL    HW130419   0.137   3.643   8.451 -2.0044  0.8935  0.5308
 6261SOL    HW230420   0.085   3.652   8.592 -0.6558  0.4944 -0.4115
 6262SOL     OW30421   3.304   2.335   4.608 -0.2379 -0.0608 -0.1276
 6262SOL    HW130422   3.347   2.263   4.655  0.0544 -0.9072 -1.6878
 6262SOL    HW230423   3.308   2.306   4.516  0.1523  1.9903 -0.7522
 6263SOL     OW30424   4.474   1.663  10.908  0.1893 -0.3548 -0.2044
 6263SOL    HW130425   4.425   1.613  10.973  0.6799 -1.3941 -0.6378
 6263SOL    HW230426   4.426   1.637  10.830  0.3242 -0.3555 -0.2869
 6264SOL     OW30427   0.918   0.058   4.508 -0.4298 -0.5954  0.3074
 6264SOL    HW130428   0.866   0.060   4.588  0.1836 -1.8657  0.7383
 6264SOL    HW230429   0.973   0.134   4.527 -0.4679 -0.6956  0.8131
 6265SOL     OW30430   3.131   4.190   7.871 -0.8972  0.5692  0.4234
 6265SOL    HW130431   3.049   4.218   7.912 -0.1263  1.3057  1.4434
 6265SOL    HW230432   3.179   4.271   7.887  1.2224 -0.6119  0.0792
 6266SOL     OW30433   2.997   2.996   8.120  0.0459  0.2989 -0.5219
 6266SOL    HW130434   2.931   3.031   8.180 -0.2754 -1.0029 -0.1291
 6266SOL    HW230435   2.957   3.007   8.033 -2.5193  3.0590  0.9846
 6267SOL     OW30436   0.996   2.789   7.959 -0.2838  0.2234  0.1419
 6267SOL    HW130437   0.989   2.801   7.864  0.2832 -0.4499  0.0203
 6267SOL    HW230438   1.091   2.789   7.964 -0.2231 -1.0705 -1.0355
 6268SOL     OW30439   3.412   2.326   1.503 -0.0592  0.0219 -0.0635
 6268SOL    HW130440   3.422   2.354   1.412  2.3574  0.2518  0.2779
 6268SOL    HW230441   3.326   2.286   1.489 -1.1596  2.2284  0.3717
 6269SOL     OW30442   3.748   4.092   0.737 -0.1319 -0.4914  0.0896
 6269SOL    HW130443   3.759   4.177   0.779 -2.1516 -0.2564  0.1499
 6269SOL    HW230444   3.793   4.028   0.792  0.0790 -0.7852 -0.4216
 6270SOL     OW30445   1.224   0.492   6.350  0.5527 -0.1553  0.2528
 6270SOL    HW130446   1.285   0.563   6.333  1.2821 -0.8216  0.1067
 6270SOL    HW230447   1.180   0.526   6.428 -0.6271 -0.6120 -0.2069
 6271SOL     OW30448   2.100   2.353   1.987  0.5847 -0.1473  0.1789
 6271SOL    HW130449   2.080   2.343   2.080  3.3743 -0.3133  0.7647
 6271SOL    HW230450   2.092   2.260   1.965  0.3285 -0.2792  0.8094
 6272SOL     OW30451   3.823   0.966   6.550  0.3413  0.2884 -0.3269
 6272SOL    HW130452   3.795   0.906   6.481 -1.5373  0.9370 -0.1408
 6272SOL    HW230453   3.912   0.937   6.569  0.6608  0.4186 -1.6439
 6273SOL     OW30454   3.595   3.235   3.251 -0.1854 -0.2864 -0.1819
 6273SOL    HW130455   3.514   3.283   3.264  1.7637  2.5268  1.7253
 6273SOL    HW230456   3.654   3.297   3.295 -1.4588 -0.4793  1.8066
 6274SOL     OW30457   0.284   2.846   9.507 -0.2205  0.4570 -0.5622
 6274SOL    HW130458   0.277   2.870   9.599  0.0529 -0.8349 -0.2189
 6274SOL    HW230459   0.260   2.755   9.495 -0.2767  0.0880  2.4000
 6275SOL     OW30460   0.069   4.083   9.578 -0.1518 -0.0480 -0.3701
 6275SOL    HW130461   0.069   4.113   9.487  0.4462 -1.5688 -0.8725
 6275SOL    HW230462   0.080   3.988   9.573  1.5209 -0.0278  3.1074
 6276SOL     OW30463   0.353   4.459  16.953 -0.0349 -0.2938 -0.3153
 6276SOL    HW130464   0.416   4.528  16.973 -0.6528 -0.2370  1.3963
 6276SOL    HW230465   0.277   4.515  16.937  0.8640  0.9502 -0.1744
 6277SOL     OW30466   1.352   1.815   4.576  0.0724  0.4390 -0.4983
 6277SOL    HW130467   1.411   1.888   4.593  0.8595 -0.0374 -1.2397
 6277SOL    HW230468   1.279   1.830   4.637 -0.5590  0.2280 -1.2025
 6278SOL     OW30469   4.366   0.230   5.799  0.0153  0.2137 -0.3946
 6278SOL    HW130470   4.349   0.202   5.889 -0.3590  1.1004 -0.1882
 6278SOL    HW230471   4.374   0.149   5.750  1.3256 -0.5554  1.0792
 6279SOL     OW30472   1.287   2.461   5.402 -0.3401 -0.0137  0.0355
 6279SOL    HW130473   1.281   2.536   5.341 -0.0943  2.7579  3.4324
 6279SOL    HW230474   1.364   2.487   5.452 -0.9945 -0.0066  1.0419
 6280SOL     OW30475   2.853   2.345   1.830  0.6927 -0.0573 -0.1285
 6280SOL    HW130476   2.765   2.322   1.862 -0.0628 -0.4721 -2.4811
 6280SOL    HW230477   2.901   2.307   1.903  1.5190  0.9574 -0.1474
 6281SOL     OW30478   3.679   1.774  10.677  0.0026 -0.4147 -0.5202
 6281SOL    HW130479   3.759   1.773  10.730 -0.0919 -1.5070 -0.4047
 6281SOL    HW230480   3.666   1.685  10.644 -1.8420 -2.0447  4.5748
 6282SOL     OW30481   1.220   3.629   3.596  0.2863 -0.1678 -0.1414
 6282SOL    HW130482   1.273   3.604   3.671  2.9555  0.3834 -1.8567
 6282SOL    HW230483   1.131   3.625   3.632  0.4948  0.1616  0.4097
 6283SOL     OW30484   0.210   3.785  13.611  0.2801  0.0131  0.2042
 6283SOL    HW130485   0.261   3.749  13.684 -0.1678 -0.9071  0.0618
 6283SOL    HW230486   0.196   3.874  13.644 -0.5478 -0.2123  0.4744
 6284SOL     OW30487   3.485   1.651   2.532 -0.4658 -0.3091  0.3143
 6284SOL    HW130488   3.400   1.691   2.513 -0.2971 -0.3259 -0.4786
 6284SOL    HW230489   3.456   1.576   2.584  1.7672 -2.3175 -1.3310
 6285SOL     OW30490   4.276   0.527   6.722  0.0890  0.0480  0.5010
 6285SOL    HW130491   4.334   0.451   6.717 -0.1527  0.0590 -2.5808
 6285SOL    HW230492   4.191   0.488   6.742 -0.8331  1.3205 -0.9332
 6286SOL     OW30493   1.060   4.041   5.563 -0.1472 -0.3488  0.0659
 6286SOL    HW130494   1.043   4.068   5.653 -2.0635  1.4617 -0.8475
 6286SOL    HW230495   1.087   3.950   5.579  0.9283  0.1515  1.0348
 6287SOL     OW30496   3.274   4.537   8.488  0.5577  0.2047 -0.4964
 6287SOL    HW130497   3.300   4.620   8.527  0.3952 -0.0935  0.2459
 6287SOL    HW230498   3.179   4.532   8.485  0.6568 -0.4358 -2.2548
 6288SOL     OW30499   1.533   0.186  15.428 -0.2939 -0.3835  0.4152
 6288SOL    HW130500   1.445   0.150  15.437 -1.0118  1.3092  0.2063
 6288SOL    HW230501   1.513   0.275  15.399 -1.1029 -0.8724 -0.4864
 6289SOL     OW30502   2.506   3.345   4.109  0.2332 -0.1444 -0.0882
 6289SOL    HW130503   2.425   3.294   4.110 -0.3055  0.7321  1.3676
 6289SOL    HW230504   2.511   3.377   4.199  0.1011  1.2315 -0.5689
 6290SOL     OW30505   2.700   2.911   4.842 -0.3330  0.1372  0.3921
 6290SOL    HW130506   2.729   3.002   4.832  1.0692 -0.4473 -0.8383
 6290SOL    HW230507   2.783   2.868   4.823  0.7576  2.1730  0.5503
 6291SOL     OW30508   3.177   1.100   1.742 -0.2225  0.2503 -0.2645
 6291SOL    HW130509   3.127   1.161   1.797  0.2331  0.7224 -0.3800
 6291SOL    HW230510   3.144   1.017   1.777  0.1704  0.6751  1.1141
 6292SOL     OW30511   2.318   2.574   4.823  0.5804  0.0380 -0.3594
 6292SOL    HW130512   2.231   2.561   4.786  0.8727 -2.2017 -0.2164
 6292SOL    HW230513   2.332   2.492   4.869 -0.4147 -0.2073 -0.4968
 6293SOL     OW30514   2.455   1.868  13.663  0.3645  0.0955 -0.7183
 6293SOL    HW130515   2.426   1.797  13.606  0.0994 -0.6434  0.3525
 6293SOL    HW230516   2.549   1.864  13.643 -0.3315 -2.6964 -3.4525
 6294SOL     OW30517   2.728   2.886  12.381  0.6463 -0.0478  0.2211
 6294SOL    HW130518   2.737   2.980  12.396  2.1425  0.1850 -2.0704
 6294SOL    HW230519   2.791   2.872  12.310 -0.0689  1.4783 -0.6957
 6295SOL     OW30520   4.484   3.857  13.272  0.5963 -0.1937 -0.3039
 6295SOL    HW130521   4.536   3.788  13.231 -0.8445 -0.5965 -1.4674
 6295SOL    HW230522   4.532   3.939  13.277  0.8662 -0.2826 -1.5443
 6296SOL     OW30523   0.172   1.639  15.516  0.0520 -0.7240  0.0865
 6296SOL    HW130524   0.195   1.718  15.564  1.6709 -0.7048 -0.7164
 6296SOL    HW230525   0.125   1.588  15.583  1.4611  0.9255  2.3174
 6297SOL     OW30526   3.283   2.291   1.952 -0.1751 -0.1197  0.2208
 6297SOL    HW130527   3.232   2.334   2.020 -1.4999 -1.1179 -0.1412
 6297SOL    HW230528   3.222   2.273   1.880  3.0190 -1.1762 -2.2023
 6298SOL     OW30529   3.045   4.090   7.015 -0.1638 -0.6040  0.1232
 6298SOL    HW130530   3.086   4.123   7.094  2.5746  0.3236 -1.6597
 6298SOL    HW230531   3.016   4.001   7.038 -0.7008 -0.0712  1.4643
 6299SOL     OW30532   1.048   3.148   2.395  0.0139  0.0488  0.5866
 6299SOL    HW130533   1.109   3.150   2.469 -0.9899 -0.7901  1.4356
 6299SOL    HW230534   1.004   3.233   2.403  0.3784  0.4168 -1.4495
 6300SOL     OW30535   4.316   1.975   8.622 -0.2837 -0.0852  0.5536
 6300SOL    HW130536   4.358   2.001   8.704  1.3191 -0.4492 -0.1406
 6300SOL    HW230537   4.391   1.976   8.561 -1.3337 -1.1846 -0.7578
 6301SOL     OW30538   4.290   2.386  15.146 -0.0216 -0.4371 -0.0687
 6301SOL    HW130539   4.216   2.361  15.090 -1.0432  1.6361  0.3829
 6301SOL    HW230540   4.296   2.315  15.210  0.5524  0.0464  0.4077
 6302SOL     OW30541   4.538   2.855   3.127 -0.1646  0.8201 -0.3559
 6302SOL    HW130542   4.632   2.844   3.119 -0.0489  0.9489  0.7406
 6302SOL    HW230543   4.504   2.835   3.040  0.0846 -1.3014  0.0272
 6303SOL     OW30544   4.573   0.048   9.450 -0.5772 -0.1892 -0.2762
 6303SOL    HW130545   4.599   0.013   9.535  2.0058  1.8541 -0.2409
 6303SOL    HW230546   4.478   0.047   9.465 -0.3715 -1.1148  0.9856
 6304SOL     OW30547   2.639   0.257   7.625 -0.3718 -0.4741 -0.2789
 6304SOL    HW130548   2.543   0.255   7.619 -0.2486 -1.4034 -1.7953
 6304SOL    HW230549   2.668   0.178   7.580  1.1731 -1.8261  3.0935
 6305SOL     OW30550   2.563   3.503  12.075 -0.2917  0.3032  0.4566
 6305SOL    HW130551   2.550   3.590  12.039 -0.6540  0.3485  0.7119
 6305SOL    HW230552   2.647   3.479  12.035  0.0224 -0.2112  1.4158
 6306SOL     OW30553   2.995   1.398  11.805  0.3108 -0.2328  0.4726
 6306SOL    HW130554   2.966   1.392  11.714 -0.4621 -2.7620  0.8880
 6306SOL    HW230555   3.057   1.326  11.811 -2.4735 -2.7013 -0.5282
 6307SOL     OW30556   3.771   2.984   8.634 -0.1890 -0.3028 -0.3793
 6307SOL    HW130557   3.828   3.049   8.592  0.7899 -1.1155 -0.3012
 6307SOL    HW230558   3.831   2.911   8.644  0.6011  0.4487  0.3921
 6308SOL     OW30559   1.388   1.814   3.327 -0.2570  0.4379  0.1016
 6308SOL    HW130560   1.445   1.840   3.400 -0.6481 -1.4820  1.0671
 6308SOL    HW230561   1.452   1.777   3.266  1.0710  0.5056  1.4539
 6309SOL     OW30562   4.342   1.460  11.011  0.0834 -0.0497 -0.1984
 6309SOL    HW130563   4.315   1.408  10.936  3.7291 -1.4622 -0.5199
 6309SOL    HW230564   4.288   1.425  11.082 -0.9031 -1.8647 -1.8481
 6310SOL     OW30565   3.545   0.482   0.012  0.0821  0.0963  0.1016
 6310SOL    HW130566   3.525   0.522  17.676  0.1537 -0.4695 -0.1786
 6310SOL    HW230567   3.636   0.511   0.017  0.0581  0.0942  0.5426
 6311SOL     OW30568   2.535   3.399  16.474  0.2744  0.7350  0.0660
 6311SOL    HW130569   2.507   3.478  16.428 -2.6474 -0.2548  0.1766
 6311SOL    HW230570   2.600   3.365  16.411 -0.5245 -0.4944 -0.0944
 6312SOL     OW30571   2.950   0.690  12.522 -0.0422  0.2169 -0.1601
 6312SOL    HW130572   2.862   0.654  12.532  0.2816 -0.6783 -0.5132
 6312SOL    HW230573   2.975   0.698  12.614 -0.0594 -3.4702  0.1968
 6313SOL     OW30574   3.900   3.804   3.506  0.1399 -0.3411 -0.2088
 6313SOL    HW130575   3.825   3.757   3.471  0.2554 -1.4528  1.0536
 6313SOL    HW230576   3.953   3.821   3.428  0.5856  3.4927  0.8962
 6314SOL     OW30577   4.288   1.592   9.301 -0.4593 -0.2651  0.1110
 6314SOL    HW130578   4.336   1.605   9.219  1.4006  0.7325  1.3560
 6314SOL    HW230579   4.206   1.551   9.275 -1.0714 -0.1059  1.7672
 6315SOL     OW30580   2.588   2.569  16.902  0.3159  0.6475  0.0017
 6315SOL    HW130581   2.533   2.646  16.885  0.4018  0.8848  0.7880
 6315SOL    HW230582   2.664   2.609  16.944  0.8405 -2.5554  2.0964
 6316SOL     OW30583   4.051   0.624   8.791  0.4013 -0.0783  0.0717
 6316SOL    HW130584   4.040   0.670   8.708  2.7013 -0.3297 -0.3709
 6316SOL    HW230585   3.977   0.563   8.787  1.2138 -1.0922  0.4333
 6317SOL     OW30586   3.979   2.732   3.028 -0.2441  0.2427  0.2718
 6317SOL    HW130587   4.025   2.655   2.995  0.0597 -0.2223  1.8062
 6317SOL    HW230588   3.893   2.706   2.993  0.4170 -2.2975  0.5416
 6318SOL     OW30589   4.488   2.093   4.081 -1.1435  0.1706  0.2549
 6318SOL    HW130590   4.488   2.039   4.160  1.4554  1.2551  0.9999
 6318SOL    HW230591   4.448   2.036   4.016 -0.9763  0.1341  0.1846
 6319SOL     OW30592   2.485   2.092  12.639 -0.5854  0.5833 -0.0318
 6319SOL    HW130593   2.497   2.121  12.729 -0.6168  0.0988  0.1259
 6319SOL    HW230594   2.550   2.152  12.602 -0.3515 -0.7866 -1.8341
 6320SOL     OW30595   0.945   4.488   4.581  0.3671  0.2549 -0.0060
 6320SOL    HW130596   0.876   4.446   4.632  1.4795 -1.2705  0.2607
 6320SOL    HW230597   0.913   4.481   4.491 -3.2025 -1.5159  1.4310
 6321SOL     OW30598   4.441   2.894  14.998  0.0755 -0.9078  0.0419
 6321SOL    HW130599   4.432   2.868  14.906 -0.1919  1.1430 -0.5161
 6321SOL    HW230600   4.463   2.809  15.035 -1.0420 -1.9126 -1.5768
 6322SOL     OW30601   3.630   3.007   4.811  0.2592 -0.0747 -0.0327
 6322SOL    HW130602   3.609   2.922   4.851 -0.0746 -0.5452 -1.1993
 6322SOL    HW230603   3.612   2.994   4.717  1.4370 -0.2560 -0.2404
 6323SOL     OW30604   1.846   0.419   2.151 -0.0020 -0.1105 -0.5188
 6323SOL    HW130605   1.909   0.353   2.122  0.3973 -0.0390  0.1859
 6323SOL    HW230606   1.874   0.432   2.241 -1.8090 -1.4353  0.2459
 6324SOL     OW30607   3.566   0.012   4.180  0.0164  0.0210  0.4154
 6324SOL    HW130608   3.571   0.009   4.276  1.6616 -0.5591  0.3081
 6324SOL    HW230609   3.660   0.018   4.165  0.1221  2.8732  2.2754
 6325SOL     OW30610   1.893   1.154   8.961 -0.3195  0.4679 -0.0102
 6325SOL    HW130611   1.961   1.086   8.964  0.1023  0.8382 -1.1522
 6325SOL    HW230612   1.876   1.155   8.867 -1.7809  0.0925  0.2519
 6326SOL     OW30613   0.289   3.311   5.235  0.7676  0.2582  0.2064
 6326SOL    HW130614   0.357   3.263   5.188  0.0571 -0.8434  0.3108
 6326SOL    HW230615   0.215   3.260   5.201  1.6681 -0.3509 -0.8322
 6327SOL     OW30616   0.059   1.490  14.181 -0.3011  0.3627 -0.1758
 6327SOL    HW130617   0.104   1.505  14.098 -1.4931  0.5490 -0.7986
 6327SOL    HW230618   0.064   1.395  14.191 -0.1956  0.7081  2.9810
 6328SOL     OW30619   2.766   3.765   8.043  0.2403 -0.2213 -0.5198
 6328SOL    HW130620   2.844   3.790   8.092  1.7299 -0.1237 -2.9456
 6328SOL    HW230621   2.711   3.843   8.052  2.0071  1.0722 -1.0943
 6329SOL     OW30622   4.253   0.319   8.590  0.2545  0.2523 -0.1627
 6329SOL    HW130623   4.322   0.359   8.643 -0.0524 -2.4256  2.2439
 6329SOL    HW230624   4.178   0.301   8.646  0.1837 -1.5633 -0.8238
 6330SOL     OW30625   4.050   0.211  14.315 -0.5921 -0.2245  0.7197
 6330SOL    HW130626   4.013   0.204  14.227 -0.0335 -1.5937  0.6020
 6330SOL    HW230627   4.052   0.118  14.338  0.3362 -0.2187  0.6803
 6331SOL     OW30628   1.378   4.293   3.287  0.2082 -0.0173 -0.0039
 6331SOL    HW130629   1.425   4.237   3.224  2.8050  1.3010  0.7779
 6331SOL    HW230630   1.414   4.381   3.276  1.8590 -0.7775 -0.7193
 6332SOL     OW30631   0.939   3.460   9.474  0.3140  0.6766  0.5003
 6332SOL    HW130632   0.984   3.377   9.459 -3.9034 -1.3918 -0.8984
 6332SOL    HW230633   0.899   3.475   9.388  1.5583 -1.2671 -0.4115
 6333SOL     OW30634   0.385   2.915   4.195  0.7876 -0.0387  0.1608
 6333SOL    HW130635   0.290   2.908   4.190  0.9070 -0.1508 -2.0161
 6333SOL    HW230636   0.422   2.901   4.107  1.6813 -1.5974  0.7894
 6334SOL     OW30637   0.624   0.661   2.224 -0.6653 -0.5166 -0.2791
 6334SOL    HW130638   0.580   0.619   2.151 -1.0962 -1.3347  0.4491
 6334SOL    HW230639   0.577   0.744   2.237  0.1950  0.2122 -1.9166
 6335SOL     OW30640   1.919   2.638  10.547 -0.0628 -0.4237 -0.3980
 6335SOL    HW130641   1.894   2.663  10.636 -0.7220 -2.9846  0.1549
 6335SOL    HW230642   1.976   2.563  10.564  1.8272  0.7976 -1.2785
 6336SOL     OW30643   0.147   2.497   2.845  0.6033  0.3979 -0.5750
 6336SOL    HW130644   0.213   2.491   2.776 -0.5520 -0.2415 -1.6444
 6336SOL    HW230645   0.099   2.417   2.821  1.4964 -0.6617  1.1914
 6337SOL     OW30646   1.527   0.457  15.373 -0.1536 -0.0238 -0.3174
 6337SOL    HW130647   1.579   0.505  15.437  0.9412 -0.8756 -0.5647
 6337SOL    HW230648   1.497   0.527  15.315  1.3420 -0.0029 -1.0720
 6338SOL     OW30649   1.256   2.636  16.301  0.0567  0.0517 -0.9351
 6338SOL    HW130650   1.345   2.668  16.287  0.6011 -1.4573 -0.8838
 6338SOL    HW230651   1.232   2.644  16.208  2.0185  0.3434 -1.4245
 6339SOL     OW30652   0.461   1.176  11.511  0.2201  0.5597  0.0303
 6339SOL    HW130653   0.425   1.088  11.495  0.4812  0.1551  1.6754
 6339SOL    HW230654   0.379   1.207  11.550  0.1607  0.2336  0.1733
 6340SOL     OW30655   1.426   2.110   4.583  0.2333 -0.2082 -0.0077
 6340SOL    HW130656   1.467   2.073   4.662 -0.9455 -2.0925 -0.2661
 6340SOL    HW230657   1.452   2.201   4.573  0.2913 -0.3951 -1.4796
 6341SOL     OW30658   2.725   3.019   1.985  0.4656 -0.3666 -0.3555
 6341SOL    HW130659   2.766   2.980   1.908 -0.2591 -2.6033  0.3795
 6341SOL    HW230660   2.779   3.090   2.018  1.4485 -2.2460  2.0329
 6342SOL     OW30661   0.013   0.749  12.561 -0.0656 -0.2351 -0.3223
 6342SOL    HW130662   0.095   0.760  12.610 -1.2225  0.5176  1.4476
 6342SOL    HW230663   0.035   0.684  12.495 -0.0845  0.8873 -1.4343
 6343SOL     OW30664   2.641   3.959   7.079 -0.5794  0.1183  0.3267
 6343SOL    HW130665   2.703   3.952   7.152 -1.8577  0.6796  1.4829
 6343SOL    HW230666   2.670   4.049   7.064  0.5608 -0.1150  1.1432
 6344SOL     OW30667   1.154   4.022  10.131 -0.0483  0.1480  0.2097
 6344SOL    HW130668   1.135   4.044  10.040 -0.9973  5.2089  1.5839
 6344SOL    HW230669   1.175   3.929  10.129 -0.7300 -0.0080  0.3479
 6345SOL     OW30670   1.374   2.153   3.582  0.1082 -0.0630  0.3212
 6345SOL    HW130671   1.317   2.228   3.568 -2.3658 -1.8077  0.9613
 6345SOL    HW230672   1.329   2.092   3.523 -0.4816 -0.4367  1.1593
 6346SOL     OW30673   1.143   1.148   7.059 -0.3116  0.1545 -0.3169
 6346SOL    HW130674   1.065   1.115   7.104  1.1933 -0.5461  1.7698
 6346SOL    HW230675   1.148   1.228   7.112  1.8352 -0.7387  0.8109
 6347SOL     OW30676   2.820   1.174   9.469 -0.2751  0.1196 -0.2515
 6347SOL    HW130677   2.836   1.180   9.375 -1.0752 -0.1824 -0.4070
 6347SOL    HW230678   2.863   1.257   9.490  0.8581 -0.7149  0.7744
 6348SOL     OW30679   2.548   1.023   2.528  0.0308  0.6050 -0.2895
 6348SOL    HW130680   2.634   1.060   2.507  0.1139  0.8040  0.3940
 6348SOL    HW230681   2.539   0.953   2.463  2.1119  0.4777 -0.4632
 6349SOL     OW30682   0.081   0.392   3.769 -0.0102 -0.0435  0.1300
 6349SOL    HW130683   0.031   0.459   3.724  0.1802 -0.3006 -0.4688
 6349SOL    HW230684   0.023   0.316   3.766  0.6841 -0.6002  0.4180
 6350SOL     OW30685   1.300   1.672  16.125  0.0562  0.1004 -0.2856
 6350SOL    HW130686   1.381   1.724  16.133 -0.0227  0.5799 -2.7771
 6350SOL    HW230687   1.255   1.695  16.206 -2.3601  0.4397 -1.7330
 6351SOL     OW30688   0.114   2.479   7.107  0.3019 -0.4239 -0.0459
 6351SOL    HW130689   0.162   2.403   7.073 -0.4108 -0.5039 -0.8710
 6351SOL    HW230690   0.182   2.535   7.144  0.4714  0.1756 -1.2686
 6352SOL     OW30691   1.361   1.079  12.830 -0.4388 -0.0432 -0.2058
 6352SOL    HW130692   1.310   1.039  12.901 -1.6444  2.9781  0.6223
 6352SOL    HW230693   1.325   1.025  12.759 -0.7861  0.3497 -0.3317
 6353SOL     OW30694   4.130   2.505   5.349 -0.4714  0.2211  0.3124
 6353SOL    HW130695   4.072   2.431   5.328  1.1600 -1.5175  1.9901
 6353SOL    HW230696   4.072   2.556   5.406  0.4845  3.0914 -1.2849
 6354SOL     OW30697   4.598   1.371  16.236  0.4983  0.0852  0.0247
 6354SOL    HW130698   4.608   1.382  16.142 -0.5111 -0.2059 -0.1137
 6354SOL    HW230699   4.503   1.382  16.246  0.6033 -0.3797  1.5334
 6355SOL     OW30700   0.784   1.707   4.983  0.0629  0.6741 -0.3247
 6355SOL    HW130701   0.742   1.664   5.058 -1.4243 -0.3319 -1.7268
 6355SOL    HW230702   0.711   1.770   4.975 -1.8560 -1.3171  1.5369
 6356SOL     OW30703   1.602   1.373   5.348  0.5634  0.1089 -0.0419
 6356SOL    HW130704   1.614   1.336   5.260 -1.8171 -2.6590  0.7993
 6356SOL    HW230705   1.552   1.451   5.323  2.0000  0.9358 -0.3306
 6357SOL     OW30706   4.466   2.549   5.747  0.4357 -0.1253 -0.0780
 6357SOL    HW130707   4.402   2.499   5.697  3.0676 -0.8376 -2.7794
 6357SOL    HW230708   4.524   2.485   5.788 -0.4511  0.2001  1.6771
 6358SOL     OW30709   2.983   2.411  12.449  0.0730  0.6616  0.0535
 6358SOL    HW130710   3.034   2.354  12.393 -0.0809  0.6303 -0.0540
 6358SOL    HW230711   3.038   2.489  12.457  0.8601  0.1157 -0.0137
 6359SOL     OW30712   3.045   1.115   6.438  0.4369  0.5876 -0.1931
 6359SOL    HW130713   3.026   1.200   6.478  3.4165 -0.1312  2.6941
 6359SOL    HW230714   2.980   1.121   6.368 -1.1773  1.8737  1.4203
 6360SOL     OW30715   4.104   4.552   0.433 -0.3039  0.0064 -0.1012
 6360SOL    HW130716   4.104   4.458   0.420  0.6751  0.0891 -0.6790
 6360SOL    HW230717   4.180   4.577   0.382  0.8124  0.2080  1.6539
 6361SOL     OW30718   0.661   1.603   7.125 -0.3458 -0.1241  0.0988
 6361SOL    HW130719   0.739   1.599   7.180  1.5654  1.3169 -2.5015
 6361SOL    HW230720   0.594   1.599   7.194  0.3620 -1.4407  0.7175
 6362SOL     OW30721   3.824   3.015   3.563 -0.0027 -0.0343  0.0082
 6362SOL    HW130722   3.755   2.950   3.572  2.5329 -2.3763  2.3373
 6362SOL    HW230723   3.885   2.995   3.634  0.5248 -0.4235 -0.5573
 6363SOL     OW30724   2.594   1.041   5.035  0.2140 -0.1817  0.5121
 6363SOL    HW130725   2.565   1.011   5.121 -0.7035  0.9464  0.5955
 6363SOL    HW230726   2.556   1.129   5.031 -1.5512 -0.9769 -0.1043
 6364SOL     OW30727   4.555   0.645  17.480 -0.3168  0.3957  0.1760
 6364SOL    HW130728   4.611   0.603  17.546  2.1382  0.4524 -1.8801
 6364SOL    HW230729   4.517   0.569  17.438  2.2442  0.0215 -1.4553
 6365SOL     OW30730   1.357   0.562   7.021 -0.1354 -0.3295 -0.1147
 6365SOL    HW130731   1.369   0.469   7.001 -3.5896 -0.8451  0.1562
 6365SOL    HW230732   1.366   0.603   6.935  0.2884 -0.3187 -0.0624
 6366SOL     OW30733   0.627   3.274   8.290  0.1170 -0.3597  0.4068
 6366SOL    HW130734   0.695   3.222   8.247  2.6440  2.3245  1.1573
 6366SOL    HW230735   0.551   3.269   8.232  0.4458 -0.0007 -0.0619
 6367SOL     OW30736   3.139   0.202   3.369 -0.2479  0.1273  1.3423
 6367SOL    HW130737   3.155   0.247   3.286  2.4805  0.5872  2.1165
 6367SOL    HW230738   3.133   0.108   3.351 -2.2351  0.7011 -1.0679
 6368SOL     OW30739   0.212   2.118   6.254  0.1750  0.0907  0.0165
 6368SOL    HW130740   0.207   2.201   6.301 -0.8921  0.9385 -1.6003
 6368SOL    HW230741   0.262   2.066   6.317 -0.8484 -0.9029  0.0247
 6369SOL     OW30742   0.905   3.447   6.650  0.3595  0.3250 -0.6320
 6369SOL    HW130743   0.960   3.407   6.718 -0.2031  0.3470 -0.1697
 6369SOL    HW230744   0.936   3.538   6.654 -0.4608  0.5629  0.3175
 6370SOL     OW30745   1.140   1.047  14.612 -0.5467  0.9198  0.3487
 6370SOL    HW130746   1.145   0.957  14.644  0.4934  0.2294 -1.7625
 6370SOL    HW230747   1.051   1.042  14.578 -0.6640 -1.3900  0.9779
 6371SOL     OW30748   0.937   3.628  13.362  0.2254  0.3194  0.5511
 6371SOL    HW130749   1.012   3.604  13.416 -0.3826  0.8151  1.6003
 6371SOL    HW230750   0.884   3.549  13.370  1.3159 -0.3252  1.4397
 6372SOL     OW30751   3.213   1.181   7.548  0.0935  0.4583  0.3892
 6372SOL    HW130752   3.225   1.104   7.493  1.8945  0.5184  0.7070
 6372SOL    HW230753   3.305   1.199   7.563  0.6079 -2.3798  0.5056
 6373SOL     OW30754   3.627   3.896   8.653 -0.4768  0.0417  0.0971
 6373SOL    HW130755   3.692   3.840   8.696 -0.4868 -1.1568 -1.4340
 6373SOL    HW230756   3.670   3.917   8.570 -1.7294  0.8185 -0.3432
 6374SOL     OW30757   2.913   3.817  16.479 -0.8382  0.6827 -0.0598
 6374SOL    HW130758   2.926   3.754  16.408 -0.3094 -0.9303  1.4771
 6374SOL    HW230759   2.998   3.825  16.521 -0.4383 -0.5072 -0.6464
 6375SOL     OW30760   0.596   1.907  16.546 -0.5162  0.5300 -0.9727
 6375SOL    HW130761   0.538   1.967  16.592  3.6156  0.8612  3.7803
 6375SOL    HW230762   0.683   1.936  16.572  0.3625 -2.3843 -0.6702
 6376SOL     OW30763   1.978   3.311   4.482 -0.0148  0.1345 -0.8890
 6376SOL    HW130764   2.052   3.320   4.542  1.0761 -1.9029 -1.9632
 6376SOL    HW230765   1.952   3.229   4.525 -0.3769  1.4644  1.4468
 6377SOL     OW30766   4.304   0.586   2.372  0.4716  0.0187  0.1866
 6377SOL    HW130767   4.233   0.565   2.433  0.5852  0.4067  0.4563
 6377SOL    HW230768   4.371   0.599   2.440  0.5415 -0.6907  0.2561
 6378SOL     OW30769   3.143   2.101  16.897 -0.3641  0.0929 -0.0301
 6378SOL    HW130770   3.205   2.032  16.874 -1.0690 -0.2988 -0.7656
 6378SOL    HW230771   3.118   2.066  16.983  0.2907  0.8446  0.4661
 6379SOL     OW30772   3.387   2.083   5.770  0.4306  0.0602  0.2054
 6379SOL    HW130773   3.446   2.131   5.712 -0.0223  3.0561  2.2136
 6379SOL    HW230774   3.411   1.993   5.750  0.1678 -0.0545  0.4005
 6380SOL     OW30775   4.105   2.679   7.226  0.0017 -0.4989 -0.4292
 6380SOL    HW130776   4.200   2.672   7.219  0.1199  0.0582  0.6145
 6380SOL    HW230777   4.078   2.676   7.134  2.4121 -1.2737 -1.1034
 6381SOL     OW30778   3.503   0.107   7.786  0.1670 -0.4888 -0.5047
 6381SOL    HW130779   3.513   0.071   7.698  0.7851  2.1272 -1.4964
 6381SOL    HW230780   3.592   0.143   7.789  0.4610 -1.0565 -2.4051
 6382SOL     OW30781   3.369   2.027  15.818 -0.1830 -0.2472  0.0568
 6382SOL    HW130782   3.385   2.120  15.804  2.1232 -1.0132 -2.4834
 6382SOL    HW230783   3.456   1.987  15.825 -1.6938 -3.5878 -0.0602
 6383SOL     OW30784   0.705   2.688   5.253  0.5965 -0.2114  0.1481
 6383SOL    HW130785   0.644   2.762   5.262 -1.2637 -1.6059 -1.0457
 6383SOL    HW230786   0.692   2.668   5.160 -0.7792 -0.0497  0.3054
 6384SOL     OW30787   4.250   1.669   5.415 -0.4178 -0.0617  0.5274
 6384SOL    HW130788   4.206   1.708   5.491 -0.6756 -1.9629  1.3720
 6384SOL    HW230789   4.183   1.610   5.379 -1.9883  1.4868  0.8759
 6385SOL     OW30790   3.214   0.229  13.916  0.1277  0.2455  1.2095
 6385SOL    HW130791   3.165   0.217  13.835  0.0114  0.9138  1.1847
 6385SOL    HW230792   3.206   0.324  13.918 -0.1462  0.2614 -0.8773
 6386SOL     OW30793   3.217   0.319   2.931 -0.0246  0.2596  0.4742
 6386SOL    HW130794   3.193   0.333   3.023  0.3323 -0.8866  0.7446
 6386SOL    HW230795   3.139   0.355   2.890  1.4540 -0.3098 -2.8312
 6387SOL     OW30796   2.173   1.837   3.545 -0.0591  0.0012 -0.3018
 6387SOL    HW130797   2.233   1.790   3.487 -0.4794 -0.4914 -0.3296
 6387SOL    HW230798   2.213   1.924   3.550 -2.3622  1.0963 -1.0022
 6388SOL     OW30799   1.580   1.759   7.680  0.2099  0.2223 -0.1167
 6388SOL    HW130800   1.568   1.819   7.753 -0.1711 -1.0286  0.8501
 6388SOL    HW230801   1.618   1.687   7.730 -0.9772 -0.8330 -0.7369
 6389SOL     OW30802   2.654   4.390   7.695  0.0670 -0.5074  0.1212
 6389SOL    HW130803   2.728   4.356   7.646  0.6921  1.0974 -0.0697
 6389SOL    HW230804   2.658   4.486   7.687 -2.0152 -0.5294 -1.0503
 6390SOL     OW30805   2.392   3.800   7.279 -0.1719  0.3068 -0.0398
 6390SOL    HW130806   2.321   3.745   7.311  2.0754 -1.8163  1.2668
 6390SOL    HW230807   2.413   3.855   7.354  2.3621  2.2319 -2.1233
 6391SOL     OW30808   2.385   4.500  15.614 -0.0569  0.1524  0.0325
 6391SOL    HW130809   2.402   4.439  15.685 -0.8095 -1.1752 -0.9370
 6391SOL    HW230810   2.464   4.497  15.560  0.3785 -0.8426  0.7345
 6392SOL     OW30811   0.141   1.674   8.408  0.0635  0.5790  0.4728
 6392SOL    HW130812   0.162   1.611   8.477  0.5750  0.4329  0.1870
 6392SOL    HW230813   0.085   1.614   8.358  1.9718 -0.2498 -0.6496
 6393SOL     OW30814   3.345   0.573   4.418 -0.0205  0.0455 -0.6888
 6393SOL    HW130815   3.366   0.560   4.325 -2.1614 -0.0641 -1.1752
 6393SOL    HW230816   3.370   0.494   4.465  0.2540  1.5088  1.6203
 6394SOL     OW30817   4.217   1.867   7.729  0.1525  0.3931 -0.4433
 6394SOL    HW130818   4.145   1.880   7.667 -0.7739 -3.1861 -0.1648
 6394SOL    HW230819   4.294   1.891   7.677 -0.2402  0.2626 -1.0942
 6395SOL     OW30820   4.395   0.425   4.999  0.2784  0.1979 -0.0474
 6395SOL    HW130821   4.305   0.392   5.007  0.7339 -0.7393  1.1686
 6395SOL    HW230822   4.405   0.476   5.079  0.3363  0.8863 -0.4940
 6396SOL     OW30823   1.475   3.032   9.161  0.8453  0.1971  1.0576
 6396SOL    HW130824   1.429   2.968   9.106 -0.3089  0.3649  1.8306
 6396SOL    HW230825   1.441   2.999   9.244  0.5684 -0.3911  0.7120
 6397SOL     OW30826   0.672   2.244   3.795 -0.1453  0.3900 -0.1264
 6397SOL    HW130827   0.724   2.199   3.862 -1.1889  1.9033  1.7137
 6397SOL    HW230828   0.740   2.308   3.775  0.7353 -0.7782 -0.9055
 6398SOL     OW30829   0.122   2.820  10.261 -0.3113  0.1009  0.0644
 6398SOL    HW130830   0.208   2.808  10.302  0.0750  0.6116 -0.5843
 6398SOL    HW230831   0.078   2.853  10.339 -1.3754  0.7285 -0.8172
 6399SOL     OW30832   0.290   3.228  13.154 -0.6179  0.5681  0.1657
 6399SOL    HW130833   0.358   3.228  13.221 -0.6559 -0.7336  0.2009
 6399SOL    HW230834   0.271   3.321  13.168  0.2374  0.8306 -0.4272
 6400SOL     OW30835   2.496   0.794   5.643  0.5571 -0.5309 -0.4776
 6400SOL    HW130836   2.438   0.793   5.567 -0.5190 -2.5545  0.3821
 6400SOL    HW230837   2.571   0.836   5.599  0.9786  0.1329  0.8696
 6401SOL     OW30838   1.398   1.496  13.967  0.5580  0.4455 -0.5873
 6401SOL    HW130839   1.487   1.528  13.959  0.5908  0.3708 -0.5226
 6401SOL    HW230840   1.348   1.575  13.946  2.6864  1.8514 -0.3550
 6402SOL     OW30841   3.946   2.949   6.453  0.2824  0.4598  0.6385
 6402SOL    HW130842   3.926   3.043   6.448  0.4101  0.3175 -2.1235
 6402SOL    HW230843   4.007   2.952   6.380  0.5456 -0.9320  0.8006
 6403SOL     OW30844   1.318   1.705   5.503 -0.2082  0.2317 -0.2204
 6403SOL    HW130845   1.297   1.794   5.477  3.6582  1.1342 -0.1933
 6403SOL    HW230846   1.252   1.676   5.567 -1.1313  1.2417 -0.7183
 6404SOL     OW30847   2.725   3.850   6.847 -0.1607 -0.8256  0.1426
 6404SOL    HW130848   2.672   3.856   6.927 -0.4529  0.5157 -0.1622
 6404SOL    HW230849   2.678   3.913   6.792 -0.5948  0.4593  1.9865
 6405SOL     OW30850   4.136   2.690   4.718  0.0098 -0.2375 -0.4882
 6405SOL    HW130851   4.125   2.775   4.761 -0.9193 -0.1264 -0.9450
 6405SOL    HW230852   4.230   2.694   4.698  0.2098 -2.4658 -0.0003
 6406SOL     OW30853   4.546   1.242   2.951  0.1244 -0.2134  0.4603
 6406SOL    HW130854   4.460   1.276   2.922  0.2722 -0.3319 -0.1137
 6406SOL    HW230855   4.507   1.176   3.007  0.9632 -0.2270  1.0189
 6407SOL     OW30856   0.523   1.717   3.006 -0.2549  0.2129 -0.2154
 6407SOL    HW130857   0.608   1.757   2.985  1.0550 -2.5319 -0.0749
 6407SOL    HW230858   0.510   1.729   3.100  2.3465 -2.0848  0.4377
 6408SOL     OW30859   1.456   2.400   4.458 -0.3656  0.4259 -0.2871
 6408SOL    HW130860   1.527   2.403   4.523  0.9134 -1.8095 -1.5913
 6408SOL    HW230861   1.414   2.482   4.485  0.2162  0.8472 -0.6506
 6409SOL     OW30862   0.046   4.356   3.391 -0.9447  0.3040  0.1179
 6409SOL    HW130863   4.708   4.408   3.416 -0.9308 -0.0897  0.9779
 6409SOL    HW230864   0.062   4.383   3.300  2.0828 -0.7325  0.3351
 6410SOL     OW30865   1.953   2.597   2.999  0.5295  0.0851  0.3097
 6410SOL    HW130866   1.939   2.573   3.091 -2.7266 -0.9594 -0.4763
 6410SOL    HW230867   1.946   2.514   2.952 -2.2313 -0.7044  2.1166
 6411SOL     OW30868   2.226   1.279   4.140 -0.1952 -0.2261  0.5843
 6411SOL    HW130869   2.224   1.349   4.074 -1.2814 -0.8166 -0.0067
 6411SOL    HW230870   2.169   1.309   4.212  1.1995  2.7999  0.4394
 6412SOL     OW30871   2.518   1.386   7.457  0.0938 -0.1675  0.0720
 6412SOL    HW130872   2.522   1.445   7.382  1.1112  0.5047  0.6599
 6412SOL    HW230873   2.468   1.445   7.513 -0.0258  0.5347 -0.7897
 6413SOL     OW30874   4.694   1.463   7.906  0.2910 -0.0146 -0.1170
 6413SOL    HW130875   4.629   1.481   7.838  2.1819  0.4943 -1.7965
 6413SOL    HW230876   4.634   1.458   7.980  1.1369  1.6877  0.6811
 6414SOL     OW30877   3.514   0.268   5.796  0.1502  0.5593  0.5913
 6414SOL    HW130878   3.457   0.206   5.751  1.4424 -0.4280  0.2908
 6414SOL    HW230879   3.597   0.252   5.750  0.5159 -1.2128  1.8616
 6415SOL     OW30880   2.683   1.621   7.623 -0.0802 -0.1393 -0.7487
 6415SOL    HW130881   2.773   1.589   7.620 -0.2698 -0.7833  0.2966
 6415SOL    HW230882   2.678   1.669   7.706 -0.5121  0.7806 -1.3067
 6416SOL     OW30883   3.204   2.731  17.270 -0.0840  0.4177 -0.4179
 6416SOL    HW130884   3.224   2.665  17.336  0.5393  0.9573 -0.0688
 6416SOL    HW230885   3.173   2.677  17.197 -0.1786 -1.4324  0.9985
 6417SOL     OW30886   1.148   0.006   2.502 -0.8016 -0.6125 -0.0579
 6417SOL    HW130887   1.171   4.674   2.442  0.0210 -0.9913  0.7005
 6417SOL    HW230888   1.217   4.737   2.569 -1.6276  0.0278  0.8671
 6418SOL     OW30889   1.079   2.872   7.699 -0.0609 -0.0150 -0.8591
 6418SOL    HW130890   1.062   2.845   7.609 -3.1395 -0.6949 -0.0767
 6418SOL    HW230891   1.173   2.889   7.693  0.2162 -0.8755  1.1695
 6419SOL     OW30892   3.183   2.247   6.147 -1.0733 -0.0780 -0.0154
 6419SOL    HW130893   3.230   2.326   6.123 -2.4266  0.2902 -1.4385
 6419SOL    HW230894   3.243   2.186   6.104 -1.0915  1.0946 -1.6966
 6420SOL     OW30895   2.198   2.351   0.659 -0.0360  0.2222 -0.0716
 6420SOL    HW130896   2.146   2.353   0.579  0.8291  1.1916 -0.6092
 6420SOL    HW230897   2.165   2.423   0.714 -1.1704  0.1470 -0.6649
 6421SOL     OW30898   4.196   4.530   4.015 -0.1632  0.1137 -0.1650
 6421SOL    HW130899   4.156   4.513   4.101 -0.2020 -1.8197 -0.5740
 6421SOL    HW230900   4.279   4.573   4.038  0.4951 -1.9905  1.4398
 6422SOL     OW30901   3.376   0.038  14.315 -0.4262 -0.2191 -0.1800
 6422SOL    HW130902   3.395   4.733  14.232  1.3729 -0.1720  0.2032
 6422SOL    HW230903   3.283   0.056  14.304 -0.5038 -0.2683  0.3834
 6423SOL     OW30904   0.959   1.381   2.836 -0.2380 -0.2072  0.2669
 6423SOL    HW130905   0.932   1.291   2.816  1.2661 -0.5308 -0.3537
 6423SOL    HW230906   1.040   1.364   2.885 -0.4179  1.1132  1.0176
 6424SOL     OW30907   4.546   3.462   0.719 -0.3760 -1.2608  0.0883
 6424SOL    HW130908   4.587   3.516   0.787  1.5210 -2.6688  0.0491
 6424SOL    HW230909   4.458   3.500   0.718  0.5666  0.7835 -3.0566
 6425SOL     OW30910   0.209   1.394   7.282  0.1619  0.1957  0.1773
 6425SOL    HW130911   0.283   1.333   7.282  0.2667  0.3264  1.2388
 6425SOL    HW230912   0.204   1.435   7.368  1.3639  0.0770  0.3126
 6426SOL     OW30913   0.110   2.678  12.351  0.0601 -0.7149  0.3120
 6426SOL    HW130914   0.076   2.759  12.391  0.9685  0.1012 -0.5705
 6426SOL    HW230915   0.081   2.615  12.417 -3.4054  0.5719  0.0429
 6427SOL     OW30916   0.660   4.418  16.642  0.1453 -0.2592  0.4625
 6427SOL    HW130917   0.697   4.344  16.689 -0.4076 -0.5878  0.3765
 6427SOL    HW230918   0.676   4.389  16.552  1.6472  0.8520  0.3682
 6428SOL     OW30919   1.475   2.060   0.452  0.2473  0.2663  0.5220
 6428SOL    HW130920   1.442   1.981   0.409  2.8641 -0.2533 -0.5121
 6428SOL    HW230921   1.400   2.096   0.500 -1.5598 -2.1955 -0.4850
 6429SOL     OW30922   3.260   2.993   1.423 -0.1471 -0.6873 -0.7425
 6429SOL    HW130923   3.319   3.032   1.487 -0.8384  0.7766 -1.0039
 6429SOL    HW230924   3.294   2.904   1.416  0.1502 -0.6521  0.2338
 6430SOL     OW30925   1.623   0.788   6.601 -0.7779 -0.2020 -0.7741
 6430SOL    HW130926   1.631   0.754   6.690  1.3028  1.4797 -0.3183
 6430SOL    HW230927   1.527   0.786   6.600 -0.8061  0.0904  0.3681
 6431SOL     OW30928   4.314   4.378   3.244  0.0383 -0.4409 -0.4670
 6431SOL    HW130929   4.239   4.323   3.219  1.9276 -1.8384 -3.1106
 6431SOL    HW230930   4.383   4.335   3.194  0.4709  0.7728 -0.9100
 6432SOL     OW30931   1.059   0.687   3.389 -0.3125  0.1547 -0.4386
 6432SOL    HW130932   0.974   0.703   3.348 -0.7233 -1.1894 -0.1154
 6432SOL    HW230933   1.073   0.773   3.428  1.0367  0.1597 -0.9368
 6433SOL     OW30934   0.144   0.155   0.301 -0.1131 -0.2385  0.2784
 6433SOL    HW130935   0.093   0.236   0.313 -0.4354 -0.6527  1.7382
 6433SOL    HW230936   0.158   0.164   0.207  0.9486 -1.0781  0.3610
 6434SOL     OW30937   4.497   0.861   1.739  0.3022 -0.7972 -0.2479
 6434SOL    HW130938   4.538   0.932   1.691  1.0708  0.3601  2.1098
 6434SOL    HW230939   4.528   0.882   1.827  1.1951 -0.4123 -0.6547
 6435SOL     OW30940   4.182   3.401   4.746  0.0658 -0.0921  0.4209
 6435SOL    HW130941   4.212   3.310   4.744 -1.1529 -0.5089  1.1424
 6435SOL    HW230942   4.159   3.405   4.839  2.0942  1.0999  0.8853
 6436SOL     OW30943   0.713   3.518   2.322 -0.6238 -0.0382  0.4273
 6436SOL    HW130944   0.732   3.609   2.344  2.4844 -0.1865 -1.5978
 6436SOL    HW230945   0.702   3.538   2.229  1.8338 -0.2046  0.0986
 6437SOL     OW30946   1.569   1.312   6.075 -0.4148  0.1818 -0.3036
 6437SOL    HW130947   1.532   1.388   6.120  2.4824  1.1257  0.4930
 6437SOL    HW230948   1.616   1.352   6.002  1.5271 -2.3228 -0.4435
 6438SOL     OW30949   0.771   0.901   4.336  0.0491  0.6313  0.5175
 6438SOL    HW130950   0.767   0.906   4.431  0.1806 -0.8375  0.6007
 6438SOL    HW230951   0.679   0.878   4.318  0.6243 -0.4316 -1.0985
 6439SOL     OW30952   1.105   4.664   3.418  0.1922 -0.2884 -0.0273
 6439SOL    HW130953   1.119   0.021   3.418  0.0686 -0.2793  2.0568
 6439SOL    HW230954   1.151   4.642   3.336  2.0083  2.7931  0.1865
 6440SOL     OW30955   3.819   0.359   5.464  0.0698 -0.1307  0.2324
 6440SOL    HW130956   3.729   0.326   5.458  0.9678 -2.3436 -1.1220
 6440SOL    HW230957   3.829   0.435   5.408 -1.5395 -0.8879 -1.0735
 6441SOL     OW30958   0.188   2.193  12.996 -0.2299 -0.5780 -0.3231
 6441SOL    HW130959   0.121   2.126  13.012 -2.8829  2.4454  1.1387
 6441SOL    HW230960   0.230   2.157  12.918 -0.2010  0.6752 -0.8809
 6442SOL     OW30961   0.352   0.360   1.278  0.3982 -0.0851  0.3212
 6442SOL    HW130962   0.330   0.415   1.353 -1.1967  0.6068 -0.6620
 6442SOL    HW230963   0.270   0.314   1.263  0.4542  0.8282 -2.8443
 6443SOL     OW30964   0.078   3.118   9.470 -0.0783 -0.4071  0.5754
 6443SOL    HW130965   0.125   3.040   9.439  3.9197  1.4733  1.8879
 6443SOL    HW230966   0.133   3.158   9.537  1.4341 -0.4032 -0.6573
 6444SOL     OW30967   2.293   0.370   4.491  0.2133  1.0913  0.4760
 6444SOL    HW130968   2.208   0.414   4.486 -0.2194  0.1790 -0.3141
 6444SOL    HW230969   2.293   0.324   4.407  1.0348 -0.3527  1.2764
 6445SOL     OW30970   4.499   0.119   6.441  0.0248 -0.2859 -0.1539
 6445SOL    HW130971   4.500   0.032   6.481 -0.1796  0.1226  0.7228
 6445SOL    HW230972   4.525   0.177   6.512 -2.0742  1.6099 -0.9183
 6446SOL     OW30973   1.242   4.624  10.904 -0.1914 -0.5042  0.2539
 6446SOL    HW130974   1.286   4.709  10.907  0.3062 -0.6779 -1.9694
 6446SOL    HW230975   1.244   4.612  10.809 -0.2614  1.2498  0.0310
 6447SOL     OW30976   2.264   0.986  13.371  0.2162  0.2946  0.7621
 6447SOL    HW130977   2.222   0.901  13.355  0.3839  0.2979  0.3105
 6447SOL    HW230978   2.355   0.957  13.380  0.4658  0.1899 -2.0948
 6448SOL     OW30979   4.728   4.470   6.824 -0.1203  0.1232 -0.7764
 6448SOL    HW130980   4.674   4.549   6.826 -0.5750 -0.2547  1.6419
 6448SOL    HW230981   0.076   4.513   6.823 -0.9316  1.7951  0.9563
 6449SOL     OW30982   2.577   0.080  14.556  0.0006 -0.0454  0.6250
 6449SOL    HW130983   2.562   0.084  14.650 -0.2794  1.3318  0.5176
 6449SOL    HW230984   2.572   4.723  14.540  1.6244  0.1131 -0.9024
 6450SOL     OW30985   1.814   3.430   8.548 -0.0203  0.1517  0.3349
 6450SOL    HW130986   1.765   3.393   8.621  2.0844  0.2335  1.8064
 6450SOL    HW230987   1.850   3.509   8.590 -2.1027  0.4685  1.4783
 6451SOL     OW30988   2.699   0.854   1.456 -0.0245  0.1450  0.2724
 6451SOL    HW130989   2.753   0.897   1.523 -0.7261  0.2535  0.7748
 6451SOL    HW230990   2.609   0.868   1.487  0.0906  2.1933 -0.3045
 6452SOL     OW30991   2.079   1.118   7.492  0.2266 -0.3350  0.0523
 6452SOL    HW130992   2.077   1.128   7.588  0.9726 -2.3891  0.2695
 6452SOL    HW230993   1.988   1.090   7.487 -0.1639  0.6681  1.4534
 6453SOL     OW30994   0.058   3.665  16.108  0.2391 -0.0747  0.2194
 6453SOL    HW130995   0.008   3.699  16.033  0.2330  1.3113  0.8554
 6453SOL    HW230996   0.136   3.719  16.101 -0.7506  0.8376 -3.7451
 6454SOL     OW30997   0.800   3.615   9.012  0.2543  0.4998  0.4395
 6454SOL    HW130998   0.848   3.533   9.027  1.5221  0.7380 -2.2663
 6454SOL    HW230999   0.863   3.643   8.946  2.3074 -2.0297  1.3141
 6455SOL     OW31000   2.167   0.702   6.118  0.0945  0.4791  0.5101
 6455SOL    HW131001   2.241   0.696   6.058 -0.2422  0.2025  0.1236
 6455SOL    HW231002   2.133   0.790   6.099  0.3153  0.1955 -1.1886
 6456SOL     OW31003   3.194   1.158  12.217 -0.6937 -0.6391  0.0820
 6456SOL    HW131004   3.133   1.094  12.181  2.9397 -2.1382 -3.4604
 6456SOL    HW231005   3.200   1.225  12.149  3.4126  1.5760  2.6391
 6457SOL     OW31006   3.709   2.327  13.259  0.1167 -0.2352 -0.1452
 6457SOL    HW131007   3.624   2.291  13.231 -0.5723  0.5543  0.9250
 6457SOL    HW231008   3.739   2.359  13.174  1.6265  1.0772  0.8910
 6458SOL     OW31009   2.367   0.526   4.026  0.0371  0.9030 -0.3592
 6458SOL    HW131010   2.419   0.465   4.077  1.4427  1.5274 -1.0259
 6458SOL    HW231011   2.283   0.480   4.017  1.4537 -1.8899  0.8820
 6459SOL     OW31012   3.407   1.580   4.520  0.4834 -0.3595  0.0290
 6459SOL    HW131013   3.487   1.594   4.469  0.9775  0.4031  1.0386
 6459SOL    HW231014   3.389   1.486   4.507 -1.8505  0.1842 -0.7856
 6460SOL     OW31015   1.205   2.658  14.965  0.5175  0.0933  0.6090
 6460SOL    HW131016   1.218   2.684  15.056  2.5287  0.3804  0.2444
 6460SOL    HW231017   1.256   2.721  14.913  0.5345  0.8612  1.5689
 6461SOL     OW31018   1.514   1.723  16.474  0.2585 -0.0723 -0.2033
 6461SOL    HW131019   1.508   1.708  16.568 -0.6176 -0.8544 -0.3891
 6461SOL    HW231020   1.420   1.724  16.456  0.0295  2.1069  1.1232
 6462SOL     OW31021   4.612   2.662  11.974 -0.1090  0.4111 -0.0852
 6462SOL    HW131022   4.582   2.677  11.884 -2.0195  0.9759  0.6513
 6462SOL    HW231023   4.651   2.575  11.964  1.4987  1.1477 -0.2639
 6463SOL     OW31024   4.049   1.135   6.114  0.1498  0.4112 -0.1590
 6463SOL    HW131025   3.970   1.129   6.060 -1.9955 -0.4691  3.0881
 6463SOL    HW231026   4.051   1.053   6.164 -0.7763  0.6032  0.1925
 6464SOL     OW31027   2.950   2.045  12.085  0.4137 -0.4667  0.0025
 6464SOL    HW131028   2.960   1.992  12.164  1.2818 -0.7857 -0.3159
 6464SOL    HW231029   3.034   2.024  12.043  0.8507  0.3005  0.5013
 6465SOL     OW31030   1.143   3.552  14.869 -0.2346  0.2333  0.4506
 6465SOL    HW131031   1.059   3.597  14.872  0.3439  1.3750 -0.7030
 6465SOL    HW231032   1.179   3.589  14.789  0.6924 -0.8909  0.3476
 6466SOL     OW31033   3.703   0.788   3.544  0.3193 -0.0287  0.2131
 6466SOL    HW131034   3.645   0.718   3.512 -0.4989  0.8090 -0.1259
 6466SOL    HW231035   3.705   0.791   3.640 -0.9578 -1.6651  0.2931
 6467SOL     OW31036   3.860   2.076   5.732  0.5764  0.2028  0.1278
 6467SOL    HW131037   3.770   2.052   5.751  0.1941  1.2246 -0.3549
 6467SOL    HW231038   3.905   2.079   5.816  1.3987  2.8450 -0.4127
 6468SOL     OW31039   3.318   3.251  12.114  0.0569  0.1692 -0.3712
 6468SOL    HW131040   3.319   3.287  12.203  0.1978  0.3500 -0.4470
 6468SOL    HW231041   3.338   3.160  12.136  0.5330  0.3392 -0.0811
 6469SOL     OW31042   1.080   0.467   8.294  0.5732  0.0410 -0.2095
 6469SOL    HW131043   1.150   0.531   8.301 -1.2510  1.5468  3.9109
 6469SOL    HW231044   1.086   0.453   8.199  0.0244 -0.7769 -0.1235
 6470SOL     OW31045   0.915   3.123  10.393  0.0628 -0.1261 -0.1032
 6470SOL    HW131046   0.836   3.077  10.364 -0.0530 -1.9901  3.2373
 6470SOL    HW231047   0.985   3.078  10.347 -0.3426 -0.2889 -0.5605
 6471SOL     OW31048   2.440   0.277   8.807  0.0362 -1.2650 -0.4684
 6471SOL    HW131049   2.451   0.272   8.902  2.1186 -2.8871 -0.8090
 6471SOL    HW231050   2.364   0.221   8.796 -1.4566  0.4050  1.2810
 6472SOL     OW31051   1.512   2.741  16.286  0.0709  0.3716  0.4899
 6472SOL    HW131052   1.578   2.786  16.340  0.8284 -0.6160  0.3876
 6472SOL    HW231053   1.542   2.650  16.288 -1.4134 -0.1719 -1.4690
 6473SOL     OW31054   0.007   1.485   8.252  0.3084  0.1900  0.6051
 6473SOL    HW131055   4.667   1.516   8.204 -0.2659 -3.2719 -0.6968
 6473SOL    HW231056   4.732   1.393   8.276 -1.4481 -0.0878 -1.3177
 6474SOL     OW31057   3.242   1.240   9.264 -0.5533  0.0679 -0.2417
 6474SOL    HW131058   3.310   1.302   9.237  0.1954  0.5858  2.8996
 6474SOL    HW231059   3.226   1.209   9.174 -0.2830  0.3523 -0.3862
 6475SOL     OW31060   3.618   4.406   5.784 -0.5428 -0.0079 -0.4293
 6475SOL    HW131061   3.685   4.364   5.730  0.0726  0.4217 -0.0063
 6475SOL    HW231062   3.625   4.491   5.739  2.4002 -0.6205 -1.1643
 6476SOL     OW31063   3.821   0.718   1.325  0.0393  0.4128  0.1439
 6476SOL    HW131064   3.758   0.653   1.354  0.2254  1.6654  3.4241
 6476SOL    HW231065   3.901   0.677   1.359 -1.5163 -1.6092  1.3605
 6477SOL     OW31066   0.297   3.100   5.810  0.0131 -0.2465 -0.5565
 6477SOL    HW131067   0.244   3.024   5.786 -1.1348  0.3013  0.2072
 6477SOL    HW231068   0.378   3.090   5.760  1.8089  2.8404  1.6896
 6478SOL     OW31069   1.101   0.294   9.120  0.3833  0.4385  0.4654
 6478SOL    HW131070   1.134   0.223   9.176  2.5663  1.8458  0.9654
 6478SOL    HW231071   1.156   0.289   9.042 -0.2896  0.1579  0.0080
 6479SOL     OW31072   1.743   0.488   1.035  0.1450  0.0846 -0.7191
 6479SOL    HW131073   1.673   0.537   1.078  0.4131 -0.5369  0.4210
 6479SOL    HW231074   1.713   0.496   0.944  0.4140  0.3935 -0.7801
 6480SOL     OW31075   4.594   1.486   4.451 -0.2852  0.2916  0.2112
 6480SOL    HW131076   4.665   1.436   4.410 -0.3126  1.5328 -1.3444
 6480SOL    HW231077   4.637   1.507   4.534 -1.4450  0.8115  0.6881
 6481SOL     OW31078   3.668   3.617   3.600 -0.4163  0.1518 -0.4490
 6481SOL    HW131079   3.677   3.565   3.680  0.5480  1.7185  0.4480
 6481SOL    HW231080   3.605   3.683   3.629 -0.8726 -1.0682  1.3573
 6482SOL     OW31081   3.754   1.600   2.467  0.1540 -0.1644 -0.2221
 6482SOL    HW131082   3.663   1.611   2.497 -0.2613  0.0951 -1.5958
 6482SOL    HW231083   3.743   1.518   2.419 -1.2683 -0.4517  0.5799
 6483SOL     OW31084   1.341   3.491   3.801  0.0893 -0.5332  0.1106
 6483SOL    HW131085   1.361   3.537   3.883  1.3986 -1.4090  0.2780
 6483SOL    HW231086   1.426   3.457   3.773  0.4466  0.5657 -0.1251
 6484SOL     OW31087   1.910   0.380  14.111  0.2450 -0.4224 -0.0943
 6484SOL    HW131088   1.942   0.437  14.042 -0.8037  1.3823  0.9129
 6484SOL    HW231089   1.895   0.437  14.186  1.7361 -0.7180  0.4282
 6485SOL     OW31090   4.564   2.112  15.527  0.0907  0.8017 -0.5239
 6485SOL    HW131091   4.624   2.052  15.573 -2.6373 -1.5203  0.0151
 6485SOL    HW231092   4.493   2.116  15.591 -0.4678  2.0638 -1.2285
 6486SOL     OW31093   0.500   4.221   4.674  0.3120  0.1803 -0.2023
 6486SOL    HW131094   0.450   4.286   4.624 -0.8676  0.0972  0.8539
 6486SOL    HW231095   0.434   4.153   4.661  1.6450 -1.1055 -0.2750
 6487SOL     OW31096   0.002   2.949  12.400 -0.7364 -0.2598  1.0664
 6487SOL    HW131097   4.729   2.943  12.305 -0.5092 -0.1216  1.0319
 6487SOL    HW231098   4.722   3.041  12.416  0.3704 -0.0385  1.0532
 6488SOL     OW31099   3.240   2.685   3.375  0.0481 -0.1744 -0.0377
 6488SOL    HW131100   3.318   2.727   3.411  1.3436 -1.1854 -1.6422
 6488SOL    HW231101   3.184   2.763   3.370  1.2209  0.5070 -2.5856
 6489SOL     OW31102   3.147   2.780   0.786 -0.3983 -0.4214 -0.0584
 6489SOL    HW131103   3.174   2.838   0.715  3.1314 -1.5058  0.3991
 6489SOL    HW231104   3.165   2.691   0.755 -0.8269 -0.0316 -1.4186
 6490SOL     OW31105   3.141   3.822   3.636  0.5584  0.2300  0.1604
 6490SOL    HW131106   3.165   3.888   3.571  0.2803  0.4168  0.2459
 6490SOL    HW231107   3.084   3.871   3.695 -2.4303 -2.3441 -0.5686
 6491SOL     OW31108   2.588   0.044   7.861  0.2218 -0.0273  0.1684
 6491SOL    HW131109   2.661   0.002   7.815 -0.1755 -3.0827  2.4183
 6491SOL    HW231110   2.565   4.733   7.940  0.0449 -1.2336 -0.6321
 6492SOL     OW31111   2.063   0.618   9.150  0.6735  0.4315  0.0867
 6492SOL    HW131112   2.061   0.620   9.245 -2.2115 -0.2826  0.0278
 6492SOL    HW231113   2.157   0.626   9.133  0.5650 -0.3612 -0.9151
 6493SOL     OW31114   1.027   3.576   5.798  0.5893 -0.0821  0.2768
 6493SOL    HW131115   1.119   3.604   5.792  1.0385 -1.3383  1.3306
 6493SOL    HW231116   1.034   3.491   5.756 -2.3975 -0.7221  1.0903
 6494SOL     OW31117   2.147   0.596   0.859  0.2926  0.1146 -0.0024
 6494SOL    HW131118   2.085   0.529   0.832  0.6038 -0.4793  0.7708
 6494SOL    HW231119   2.107   0.665   0.805 -1.6905 -1.5718 -0.6753
 6495SOL     OW31120   1.409   0.391   8.909  0.1540 -0.1342 -0.2838
 6495SOL    HW131121   1.504   0.386   8.893  0.2702 -2.6070  1.1416
 6495SOL    HW231122   1.407   0.433   8.995  1.9957  1.1275 -0.8502
 6496SOL     OW31123   1.879   1.710   8.402 -0.2652  0.6674  0.4137
 6496SOL    HW131124   1.856   1.799   8.375 -1.9633  0.7923  2.2474
 6496SOL    HW231125   1.911   1.723   8.490  0.5973  2.3597 -0.1676
 6497SOL     OW31126   4.439   2.531  17.069  0.2344  0.3638  0.0031
 6497SOL    HW131127   4.469   2.475  17.140  0.8464  1.7278  0.8234
 6497SOL    HW231128   4.347   2.511  17.054  0.8150 -3.4056  1.5544
 6498SOL     OW31129   4.237   0.333  10.923 -0.2767 -0.0531  0.2533
 6498SOL    HW131130   4.162   0.282  10.892  1.1866  0.3716 -3.9594
 6498SOL    HW231131   4.196   0.372  11.000 -0.8841  1.9876 -1.1091
 6499SOL     OW31132   1.671   4.488  16.454  0.2570 -0.4675 -0.0131
 6499SOL    HW131133   1.734   4.548  16.414  2.5238 -1.0123  2.7519
 6499SOL    HW231134   1.728   4.420  16.489  1.1806  0.5079  0.3898
 6500SOL     OW31135   1.345   4.084   9.430  0.6629  0.0293  0.0207
 6500SOL    HW131136   1.285   4.026   9.383  2.0788 -1.5288  0.1274
 6500SOL    HW231137   1.295   4.106   9.508  0.0338  0.0391 -0.3887
 6501SOL     OW31138   3.887   2.333  14.040  0.1987 -0.5282  0.0569
 6501SOL    HW131139   3.982   2.343  14.029 -0.2806  1.2862 -2.3096
 6501SOL    HW231140   3.886   2.238  14.030  0.6018 -0.3401 -1.7224
 6502SOL     OW31141   2.233   0.333   5.440  0.2132  0.8166 -0.4418
 6502SOL    HW131142   2.243   0.396   5.512  0.6037  1.2786 -0.9071
 6502SOL    HW231143   2.139   0.320   5.455  0.1809  2.7627  1.0777
 6503SOL     OW31144   3.912   3.015  14.232 -0.4492 -0.5929  0.4876
 6503SOL    HW131145   3.858   3.081  14.274  0.5024 -1.1204  2.5688
 6503SOL    HW231146   3.856   2.938  14.236 -0.9994 -0.1433  1.2670
 6504SOL     OW31147   1.339   2.403   7.037 -0.6858 -0.0169  0.1856
 6504SOL    HW131148   1.406   2.362   6.982 -1.0343  0.7075 -0.7826
 6504SOL    HW231149   1.388   2.450   7.105  0.8430 -3.3908  1.4219
 6505SOL     OW31150   1.041   1.985   1.583  0.3436  0.3502  0.7685
 6505SOL    HW131151   1.081   1.899   1.594  0.8133  0.5269  0.4233
 6505SOL    HW231152   1.111   2.050   1.575  0.4190  0.2705  0.7903
 6506SOL     OW31153   2.018   3.003  16.773  0.2739 -0.2827  0.2807
 6506SOL    HW131154   2.027   3.096  16.794 -3.1864 -0.6935  3.7020
 6506SOL    HW231155   2.076   2.962  16.837  0.0241  0.6789  1.1248
 6507SOL     OW31156   2.619   4.178  17.272  0.2404  0.2478  0.1478
 6507SOL    HW131157   2.547   4.179  17.334 -1.2200 -0.5179 -1.5527
 6507SOL    HW231158   2.620   4.270  17.248  0.6332 -0.5917 -3.1277
 6508SOL     OW31159   1.895   1.800   2.610 -0.1232 -0.1731 -0.0482
 6508SOL    HW131160   1.816   1.812   2.663 -0.1092 -0.7380  0.1042
 6508SOL    HW231161   1.947   1.757   2.678 -0.4249  0.2444  0.4430
 6509SOL     OW31162   2.605   0.701   5.325  0.0118  0.0351  0.3793
 6509SOL    HW131163   2.583   0.703   5.232 -1.2425 -0.6761  0.6571
 6509SOL    HW231164   2.582   0.792   5.347  0.1658 -0.6105  3.1025
 6510SOL     OW31165   0.036   1.368   9.019  0.1560 -0.3815 -0.2479
 6510SOL    HW131166   0.126   1.383   8.990  0.7036 -3.1479  0.0189
 6510SOL    HW231167   4.724   1.390   8.940  0.8736  0.6606 -0.4087
 6511SOL     OW31168   4.184   0.700   8.497  0.7197 -0.5136 -0.1977
 6511SOL    HW131169   4.150   0.620   8.457 -1.6612  0.0925  0.5531
 6511SOL    HW231170   4.165   0.760   8.424 -0.4056 -2.7786 -1.7811
 6512SOL     OW31171   1.739   0.768  16.073 -0.0127  0.4511  0.3565
 6512SOL    HW131172   1.736   0.863  16.076  1.9406  0.4775  1.2291
 6512SOL    HW231173   1.648   0.743  16.090  0.8786 -1.2549  2.6444
 6513SOL     OW31174   3.554   2.683   0.526  0.5661  0.1002  0.2795
 6513SOL    HW131175   3.465   2.704   0.553 -0.3081 -2.0007 -0.9798
 6513SOL    HW231176   3.600   2.735   0.592  0.5829 -0.0726  0.4042
 6514SOL     OW31177   4.327   3.876   4.633 -0.0390  0.3891  0.0365
 6514SOL    HW131178   4.315   3.930   4.555  0.8701 -1.6334 -1.5201
 6514SOL    HW231179   4.288   3.795   4.601  1.1523  0.6424 -2.0377
 6515SOL     OW31180   1.738   2.853   4.017 -0.0119 -0.1631 -0.4058
 6515SOL    HW131181   1.787   2.804   4.083  2.0271  1.0909 -0.9852
 6515SOL    HW231182   1.774   2.941   4.023  2.6705 -1.2226 -1.2099
 6516SOL     OW31183   4.553   0.334   6.613  0.5794  0.5900  0.3026
 6516SOL    HW131184   4.572   0.389   6.689 -1.0406 -0.4707  1.4841
 6516SOL    HW231185   4.623   0.375   6.562  1.2786 -0.4789  0.4030
 6517SOL     OW31186   1.385   1.121  17.393 -0.4026  0.0890  0.4815
 6517SOL    HW131187   1.456   1.084  17.340 -0.7670  0.5268 -0.3204
 6517SOL    HW231188   1.430   1.200  17.423 -0.8041  1.2085 -1.8007
 6518SOL     OW31189   1.306   0.217   8.136  0.0198 -0.2161 -0.1058
 6518SOL    HW131190   1.381   0.178   8.092  1.0694  2.5621 -0.8041
 6518SOL    HW231191   1.346   0.273   8.203  1.4289 -2.6517  1.0891
 6519SOL     OW31192   3.741   2.625   9.607  0.2272 -0.4029  0.2736
 6519SOL    HW131193   3.734   2.701   9.665  3.3642 -0.6692  0.9987
 6519SOL    HW231194   3.685   2.556   9.643  1.5793 -1.0184  1.1979
 6520SOL     OW31195   1.244   2.503   3.289  0.6777 -0.6153  0.8922
 6520SOL    HW131196   1.184   2.450   3.236  1.5697 -0.4412 -0.2896
 6520SOL    HW231197   1.312   2.493   3.222 -0.5094 -0.8783 -0.2668
 6521SOL     OW31198   3.713   2.910  11.234 -0.4224 -0.5318  0.3549
 6521SOL    HW131199   3.628   2.922  11.191 -0.1161 -0.3379 -0.1890
 6521SOL    HW231200   3.732   2.821  11.204 -1.6491  0.2926 -2.8432
 6522SOL     OW31201   2.414   1.438   2.256  0.4628 -0.3423  0.5479
 6522SOL    HW131202   2.504   1.461   2.234  0.7810  0.5464  2.7353
 6522SOL    HW231203   2.440   1.401   2.341  0.2032 -1.7089  0.0273
 6523SOL     OW31204   1.433   4.003  14.858  0.2165  0.2288 -0.2407
 6523SOL    HW131205   1.404   4.041  14.775 -2.6307 -0.9055  0.2423
 6523SOL    HW231206   1.515   3.963  14.829 -0.1919 -1.8813  1.5038
 6524SOL     OW31207   1.416   2.517   2.683 -0.5559  0.0122  0.0646
 6524SOL    HW131208   1.432   2.564   2.601  1.4085 -0.9030 -0.0897
 6524SOL    HW231209   1.322   2.513   2.671 -0.2627  2.6728 -2.9919
 6525SOL     OW31210   0.609   4.526   7.718 -0.0447  0.2513  0.2657
 6525SOL    HW131211   0.571   4.459   7.661  2.1183  0.1751 -1.1067
 6525SOL    HW231212   0.538   4.530   7.782  1.1522 -0.0061  1.6030
 6526SOL     OW31213   3.515   3.463  10.343 -0.2831  0.3815 -0.0174
 6526SOL    HW131214   3.541   3.428  10.258  0.1691  0.0825  0.2456
 6526SOL    HW231215   3.451   3.394  10.359  0.5418 -0.4868 -0.4316
 6527SOL     OW31216   2.465   1.944   5.787 -0.5790  0.4134  0.4076
 6527SOL    HW131217   2.491   1.964   5.697  1.2438  1.9236  1.2654
 6527SOL    HW231218   2.543   1.967   5.838 -0.4062  1.0586 -0.1491
 6528SOL     OW31219   2.878   3.709  13.822 -0.1879 -0.3026 -0.5539
 6528SOL    HW131220   2.860   3.618  13.796  1.9349 -1.0542  0.6310
 6528SOL    HW231221   2.937   3.704  13.897  1.5714  0.1498 -1.9130
 6529SOL     OW31222   1.146   1.276   4.984  0.3012  0.3525  0.0309
 6529SOL    HW131223   1.224   1.228   4.959  1.6819  1.6278  1.8803
 6529SOL    HW231224   1.188   1.340   5.041  0.8170  0.2584 -0.2415
 6530SOL     OW31225   1.586   2.871   4.846  0.4323  0.3043  0.4371
 6530SOL    HW131226   1.566   2.880   4.752 -0.5478  1.0675  0.7194
 6530SOL    HW231227   1.642   2.794   4.847  1.1234  0.8257  1.7363
 6531SOL     OW31228   2.692   1.672   2.626 -0.1823  0.1603 -0.0423
 6531SOL    HW131229   2.711   1.586   2.589 -2.0605 -0.0423 -0.5124
 6531SOL    HW231230   2.710   1.660   2.720  0.5221  2.1822  0.0835
 6532SOL     OW31231   3.442   1.904   2.772  0.2370  0.0096  0.5314
 6532SOL    HW131232   3.390   1.840   2.821 -2.9626  1.2711 -1.2033
 6532SOL    HW231233   3.413   1.991   2.799 -1.2042 -0.0584 -0.7651
 6533SOL     OW31234   1.183   1.961   0.980 -0.1235  0.0260 -0.7698
 6533SOL    HW131235   1.266   2.003   1.004  0.5521 -0.9567 -1.4181
 6533SOL    HW231236   1.207   1.914   0.901 -1.1902 -0.7793 -0.6159
 6534SOL     OW31237   2.071   1.111   2.575 -0.4208 -0.1417 -0.6342
 6534SOL    HW131238   2.152   1.137   2.532  0.8284 -0.9922  1.2252
 6534SOL    HW231239   2.108   1.047   2.636 -2.5726 -0.9727 -0.2039
 6535SOL     OW31240   2.651   2.298   0.876 -0.0436  0.1863 -0.1251
 6535SOL    HW131241   2.694   2.276   0.793  1.6713 -0.1077  0.8386
 6535SOL    HW231242   2.644   2.392   0.863  0.2953 -0.0367 -1.9969
 6536SOL     OW31243   4.728   2.278   8.029  0.2405  0.0432  0.1813
 6536SOL    HW131244   0.061   2.213   8.026  0.6384  0.4736  0.2501
 6536SOL    HW231245   4.678   2.251   7.952 -0.9356  0.5357  0.7713
 6537SOL     OW31246   3.447   2.545   0.100 -0.3620  0.1037 -0.7497
 6537SOL    HW131247   3.500   2.534   0.021  1.5962  0.4104  0.5195
 6537SOL    HW231248   3.413   2.456   0.107  2.1179 -0.7833  0.2382
 6538SOL     OW31249   0.912   1.407   6.585 -0.6935  0.4382 -0.4532
 6538SOL    HW131250   0.822   1.378   6.576 -0.5960  0.1712 -0.5431
 6538SOL    HW231251   0.895   1.493   6.624 -0.3876 -0.9663  2.7906
 6539SOL     OW31252   3.740   0.723  13.670 -0.1331 -0.1498  0.6691
 6539SOL    HW131253   3.801   0.789  13.639 -1.8927  0.7346 -0.9283
 6539SOL    HW231254   3.745   0.664  13.595  1.5728 -1.3991  1.7803
 6540SOL     OW31255   2.076   3.607  17.472  0.0420  0.4863 -0.4549
 6540SOL    HW131256   2.123   3.688  17.453  1.2104  1.0409  4.8029
 6540SOL    HW231257   2.144   3.547  17.440  1.8022  1.3458  1.6893
 6541SOL     OW31258   3.522   4.094  11.039 -0.6345  0.2891 -0.1655
 6541SOL    HW131259   3.471   4.031  11.090  0.2756 -0.8048 -0.6210
 6541SOL    HW231260   3.475   4.173  11.066 -1.1267  0.5435 -1.7456
 6542SOL     OW31261   0.065   0.214  16.164 -0.1368  0.4499 -0.6007
 6542SOL    HW131262   0.145   0.198  16.214 -1.6431 -0.1813  1.6385
 6542SOL    HW231263   0.071   0.309  16.156  1.7442  0.1825 -2.5341
 6543SOL     OW31264   1.982   3.873  10.507 -0.2462  1.0770  0.3410
 6543SOL    HW131265   1.989   3.964  10.535  3.2407  0.8285  0.3103
 6543SOL    HW231266   2.062   3.844  10.550  0.7988  0.6435 -1.9019
 6544SOL     OW31267   3.626   2.203   6.602 -0.1235 -0.0036  0.0141
 6544SOL    HW131268   3.669   2.265   6.543  0.8695 -0.3837  0.3361
 6544SOL    HW231269   3.677   2.127   6.575  1.0169  0.4977  0.7878
 6545SOL     OW31270   1.340   3.377   5.786  0.3506 -0.3610 -0.0615
 6545SOL    HW131271   1.395   3.440   5.832  0.0143  1.3088 -1.8958
 6545SOL    HW231272   1.329   3.309   5.852  0.3793 -0.7594 -0.4695
 6546SOL     OW31273   2.240   2.415   5.051 -0.5232  0.0018  0.3577
 6546SOL    HW131274   2.275   2.336   5.091  1.2591  0.3824 -0.4563
 6546SOL    HW231275   2.188   2.383   4.977 -0.6389 -1.6530  1.1644
 6547SOL     OW31276   1.172   2.736   3.793  0.1253  0.4931  0.4772
 6547SOL    HW131277   1.261   2.715   3.822 -0.0314  1.9430  2.0216
 6547SOL    HW231278   1.192   2.822   3.754  0.8067 -0.0029 -0.2792
 6548SOL     OW31279   2.212   1.026   6.593  0.1423 -0.2802 -0.0205
 6548SOL    HW131280   2.224   1.000   6.502 -1.5016 -0.5874 -0.1347
 6548SOL    HW231281   2.266   1.104   6.603  0.2659 -0.5473  1.3500
 6549SOL     OW31282   1.917   3.218   3.565 -0.4629 -0.0631  0.1130
 6549SOL    HW131283   1.954   3.179   3.486 -0.5975  0.0154  0.0115
 6549SOL    HW231284   1.860   3.143   3.583  0.6423 -1.1072 -0.6907
 6550SOL     OW31285   4.733   4.236   7.460  0.3720 -0.4862 -0.1384
 6550SOL    HW131286   4.691   4.153   7.481  0.6329 -0.2358  1.3979
 6550SOL    HW231287   0.009   4.279   7.544  0.7465 -2.0133  0.5775
 6551SOL     OW31288   0.994   1.323  12.522  0.0872  0.4483  0.3126
 6551SOL    HW131289   0.913   1.298  12.478  2.7323 -0.3211 -4.1242
 6551SOL    HW231290   0.954   1.390  12.577  0.5354  0.9967 -0.0258
 6552SOL     OW31291   4.244   0.687   1.685  0.5196 -0.0638  0.4861
 6552SOL    HW131292   4.261   0.617   1.622 -1.5156  0.7505 -0.9589
 6552SOL    HW231293   4.276   0.764   1.638  1.2649 -0.8002 -0.2312
 6553SOL     OW31294   2.871   1.743   3.414  0.0493 -0.8275  0.0193
 6553SOL    HW131295   2.799   1.773   3.358  0.7504  2.5426  0.8924
 6553SOL    HW231296   2.937   1.803   3.379  1.0978 -0.9155  1.8357
 6554SOL     OW31297   1.488   4.126   5.068 -0.1763  0.2852  0.1872
 6554SOL    HW131298   1.415   4.165   5.117  0.4164  1.7811 -0.0985
 6554SOL    HW231299   1.538   4.204   5.043 -0.1506 -0.2464 -1.4436
 6555SOL     OW31300   4.194   2.608   6.767  0.9906 -0.1699 -0.4806
 6555SOL    HW131301   4.269   2.613   6.827 -1.4492  0.7210  2.5168
 6555SOL    HW231302   4.228   2.599   6.678 -0.9773 -2.4362 -1.0018
 6556SOL     OW31303   4.469   3.985   5.716 -0.1879 -0.2887  0.0941
 6556SOL    HW131304   4.473   4.062   5.660 -2.7950  1.4905  2.4176
 6556SOL    HW231305   4.407   4.022   5.779 -0.5183 -1.3373  0.3860
 6557SOL     OW31306   0.566   4.591   3.517  0.6169 -0.0865 -0.2632
 6557SOL    HW131307   0.496   4.536   3.480  0.1148 -0.9482  1.9708
 6557SOL    HW231308   0.647   4.541   3.506 -0.0966 -2.0338  3.3411
 6558SOL     OW31309   1.972   2.140   2.936  0.4324 -0.2101  0.3472
 6558SOL    HW131310   1.949   2.106   2.850  0.0994 -1.2511  0.8377
 6558SOL    HW231311   1.957   2.231   2.911  2.0281  0.3561  1.4529
 6559SOL     OW31312   4.229   1.029  14.936  0.6049  0.5963 -0.2504
 6559SOL    HW131313   4.154   1.055  14.989  3.3469  3.8102  2.1367
 6559SOL    HW231314   4.202   0.942  14.905  3.0668 -0.5819  0.8581
 6560SOL     OW31315   4.484   1.041  15.923 -0.7773 -0.5008  0.0786
 6560SOL    HW131316   4.482   0.998  16.009 -0.5742 -0.4174  0.1236
 6560SOL    HW231317   4.539   1.118  15.931  0.6896 -1.2284 -3.1677
 6561SOL     OW31318   1.773   0.717   6.157 -0.2541  0.7848  0.8994
 6561SOL    HW131319   1.789   0.754   6.070 -0.2611 -2.5489 -0.5318
 6561SOL    HW231320   1.678   0.707   6.149 -0.3967  0.0380  3.5797
 6562SOL     OW31321   2.864   1.357  11.537  0.2719  0.3031  0.0495
 6562SOL    HW131322   2.938   1.378  11.479  0.4816  0.2736  0.3074
 6562SOL    HW231323   2.823   1.443  11.537 -2.9404 -1.2432 -2.7757
 6563SOL     OW31324   0.000   3.856   5.975 -0.1333  0.4406  0.5035
 6563SOL    HW131325   0.095   3.851   5.962 -0.1429 -0.0502  0.6017
 6563SOL    HW231326   4.702   3.799   5.907 -3.0306  1.8768  0.8385
 6564SOL     OW31327   1.083   3.701   4.824 -0.2201  0.0881 -0.1878
 6564SOL    HW131328   1.152   3.643   4.792  0.1878  0.1335  0.6310
 6564SOL    HW231329   1.101   3.789   4.790  1.4102  0.3359  1.3305
 6565SOL     OW31330   4.156   2.774   3.239  0.6409  0.1649 -0.3042
 6565SOL    HW131331   4.142   2.865   3.264  0.5542  0.4148 -1.2492
 6565SOL    HW231332   4.089   2.763   3.172 -0.4593 -1.3073  1.0412
 6566SOL     OW31333   1.457   2.443   2.248 -0.1004 -0.0004 -0.0904
 6566SOL    HW131334   1.362   2.437   2.241 -0.2635  1.3499  0.9673
 6566SOL    HW231335   1.484   2.457   2.157 -1.3556 -2.8290 -0.9061
 6567SOL     OW31336   3.214   0.393   9.616  0.2360 -0.1122 -0.0260
 6567SOL    HW131337   3.204   0.299   9.631 -2.2195 -0.1587 -2.0903
 6567SOL    HW231338   3.189   0.396   9.524  0.5731 -1.0326 -0.1476
 6568SOL     OW31339   2.867   0.411   8.384 -0.4407 -0.1490  0.6207
 6568SOL    HW131340   2.904   0.423   8.297 -0.4479  1.8152  0.8828
 6568SOL    HW231341   2.825   0.496   8.398  0.5586  0.2078  1.4568
 6569SOL     OW31342   0.726   1.197   9.226  0.3839  0.2471 -0.4933
 6569SOL    HW131343   0.738   1.105   9.251 -4.5567 -0.1540  0.3184
 6569SOL    HW231344   0.715   1.240   9.310 -0.0487  1.6338 -1.2602
 6570SOL     OW31345   4.280   2.448  14.136 -0.5020 -0.0262 -0.2048
 6570SOL    HW131346   4.348   2.496  14.089 -1.1790  1.3353  0.2052
 6570SOL    HW231347   4.222   2.424  14.064 -2.6457  1.6394  0.9551
 6571SOL     OW31348   3.074   4.557   9.313  0.6667 -0.2285 -0.2923
 6571SOL    HW131349   3.016   4.482   9.321 -2.9092  2.3949 -1.6036
 6571SOL    HW231350   3.152   4.533   9.363  0.3102  0.1311  0.4395
 6572SOL     OW31351   3.372   1.541   5.824  0.0706  0.3970  0.7925
 6572SOL    HW131352   3.450   1.532   5.769  1.4287  1.8823  2.4742
 6572SOL    HW231353   3.410   1.537   5.911  1.0693 -1.9147  0.2524
 6573SOL     OW31354   1.610   1.683   4.953  0.2929 -0.3710 -0.2092
 6573SOL    HW131355   1.552   1.638   5.014 -1.6413  0.7613 -1.1916
 6573SOL    HW231356   1.686   1.626   4.944  1.5246  1.5330 -1.9669
 6574SOL     OW31357   1.857   0.628   6.546 -0.4159 -0.4354  0.1286
 6574SOL    HW131358   1.761   0.631   6.542 -0.3463  1.1931 -0.4480
 6574SOL    HW231359   1.877   0.616   6.453  0.9127  1.1745  0.2103
 6575SOL     OW31360   4.404   4.623   0.630  0.0539 -0.1863 -0.2247
 6575SOL    HW131361   4.379   4.555   0.567 -1.4564  0.6763 -0.5618
 6575SOL    HW231362   4.427   4.575   0.710 -0.9634  0.5601  0.5110
 6576SOL     OW31363   2.731   3.613  13.519 -0.4308 -0.1801 -0.1953
 6576SOL    HW131364   2.763   3.543  13.461  0.5593 -0.3717  0.5908
 6576SOL    HW231365   2.720   3.564  13.600 -2.2237  0.4627 -0.0568
 6577SOL     OW31366   3.972   3.930   4.706  0.0415 -0.3975 -0.9702
 6577SOL    HW131367   4.016   3.917   4.622 -0.9044  2.6835 -1.9649
 6577SOL    HW231368   3.883   3.934   4.672 -0.2816  1.0239  0.0152
 6578SOL     OW31369   4.397   0.848   9.607  0.3435  0.3579 -0.4677
 6578SOL    HW131370   4.492   0.855   9.601  0.4197 -0.9516 -0.7556
 6578SOL    HW231371   4.373   0.921   9.549  1.7006  0.5003 -0.8497
 6579SOL     OW31372   3.187   1.411   5.672  0.2101 -0.6145 -0.0673
 6579SOL    HW131373   3.240   1.460   5.734 -1.4313  1.5660 -0.3700
 6579SOL    HW231374   3.238   1.334   5.647  1.4372  0.9443 -2.3689
 6580SOL     OW31375   0.949   3.055   5.798  0.1201  0.0013 -0.3758
 6580SOL    HW131376   0.973   2.998   5.872 -1.0010 -0.2805 -0.2382
 6580SOL    HW231377   1.002   3.015   5.729 -0.5198  0.6705 -1.2577
 6581SOL     OW31378   0.889   2.436  17.458  0.0543 -0.1884 -0.0044
 6581SOL    HW131379   0.806   2.469  17.424 -1.5363 -1.6069  2.4300
 6581SOL    HW231380   0.888   2.343  17.432  0.4139  0.5805 -2.7438
 6582SOL     OW31381   1.898   3.078  13.326 -0.6062  0.0489  0.2347
 6582SOL    HW131382   1.958   3.012  13.360 -0.1362 -0.0215 -0.7299
 6582SOL    HW231383   1.865   3.127  13.401  1.5688  1.3967  0.3182
 6583SOL     OW31384   4.386   2.800   7.209 -0.0962 -0.0149  0.5621
 6583SOL    HW131385   4.481   2.809   7.201 -0.3153 -0.0261 -1.9901
 6583SOL    HW231386   4.356   2.889   7.226  0.3839 -0.0043  1.3398
 6584SOL     OW31387   1.042   1.665  14.929  0.4119  0.1948 -0.1204
 6584SOL    HW131388   1.124   1.617  14.943  0.9808  0.7513 -1.5389
 6584SOL    HW231389   0.985   1.592  14.905 -0.4244  0.8313 -0.0549
 6585SOL     OW31390   1.190   1.103   7.768 -0.7669  0.0592 -0.2575
 6585SOL    HW131391   1.226   1.090   7.680  0.2592 -1.4344  0.3879
 6585SOL    HW231392   1.143   1.185   7.753  1.4077  1.2779 -0.4461
 6586SOL     OW31393   1.099   0.603   5.245  0.4125 -0.3071  0.0468
 6586SOL    HW131394   1.129   0.690   5.273  1.6704 -1.0748  1.0633
 6586SOL    HW231395   1.051   0.597   5.328  1.2424 -2.6585  0.3489
 6587SOL     OW31396   0.170   1.620   6.376  0.3755 -0.2029 -0.2927
 6587SOL    HW131397   0.258   1.620   6.414 -0.0641 -2.0480  0.7601
 6587SOL    HW231398   0.176   1.688   6.310  1.9705 -0.2084 -0.1525
 6588SOL     OW31399   3.721   1.291  16.031  0.0154 -0.1540  0.1037
 6588SOL    HW131400   3.759   1.367  15.987 -1.2999  0.6591  0.3689
 6588SOL    HW231401   3.645   1.266  15.978  1.3238 -2.1146 -0.8323
 6589SOL     OW31402   3.406   1.042   3.922 -0.0696  0.8893 -0.3659
 6589SOL    HW131403   3.417   1.026   3.828  0.1207  2.8574 -0.6818
 6589SOL    HW231404   3.433   1.134   3.928 -1.0862  1.2665 -1.5413
 6590SOL     OW31405   1.961   1.414  11.317 -0.5164  0.3690  0.4271
 6590SOL    HW131406   1.918   1.436  11.234  0.2209  0.5103  0.0821
 6590SOL    HW231407   1.988   1.323  11.302 -0.8005  0.2342  0.7366
 6591SOL     OW31408   2.860   0.747  11.779 -0.1874  0.4276  0.1871
 6591SOL    HW131409   2.843   0.837  11.805 -1.3842  0.0343  0.7812
 6591SOL    HW231410   2.784   0.696  11.807  2.6222 -2.6782  2.2866
 6592SOL     OW31411   1.162   4.394   0.493 -1.0162  0.0298  0.7762
 6592SOL    HW131412   1.239   4.347   0.463 -0.0958  1.1592  1.3938
 6592SOL    HW231413   1.122   4.388   0.406 -1.4017 -0.0035  0.9515
 6593SOL     OW31414   1.295   3.196  17.200 -0.2308  0.4556  0.0513
 6593SOL    HW131415   1.322   3.105  17.212 -0.7711  0.2065 -0.6445
 6593SOL    HW231416   1.244   3.191  17.119 -0.1518 -1.4300  0.1193
 6594SOL     OW31417   1.954   0.712   3.798  0.9514 -0.2959 -0.0681
 6594SOL    HW131418   2.036   0.760   3.785 -0.9426  2.3700 -1.9942
 6594SOL    HW231419   1.945   0.646   3.730  0.1793 -0.8373  0.5557
 6595SOL     OW31420   3.587   0.659   5.524 -0.0024 -0.4882 -0.2331
 6595SOL    HW131421   3.525   0.586   5.531  0.4149 -0.8067  0.0633
 6595SOL    HW231422   3.654   0.639   5.589  2.0242  2.1747 -1.5582
 6596SOL     OW31423   4.004   0.708   2.388 -0.1505 -0.1611  0.1494
 6596SOL    HW131424   3.911   0.693   2.404  0.0455 -1.2172  0.2826
 6596SOL    HW231425   3.993   0.775   2.320 -0.0508 -0.1680  0.1251
 6597SOL     OW31426   4.184   3.652   3.593 -0.1740  0.0875  0.3854
 6597SOL    HW131427   4.187   3.613   3.505  2.4497 -1.5676  1.1907
 6597SOL    HW231428   4.098   3.618   3.618  0.1439  0.0306  1.3952
 6598SOL     OW31429   4.394   0.720  15.085  0.4151 -0.9766 -0.3036
 6598SOL    HW131430   4.434   0.641  15.123  1.2668 -0.5041 -0.2187
 6598SOL    HW231431   4.346   0.684  15.010 -1.3358 -1.0770  0.8987
 6599SOL     OW31432   2.578   1.538   6.785  0.0316 -0.0632  0.0230
 6599SOL    HW131433   2.487   1.566   6.795  1.0446  2.3292  2.5844
 6599SOL    HW231434   2.579   1.496   6.699  0.5039 -2.4903  1.2310
 6600SOL     OW31435   1.282   3.640   9.792  0.1652 -0.1933  0.1239
 6600SOL    HW131436   1.263   3.721   9.746 -1.0112 -0.3029  0.4111
 6600SOL    HW231437   1.271   3.662   9.885 -0.0146  2.2873 -0.4956
 6601SOL     OW31438   4.229   0.264   9.422  0.7102 -0.2121 -0.0345
 6601SOL    HW131439   4.222   0.336   9.485  0.3432 -1.5453  1.4378
 6601SOL    HW231440   4.324   0.250   9.427  1.2720  3.2677 -0.7269
 6602SOL     OW31441   1.989   0.837  17.319 -0.1807 -0.0934  0.4805
 6602SOL    HW131442   2.061   0.825  17.380  0.6041 -1.1977 -0.6607
 6602SOL    HW231443   1.983   0.933  17.315  0.9951  0.0318  1.7618
 6603SOL     OW31444   2.593   0.365   7.883  0.1584  0.1063  0.2604
 6603SOL    HW131445   2.599   0.320   7.799 -1.1272  0.6735 -0.1379
 6603SOL    HW231446   2.512   0.414   7.869 -1.0952 -2.1842 -0.4709
 6604SOL     OW31447   0.654   4.168  11.147  0.3884 -0.2490  0.6988
 6604SOL    HW131448   0.669   4.074  11.134  0.8519 -0.1864  0.7887
 6604SOL    HW231449   0.610   4.180  11.062  2.6487  0.2013 -0.4008
 6605SOL     OW31450   0.307   0.785   8.336  0.0779 -0.3972 -0.1862
 6605SOL    HW131451   0.351   0.727   8.274  1.9882  1.2965 -0.4181
 6605SOL    HW231452   0.350   0.868   8.317 -1.8699  1.2425  2.4792
 6606SOL     OW31453   1.666   2.922   7.927 -0.4059 -0.0071  0.0957
 6606SOL    HW131454   1.656   3.008   7.886 -1.9205  0.5086  1.5216
 6606SOL    HW231455   1.691   2.871   7.850 -1.8171 -0.9532  0.2553
 6607SOL     OW31456   4.571   3.635   2.366 -0.0722  0.0210 -0.5429
 6607SOL    HW131457   4.652   3.595   2.398 -1.1436 -0.7565  1.1892
 6607SOL    HW231458   4.602   3.725   2.360  0.0791 -0.0446 -0.7905
 6608SOL     OW31459   3.311   2.931   5.599  0.2040  0.1507  0.1498
 6608SOL    HW131460   3.235   2.989   5.594 -0.0135 -0.1306  0.1473
 6608SOL    HW231461   3.273   2.859   5.548  0.6503  1.5430 -2.1554
 6609SOL     OW31462   2.009   0.177   3.727 -0.6385 -0.1840 -0.0287
 6609SOL    HW131463   1.985   0.084   3.731  0.1467 -0.3412  0.8942
 6609SOL    HW231464   2.063   0.183   3.805 -0.0901 -1.3456 -0.3160
 6610SOL     OW31465   3.700   2.591   7.922  0.6952  0.3398 -0.7376
 6610SOL    HW131466   3.724   2.609   8.013  1.5167 -0.1597 -0.8578
 6610SOL    HW231467   3.785   2.603   7.879  1.4359 -0.5596  0.4641
 6611SOL     OW31468   1.570   1.734   3.139  0.4338 -0.2095  0.2914
 6611SOL    HW131469   1.543   1.672   3.072 -0.9808 -1.3736  1.9450
 6611SOL    HW231470   1.562   1.811   3.083 -0.9480 -0.2426  0.4616
 6612SOL     OW31471   1.609   1.169   4.115 -0.6227 -0.6766 -0.1522
 6612SOL    HW131472   1.614   1.100   4.050 -2.1257  1.3428 -2.4268
 6612SOL    HW231473   1.696   1.208   4.110 -0.0400 -1.9666 -0.0459
 6613SOL     OW31474   2.833   4.724   6.458 -0.5923 -0.8339 -0.2220
 6613SOL    HW131475   2.906   4.738   6.397  0.3909 -1.3793  0.8316
 6613SOL    HW231476   2.828   0.078   6.484 -2.0289 -1.3004  1.1300
 6614SOL     OW31477   0.944   3.372   3.113 -0.6790 -0.1962  0.0610
 6614SOL    HW131478   0.874   3.371   3.047 -0.9170 -0.8451  0.3255
 6614SOL    HW231479   0.892   3.347   3.190 -0.9337 -1.0949 -0.4036
 6615SOL     OW31480   3.832   4.212  15.872 -0.5312 -0.7657 -0.0924
 6615SOL    HW131481   3.763   4.264  15.833  0.0556 -0.7141 -1.0634
 6615SOL    HW231482   3.905   4.273  15.878  0.3068 -1.7575 -0.1037
 6616SOL     OW31483   4.172   3.727   8.719 -0.0258 -0.3207  0.4301
 6616SOL    HW131484   4.219   3.643   8.714 -1.5004 -1.1821  0.9941
 6616SOL    HW231485   4.169   3.763   8.630 -0.1183 -4.7921 -1.3996
 6617SOL     OW31486   0.061   3.808   9.602 -0.2587 -0.6792 -0.5099
 6617SOL    HW131487   0.112   3.789   9.681 -0.8798  0.8867  0.2798
 6617SOL    HW231488   4.718   3.758   9.617 -1.2086  0.3397 -2.1625
 6618SOL     OW31489   4.510   0.950   1.419 -0.1685 -0.2751  0.1050
 6618SOL    HW131490   4.556   0.973   1.500  0.8090  1.1015 -0.8461
 6618SOL    HW231491   4.509   1.035   1.376  0.9785 -0.2747  0.0751
 6619SOL     OW31492   1.747   4.211   7.983  0.3159  0.4034 -0.2430
 6619SOL    HW131493   1.653   4.222   7.968  0.1971  0.7156  0.7394
 6619SOL    HW231494   1.744   4.171   8.070  1.9086  1.8467  0.4843
 6620SOL     OW31495   4.016   1.994   8.612  0.0219 -0.1531 -0.1606
 6620SOL    HW131496   4.092   1.939   8.594  2.0619  1.9404  2.0213
 6620SOL    HW231497   3.941   1.935   8.607 -1.6312  1.9110  0.1679
 6621SOL     OW31498   3.025   0.245   4.575  0.1898 -0.4333 -0.3667
 6621SOL    HW131499   2.933   0.249   4.551 -0.2101  2.4633  1.7033
 6621SOL    HW231500   3.038   0.339   4.583 -0.7816 -0.2910 -0.4359
 6622SOL     OW31501   4.179   2.740   4.079  0.1703 -0.1475 -0.0170
 6622SOL    HW131502   4.096   2.785   4.063 -0.2977 -1.2656 -0.7005
 6622SOL    HW231503   4.162   2.663   4.025  1.0249 -0.6889  0.4847
 6623SOL     OW31504   0.615   1.864   2.259  0.4646  0.5657  0.0019
 6623SOL    HW131505   0.635   1.890   2.349 -1.0385  1.8636 -0.0323
 6623SOL    HW231506   0.528   1.825   2.269  0.9824 -0.6162 -0.0962
 6624SOL     OW31507   1.020   3.824   5.253 -0.3261  0.7087 -0.2297
 6624SOL    HW131508   1.100   3.861   5.215  0.0378 -1.1906 -1.3267
 6624SOL    HW231509   1.051   3.798   5.339 -1.5447 -1.3991 -0.4302
 6625SOL     OW31510   3.505   1.401   9.477  0.3620 -0.1541  0.7761
 6625SOL    HW131511   3.433   1.442   9.523  0.1904 -0.1130  0.4728
 6625SOL    HW231512   3.477   1.424   9.388  1.2273  2.6153  1.2336
 6626SOL     OW31513   4.204   1.434   3.483  0.2709 -0.1543 -0.0089
 6626SOL    HW131514   4.286   1.411   3.440 -0.8955 -1.2334 -1.6323
 6626SOL    HW231515   4.142   1.393   3.423  0.9158 -0.2797 -0.5925
 6627SOL     OW31516   2.968   0.505   4.662 -0.0095  0.3139 -0.1161
 6627SOL    HW131517   2.893   0.552   4.700 -1.2390  0.0335 -2.2111
 6627SOL    HW231518   3.037   0.521   4.726  1.6963 -3.3213 -1.0380
 6628SOL     OW31519   0.270   0.228  10.203  0.4442 -0.7407  0.3917
 6628SOL    HW131520   0.189   0.201  10.159  2.3077 -1.7952 -2.3941
 6628SOL    HW231521   0.289   0.145  10.248  0.4608 -0.1748  1.4282
 6629SOL     OW31522   2.925   3.248   2.596 -0.8699  0.3216  0.1636
 6629SOL    HW131523   3.007   3.198   2.588 -1.2361 -0.6134  2.1580
 6629SOL    HW231524   2.898   3.261   2.506 -0.4424  0.8033  0.1010
 6630SOL     OW31525   1.609   1.275  11.255 -0.4533  0.0711 -0.5527
 6630SOL    HW131526   1.654   1.335  11.195  0.1017  0.8470  0.6484
 6630SOL    HW231527   1.620   1.194  11.206  0.7152  0.2488 -0.5855
 6631SOL     OW31528   0.558   3.792  13.507 -0.4194 -0.2295 -0.7556
 6631SOL    HW131529   0.478   3.843  13.498 -0.4622 -0.2643 -0.5715
 6631SOL    HW231530   0.628   3.842  13.465 -1.8614  0.9080 -1.8056
 6632SOL     OW31531   2.378   0.581  11.608  0.3651  0.5453  0.1037
 6632SOL    HW131532   2.473   0.584  11.618  0.6856 -1.3476 -2.2123
 6632SOL    HW231533   2.346   0.580  11.698  2.1526  2.1151  0.7359
 6633SOL     OW31534   0.956   2.439   2.849 -0.2089 -0.0086  0.5686
 6633SOL    HW131535   0.926   2.494   2.777  0.9376 -1.1530 -0.7838
 6633SOL    HW231536   0.990   2.363   2.801  0.8104  0.4066  0.6357
 6634SOL     OW31537   0.450   2.670   7.123 -0.0281  0.3407 -0.0692
 6634SOL    HW131538   0.493   2.631   7.046  0.0752 -0.5811  0.4541
 6634SOL    HW231539   0.422   2.588   7.164  1.5866 -0.3129 -0.2995
 6635SOL     OW31540   0.036   4.020  11.789  0.3544  0.0221 -0.2505
 6635SOL    HW131541   4.709   4.043  11.857 -0.9221  0.0665 -1.4846
 6635SOL    HW231542   0.088   4.100  11.784  1.3842 -0.5208  1.4867
 6636SOL     OW31543   2.741   0.931   9.346 -0.0185  0.3921 -0.3101
 6636SOL    HW131544   2.785   1.002   9.394  1.0768  2.2899 -4.0868
 6636SOL    HW231545   2.786   0.942   9.262  0.8898 -0.4585  0.0576
 6637SOL     OW31546   1.129   2.036  11.501 -0.0819 -0.8776  0.4000
 6637SOL    HW131547   1.170   1.987  11.572  0.1790 -0.7325  0.3511
 6637SOL    HW231548   1.075   1.979  11.446 -1.6414  1.7939 -0.8356
 6638SOL     OW31549   0.003   2.612   3.093 -0.2647 -0.3802  0.3629
 6638SOL    HW131550   0.037   2.573   3.012 -1.4828 -0.0334 -0.3208
 6638SOL    HW231551   0.047   2.556   3.157 -0.0595  0.1647  0.6895
 6639SOL     OW31552   2.391   2.311   0.241  0.0946  0.2012  0.1833
 6639SOL    HW131553   2.463   2.371   0.261  0.5633 -0.8810  1.7512
 6639SOL    HW231554   2.344   2.360   0.174 -0.7133 -2.3903 -1.1408
 6640SOL     OW31555   3.558   3.367   7.273 -0.8764 -0.1132 -0.4053
 6640SOL    HW131556   3.616   3.339   7.202 -0.1516 -2.3158  1.0962
 6640SOL    HW231557   3.527   3.452   7.240 -0.8351  0.8146  1.9086
 6641SOL     OW31558   2.800   2.791   6.972 -0.1856 -0.2189 -0.2080
 6641SOL    HW131559   2.814   2.705   7.011  0.4622 -0.6040 -1.2820
 6641SOL    HW231560   2.780   2.844   7.048  3.2031  1.4910 -0.4832
 6642SOL     OW31561   3.442   1.113   8.059  0.3014  0.5364  0.6580
 6642SOL    HW131562   3.504   1.040   8.062 -0.4516 -0.1764 -0.7459
 6642SOL    HW231563   3.381   1.096   8.130  1.8889  0.6092  2.0321
 6643SOL     OW31564   0.511   1.252   8.739 -0.1199  0.8369 -0.1204
 6643SOL    HW131565   0.526   1.186   8.672  1.1413  2.3667 -1.3243
 6643SOL    HW231566   0.415   1.259   8.732 -0.2985 -0.0787  1.4475
 6644SOL     OW31567   1.808   0.930   8.570  0.2732  0.3654  0.2026
 6644SOL    HW131568   1.816   1.011   8.520 -0.7263  0.5692  0.3697
 6644SOL    HW231569   1.896   0.895   8.557  0.6747  1.6417 -0.5525
 6645SOL     OW31570   0.128   4.620   8.607 -0.0090 -0.0901 -0.0942
 6645SOL    HW131571   0.219   4.622   8.578 -0.0607  0.0654 -0.2423
 6645SOL    HW231572   0.140   4.651   8.697  2.7320 -2.1064  0.2416
 6646SOL     OW31573   3.157   1.873  15.742 -0.7895  0.3981 -0.0133
 6646SOL    HW131574   3.234   1.929  15.759 -1.0837  0.4902  0.9922
 6646SOL    HW231575   3.086   1.928  15.774  0.6190  1.3614  1.4868
 6647SOL     OW31576   0.076   3.397  12.822 -0.4128  0.2657 -0.1524
 6647SOL    HW131577   0.063   3.444  12.905  0.6465  0.0983  0.1016
 6647SOL    HW231578   0.150   3.338  12.836  0.7240  1.6293 -0.3848
 6648SOL     OW31579   3.127   3.103   2.024 -0.6410  0.0812  0.1300
 6648SOL    HW131580   3.184   3.167   2.067 -0.4951 -1.2730  1.9492
 6648SOL    HW231581   3.189   3.056   1.968  0.2124 -2.8869  3.5800
 6649SOL     OW31582   1.009   3.205   2.818 -0.1050  0.2009  0.0280
 6649SOL    HW131583   0.935   3.243   2.772  0.5089 -0.0759 -1.1959
 6649SOL    HW231584   1.069   3.280   2.813 -1.1807  1.0783  0.3194
 6650SOL     OW31585   4.540   0.174   4.996 -0.7371  0.6324  0.3056
 6650SOL    HW131586   4.542   0.269   5.005 -0.7567  0.6541  0.0661
 6650SOL    HW231587   4.451   0.157   5.028 -0.6693  0.6023  0.4775
 6651SOL     OW31588   3.266   0.731  14.720  0.2545 -0.3686 -0.0928
 6651SOL    HW131589   3.262   0.820  14.756  0.4811 -0.0835 -0.7656
 6651SOL    HW231590   3.346   0.736  14.668 -0.0249  0.9933 -0.3984
 6652SOL     OW31591   4.268   2.708   2.591  0.4003 -0.5506 -0.0222
 6652SOL    HW131592   4.207   2.775   2.622 -1.6179 -3.6589  2.6712
 6652SOL    HW231593   4.241   2.701   2.499 -3.0964  0.9392  0.8759
 6653SOL     OW31594   3.846   2.539  12.762  0.1369  0.6619 -0.2017
 6653SOL    HW131595   3.933   2.566  12.792  0.8256  0.4557 -2.0389
 6653SOL    HW231596   3.859   2.449  12.733 -1.1407 -0.0307  1.3625
 6654SOL     OW31597   1.249   3.635  10.852 -0.2533  0.6439 -0.3871
 6654SOL    HW131598   1.278   3.544  10.851  0.4990  0.8745  1.0274
 6654SOL    HW231599   1.276   3.664  10.765  0.3351 -0.7250 -0.6447
 6655SOL     OW31600   3.417   3.453   0.735  0.3875  0.4461 -0.6763
 6655SOL    HW131601   3.463   3.373   0.711  1.4141  0.2971  1.7881
 6655SOL    HW231602   3.335   3.408   0.757  1.1020 -0.7516 -0.4694
 6656SOL     OW31603   1.519   4.207   7.209 -0.1647 -0.3222  0.0985
 6656SOL    HW131604   1.470   4.126   7.219  0.5272 -0.6601  0.7966
 6656SOL    HW231605   1.454   4.263   7.166  1.1569  2.6318  1.9119
 6657SOL     OW31606   1.477   2.497   7.272 -0.1780  0.4913 -0.0711
 6657SOL    HW131607   1.512   2.409   7.266  1.1004  0.9683  0.4732
 6657SOL    HW231608   1.559   2.546   7.276  0.8232 -1.3818  1.7633
 6658SOL     OW31609   2.365   1.542   7.631 -0.3358  0.1035  0.2765
 6658SOL    HW131610   2.369   1.635   7.611  3.3459 -0.3949 -1.3503
 6658SOL    HW231611   2.408   1.540   7.716  1.0979  0.6772 -0.4398
 6659SOL     OW31612   0.323   4.307   5.495 -0.0791  0.0218 -0.1174
 6659SOL    HW131613   0.358   4.269   5.415 -0.4589  1.6935 -1.0683
 6659SOL    HW231614   0.351   4.236   5.553 -1.8233 -0.2025  0.4596
 6660SOL     OW31615   2.485   2.388   6.496  0.2617  0.5743 -0.0653
 6660SOL    HW131616   2.487   2.356   6.406 -1.9581  2.7462 -0.8627
 6660SOL    HW231617   2.557   2.451   6.499  0.0647  0.8403 -0.9028
 6661SOL     OW31618   4.376   3.948   6.636  0.2271  0.6151  0.4672
 6661SOL    HW131619   4.467   3.964   6.661  0.9143 -1.9113 -0.3817
 6661SOL    HW231620   4.345   3.875   6.690  1.9711 -0.6935 -0.2983
 6662SOL     OW31621   1.188   1.350   5.619  0.1669 -0.1531  0.3091
 6662SOL    HW131622   1.207   1.333   5.711  2.3538 -0.1237 -0.1332
 6662SOL    HW231623   1.168   1.442   5.633  0.1193 -0.3401  1.4652
 6663SOL     OW31624   3.884   1.117   8.184 -0.0613 -0.1963 -0.1018
 6663SOL    HW131625   3.922   1.029   8.184 -0.7655 -0.5053  0.2106
 6663SOL    HW231626   3.945   1.156   8.246  0.4817 -0.9298 -0.1773
 6664SOL     OW31627   2.700   3.255   4.592 -0.2910  0.3053 -0.0513
 6664SOL    HW131628   2.619   3.301   4.615  0.7668  1.1243  2.1267
 6664SOL    HW231629   2.751   3.321   4.545  0.9887  0.4245  1.5078
 6665SOL     OW31630   4.729   1.145   2.361 -0.0346 -0.2825 -0.0676
 6665SOL    HW131631   0.045   1.202   2.415 -0.7360 -2.6017  3.0532
 6665SOL    HW231632   4.650   1.160   2.413 -0.9717  2.3120 -2.2306
 6666SOL     OW31633   2.371   0.034  13.744 -0.2692  0.0896  0.3836
 6666SOL    HW131634   2.395   0.099  13.809  0.9701  0.8339 -0.8130
 6666SOL    HW231635   2.413   4.692  13.775 -1.2398  0.2523  2.1165
 6667SOL     OW31636   0.666   3.226   7.968  0.2809 -0.4208 -0.4242
 6667SOL    HW131637   0.598   3.162   7.989 -1.0517  1.6100  1.4617
 6667SOL    HW231638   0.715   3.174   7.905 -1.1581 -2.4389  0.1420
 6668SOL     OW31639   1.680   0.732   0.429  0.1970  0.0666 -0.3942
 6668SOL    HW131640   1.597   0.770   0.400  0.2344  0.7289  0.3868
 6668SOL    HW231641   1.654   0.641   0.417  2.9244 -0.3673 -3.0344
 6669SOL     OW31642   0.947   0.093   6.083  0.0129  0.1536  0.3411
 6669SOL    HW131643   0.899   0.169   6.050 -0.8325 -0.4742  0.1275
 6669SOL    HW231644   0.996   0.069   6.005 -0.8408 -0.2960 -0.0548
 6670SOL     OW31645   3.885   4.113  10.748  0.1348  0.2065  0.0841
 6670SOL    HW131646   3.968   4.135  10.707 -0.4857  1.9718 -0.2053
 6670SOL    HW231647   3.855   4.189  10.797  3.2740  1.4024  0.0895
 6671SOL     OW31648   1.689   1.792   2.768 -0.7103 -0.4389  0.1205
 6671SOL    HW131649   1.627   1.851   2.811  1.8455  1.3299  1.4807
 6671SOL    HW231650   1.672   1.705   2.803  1.5113 -0.9381  0.0057
 6672SOL     OW31651   0.867   2.039   2.931  0.1426  0.5524  0.6861
 6672SOL    HW131652   0.869   2.041   3.027  0.3401  1.3608  0.6581
 6672SOL    HW231653   0.954   2.074   2.912  1.4287 -2.4861  0.8546
 6673SOL     OW31654   4.311   1.320   2.847 -0.1720  0.2425 -0.8312
 6673SOL    HW131655   4.258   1.241   2.854  0.6060 -0.3521 -1.7045
 6673SOL    HW231656   4.253   1.377   2.899 -1.3094 -2.6702  1.0588
 6674SOL     OW31657   3.204   4.201   9.603  0.1495  0.3533  0.3715
 6674SOL    HW131658   3.277   4.239   9.554  1.6070 -1.1203  1.3594
 6674SOL    HW231659   3.248   4.138   9.661  0.7828  0.5967  0.1587
 6675SOL     OW31660   3.511   0.073   1.413 -0.0071  0.2335 -0.1621
 6675SOL    HW131661   3.575   0.133   1.373 -0.4418 -0.5395 -2.0384
 6675SOL    HW231662   3.474   0.136   1.475  0.2976 -0.4481  0.6998
 6676SOL     OW31663   1.435   4.361   2.296 -0.5988 -0.0983  1.1715
 6676SOL    HW131664   1.403   4.274   2.322 -2.6153  1.0774  2.6413
 6676SOL    HW231665   1.520   4.360   2.340  0.3799 -1.5810 -0.7682
 6677SOL     OW31666   3.040   1.400  12.262 -0.2100 -0.0710 -0.3451
 6677SOL    HW131667   3.069   1.316  12.297  2.6828  1.4104  0.7299
 6677SOL    HW231668   2.980   1.376  12.191  1.5575 -1.5554 -1.3396
 6678SOL     OW31669   2.865   1.165   3.425  0.2643  0.4520  0.3020
 6678SOL    HW131670   2.824   1.224   3.362  0.4385 -0.3460 -0.5567
 6678SOL    HW231671   2.816   1.196   3.501 -0.2372 -0.0441  0.1806
 6679SOL     OW31672   0.934   1.517  10.070  0.2471 -0.1093 -0.4529
 6679SOL    HW131673   0.911   1.505   9.977  3.0769 -1.9787 -0.9086
 6679SOL    HW231674   0.911   1.609  10.080 -0.3666 -0.4511  1.2114
 6680SOL     OW31675   3.289   1.656   8.797 -0.2952 -0.1328  0.3666
 6680SOL    HW131676   3.222   1.675   8.731 -0.3831  0.2676  0.5736
 6680SOL    HW231677   3.332   1.740   8.810  0.6623 -0.7193  0.9701
 6681SOL     OW31678   2.837   4.723   6.848  0.1239 -0.1395  0.0252
 6681SOL    HW131679   2.868   0.075   6.859  0.2266 -0.1857  0.1116
 6681SOL    HW231680   2.912   4.694   6.796  1.9382  2.9072  0.9234
 6682SOL     OW31681   2.937   1.386  10.817  0.2144  0.0969  0.1757
 6682SOL    HW131682   3.029   1.411  10.825  0.3609  0.3706 -2.1570
 6682SOL    HW231683   2.902   1.447  10.882  0.0144 -0.6441  0.7463
 6683SOL     OW31684   3.134   1.911  11.903 -0.1932 -0.3869  0.9310
 6683SOL    HW131685   3.228   1.908  11.921  0.0613  0.9572 -0.1501
 6683SOL    HW231686   3.100   1.823  11.889 -0.6736 -0.0889  0.2752
 6684SOL     OW31687   2.501   1.387   6.550 -0.0393 -0.0284  0.6007
 6684SOL    HW131688   2.484   1.311   6.494 -2.9183  0.3645  0.9609
 6684SOL    HW231689   2.478   1.460   6.492  1.5836 -0.4912 -0.6358
 6685SOL     OW31690   1.999   1.375   8.012  0.3742  0.2755  0.5204
 6685SOL    HW131691   1.940   1.429   7.960 -0.0203 -2.0593 -1.4604
 6685SOL    HW231692   1.952   1.373   8.095  1.4934  1.2438  1.1643
 6686SOL     OW31693   2.596   1.542   9.536  0.0511  0.1296 -0.3228
 6686SOL    HW131694   2.554   1.538   9.450  0.0038  2.7709 -0.4488
 6686SOL    HW231695   2.548   1.480   9.590 -2.3072  3.1462  1.0573
 6687SOL     OW31696   3.641   0.486  16.474  0.7589  0.7912 -0.1136
 6687SOL    HW131697   3.579   0.415  16.455  0.4563  0.6134  1.5205
 6687SOL    HW231698   3.723   0.445  16.444  1.1107  0.3217  1.4857
 6688SOL     OW31699   0.367   0.031   1.057  0.0990 -0.0323 -0.0340
 6688SOL    HW131700   0.326   4.688   1.088  0.0337  0.9623  2.4933
 6688SOL    HW231701   0.458   0.002   1.043  0.3384  0.1060  1.2468
 6689SOL     OW31702   1.380   1.667   5.904 -1.0169  0.0023  0.3748
 6689SOL    HW131703   1.328   1.747   5.913 -1.3063 -0.2773  1.2875
 6689SOL    HW231704   1.353   1.616   5.981  2.8802  0.1579  1.8670
 6690SOL     OW31705   0.692   1.996   4.882  0.4107  0.4357  0.0963
 6690SOL    HW131706   0.746   2.063   4.839 -2.4316  0.9483 -2.6992
 6690SOL    HW231707   0.719   2.015   4.972  0.8605  1.1708 -0.1895
 6691SOL     OW31708   0.735   2.342   1.474  0.0084  0.1544  0.6635
 6691SOL    HW131709   0.693   2.256   1.474 -0.4686  0.3913  1.1672
 6691SOL    HW231710   0.820   2.307   1.445 -1.1048 -0.6685 -1.6335
 6692SOL     OW31711   3.431   1.141   2.727 -0.5893 -0.3494  0.3757
 6692SOL    HW131712   3.508   1.195   2.747  1.0613 -1.7272 -2.2343
 6692SOL    HW231713   3.446   1.053   2.761 -1.2777 -1.2479 -1.6565
 6693SOL     OW31714   2.369   0.025   5.573  0.0746  0.1640 -0.4388
 6693SOL    HW131715   2.297   4.700   5.573 -0.4970  0.8130 -2.1362
 6693SOL    HW231716   2.333   0.095   5.628 -2.1464 -0.5120 -1.0353
 6694SOL     OW31717   0.333   1.524   3.561 -0.4708 -0.2361 -0.0884
 6694SOL    HW131718   0.361   1.525   3.470 -1.2838  2.7081 -0.2751
 6694SOL    HW231719   0.394   1.459   3.598 -0.6495 -0.9979 -1.1439
 6695SOL     OW31720   1.534   1.544   6.209  0.5377 -0.2837 -0.2596
 6695SOL    HW131721   1.514   1.573   6.298 -2.6836 -1.2256 -0.6431
 6695SOL    HW231722   1.547   1.629   6.166  0.7184 -0.8620 -1.3367
 6696SOL     OW31723   4.593   2.229  14.371  0.5361 -0.2671  0.1849
 6696SOL    HW131724   4.535   2.154  14.358 -1.6114  1.3743  0.3146
 6696SOL    HW231725   4.675   2.192  14.405 -0.1858 -0.3308  1.8345
 6697SOL     OW31726   1.774   1.591   7.271  0.1624 -0.0502  0.5987
 6697SOL    HW131727   1.745   1.550   7.352 -0.0225 -1.3652 -0.1421
 6697SOL    HW231728   1.698   1.561   7.222  1.0525  1.6015 -1.8257
 6698SOL     OW31729   0.667   2.058   1.478 -0.3978 -0.0016  0.0036
 6698SOL    HW131730   0.624   2.000   1.540 -2.3661  1.0357 -0.4141
 6698SOL    HW231731   0.697   1.993   1.414 -3.5537 -1.8379  0.3846
 6699SOL     OW31732   2.718   1.350   5.084  0.4091 -0.1427 -0.2663
 6699SOL    HW131733   2.784   1.281   5.088 -0.6955 -0.9595  3.7242
 6699SOL    HW231734   2.769   1.419   5.044  0.4681 -0.6667 -1.1000
 6700SOL     OW31735   2.970   0.491   6.014 -0.1693  0.6745  0.0947
 6700SOL    HW131736   2.998   0.404   5.988  2.6068  1.7459 -0.5187
 6700SOL    HW231737   2.883   0.492   5.973  0.3251 -0.9361 -0.9849
 6701SOL     OW31738   3.871   0.427   2.860  0.1907 -0.2769  0.1958
 6701SOL    HW131739   3.789   0.441   2.908  1.0105  0.8893  1.2671
 6701SOL    HW231740   3.844   0.376   2.784 -1.1319 -0.4188  0.7559
 6702SOL     OW31741   2.563   2.393   4.287  0.1572  0.4562 -0.1243
 6702SOL    HW131742   2.654   2.365   4.280  0.1543  0.0201  1.5676
 6702SOL    HW231743   2.563   2.475   4.336  0.0472  1.3179 -1.5984
 6703SOL     OW31744   3.439   0.890   5.584  0.2954  0.3744  0.0072
 6703SOL    HW131745   3.481   0.804   5.575  1.5852  0.8714  1.4578
 6703SOL    HW231746   3.353   0.852   5.606  0.5157 -0.0017  0.2297
 6704SOL     OW31747   1.185   1.199   1.872 -0.0154  0.0362 -0.1902
 6704SOL    HW131748   1.211   1.236   1.788 -0.6421  1.4209  0.2359
 6704SOL    HW231749   1.183   1.275   1.930  0.1272 -0.7986  0.9107
 6705SOL     OW31750   0.427   3.482   5.593  0.1530 -0.3308  0.0395
 6705SOL    HW131751   0.462   3.464   5.506 -0.3840 -0.6609 -0.1062
 6705SOL    HW231752   0.480   3.556   5.623  1.0323 -0.9456 -0.0093
 6706SOL     OW31753   0.390   2.707   4.797  0.0875  0.1944 -0.1467
 6706SOL    HW131754   0.314   2.733   4.745 -1.0696 -3.4958 -0.3286
 6706SOL    HW231755   0.463   2.732   4.741  0.9517  0.9097  1.2959
 6707SOL     OW31756   4.182   4.607   8.585 -0.2582  0.8136  0.5462
 6707SOL    HW131757   4.243   4.613   8.658 -1.8941 -1.5615  2.1086
 6707SOL    HW231758   4.135   4.689   8.600 -3.3601 -0.7614 -0.4349
 6708SOL     OW31759   4.125   2.560   3.852 -0.2879 -0.0013 -0.1016
 6708SOL    HW131760   4.069   2.504   3.799  1.9034 -1.8834 -0.3690
 6708SOL    HW231761   4.213   2.534   3.828  0.3198  1.8217  0.1546
 6709SOL     OW31762   0.229   4.547   7.241  0.0960 -0.1290 -0.3443
 6709SOL    HW131763   0.181   4.475   7.200 -0.6839 -0.0601  0.4385
 6709SOL    HW231764   0.250   4.610   7.173 -0.7773  0.8138  0.2734
 6710SOL     OW31765   0.387   1.265   6.976 -0.0111  0.4342  0.4836
 6710SOL    HW131766   0.473   1.250   6.938 -0.0808 -1.9164  1.2280
 6710SOL    HW231767   0.368   1.342   6.922  3.0000 -0.7529 -2.2858
 6711SOL     OW31768   1.532   3.812   3.728  0.4475 -0.0981 -0.4495
 6711SOL    HW131769   1.590   3.736   3.733  0.6677  0.0816 -0.2220
 6711SOL    HW231770   1.582   3.879   3.681 -1.9082  2.2120  0.2952
 6712SOL     OW31771   4.445   1.990  14.331 -0.9743  0.1369 -0.2172
 6712SOL    HW131772   4.402   1.906  14.321 -0.7501 -0.1771  1.4713
 6712SOL    HW231773   4.371   2.048  14.314 -2.0097 -1.1226  0.0599
 6713SOL     OW31774   4.298   1.570   6.573  0.6516  0.6130  0.1559
 6713SOL    HW131775   4.305   1.551   6.667 -2.4791  0.5098  0.3640
 6713SOL    HW231776   4.352   1.500   6.537  1.8367  1.4142  0.3905
 6714SOL     OW31777   3.013   4.051   1.687  0.3198  0.5731 -0.3333
 6714SOL    HW131778   2.925   4.088   1.676 -1.6596 -2.9878  3.2962
 6714SOL    HW231779   3.051   4.133   1.719  1.1954 -0.1806  0.5561
 6715SOL     OW31780   3.985   3.384  16.123  0.2120 -0.1890 -0.2556
 6715SOL    HW131781   4.030   3.325  16.183  1.4086 -0.3592 -1.3333
 6715SOL    HW231782   3.957   3.332  16.048 -1.8703 -0.2049  0.5367
 6716SOL     OW31783   0.988   4.583  14.825  0.2133 -0.2422 -0.1201
 6716SOL    HW131784   0.920   4.607  14.761  0.4318 -0.3447 -0.3900
 6716SOL    HW231785   0.940   4.588  14.908  2.4970  1.3362  1.0901
 6717SOL     OW31786   2.848   0.341   1.307  0.3368  0.5031  0.6072
 6717SOL    HW131787   2.842   0.413   1.370  0.3282 -1.3591  2.7294
 6717SOL    HW231788   2.924   0.379   1.263 -0.5507  2.5041  0.7853
 6718SOL     OW31789   3.962   4.602   0.641  0.6309  0.3053  0.3437
 6718SOL    HW131790   3.957   4.698   0.641 -0.2016  0.2538 -2.0145
 6718SOL    HW231791   4.022   4.571   0.573  1.1156  1.3875  0.2781
 6719SOL     OW31792   0.692   0.132   5.434 -0.2586 -0.7125  0.2138
 6719SOL    HW131793   0.732   0.203   5.384 -0.4743 -1.2351 -0.6868
 6719SOL    HW231794   0.745   0.063   5.394 -0.3368  0.3907 -1.7904
 6720SOL     OW31795   2.887   2.416  17.395 -0.6544  0.2100 -0.8162
 6720SOL    HW131796   2.967   2.379  17.357 -0.9698  0.3232 -1.5802
 6720SOL    HW231797   2.936   2.449  17.471 -2.9307 -0.1929  0.8224
 6721SOL     OW31798   2.814   0.874   6.789 -0.3208 -0.4695  0.3741
 6721SOL    HW131799   2.890   0.931   6.786 -0.4459 -0.4059 -1.8689
 6721SOL    HW231800   2.738   0.927   6.766 -1.0144 -2.4666 -1.9542
 6722SOL     OW31801   3.417   3.579   4.973  0.6743 -0.3934 -0.5655
 6722SOL    HW131802   3.485   3.588   4.907  1.5173  1.3412  0.5249
 6722SOL    HW231803   3.474   3.543   5.041 -1.4977  0.5556  1.7932
 6723SOL     OW31804   0.872   3.342   8.090 -0.1126  0.1986 -1.3597
 6723SOL    HW131805   0.945   3.280   8.080  0.2182  0.5144 -0.9121
 6723SOL    HW231806   0.807   3.304   8.032  1.6269 -4.2579 -0.3915
 6724SOL     OW31807   0.684   2.821   5.589 -0.0077 -0.2669  0.8688
 6724SOL    HW131808   0.610   2.805   5.647  0.4064  0.6337  1.6356
 6724SOL    HW231809   0.652   2.844   5.501  1.4183  0.4187  0.5206
 6725SOL     OW31810   3.786   2.982   0.979 -0.4739  0.1987  0.3574
 6725SOL    HW131811   3.847   2.939   1.039  0.2922 -2.4970 -2.3249
 6725SOL    HW231812   3.710   2.984   1.038 -0.0432  0.4652  0.9047
 6726SOL     OW31813   2.723   3.430   3.632 -0.3167  0.2074  0.3779
 6726SOL    HW131814   2.698   3.459   3.720  0.1727  0.4232  0.4449
 6726SOL    HW231815   2.818   3.428   3.636 -0.2677  2.8172  0.6422
 6727SOL     OW31816   1.337   3.945  12.284  0.0539  0.2689  0.1157
 6727SOL    HW131817   1.351   3.852  12.270  2.0321  0.2875  1.9781
 6727SOL    HW231818   1.267   3.951  12.350 -0.1296  1.3448 -0.1802
 6728SOL     OW31819   3.617   3.117   6.460 -0.4486 -0.7359 -0.0175
 6728SOL    HW131820   3.705   3.149   6.479  0.0287 -1.8529 -0.3546
 6728SOL    HW231821   3.606   3.054   6.532  0.4688  0.2461  0.9914
 6729SOL     OW31822   1.112   3.004  10.236  0.3655 -0.6823 -0.5001
 6729SOL    HW131823   1.088   2.914  10.260  1.0249 -0.2815  1.7250
 6729SOL    HW231824   1.170   2.985  10.163  0.5518  1.6029 -0.9469
 6730SOL     OW31825   2.001   4.636   4.866  0.3505 -0.4033 -0.0113
 6730SOL    HW131826   2.009   4.729   4.887  1.2562 -0.4314 -0.2221
 6730SOL    HW231827   1.924   4.650   4.810  0.2441  2.1763  0.7562
 6731SOL     OW31828   1.186   1.479   6.376  0.3237  0.4324  0.5361
 6731SOL    HW131829   1.149   1.538   6.442  0.5912 -0.4075  1.4421
 6731SOL    HW231830   1.239   1.420   6.430  0.4410  0.5005  0.4954
 6732SOL     OW31831   2.064   2.876   3.990  0.6434 -0.1123 -0.3282
 6732SOL    HW131832   2.044   2.795   3.945 -1.0104  1.8147 -3.0560
 6732SOL    HW231833   2.068   2.944   3.923 -1.4628 -2.2722 -2.6111
 6733SOL     OW31834   2.018   2.491   1.729  0.2233 -0.6166  0.3381
 6733SOL    HW131835   2.006   2.444   1.812  0.8264 -0.3504  0.5816
 6733SOL    HW231836   2.041   2.580   1.755 -0.5136  0.3498 -2.4286
 6734SOL     OW31837   3.831   4.366  10.855  0.2588  0.6388  0.3308
 6734SOL    HW131838   3.884   4.419  10.915 -0.8642 -0.6192  2.4441
 6734SOL    HW231839   3.746   4.371  10.899 -0.1842  2.0644 -0.7036
 6735SOL     OW31840   2.965   3.380   1.097  0.1626  0.3339 -0.2026
 6735SOL    HW131841   2.870   3.370   1.089  0.3652 -0.1866 -2.1097
 6735SOL    HW231842   2.985   3.471   1.118  2.0235 -0.6445  2.2581
 6736SOL     OW31843   1.513   0.560   8.582 -0.1641  0.3528  0.0340
 6736SOL    HW131844   1.540   0.519   8.500  1.6973  0.3433  0.6538
 6736SOL    HW231845   1.600   0.583   8.616  0.3020 -0.5131 -0.5661
 6737SOL     OW31846   1.430   4.285   1.694  0.2584 -0.9160  0.5088
 6737SOL    HW131847   1.428   4.195   1.727 -0.5991 -0.9931  0.2273
 6737SOL    HW231848   1.485   4.324   1.762  0.7555 -1.2511  0.3011
 6738SOL     OW31849   3.832   3.198  16.344 -0.2827 -0.0019  0.1904
 6738SOL    HW131850   3.780   3.267  16.303 -0.7099 -0.6819 -0.4162
 6738SOL    HW231851   3.786   3.183  16.427  1.3447  0.6398  1.2182
 6739SOL     OW31852   0.585   3.940   5.835 -0.4366  0.3622  0.3517
 6739SOL    HW131853   0.679   3.927   5.830 -0.1501  2.3621  0.5192
 6739SOL    HW231854   0.556   3.880   5.904 -1.8094 -0.0978 -0.6339
 6740SOL     OW31855   0.746   1.553   4.355  0.0594  0.0550  0.3908
 6740SOL    HW131856   0.668   1.576   4.305 -0.9817 -0.6107  1.7038
 6740SOL    HW231857   0.784   1.503   4.283 -0.9467 -1.4254  0.8837
 6741SOL     OW31858   4.730   1.073   8.878  0.4835  0.7364 -0.1953
 6741SOL    HW131859   0.060   1.131   8.915  0.2900  1.4222 -0.9036
 6741SOL    HW231860   0.020   0.993   8.922 -0.7032 -0.0337 -0.8554
 6742SOL     OW31861   4.243   0.747  13.230  0.0402 -0.4834  0.0456
 6742SOL    HW131862   4.187   0.701  13.168 -0.3138 -0.7194  0.5436
 6742SOL    HW231863   4.275   0.820  13.177 -0.5792 -0.3370 -0.1195
 6743SOL     OW31864   0.150   2.429   3.244 -0.0969  0.2451 -0.1015
 6743SOL    HW131865   0.122   2.344   3.210  1.6056 -0.3836  0.0830
 6743SOL    HW231866   0.168   2.419   3.338  0.2431  0.1026 -0.1825
 6744SOL     OW31867   4.155   1.891  13.090  0.0184  0.3283 -0.1874
 6744SOL    HW131868   4.087   1.838  13.131  0.8864 -0.6828 -0.0569
 6744SOL    HW231869   4.161   1.960  13.156 -0.2147 -1.6842  1.9428
 6745SOL     OW31870   4.630   4.283   3.684 -0.0597 -0.8156  0.0205
 6745SOL    HW131871   4.594   4.321   3.605  2.3201  2.4623  0.5007
 6745SOL    HW231872   4.657   4.205   3.635  0.1681 -0.3847 -0.5352
 6746SOL     OW31873   0.708   0.778   2.470  0.6798  0.0127  0.3133
 6746SOL    HW131874   0.728   0.706   2.529  0.4942  1.5745  2.2915
 6746SOL    HW231875   0.722   0.744   2.382 -1.2346 -0.6795  0.2699
 6747SOL     OW31876   4.301   1.785   1.893  0.0931 -0.1758  0.5477
 6747SOL    HW131877   4.323   1.820   1.979  0.0552 -2.6622  1.5865
 6747SOL    HW231878   4.342   1.850   1.836 -1.8656  0.6739  0.1251
 6748SOL     OW31879   1.305   1.157  11.148 -0.2470  0.5915 -1.0446
 6748SOL    HW131880   1.230   1.101  11.170  1.3122 -1.1674 -0.2107
 6748SOL    HW231881   1.327   1.111  11.067 -0.2076 -0.9433 -0.1584
 6749SOL     OW31882   0.425   2.055  15.515 -0.2194  0.3585  0.2476
 6749SOL    HW131883   0.394   2.026  15.429 -0.6542 -0.1573  0.5853
 6749SOL    HW231884   0.438   2.147  15.491 -0.6157  0.3890  0.1566
 6750SOL     OW31885   0.374   0.625   7.176  0.4654  0.4369  0.2571
 6750SOL    HW131886   0.349   0.572   7.100 -0.6341 -0.8640  1.5137
 6750SOL    HW231887   0.392   0.558   7.243 -0.2246 -0.0199 -0.0138
 6751SOL     OW31888   3.268   0.026   5.015 -0.4623  0.2680 -0.4994
 6751SOL    HW131889   3.189   0.008   5.066 -0.4454  0.9298 -0.2526
 6751SOL    HW231890   3.310   0.082   5.080  0.0741  0.9110 -1.4053
 6752SOL     OW31891   1.221   1.695  13.895 -0.5214  0.1393 -0.3861
 6752SOL    HW131892   1.246   1.740  13.976  1.4985  2.8379 -2.5045
 6752SOL    HW231893   1.227   1.769  13.835  0.2038 -0.3614 -0.9419
 6753SOL     OW31894   3.885   4.449   4.814  0.3475 -0.2815  0.0169
 6753SOL    HW131895   3.898   4.354   4.818 -4.3411 -0.8912  0.5577
 6753SOL    HW231896   3.800   4.456   4.858  0.7026 -2.0046  0.9742
 6754SOL     OW31897   3.173   1.153   9.031 -0.0678 -0.1858 -0.4429
 6754SOL    HW131898   3.262   1.161   8.997  0.4803 -0.3061  0.9750
 6754SOL    HW231899   3.157   1.062   9.004 -0.5141 -0.5175  0.9623
 6755SOL     OW31900   2.913   3.034   7.115 -0.1696  0.2126 -0.2073
 6755SOL    HW131901   3.003   3.005   7.131 -0.6910 -0.6796  1.1249
 6755SOL    HW231902   2.924   3.084   7.034  0.7370  1.0777  0.4539
 6756SOL     OW31903   3.103   4.247   4.690 -0.5888 -0.2103 -0.4434
 6756SOL    HW131904   3.043   4.249   4.765 -1.1383  0.6750 -0.9116
 6756SOL    HW231905   3.045   4.277   4.620 -0.5349 -0.0632 -0.4245
 6757SOL     OW31906   2.627   0.587   9.025 -0.2677 -0.3041  0.0573
 6757SOL    HW131907   2.709   0.600   9.072 -1.0829  3.7227  0.3147
 6757SOL    HW231908   2.638   0.507   8.973 -0.9273  0.2129 -0.8815
 6758SOL     OW31909   0.905   0.920   5.554  0.9546  0.1814  0.4877
 6758SOL    HW131910   0.916   0.971   5.474 -1.4198 -1.9556 -1.1903
 6758SOL    HW231911   0.947   0.974   5.621  0.5195  2.5358 -1.1332
 6759SOL     OW31912   0.187   1.276   2.514 -0.5578 -0.0246 -0.3408
 6759SOL    HW131913   0.157   1.339   2.580 -1.0361  0.2034 -0.7714
 6759SOL    HW231914   0.274   1.257   2.549 -1.6100 -1.1960  1.6044
 6760SOL     OW31915   3.809   1.467  15.845 -0.0081  0.3123  0.7144
 6760SOL    HW131916   3.849   1.481  15.760  0.6215  3.2586  1.4767
 6760SOL    HW231917   3.718   1.459  15.817  0.2317  0.7835 -0.1864
 6761SOL     OW31918   1.763   3.866   4.727 -0.1359 -0.0879  0.4719
 6761SOL    HW131919   1.790   3.870   4.636 -2.3382  0.1618 -0.1723
 6761SOL    HW231920   1.686   3.809   4.728  0.1033 -0.4320 -0.7084
 6762SOL     OW31921   4.287   0.400   5.597  0.7252 -0.2426  0.1133
 6762SOL    HW131922   4.312   0.485   5.633 -1.0097 -0.0491  0.8376
 6762SOL    HW231923   4.330   0.344   5.661 -1.5472 -0.3706  1.5163
 6763SOL     OW31924   3.368   4.360   3.418  0.1768 -0.2015 -0.1246
 6763SOL    HW131925   3.319   4.396   3.492  0.7639 -1.0032  0.6535
 6763SOL    HW231926   3.424   4.292   3.456  1.6009  0.9498 -0.1425
 6764SOL     OW31927   3.369   2.740   7.935  0.5382  0.5035 -0.4278
 6764SOL    HW131928   3.312   2.765   7.863  1.2086 -1.0863 -1.5135
 6764SOL    HW231929   3.426   2.816   7.932  0.7040  0.3829 -0.3565
 6765SOL     OW31930   2.818   0.233   6.602 -0.0934 -0.0461  0.0536
 6765SOL    HW131931   2.866   0.229   6.685  0.2280  1.7756 -0.0470
 6765SOL    HW231932   2.871   0.301   6.559  2.5174 -1.5383  0.9029
 6766SOL     OW31933   0.343   3.855   2.022  0.5593 -0.2224  0.4022
 6766SOL    HW131934   0.311   3.825   2.107  0.1599  1.9858  1.0436
 6766SOL    HW231935   0.349   3.778   1.966  1.8602 -0.9832  1.5915
 6767SOL     OW31936   2.741   2.148   8.845 -0.1002  0.2687  0.3668
 6767SOL    HW131937   2.701   2.233   8.828 -4.4750 -1.9533 -0.4971
 6767SOL    HW231938   2.748   2.153   8.940 -2.0419 -1.0569  0.5911
 6768SOL     OW31939   4.296   4.464   1.957  0.3993 -0.4220  0.0653
 6768SOL    HW131940   4.375   4.415   1.981  0.1685 -1.1101 -0.5865
 6768SOL    HW231941   4.229   4.397   1.952 -0.5985  0.6184 -0.5119
 6769SOL     OW31942   3.656   0.205   3.584 -0.2941 -0.0273  0.3907
 6769SOL    HW131943   3.624   0.215   3.673  1.8437 -0.3601  1.1893
 6769SOL    HW231944   3.581   0.245   3.539  0.0687  2.1564  1.7395
 6770SOL     OW31945   1.691   1.528   4.630  0.4285 -0.1419  0.4234
 6770SOL    HW131946   1.706   1.434   4.628  1.6739  0.0693 -0.7191
 6770SOL    HW231947   1.763   1.560   4.684 -1.6083  1.5012  2.1728
 6771SOL     OW31948   0.889   1.338  11.389 -0.0019  0.4631  0.1684
 6771SOL    HW131949   0.835   1.297  11.457 -1.3363  1.4830 -0.2818
 6771SOL    HW231950   0.974   1.329  11.431  1.3777  2.5675 -2.1894
 6772SOL     OW31951   3.258   0.664   9.683  0.1108  0.0399 -0.1304
 6772SOL    HW131952   3.252   0.585   9.629  0.1539  2.8915 -4.2898
 6772SOL    HW231953   3.169   0.698   9.673  0.0515 -0.2922 -0.7641
 6773SOL     OW31954   1.648   4.603  17.353  0.6551 -0.8288  0.1320
 6773SOL    HW131955   1.621   4.601  17.444  1.6011 -0.8189  0.4101
 6773SOL    HW231956   1.587   4.674  17.333  1.4732  0.2532  1.4815
 6774SOL     OW31957   0.114   0.770   7.252 -0.6709  0.9444  0.5344
 6774SOL    HW131958   0.100   0.705   7.320 -2.0541  0.7385  0.0541
 6774SOL    HW231959   0.022   0.792   7.243 -1.0169 -0.2578  1.2828
 6775SOL     OW31960   2.132   4.438  11.836  0.4340 -0.3649 -0.4460
 6775SOL    HW131961   2.208   4.409  11.784  0.8350  1.2411 -0.7797
 6775SOL    HW231962   2.122   4.529  11.807  0.5608 -0.3898 -0.5701
 6776SOL     OW31963   0.554   2.127  11.476 -0.3007  0.1015 -0.0032
 6776SOL    HW131964   0.527   2.071  11.403  2.0763 -2.0554  0.7978
 6776SOL    HW231965   0.466   2.139  11.513 -0.1704 -0.9329  0.6321
 6777SOL     OW31966   4.437   3.692   5.316 -0.2120  0.2853  0.2485
 6777SOL    HW131967   4.374   3.720   5.250 -1.6639 -1.1201  1.0593
 6777SOL    HW231968   4.517   3.737   5.286  0.8141 -0.3362  2.0454
 6778SOL     OW31969   0.727   4.373   8.321 -0.6568 -0.3610  0.2465
 6778SOL    HW131970   0.754   4.439   8.385 -0.5829  0.5189 -0.6772
 6778SOL    HW231971   0.672   4.317   8.376 -1.3920  0.5284  0.4229
 6779SOL     OW31972   3.727   1.794   8.115 -0.1900  0.5811 -0.5522
 6779SOL    HW131973   3.736   1.876   8.163 -1.4484 -0.2537  1.0848
 6779SOL    HW231974   3.798   1.803   8.051 -1.7939  0.4761 -2.3368
 6780SOL     OW31975   1.677   1.763   5.911  0.1063  0.2427 -0.0280
 6780SOL    HW131976   1.582   1.761   5.924  0.2910 -0.3811  1.2062
 6780SOL    HW231977   1.696   1.854   5.933  0.9180  0.8954 -3.3954
 6781SOL     OW31978   3.377   0.473   7.953  0.0940  0.1622 -0.0511
 6781SOL    HW131979   3.283   0.458   7.954 -0.1271  1.7048  1.9367
 6781SOL    HW231980   3.387   0.516   7.868  0.7917 -0.2824 -0.1957
 6782SOL     OW31981   0.700   0.568   4.909 -0.1305 -0.1400 -0.1894
 6782SOL    HW131982   0.781   0.585   4.958 -0.3149 -1.5297  0.6084
 6782SOL    HW231983   0.678   0.482   4.945  0.0273  0.0534  0.3772
 6783SOL     OW31984   3.345   0.496   2.593 -0.3309  0.1584 -0.0600
 6783SOL    HW131985   3.275   0.542   2.640 -0.8417 -0.4052 -0.2667
 6783SOL    HW231986   3.307   0.496   2.505 -0.5231 -1.2744  0.0211
 6784SOL     OW31987   1.722   4.257   5.670 -0.6255 -0.1230  0.5922
 6784SOL    HW131988   1.810   4.225   5.689 -0.5302 -1.1078 -1.4317
 6784SOL    HW231989   1.742   4.338   5.623 -1.3175  0.2436  0.9447
 6785SOL     OW31990   3.674   1.931   5.901 -0.1546 -0.0684 -0.5470
 6785SOL    HW131991   3.607   1.863   5.895 -0.4757 -0.0265  2.2287
 6785SOL    HW231992   3.753   1.881   5.920  1.6749  2.5093 -1.4902
 6786SOL     OW31993   1.339   3.738   7.497 -0.0574 -0.4521  0.5417
 6786SOL    HW131994   1.254   3.694   7.504 -0.5990  0.6726  1.0248
 6786SOL    HW231995   1.376   3.713   7.413 -0.4544  0.3978  0.1166
 6787SOL     OW31996   4.146   2.775   8.217  0.4224  0.1031  0.4072
 6787SOL    HW131997   4.066   2.826   8.224  0.1626 -0.2866  0.3137
 6787SOL    HW231998   4.197   2.813   8.288  0.7688  1.0037 -0.3299
 6788SOL     OW31999   0.056   1.073  16.207  0.0399  0.1421  0.2785
 6788SOL    HW132000   0.121   1.141  16.229  1.2416 -0.4880 -1.3160
 6788SOL    HW232001   0.025   1.100  16.121 -1.9133 -1.7507  0.3936
 6789SOL     OW32002   0.101   1.318   4.583 -0.0618 -0.0056 -0.7536
 6789SOL    HW132003   0.112   1.285   4.494 -1.2642  0.2137 -0.9834
 6789SOL    HW232004   0.190   1.343   4.610  0.7414 -3.5422 -0.1601
 6790SOL     OW32005   1.237   1.610   3.847 -0.7825 -0.0117 -0.0388
 6790SOL    HW132006   1.262   1.663   3.771 -0.6540 -1.6260 -1.1293
 6790SOL    HW232007   1.256   1.667   3.921  0.9162  0.3633 -0.7658
 6791SOL     OW32008   4.575   4.096  11.984  0.0058 -0.0419  0.1786
 6791SOL    HW132009   4.491   4.126  11.949 -0.3964  0.4048  1.5393
 6791SOL    HW232010   4.544   4.011  12.014 -0.1243  0.0132  0.2035
 6792SOL     OW32011   1.496   3.978   2.626 -0.0638 -0.3472  0.6045
 6792SOL    HW132012   1.480   3.991   2.719 -3.2888 -0.1809  0.0355
 6792SOL    HW232013   1.530   3.888   2.625 -0.6013 -0.5162 -3.0303
 6793SOL     OW32014   2.966   1.447   8.866  0.2382  0.2637 -0.2664
 6793SOL    HW132015   3.004   1.481   8.947  0.5725 -1.8019  0.4506
 6793SOL    HW232016   3.044   1.410   8.823  1.1638  0.4319  1.2711
 6794SOL     OW32017   2.639   3.671   7.447  0.5221  0.2067 -0.0344
 6794SOL    HW132018   2.610   3.761   7.463  0.5048  0.2381 -0.2507
 6794SOL    HW232019   2.727   3.679   7.482  0.6091  0.2718 -0.2755
 6795SOL     OW32020   4.441   4.309  16.728  0.2714  0.2818  0.1349
 6795SOL    HW132021   4.398   4.349  16.804 -0.0005  0.5766 -0.1725
 6795SOL    HW232022   4.524   4.355  16.722 -0.1590  1.2430  1.6053
 6796SOL     OW32023   1.860   4.070  10.851 -0.8139  0.4185 -0.0743
 6796SOL    HW132024   1.823   3.992  10.811  0.2261  0.6957 -1.5698
 6796SOL    HW232025   1.881   4.035  10.938 -1.2479  1.2059  0.3403
 6797SOL     OW32026   2.069   0.956   1.901  0.9408 -0.0201  0.3870
 6797SOL    HW132027   2.057   0.865   1.873 -0.6685 -0.2551  1.8011
 6797SOL    HW232028   2.027   1.011   1.835  0.1440  0.0643  0.9703
 6798SOL     OW32029   3.266   4.365   1.447 -0.0304  0.6922 -0.1679
 6798SOL    HW132030   3.269   4.319   1.532  0.0211 -1.0930 -1.1296
 6798SOL    HW232031   3.175   4.383   1.423 -0.2007 -1.4422 -1.0820
 6799SOL     OW32032   0.791   1.385   7.390  0.3654  0.1198 -0.3892
 6799SOL    HW132033   0.831   1.418   7.310  3.2678 -0.7692  0.6796
 6799SOL    HW232034   0.796   1.290   7.386 -2.8541 -0.0174 -0.9894
 6800SOL     OW32035   2.117   0.521   9.720  0.1788 -0.0532  0.6026
 6800SOL    HW132036   2.155   0.585   9.779  4.0223  0.3428 -2.3473
 6800SOL    HW232037   2.104   0.441   9.772 -1.0690 -1.0609 -1.2624
 6801SOL     OW32038   4.630   0.051   6.124 -0.2257  0.0342  0.2716
 6801SOL    HW132039   4.695   0.027   6.190 -1.4914  0.6257  1.7447
 6801SOL    HW232040   4.694   0.108   6.081  0.4725 -1.1156 -0.2082
 6802SOL     OW32041   4.015   2.478   4.923  1.0793  0.0523 -0.2284
 6802SOL    HW132042   3.971   2.528   4.992  1.5464 -0.4811  0.4475
 6802SOL    HW232043   3.955   2.486   4.849  0.5420  2.0370  0.4154
 6803SOL     OW32044   1.762   1.317   0.864 -0.1456 -0.3566 -0.0017
 6803SOL    HW132045   1.833   1.297   0.926 -2.3473 -3.4610  1.5234
 6803SOL    HW232046   1.707   1.366   0.926  0.3158  0.3127 -0.1151
 6804SOL     OW32047   4.629   0.840   7.788 -0.4817  0.0907 -0.1579
 6804SOL    HW132048   4.637   0.932   7.765 -3.0333  0.3286 -0.0080
 6804SOL    HW232049   4.710   0.816   7.833  0.9670  1.3274 -2.0834
 6805SOL     OW32050   3.984   1.112  15.066  0.4081 -0.1379 -0.1877
 6805SOL    HW132051   3.913   1.163  15.027  2.0566  2.6552  0.4182
 6805SOL    HW232052   3.937   1.090  15.146 -0.8219 -0.0682 -0.8882
 6806SOL     OW32053   1.886   3.359   6.314  0.1540  0.3288 -0.5577
 6806SOL    HW132054   1.843   3.346   6.398  3.0500  1.2797  1.0978
 6806SOL    HW232055   1.872   3.451   6.291 -0.4903 -0.2658 -2.5449
 6807SOL     OW32056   0.959   0.478   3.530 -0.3097  0.5838  0.3250
 6807SOL    HW132057   0.869   0.510   3.525  0.3893  1.9847 -3.6598
 6807SOL    HW232058   1.012   0.533   3.472  0.9444 -1.2091 -0.2164
 6808SOL     OW32059   1.773   0.326   7.815 -0.5637  0.7959 -0.0043
 6808SOL    HW132060   1.797   0.280   7.896  0.2335 -1.0955 -1.3380
 6808SOL    HW232061   1.703   0.382   7.851 -0.7862  1.9091 -2.1749
 6809SOL     OW32062   2.202   0.698   2.176 -0.4591 -0.4123 -0.4895
 6809SOL    HW132063   2.248   0.779   2.156  1.0376 -0.7555  1.5796
 6809SOL    HW232064   2.246   0.671   2.257  0.9507  1.6910 -0.5767
 6810SOL     OW32065   1.971   3.624   7.621 -0.1970  0.3788  0.1173
 6810SOL    HW132066   2.057   3.612   7.661 -0.3352  0.9085  0.5671
 6810SOL    HW232067   1.938   3.697   7.674 -2.6618 -0.9222  0.3679
 6811SOL     OW32068   2.044   2.739   6.832  0.4515  0.4121 -0.8050
 6811SOL    HW132069   2.004   2.814   6.788 -2.0202  0.1179  0.9706
 6811SOL    HW232070   2.049   2.783   6.917 -1.1712  1.9258 -1.4917
 6812SOL     OW32071   0.873   1.556  13.826  0.3090 -0.5516 -0.4531
 6812SOL    HW132072   0.910   1.643  13.840 -1.9739  0.5046 -0.9454
 6812SOL    HW232073   0.916   1.496  13.886  1.0816  0.3323 -0.1130
 6813SOL     OW32074   1.197   4.623  16.021  0.0007 -0.1060  0.0213
 6813SOL    HW132075   1.114   4.660  16.052 -0.3951  0.2771 -1.4744
 6813SOL    HW232076   1.174   4.579  15.939 -1.3869 -1.0571  0.9211
 6814SOL     OW32077   2.255   2.033   3.806 -0.2188  0.0830 -0.0904
 6814SOL    HW132078   2.287   2.057   3.719 -0.3041  0.5186  0.0017
 6814SOL    HW232079   2.300   2.101   3.854  0.4221  1.2289 -2.2926
 6815SOL     OW32080   1.021   1.264  10.244 -0.2014 -0.0983 -0.4390
 6815SOL    HW132081   0.983   1.218  10.169  1.5390 -2.8193  0.3497
 6815SOL    HW232082   1.048   1.349  10.209  0.5945  0.2783  1.0814
 6816SOL     OW32083   0.828   1.251  11.627 -0.4158  0.4142  0.0576
 6816SOL    HW132084   0.770   1.278  11.698 -2.8875  1.9361 -2.4818
 6816SOL    HW232085   0.895   1.190  11.658 -0.3586  1.0271  1.1264
 6817SOL     OW32086   0.714   4.673   9.459 -0.2387 -0.6371 -0.5568
 6817SOL    HW132087   0.687   4.585   9.485 -0.5282  0.1968  1.9084
 6817SOL    HW232088   0.799   4.663   9.416  0.3774  3.0061 -0.1844
 6818SOL     OW32089   0.169   3.674   5.349 -0.4847  0.0800  0.3896
 6818SOL    HW132090   0.100   3.670   5.283  1.9662 -1.6416 -2.0655
 6818SOL    HW232091   0.154   3.596   5.403  1.3622 -1.7773 -1.7575
 6819SOL     OW32092   4.518   1.422  11.343 -0.2867 -0.4220  0.8632
 6819SOL    HW132093   4.522   1.436  11.438  0.1435 -1.8305  1.0496
 6819SOL    HW232094   4.574   1.491  11.308  1.3159 -1.7916  0.7140
 6820SOL     OW32095   0.080   2.875   3.146 -0.0764  0.2518  0.4625
 6820SOL    HW132096   0.130   2.900   3.068  3.6227  0.8042  2.9935
 6820SOL    HW232097   0.076   2.779   3.138 -0.2816  0.4884 -2.2517
 6821SOL     OW32098   1.480   1.905   2.880  0.1523 -0.4686  0.4430
 6821SOL    HW132099   1.438   1.839   2.825  0.1536 -0.0480 -0.0602
 6821SOL    HW232100   1.415   1.936   2.943 -3.3671 -3.0728 -1.8670
 6822SOL     OW32101   1.309   2.785   7.943  0.2738 -0.5123 -0.2035
 6822SOL    HW132102   1.310   2.814   7.852  0.3547  1.2808  0.3847
 6822SOL    HW232103   1.384   2.725   7.949  0.5411 -0.2448 -0.8177
 6823SOL     OW32104   0.011   0.249   3.161 -0.1624  0.5571 -0.6571
 6823SOL    HW132105   0.071   0.204   3.102  0.6507 -1.1161  1.4484
 6823SOL    HW232106   0.054   0.332   3.182  1.8087 -0.0568 -2.2846
 6824SOL     OW32107   3.944   2.131   2.026 -0.7012 -0.6656 -0.0213
 6824SOL    HW132108   4.038   2.123   2.042 -0.3416  1.4737 -0.9738
 6824SOL    HW232109   3.922   2.038   2.024 -0.9467 -0.5688 -1.8484
 6825SOL     OW32110   2.483   1.485   8.983 -0.2863  0.0780  0.1682
 6825SOL    HW132111   2.427   1.562   8.972  1.4453  1.2070 -0.8577
 6825SOL    HW232112   2.559   1.522   8.938 -1.2850 -0.0207 -1.5610
 6826SOL     OW32113   3.871   1.214  12.451  0.5410 -0.2164  0.5182
 6826SOL    HW132114   3.871   1.308  12.436  0.1983 -0.3880 -0.5952
 6826SOL    HW232115   3.777   1.205  12.465  0.4659 -0.4456 -0.1227
 6827SOL     OW32116   3.644   1.758  13.248  0.0867 -0.5806 -0.3054
 6827SOL    HW132117   3.707   1.831  13.244 -1.4665  0.9228  2.3031
 6827SOL    HW232118   3.667   1.724  13.334  1.8439 -1.1778 -1.0138
 6828SOL     OW32119   3.621   0.492  17.017 -0.1135  0.4129 -0.3801
 6828SOL    HW132120   3.672   0.466  16.940  0.6429 -0.3923  0.3916
 6828SOL    HW232121   3.540   0.517  16.972  0.0999 -0.7217 -1.3835
 6829SOL     OW32122   0.916   1.418  10.577  0.2842  0.2538  0.4716
 6829SOL    HW132123   1.005   1.451  10.573  0.4105 -0.2648 -1.0940
 6829SOL    HW232124   0.887   1.427  10.486 -3.6394  1.2055  1.8104
 6830SOL     OW32125   0.823   0.146  11.435  0.1487 -0.2153  0.3629
 6830SOL    HW132126   0.842   0.070  11.380 -1.4784 -1.0719  0.9667
 6830SOL    HW232127   0.841   0.219  11.376 -0.5531 -1.1257 -0.9854
 6831SOL     OW32128   3.224   4.518   6.393  0.5937 -0.6372  0.1172
 6831SOL    HW132129   3.305   4.563   6.368 -0.7197  0.4437 -2.2218
 6831SOL    HW232130   3.169   4.569   6.334 -0.5358  0.4124  2.0546
 6832SOL     OW32131   4.251   1.278  14.864 -0.0888  0.7736 -0.1448
 6832SOL    HW132132   4.222   1.189  14.884 -1.0330  0.6889 -1.9378
 6832SOL    HW232133   4.331   1.274  14.811 -1.0792 -0.8995 -1.5482
 6833SOL     OW32134   3.892   3.950  15.572 -0.2057 -0.1729  0.0231
 6833SOL    HW132135   3.977   3.982  15.544  0.4227 -1.9699 -0.1500
 6833SOL    HW232136   3.888   3.862  15.534  0.9652 -1.1527  2.1038
 6834SOL     OW32137   4.364   4.365   1.322 -0.2997 -0.0518  0.7794
 6834SOL    HW132138   4.350   4.293   1.384  0.0774  0.8194  1.8830
 6834SOL    HW232139   4.411   4.427   1.378  1.6258  2.0740 -3.2364
 6835SOL     OW32140   4.723   4.510  17.207 -0.0130 -0.1117 -0.6508
 6835SOL    HW132141   0.053   4.577  17.201 -0.7443  0.8368  1.4856
 6835SOL    HW232142   4.646   4.553  17.172  0.0531  1.8088  1.5627
 6836SOL     OW32143   1.093   2.527   1.833  0.1294  0.6158  0.0871
 6836SOL    HW132144   1.062   2.573   1.911  1.6596  1.1277  0.3796
 6836SOL    HW232145   1.024   2.464   1.811  1.4030  0.1455 -2.6001
 6837SOL     OW32146   0.692   3.969   4.754  0.1466  0.1599  0.3566
 6837SOL    HW132147   0.760   3.951   4.688 -0.7508  1.1053 -0.8171
 6837SOL    HW232148   0.735   4.009   4.829  2.4528 -0.6624 -0.5246
 6838SOL     OW32149   0.594   1.896   9.196  0.8460  0.6235 -0.0154
 6838SOL    HW132150   0.561   1.839   9.127  0.5949  1.0668 -0.2639
 6838SOL    HW232151   0.687   1.875   9.203  0.5205  0.0915  2.7018
 6839SOL     OW32152   3.655   4.603   0.500  0.3530 -0.6761  0.5772
 6839SOL    HW132153   3.636   4.555   0.581 -2.7742 -0.4926 -0.0267
 6839SOL    HW232154   3.581   4.580   0.444  1.1965 -0.7706 -0.5028
 6840SOL     OW32155   4.272   4.014   8.213  0.0179 -0.4371 -0.1745
 6840SOL    HW132156   4.347   4.038   8.268 -0.5415  0.5051  0.1830
 6840SOL    HW232157   4.319   3.960   8.149  3.3232  2.0615  0.1154
 6841SOL     OW32158   2.496   2.100   2.142 -0.1273 -0.1385  0.4953
 6841SOL    HW132159   2.568   2.039   2.124  0.3641  1.4525 -2.8602
 6841SOL    HW232160   2.430   2.033   2.158  0.0743 -0.3551  0.4316
 6842SOL     OW32161   0.356   2.624   3.213 -0.4985  0.3650 -0.0290
 6842SOL    HW132162   0.313   2.682   3.276  0.8443  0.6763  0.6123
 6842SOL    HW232163   0.302   2.548   3.234 -1.0029  1.1974  1.7016
 6843SOL     OW32164   0.489   2.526   4.475 -0.9402 -0.5348 -0.2022
 6843SOL    HW132165   0.495   2.528   4.379 -2.8171  0.2125 -0.2984
 6843SOL    HW232166   0.435   2.605   4.483 -2.8436 -1.7418 -1.2110
 6844SOL     OW32167   2.347   4.356  11.671  0.7076 -0.0820  0.3212
 6844SOL    HW132168   2.435   4.330  11.643  0.5145  0.1435 -0.4734
 6844SOL    HW232169   2.307   4.270  11.684 -0.4998  0.7442  2.0997
 6845SOL     OW32170   2.797   1.250  15.946 -0.0844 -0.1997  0.0338
 6845SOL    HW132171   2.726   1.288  15.998 -2.2140  1.9517 -4.4332
 6845SOL    HW232172   2.870   1.248  16.007  0.4608  0.3771 -0.6009
 6846SOL     OW32173   0.259   3.739   2.251 -0.2421  0.4787 -0.6900
 6846SOL    HW132174   0.308   3.705   2.326 -1.8094  0.0599  0.1516
 6846SOL    HW232175   0.168   3.759   2.275 -0.0959 -3.1557  2.8369
 6847SOL     OW32176   0.408   4.166   5.266 -0.7146 -0.1192  0.1781
 6847SOL    HW132177   0.351   4.108   5.217  0.3034  0.0637 -1.2247
 6847SOL    HW232178   0.497   4.135   5.248 -0.4382  0.6101  0.2696
 6848SOL     OW32179   2.299   0.638  11.122  0.0980  0.0065  0.1547
 6848SOL    HW132180   2.373   0.578  11.136  0.6600  0.4826 -0.8170
 6848SOL    HW232181   2.281   0.661  11.213  1.0242  1.2704  0.0190
 6849SOL     OW32182   4.197   2.567  12.208  0.0550 -0.1335  0.0377
 6849SOL    HW132183   4.217   2.625  12.282  2.4417 -1.8524  0.7328
 6849SOL    HW232184   4.284   2.535  12.186  0.2383 -0.0336  0.6193
 6850SOL     OW32185   3.979   3.188   1.141  0.2604  0.5772 -0.5347
 6850SOL    HW132186   4.063   3.143   1.131  0.0119 -0.1818  0.6713
 6850SOL    HW232187   3.923   3.154   1.072 -0.0218 -0.6890  0.3044
 6851SOL     OW32188   3.999   2.331   3.107  0.3537 -0.0957 -0.7549
 6851SOL    HW132189   4.044   2.388   3.045  1.8328  1.5877  1.8716
 6851SOL    HW232190   4.022   2.371   3.191  1.4685  2.6111 -2.3517
 6852SOL     OW32191   4.399   1.637   5.157 -0.0393  0.0396  0.9337
 6852SOL    HW132192   4.361   1.551   5.174 -1.2331  0.4602  0.3747
 6852SOL    HW232193   4.458   1.613   5.085  0.2544 -0.2773  1.2765
 6853SOL     OW32194   0.269   1.302  11.666 -0.5489 -0.0777  0.0133
 6853SOL    HW132195   0.225   1.378  11.704 -0.9606  0.3774 -1.3813
 6853SOL    HW232196   0.318   1.272  11.743 -3.0349 -0.6420  1.3532
 6854SOL     OW32197   0.555   4.711   4.239 -0.2196  0.2134  0.8370
 6854SOL    HW132198   0.546   4.630   4.188 -2.0363  1.3508 -0.6336
 6854SOL    HW232199   0.472   0.018   4.223  0.4244  0.7758 -0.9748
 6855SOL     OW32200   0.282   2.795   5.221 -0.7342 -0.3915 -0.3289
 6855SOL    HW132201   0.218   2.751   5.277  0.3225  0.3485  1.4581
 6855SOL    HW232202   0.263   2.757   5.135 -2.0163  0.1351 -0.2754
 6856SOL     OW32203   4.512   1.915   0.198  0.4455 -0.1218 -0.0220
 6856SOL    HW132204   4.418   1.903   0.212  0.5619  0.3746  1.2039
 6856SOL    HW232205   4.497   1.986   0.135  0.3887  0.5500  0.7440
 6857SOL     OW32206   1.459   1.051   6.009 -0.3189 -0.0783  0.0456
 6857SOL    HW132207   1.511   1.129   6.029 -1.0408  0.1986  0.8431
 6857SOL    HW232208   1.423   1.086   5.927  0.5283 -0.4266 -0.4725
 6858SOL     OW32209   1.126   4.554   5.387 -0.3640 -0.1228  0.0383
 6858SOL    HW132210   1.212   4.587   5.362  0.1442 -1.9189 -0.6149
 6858SOL    HW232211   1.081   4.634   5.413  1.0514  0.4301  0.7631
 6859SOL     OW32212   1.149   1.743   8.626 -0.5498  0.3212  0.0487
 6859SOL    HW132213   1.072   1.753   8.570  0.3669  0.5058 -1.1937
 6859SOL    HW232214   1.213   1.803   8.587 -2.3688  0.3158 -2.9644
 6860SOL     OW32215   2.831   1.926   8.672 -0.6539  0.0369  0.3843
 6860SOL    HW132216   2.895   1.881   8.727  0.4506  1.1725  0.0342
 6860SOL    HW232217   2.802   1.990   8.737 -0.4019 -0.6980  1.2250
 6861SOL     OW32218   1.130   2.454   4.802  0.4126  0.0612  0.4507
 6861SOL    HW132219   1.216   2.475   4.840  0.1700 -2.3726  2.2967
 6861SOL    HW232220   1.151   2.425   4.713  1.3983 -0.9352  1.0127
 6862SOL     OW32221   3.692   2.305   6.314 -0.8365 -0.1448 -0.1380
 6862SOL    HW132222   3.621   2.339   6.369 -0.6475 -2.3020  1.4373
 6862SOL    HW232223   3.647   2.262   6.240  0.4530 -0.0464 -0.9780
 6863SOL     OW32224   1.783   1.063   7.487 -0.0321  0.2703  0.0148
 6863SOL    HW132225   1.695   1.068   7.449 -0.0004 -0.9331 -0.1860
 6863SOL    HW232226   1.761   1.054   7.580  2.4781 -1.9999  0.3709
 6864SOL     OW32227   0.577   3.515  13.514  0.0239  0.1134 -0.0830
 6864SOL    HW132228   0.668   3.486  13.510 -0.4644 -1.6695  1.4933
 6864SOL    HW232229   0.570   3.607  13.491 -2.8917  0.3060  1.6166
 6865SOL     OW32230   1.548   1.389   7.243  0.4661  0.5416  0.0939
 6865SOL    HW132231   1.460   1.379   7.208  1.0171 -0.5805 -0.9371
 6865SOL    HW232232   1.563   1.301   7.278 -1.1328  0.4351  0.5277
 6866SOL     OW32233   1.506   4.613   2.129 -0.8862  0.5390  0.1674
 6866SOL    HW132234   1.523   4.681   2.194 -0.1708  2.1980 -1.7357
 6866SOL    HW232235   1.534   4.661   2.051 -2.1254 -1.6290 -1.6415
 6867SOL     OW32236   0.127   1.129   3.256  0.0872  0.0740  0.0160
 6867SOL    HW132237   0.210   1.149   3.214 -0.4744  3.6354  0.6121
 6867SOL    HW232238   0.082   1.207   3.223 -0.0511 -1.5827 -3.7290
 6868SOL     OW32239   1.217   1.098   4.527 -0.0739 -0.9700 -0.1333
 6868SOL    HW132240   1.166   1.065   4.601  0.4889  0.1753  0.7717
 6868SOL    HW232241   1.292   1.150   4.557 -1.2474 -0.5590  2.0730
 6869SOL     OW32242   0.826   1.571   0.952  0.0774  0.2044 -1.4423
 6869SOL    HW132243   0.828   1.550   1.046  0.4045 -0.8750 -1.6865
 6869SOL    HW232244   0.878   1.650   0.959  0.0238  0.0723  0.4281
 6870SOL     OW32245   2.208   2.872  13.144  0.1899  0.1765 -0.3238
 6870SOL    HW132246   2.208   2.962  13.113  0.1519 -0.2955 -1.7170
 6870SOL    HW232247   2.288   2.871  13.197  0.2101 -2.6111 -0.4040
 6871SOL     OW32248   3.730   1.515  14.608  0.0077 -0.2571  0.1938
 6871SOL    HW132249   3.812   1.550  14.571 -0.0953 -0.5536 -0.3204
 6871SOL    HW232250   3.681   1.597  14.609 -0.2674 -0.4258  0.3630
 6872SOL     OW32251   0.471   4.145  10.889 -0.4007 -0.0165 -0.1529
 6872SOL    HW132252   0.470   4.158  10.794 -2.3852  2.5687  0.2536
 6872SOL    HW232253   0.437   4.055  10.882 -2.1120  0.4896  1.8989
 6873SOL     OW32254   3.159   0.492  13.948 -0.4653  0.3737  0.1777
 6873SOL    HW132255   3.181   0.532  13.864  0.7527  1.6140  1.0791
 6873SOL    HW232256   3.136   0.575  13.990 -0.6000  0.2887  0.2698
 6874SOL     OW32257   4.704   1.078   2.838 -0.1856 -0.7170  0.8259
 6874SOL    HW132258   4.624   1.096   2.888 -0.7150 -2.4759  0.6027
 6874SOL    HW232259   0.028   1.143   2.873  0.3736 -0.2561 -1.0027
 6875SOL     OW32260   3.539   1.267   1.618  0.1135 -0.1193  0.2549
 6875SOL    HW132261   3.521   1.213   1.541 -1.1076  1.2483 -0.4046
 6875SOL    HW232262   3.573   1.201   1.679 -1.8000 -1.2368  0.1262
 6876SOL     OW32263   2.911   4.215   4.903  0.0790  0.3425 -0.7473
 6876SOL    HW132264   2.855   4.161   4.847  0.1479 -0.1028 -0.3780
 6876SOL    HW232265   2.897   4.174   4.988  3.1496  2.0033  0.5552
 6877SOL     OW32266   1.725   0.276  12.540 -0.4225 -0.1928  1.1041
 6877SOL    HW132267   1.633   0.267  12.563 -0.4463  2.4966  2.1159
 6877SOL    HW232268   1.733   0.358  12.491 -0.3823 -1.1368 -0.4700
 6878SOL     OW32269   0.814   3.507   2.885  0.3661 -1.1208  0.0804
 6878SOL    HW132270   0.887   3.512   2.823 -0.5855 -0.2030 -0.9464
 6878SOL    HW232271   0.763   3.441   2.839 -1.5938  0.1956  0.3627
 6879SOL     OW32272   1.091   4.646  17.168  0.1856  0.7133 -0.2755
 6879SOL    HW132273   1.174   4.666  17.124  0.6892  0.1767  0.4411
 6879SOL    HW232274   1.033   4.619  17.097 -0.3083 -1.0278  0.7859
 6880SOL     OW32275   1.572   1.920  14.703 -0.4599 -0.5957  0.2205
 6880SOL    HW132276   1.641   1.925  14.770 -1.3004  1.5388  0.9183
 6880SOL    HW232277   1.537   2.008  14.715 -0.9642 -0.9365  1.1654
 6881SOL     OW32278   3.109   0.657   6.966 -0.2375  0.3787 -0.3112
 6881SOL    HW132279   3.026   0.635   7.010  0.8429 -0.2147  1.4270
 6881SOL    HW232280   3.176   0.672   7.032  0.6134 -1.0715 -0.8351
 6882SOL     OW32281   0.058   4.650   2.472  0.1621 -0.5368  0.4082
 6882SOL    HW132282   0.110   4.615   2.545  2.3851  1.7634 -0.0900
 6882SOL    HW232283   4.707   4.656   2.506 -0.0321 -0.0062 -0.1955
 6883SOL     OW32284   4.045   0.073   4.382 -0.8283  0.2099 -0.0808
 6883SOL    HW132285   4.132   0.039   4.362 -0.1090  1.2153  1.3998
 6883SOL    HW232286   4.065   0.132   4.454 -1.5990  1.4839 -0.9147
 6884SOL     OW32287   4.647   0.267   4.208 -0.0828 -0.6429  0.3671
 6884SOL    HW132288   4.662   0.320   4.130 -0.8002 -1.2420 -0.1832
 6884SOL    HW232289   4.703   0.190   4.196  0.4266  0.2062 -2.7340
 6885SOL     OW32290   3.548   3.474   5.190  0.0930  0.2733 -0.0629
 6885SOL    HW132291   3.598   3.394   5.177  0.9192  0.8645 -0.5319
 6885SOL    HW232292   3.471   3.434   5.229 -0.2681  1.5664  0.5406
 6886SOL     OW32293   2.074   2.437   8.066 -0.0153 -0.7258  0.0512
 6886SOL    HW132294   2.156   2.482   8.048 -0.4706 -0.3231 -0.9900
 6886SOL    HW232295   2.101   2.366   8.125 -0.3394 -1.1966 -0.3656
 6887SOL     OW32296   4.452   3.914   7.563  0.3370  0.5734 -0.2229
 6887SOL    HW132297   4.539   3.891   7.596  0.6861  0.0985 -1.4813
 6887SOL    HW232298   4.402   3.852   7.615  0.4570  0.4561 -0.2469
 6888SOL     OW32299   3.170   0.145  10.476  0.3165 -0.0272 -0.1144
 6888SOL    HW132300   3.190   0.156  10.569  0.5037 -3.7782  0.2627
 6888SOL    HW232301   3.087   0.099  10.481  0.5185 -0.5044 -1.2242
 6889SOL     OW32302   3.629   2.133   4.377 -0.2782 -0.4733 -0.1861
 6889SOL    HW132303   3.721   2.158   4.385 -0.3672 -0.3203  0.4071
 6889SOL    HW232304   3.623   2.059   4.437 -2.0575  0.2145  0.5034
 6890SOL     OW32305   0.785   3.567   8.624  0.3926  0.1510 -0.5197
 6890SOL    HW132306   0.781   3.663   8.624  0.4977  0.1508 -1.1746
 6890SOL    HW232307   0.705   3.548   8.575  0.6138  0.0100 -0.8238
 6891SOL     OW32308   1.745   4.256   3.518 -0.2006  0.1227  0.1387
 6891SOL    HW132309   1.698   4.332   3.483  2.1348  1.3872 -0.2609
 6891SOL    HW232310   1.823   4.276   3.466  0.3987 -0.4812  0.8109
 6892SOL     OW32311   1.741   1.222  12.223  0.6247 -0.2629 -0.5638
 6892SOL    HW132312   1.776   1.163  12.156 -1.6227  0.2549 -2.2070
 6892SOL    HW232313   1.681   1.165  12.270 -0.5627  0.6321 -0.9973
 6893SOL     OW32314   4.597   2.055  13.832  0.6447 -0.1024  0.5547
 6893SOL    HW132315   4.578   2.119  13.901 -2.6882 -0.4418 -0.0522
 6893SOL    HW232316   4.651   2.103  13.768  0.3572  1.7942  1.7454
 6894SOL     OW32317   1.010   1.790   3.014  0.3432  0.1298 -0.0390
 6894SOL    HW132318   0.943   1.824   2.954 -2.4214 -0.4498  2.7347
 6894SOL    HW232319   0.966   1.813   3.095 -0.3859 -0.4182 -0.2844
 6895SOL     OW32320   3.770   4.484   2.414 -0.4807 -0.4588  0.3309
 6895SOL    HW132321   3.714   4.550   2.374 -1.2251 -0.9514  0.5555
 6895SOL    HW232322   3.857   4.523   2.408 -0.7603 -0.0674 -1.1666
 6896SOL     OW32323   2.397   1.975  13.348  0.5390 -0.0606  0.2134
 6896SOL    HW132324   2.489   1.979  13.323  1.0895 -0.2203  2.1886
 6896SOL    HW232325   2.399   2.006  13.439  0.1203 -0.0827  0.2297
 6897SOL     OW32326   4.491   1.054  15.117  0.8585 -0.0858 -0.2619
 6897SOL    HW132327   4.458   1.010  15.039  1.0762  0.0433 -0.4301
 6897SOL    HW232328   4.553   0.995  15.159 -0.5515 -0.1839  1.6682
 6898SOL     OW32329   1.893   3.404  15.925  0.1386 -0.1778 -0.0234
 6898SOL    HW132330   1.847   3.488  15.928  0.7444  0.1595 -0.2327
 6898SOL    HW232331   1.926   3.398  15.836 -0.4314  1.4427 -0.3410
 6899SOL     OW32332   4.050   2.608   0.057 -0.1797 -0.2242 -0.1280
 6899SOL    HW132333   4.040   2.516   0.032  1.5195 -0.8087  1.2941
 6899SOL    HW232334   3.994   2.626   0.133  1.5926  0.7550  0.9449
 6900SOL     OW32335   0.921   2.755   3.494  0.0178  0.4490  0.1932
 6900SOL    HW132336   0.861   2.813   3.540 -2.8967 -1.3169 -1.3568
 6900SOL    HW232337   1.000   2.807   3.507  1.6367 -1.5864 -1.3096
 6901SOL     OW32338   0.007   1.982   0.669  0.3316  0.2579 -0.0269
 6901SOL    HW132339   4.724   1.930   0.591  0.4689 -0.7541  0.6091
 6901SOL    HW232340   0.070   2.038   0.623  1.3382 -2.8984 -2.5123
 6902SOL     OW32341   0.012   3.709   2.981 -0.2722  0.1844  0.0520
 6902SOL    HW132342   0.093   3.676   3.019 -0.4275  0.1506  0.3499
 6902SOL    HW232343   4.693   3.633   2.971 -0.6958  0.8228 -2.5033
 6903SOL     OW32344   4.364   0.093  11.007 -0.7689 -0.1828 -0.4452
 6903SOL    HW132345   4.304   0.160  10.975 -0.5792  0.1486 -0.1067
 6903SOL    HW232346   4.435   0.155  11.023 -0.0962 -0.8863 -0.6666
 6904SOL     OW32347   3.214   0.764   4.604  0.7560 -0.6421  1.0420
 6904SOL    HW132348   3.172   0.721   4.679  0.8085  0.5281  1.7312
 6904SOL    HW232349   3.261   0.696   4.556 -0.7270  0.1948 -1.5973
 6905SOL     OW32350   0.492   3.036   0.753  0.1379 -0.2256  0.2964
 6905SOL    HW132351   0.476   3.115   0.804 -0.1074  0.6435 -1.1327
 6905SOL    HW232352   0.562   3.076   0.700 -2.0746 -1.8836 -3.8800
 6906SOL     OW32353   3.612   3.368   6.315 -0.1908  0.4253  0.6013
 6906SOL    HW132354   3.570   3.443   6.356 -0.9602  0.4349 -0.2004
 6906SOL    HW232355   3.589   3.290   6.367 -0.1034 -1.7059 -2.5361
 6907SOL     OW32356   3.445   3.964   7.822  0.2074 -0.1367 -0.0397
 6907SOL    HW132357   3.435   4.059   7.815  0.6790 -0.1132 -0.4233
 6907SOL    HW232358   3.510   3.952   7.890  0.1373  1.8765  0.3836
 6908SOL     OW32359   1.345   0.916   9.009 -0.1026  0.1424  0.3864
 6908SOL    HW132360   1.337   0.825   9.035  0.8614 -0.5199 -1.6845
 6908SOL    HW232361   1.433   0.950   9.024 -0.1280 -0.0575  0.9868
 6909SOL     OW32362   4.221   1.168  17.073  0.0734 -0.4023 -0.2884
 6909SOL    HW132363   4.158   1.107  17.032  0.3806 -0.4646 -0.6704
 6909SOL    HW232364   4.262   1.201  16.993  0.7922 -1.6068 -0.4100
 6910SOL     OW32365   1.145   4.719  14.082  0.4104  0.2705  0.2396
 6910SOL    HW132366   1.129   0.015  13.994 -0.0739  2.5729  1.2239
 6910SOL    HW232367   1.065   4.671  14.105  0.5533  0.7464  1.7613
 6911SOL     OW32368   3.168   2.964   7.225  0.0312 -0.0841  0.2086
 6911SOL    HW132369   3.162   2.870   7.207  1.7673  0.1186 -1.4267
 6911SOL    HW232370   3.175   2.962   7.320  1.9615  0.4971  0.0719
 6912SOL     OW32371   2.604   3.491   2.930 -0.0104 -0.4740 -0.3702
 6912SOL    HW132372   2.552   3.415   2.958 -1.3464  0.4359 -0.3993
 6912SOL    HW232373   2.695   3.463   2.940  0.3107 -0.1065 -2.2530
 6913SOL     OW32374   1.639   0.543   3.838 -0.2467 -0.3225 -0.5111
 6913SOL    HW132375   1.548   0.537   3.866 -0.7818  0.9849 -1.9789
 6913SOL    HW232376   1.669   0.452   3.829  0.5590 -0.1921  0.8768
 6914SOL     OW32377   3.616   2.424   2.407 -0.2139 -0.2863  0.3796
 6914SOL    HW132378   3.663   2.342   2.394  1.7432  0.7640  0.7630
 6914SOL    HW232379   3.685   2.478   2.446 -0.2909  0.0009  0.1161
 6915SOL     OW32380   1.853   2.854   7.366  0.1145 -0.3321  0.1220
 6915SOL    HW132381   1.859   2.927   7.305 -0.8832 -0.2564  0.1192
 6915SOL    HW232382   1.922   2.794   7.338  1.0041  0.3213  0.9241
 6916SOL     OW32383   2.018   1.164  15.109  0.3603  0.0648 -0.2549
 6916SOL    HW132384   1.999   1.160  15.202  2.1456  0.2301  0.1224
 6916SOL    HW232385   2.085   1.095  15.109 -0.3779 -0.6517 -1.1683
 6917SOL     OW32386   2.054   3.463  17.007  0.0500  0.0134 -0.3454
 6917SOL    HW132387   2.085   3.535  16.951 -2.0217 -0.1339 -1.6663
 6917SOL    HW232388   2.123   3.447  17.072 -0.2466  1.2911  0.2772
 6918SOL     OW32389   4.524   1.151   2.520  0.0301 -0.5329  0.1649
 6918SOL    HW132390   4.447   1.197   2.553  0.3408  0.0176  0.1133
 6918SOL    HW232391   4.530   1.088   2.592  0.9977  0.0346  0.5732
 6919SOL     OW32392   2.903   4.128   3.405  0.0795 -1.2481  0.3059
 6919SOL    HW132393   2.816   4.124   3.446 -0.6304 -0.6275 -1.1537
 6919SOL    HW232394   2.880   4.051   3.354  0.0848 -0.0986 -1.4019
 6920SOL     OW32395   2.178   1.139   1.287 -0.1120  0.2291  0.4520
 6920SOL    HW132396   2.235   1.064   1.269  0.2053  0.4295  0.6054
 6920SOL    HW232397   2.215   1.212   1.237  1.1173  0.5030  1.7513
 6921SOL     OW32398   1.975   1.560   6.074  0.4879 -0.4854  0.3446
 6921SOL    HW132399   1.913   1.566   6.147 -0.5809  1.4373 -0.6972
 6921SOL    HW232400   1.990   1.653   6.055 -1.0563 -0.1454  0.7525
 6922SOL     OW32401   2.115   1.607   3.947  0.0888 -0.0330 -0.0669
 6922SOL    HW132402   2.076   1.669   4.009  0.3043  0.0954 -0.0580
 6922SOL    HW232403   2.195   1.658   3.935 -0.9135  1.5206 -0.1463
 6923SOL     OW32404   3.988   2.602   6.474  0.0399  0.0800  0.1906
 6923SOL    HW132405   4.044   2.529   6.500 -1.1537 -0.5809  0.8944
 6923SOL    HW232406   4.048   2.671   6.502 -1.2710  1.0660  0.5698
 6924SOL     OW32407   0.043   1.658  16.727  0.3716  0.0776  0.0996
 6924SOL    HW132408   0.136   1.656  16.749  0.2704 -1.1971  0.4448
 6924SOL    HW232409   0.041   1.634  16.634 -0.1468  0.3624  0.0400
 6925SOL     OW32410   4.614   3.778   4.935  0.2990 -0.4678 -0.1866
 6925SOL    HW132411   4.648   3.804   4.850 -0.4873  1.3767  0.0762
 6925SOL    HW232412   4.620   3.860   4.984  0.6971  0.4105 -1.7282
 6926SOL     OW32413   1.294   4.398   5.918  0.3380  0.2019  0.1670
 6926SOL    HW132414   1.387   4.415   5.904  0.5694 -0.5999  0.7281
 6926SOL    HW232415   1.293   4.304   5.937 -2.7622  0.6620  2.4008
 6927SOL     OW32416   2.473   1.292   5.053 -0.1011 -0.4640 -0.0053
 6927SOL    HW132417   2.566   1.315   5.060 -0.4769  1.3159 -1.0366
 6927SOL    HW232418   2.431   1.357   4.998  2.2611  0.0988 -1.1422
 6928SOL     OW32419   1.793   0.178   6.140  0.6710  0.1024 -0.0407
 6928SOL    HW132420   1.876   0.204   6.099 -0.1034  1.0128 -1.0326
 6928SOL    HW232421   1.829   0.142   6.221 -0.0410 -1.1960 -0.2958
 6929SOL     OW32422   2.873   1.583  17.685  0.3399  0.1178 -0.4709
 6929SOL    HW132423   2.867   1.491  17.662 -1.4040 -0.1933  1.2627
 6929SOL    HW232424   2.796   1.623  17.646  0.6498  2.4784  1.2707
 6930SOL     OW32425   2.915   4.479   2.811 -0.2809 -0.3552 -0.0181
 6930SOL    HW132426   2.969   4.472   2.890 -0.4239 -1.6723 -0.0423
 6930SOL    HW232427   2.874   4.393   2.816 -0.0886 -0.4536 -0.1717
 6931SOL     OW32428   2.787   1.031   9.012  0.2208  0.5063 -0.1444
 6931SOL    HW132429   2.717   0.980   8.971  0.7755 -1.5115  1.3929
 6931SOL    HW232430   2.734   1.108   9.033 -0.0060 -0.3952  2.5724
 6932SOL     OW32431   3.757   2.483   1.132  0.8249  0.0948 -0.2900
 6932SOL    HW132432   3.678   2.496   1.186  0.7815 -0.1144 -0.3011
 6932SOL    HW232433   3.723   2.446   1.050  3.0958 -2.5925  0.0069
 6933SOL     OW32434   2.729   1.432   6.999 -0.4328 -0.1273 -0.0501
 6933SOL    HW132435   2.810   1.484   6.999 -0.4385 -0.1240  0.6934
 6933SOL    HW232436   2.681   1.454   6.920  1.0490  1.3958 -0.5327
 6934SOL     OW32437   3.532   1.038   5.362 -0.4597  0.3285 -0.6129
 6934SOL    HW132438   3.623   1.020   5.386 -1.0766 -1.0280  0.7323
 6934SOL    HW232439   3.487   1.006   5.440 -0.0726 -1.0259 -0.9498
 6935SOL     OW32440   1.281   3.881   8.690 -0.5043 -0.7191  0.0913
 6935SOL    HW132441   1.276   3.952   8.626 -0.7076 -0.8653 -0.0525
 6935SOL    HW232442   1.195   3.841   8.678 -1.6221  1.7284 -0.1180
 6936SOL     OW32443   0.041   4.509   5.631  0.6387  0.0877  0.7991
 6936SOL    HW132444   0.135   4.511   5.617  0.0711  0.5287 -2.7499
 6936SOL    HW232445   0.005   4.558   5.557  1.6449 -0.5954 -0.1256
 6937SOL     OW32446   3.560   4.421   2.808 -0.4131  0.3200 -0.8078
 6937SOL    HW132447   3.475   4.411   2.765 -1.7532 -0.3146  2.0109
 6937SOL    HW232448   3.617   4.364   2.756  0.3305  1.2740 -1.0242
 6938SOL     OW32449   0.671   4.105   5.188  0.2018  0.2960  0.2863
 6938SOL    HW132450   0.711   4.121   5.103  0.5387 -0.9024  0.2204
 6938SOL    HW232451   0.749   4.119   5.242 -0.7799  0.3476  1.7033
 6939SOL     OW32452   0.158   3.754  17.021 -0.2110 -0.7893 -0.2102
 6939SOL    HW132453   0.158   3.847  16.997 -0.1494 -0.7360 -0.0083
 6939SOL    HW232454   0.251   3.735  17.012 -0.9813 -3.9475 -1.5904
 6940SOL     OW32455   3.886   3.130   4.345 -0.3026  0.4401  0.3062
 6940SOL    HW132456   3.879   3.035   4.338 -0.9855  0.5165 -0.0019
 6940SOL    HW232457   3.952   3.145   4.277 -0.6117  1.9236  0.3451
 6941SOL     OW32458   4.595   0.637   3.035 -0.4934  0.0915  0.7221
 6941SOL    HW132459   4.581   0.544   3.050  2.0595 -0.7105 -1.7894
 6941SOL    HW232460   4.630   0.627   2.946  1.0008 -1.5950  1.4976
 6942SOL     OW32461   1.723   0.687   4.640  0.5584 -0.1369  0.2498
 6942SOL    HW132462   1.695   0.605   4.600 -1.3497  0.2861  0.6912
 6942SOL    HW232463   1.667   0.751   4.596 -0.3470 -0.1641  1.3530
 6943SOL     OW32464   1.828   1.025   9.594 -0.2334  1.1832 -0.3736
 6943SOL    HW132465   1.893   0.989   9.655 -1.9764 -1.4589 -0.0732
 6943SOL    HW232466   1.745   0.983   9.616  0.2014  1.1805  1.2838
 6944SOL     OW32467   1.876   3.330   7.928 -0.1361  0.0367  0.2663
 6944SOL    HW132468   1.912   3.254   7.882 -1.0030 -1.3838  1.9457
 6944SOL    HW232469   1.795   3.344   7.880 -0.5740 -1.9420  0.4372
 6945SOL     OW32470   3.392   2.594   4.138 -0.2370  0.4212 -0.5734
 6945SOL    HW132471   3.330   2.623   4.205 -0.5934  0.9026 -1.1179
 6945SOL    HW232472   3.473   2.616   4.185 -0.7636 -0.8934  0.9712
 6946SOL     OW32473   1.691   1.284   6.483  0.1424 -0.2832 -0.4817
 6946SOL    HW132474   1.737   1.310   6.563  0.5867  1.0646 -1.1906
 6946SOL    HW232475   1.634   1.221   6.527  1.0404 -1.8611 -1.5832
 6947SOL     OW32476   0.472   1.968   5.897  0.2514 -0.2274  0.1126
 6947SOL    HW132477   0.439   2.042   5.846  0.7616 -0.4116 -0.4746
 6947SOL    HW232478   0.431   2.002   5.977  0.8752  1.4760 -0.2978
 6948SOL     OW32479   1.552   0.113   7.738  0.0132 -0.1841 -0.4242
 6948SOL    HW132480   1.597   0.078   7.660 -0.0963 -1.2657 -0.0056
 6948SOL    HW232481   1.611   0.073   7.802  1.5895  0.6295 -1.3550
 6949SOL     OW32482   2.800   0.794   6.529 -0.4972  0.2403  0.6873
 6949SOL    HW132483   2.828   0.723   6.587 -3.5102  1.5341  3.7111
 6949SOL    HW232484   2.860   0.863   6.556  2.4491 -1.4421 -1.5757
 6950SOL     OW32485   3.934   0.027   6.492  0.4029  0.1368  0.0029
 6950SOL    HW132486   3.852   4.720   6.514  0.3914  0.1568  0.0011
 6950SOL    HW232487   3.921   0.049   6.400  2.8617 -3.5475 -1.1982
 6951SOL     OW32488   2.145   0.754  14.078 -0.2547  0.6195  0.1550
 6951SOL    HW132489   2.088   0.677  14.083 -0.6949  1.0623  1.6918
 6951SOL    HW232490   2.201   0.740  14.154 -1.4640  2.0447  1.2893
 6952SOL     OW32491   1.069   1.123   5.981  0.4479  0.1812  0.1288
 6952SOL    HW132492   1.107   1.074   5.908 -1.2982 -1.2757  0.1831
 6952SOL    HW232493   1.099   1.210   5.955  1.3214 -0.2920 -0.4400
 6953SOL     OW32494   4.332   0.503  15.674  0.4974 -0.1691 -0.7414
 6953SOL    HW132495   4.283   0.575  15.636 -1.8182 -0.5890  1.5196
 6953SOL    HW232496   4.420   0.510  15.636  0.6466 -0.8160 -0.5251
 6954SOL     OW32497   4.363   1.351   2.594  0.5657 -0.0840  0.4087
 6954SOL    HW132498   4.284   1.385   2.553  1.0457 -0.1785 -0.6238
 6954SOL    HW232499   4.341   1.344   2.687  0.6094  1.5831  0.5340
 6955SOL     OW32500   0.208   3.550   1.383  0.2072  0.4079 -0.1454
 6955SOL    HW132501   0.145   3.622   1.372  0.4490  0.6465  0.0269
 6955SOL    HW232502   0.286   3.594   1.348  0.8070  0.9973  1.9375
 6956SOL     OW32503   0.240   1.867  15.660  0.8873 -0.3342 -0.7273
 6956SOL    HW132504   0.293   1.924  15.605 -1.2617  2.2305 -0.1293
 6956SOL    HW232505   0.185   1.928  15.709  0.0097 -0.8469 -1.0524
 6957SOL     OW32506   3.817   0.982   5.350  0.7776 -0.5787 -0.0417
 6957SOL    HW132507   3.828   0.928   5.272 -0.7015 -0.7610 -0.1342
 6957SOL    HW232508   3.808   0.919   5.422  2.0205  1.5360  1.9490
 6958SOL     OW32509   0.329   3.129  11.294  0.0896 -0.3938 -0.2337
 6958SOL    HW132510   0.332   3.034  11.283  1.8393 -0.7421  3.1509
 6958SOL    HW232511   0.233   3.136  11.300  0.3015  1.9035  0.5986
 6959SOL     OW32512   4.045   4.606   7.942 -0.0217  0.2001  0.0928
 6959SOL    HW132513   3.984   4.543   7.982  0.7141  1.5748  3.3569
 6959SOL    HW232514   4.072   4.640   8.027 -0.3325  2.7754 -0.8427
 6960SOL     OW32515   1.253   0.676   8.335 -0.2096 -0.0247  0.0513
 6960SOL    HW132516   1.245   0.722   8.418  1.8057 -2.1729  1.4557
 6960SOL    HW232517   1.208   0.740   8.281 -1.6451 -1.7882 -0.8547
 6961SOL     OW32518   2.226   2.174   7.092 -0.3841  0.2814  0.4488
 6961SOL    HW132519   2.270   2.134   7.017 -1.1977  2.9194 -1.4212
 6961SOL    HW232520   2.301   2.214   7.136  0.4067 -0.4454 -0.2418
 6962SOL     OW32521   3.994   2.109   1.340  0.8240 -0.5623 -0.7583
 6962SOL    HW132522   3.989   2.205   1.336  1.2752 -0.5475 -1.0353
 6962SOL    HW232523   3.961   2.094   1.429  1.1079 -1.0524 -0.7372
 6963SOL     OW32524   4.469   1.173   9.847 -0.1334  0.0059 -0.2579
 6963SOL    HW132525   4.546   1.119   9.860  0.2669  0.3922 -1.0007
 6963SOL    HW232526   4.406   1.123   9.898  0.4162 -0.9591 -0.5338
 6964SOL     OW32527   1.766   1.042   2.633 -0.1473  0.7217 -0.1353
 6964SOL    HW132528   1.718   1.094   2.698  2.2054  0.6133  1.7261
 6964SOL    HW232529   1.857   1.072   2.645  0.3251 -0.5340 -0.5717
 6965SOL     OW32530   4.344   2.442   4.518  0.5001  0.4147 -0.0937
 6965SOL    HW132531   4.343   2.490   4.436  0.1775  1.4129  0.4940
 6965SOL    HW232532   4.426   2.393   4.514  0.5495  0.4602  0.2918
 6966SOL     OW32533   2.526   0.680  12.411  0.2773  0.1562  0.4664
 6966SOL    HW132534   2.462   0.735  12.457 -1.5292 -0.1178 -1.6951
 6966SOL    HW232535   2.520   0.730  12.329 -1.2437 -0.5715  0.1368
 6967SOL     OW32536   2.130   2.903   2.838 -0.1068 -1.0848 -0.2913
 6967SOL    HW132537   2.067   2.896   2.910  0.9896  0.9866  0.8824
 6967SOL    HW232538   2.078   2.856   2.773 -2.4429  0.1102  0.7135
 6968SOL     OW32539   0.133   3.289   6.085 -0.1284  0.3482  0.0465
 6968SOL    HW132540   0.042   3.320   6.091  0.2535  1.1228  1.8806
 6968SOL    HW232541   0.124   3.204   6.129 -0.3825  0.4921  0.2729
 6969SOL     OW32542   0.903   0.232   6.422 -0.0054 -0.4005 -0.4153
 6969SOL    HW132543   0.886   0.315   6.377  0.8405  1.3695  2.5157
 6969SOL    HW232544   0.897   0.160   6.359 -0.3182 -3.1790  2.8562
 6970SOL     OW32545   0.193   2.263   2.418 -0.0282  0.0231  0.0829
 6970SOL    HW132546   0.274   2.274   2.467 -1.3524  0.7451  2.1311
 6970SOL    HW232547   0.137   2.234   2.490  1.2238  3.3791  2.3946
 6971SOL     OW32548   2.984   2.392   7.228  0.3027  0.1704 -0.0365
 6971SOL    HW132549   2.949   2.303   7.228  0.0839  0.2621 -1.2377
 6971SOL    HW232550   2.990   2.407   7.322  1.5296  0.2384 -0.1160
 6972SOL     OW32551   2.161   2.709   4.359  0.0545  0.1342 -0.0812
 6972SOL    HW132552   2.163   2.629   4.413  0.2174  1.0991  1.3432
 6972SOL    HW232553   2.134   2.674   4.274  0.3571 -3.7169  1.3914
 6973SOL     OW32554   4.629   1.243   3.928  0.0941  0.0896  0.4153
 6973SOL    HW132555   4.670   1.156   3.923 -1.7838 -0.8322  0.6629
 6973SOL    HW232556   4.704   1.292   3.959  0.4470 -0.0593 -0.1945
 6974SOL     OW32557   4.721   0.384  15.695 -0.2231 -0.0468 -0.2209
 6974SOL    HW132558   4.683   0.355  15.612 -0.5962 -0.2054  0.0038
 6974SOL    HW232559   4.692   0.475  15.693 -3.4901 -1.1016 -0.9335
 6975SOL     OW32560   1.504   2.463   8.890  0.4477  0.4188  0.0988
 6975SOL    HW132561   1.572   2.490   8.951  1.6366  2.9361 -2.3847
 6975SOL    HW232562   1.509   2.367   8.886  0.1417  0.3354  1.7421
 6976SOL     OW32563   4.022   2.659   9.372  0.2851 -0.3932 -0.8462
 6976SOL    HW132564   4.016   2.744   9.328  0.4298  0.4543  0.7925
 6976SOL    HW232565   3.936   2.619   9.355  2.1108 -3.1038 -3.6798
 6977SOL     OW32566   3.398   0.332   4.532  0.0197  0.0023 -0.6889
 6977SOL    HW132567   3.359   0.329   4.620  1.7713 -1.7494  0.0359
 6977SOL    HW232568   3.493   0.341   4.537  0.2644 -2.7526 -0.1880
 6978SOL     OW32569   2.164   1.319   0.083 -0.0854 -0.1059  0.4561
 6978SOL    HW132570   2.149   1.237   0.129 -1.1875  0.3106  0.8444
 6978SOL    HW232571   2.236   1.357   0.134  2.3585 -0.4134 -2.7762
 6979SOL     OW32572   4.691   0.278   7.633 -0.0972  0.1468 -0.2124
 6979SOL    HW132573   4.618   0.219   7.654  0.0719  0.0975  0.2296
 6979SOL    HW232574   4.720   0.298   7.722  0.0631  3.0406 -0.9372
 6980SOL     OW32575   4.331   2.200  13.761  0.0807  0.2248  0.4137
 6980SOL    HW132576   4.396   2.270  13.758 -1.0026  1.2459  0.8506
 6980SOL    HW232577   4.386   2.142  13.814 -0.6965  1.0415  2.1455
 6981SOL     OW32578   0.359   2.427   0.280  0.0136  0.3729 -0.0547
 6981SOL    HW132579   0.434   2.418   0.338  1.9688  1.3460 -2.4118
 6981SOL    HW232580   0.293   2.473   0.332 -0.1135  0.9504 -0.7184
 6982SOL     OW32581   0.030   2.890   0.961 -0.3415  0.2694 -0.5961
 6982SOL    HW132582   0.035   2.852   1.048  1.6782  1.3362 -0.2541
 6982SOL    HW232583   4.695   2.951   0.971  0.1740  0.5272  1.5986
 6983SOL     OW32584   4.219   0.010   0.774 -0.3359  0.3727  0.0605
 6983SOL    HW132585   4.203   4.731   0.681 -1.4713  1.2720  0.0955
 6983SOL    HW232586   4.302   4.700   0.774 -0.1053  0.7700 -0.9089
 6984SOL     OW32587   0.113   2.033   5.493 -0.5784  0.1032 -0.1773
 6984SOL    HW132588   0.156   2.022   5.408 -0.0628 -0.8216  0.2108
 6984SOL    HW232589   0.189   2.050   5.549  0.4858 -0.8974 -1.3164
 6985SOL     OW32590   0.062   4.302   6.372  0.4715  0.6069  0.1958
 6985SOL    HW132591   0.089   4.232   6.312  2.8779  1.7163 -0.0002
 6985SOL    HW232592   0.082   4.377   6.316 -1.2372  1.3651  0.6129
 6986SOL     OW32593   1.707   3.609   5.633  0.5419  0.4679  0.4835
 6986SOL    HW132594   1.769   3.680   5.618  1.3194  0.1494  2.2625
 6986SOL    HW232595   1.620   3.649   5.627 -0.9117 -3.1366 -2.3537
 6987SOL     OW32596   0.628   0.204   1.720  0.0811 -0.3015 -0.6471
 6987SOL    HW132597   0.533   0.215   1.716 -0.2007 -2.1493  0.5287
 6987SOL    HW232598   0.626   0.141   1.647  0.9337  0.1166 -1.0284
 6988SOL     OW32599   4.468   1.284   8.679  0.1296 -0.0962  0.2594
 6988SOL    HW132600   4.480   1.339   8.601 -0.1290 -0.3723  0.0258
 6988SOL    HW232601   4.530   1.335   8.732  1.2422  1.3117 -2.3477
 6989SOL     OW32602   4.400   4.393   8.223  0.0523  0.2801  0.2005
 6989SOL    HW132603   4.344   4.394   8.145  1.5867 -2.0242 -0.9310
 6989SOL    HW232604   4.443   4.308   8.222 -0.9876 -0.2005 -1.9572
 6990SOL     OW32605   2.558   3.066   1.656  0.0339  0.6164  0.2297
 6990SOL    HW132606   2.582   2.988   1.706 -0.4005  0.9294  0.9296
 6990SOL    HW232607   2.631   3.079   1.595  1.5283 -0.9473  1.6740
 6991SOL     OW32608   2.375   3.418  15.248  0.3340 -0.7486  0.4937
 6991SOL    HW132609   2.298   3.409  15.192  0.9024  0.4018 -0.4854
 6991SOL    HW232610   2.414   3.331  15.256  4.2286  0.7292 -2.4133
 6992SOL     OW32611   2.490   3.265   5.208 -0.2139  0.1878  0.3321
 6992SOL    HW132612   2.431   3.314   5.266 -0.4125 -0.8676  1.0235
 6992SOL    HW232613   2.557   3.326   5.178 -0.9220  1.1416  0.7087
 6993SOL     OW32614   1.088   4.157   8.709 -0.3956 -0.2333  0.4436
 6993SOL    HW132615   1.045   4.227   8.758 -0.7429  0.4963 -0.9054
 6993SOL    HW232616   1.133   4.118   8.785 -1.9270 -2.6389  0.1355
 6994SOL     OW32617   3.391   0.029   8.628  0.0830 -0.1234 -0.1936
 6994SOL    HW132618   3.328   4.730   8.690  0.9709 -0.9414  0.2136
 6994SOL    HW232619   3.364   0.121   8.624  0.2520 -0.0732 -0.1802
 6995SOL     OW32620   1.159   3.007   8.888  0.5958  0.0892  0.1634
 6995SOL    HW132621   1.146   2.950   8.812  0.3469  0.2456  0.0854
 6995SOL    HW232622   1.113   3.087   8.860 -1.4688 -1.3901 -0.6860
 6996SOL     OW32623   1.908   3.003  17.618  0.0812 -0.4889 -0.4386
 6996SOL    HW132624   1.932   2.915  17.590  2.3907 -0.2653  0.8331
 6996SOL    HW232625   1.837   3.027  17.558  0.7347  2.4423 -0.0618
 6997SOL     OW32626   1.384   4.155   6.632 -0.6177 -0.0387  0.5815
 6997SOL    HW132627   1.327   4.200   6.570 -1.0975  0.0028  1.0469
 6997SOL    HW232628   1.440   4.111   6.568 -1.5595 -1.9443  1.0715
 6998SOL     OW32629   3.138   4.669   2.418  0.1847 -0.1017  0.0109
 6998SOL    HW132630   3.215   4.674   2.474  0.6566  2.7688 -0.8567
 6998SOL    HW232631   3.088   4.595   2.449 -0.2048 -0.1230 -0.6593
 6999SOL     OW32632   0.567   2.872   6.526 -0.4986 -0.0301  0.3309
 6999SOL    HW132633   0.506   2.809   6.563 -0.5735  0.3041  0.7814
 6999SOL    HW232634   0.509   2.943   6.499  0.1921  0.5323  0.3234
 7000SOL     OW32635   3.165   2.690  13.551  0.1676 -0.1644  0.4292
 7000SOL    HW132636   3.096   2.752  13.529  0.7441  0.1866 -0.4216
 7000SOL    HW232637   3.109   2.615  13.534  1.0796 -0.3947 -1.5823
 7001SOL     OW32638   4.254   3.729  13.409  0.5362  0.3224  1.1091
 7001SOL    HW132639   4.346   3.751  13.393  0.8406 -2.4744 -1.0046
 7001SOL    HW232640   4.217   3.816  13.417  1.5022  0.8442 -0.1820
 7002SOL     OW32641   1.752   4.107   2.934 -0.5923 -0.8510  0.2374
 7002SOL    HW132642   1.824   4.055   2.897  0.7032  1.3258 -0.2768
 7002SOL    HW232643   1.702   4.140   2.859  0.0977  2.0749  1.0780
 7003SOL     OW32644   2.921   2.197   4.665 -0.3935 -0.7148 -0.6554
 7003SOL    HW132645   2.954   2.287   4.662  1.7243 -1.5502 -2.1209
 7003SOL    HW232646   2.867   2.196   4.744 -1.5485 -3.5580 -1.4767
 7004SOL     OW32647   2.837   4.626   4.219  0.4665 -0.6893  0.1701
 7004SOL    HW132648   2.775   4.690   4.254  0.8739 -0.3089  0.1962
 7004SOL    HW232649   2.883   4.602   4.299  1.4799  1.9853  0.3927
 7005SOL     OW32650   2.699   0.644   4.716 -0.3493 -0.3211 -0.2021
 7005SOL    HW132651   2.628   0.644   4.651 -1.2976  0.5854  0.8137
 7005SOL    HW232652   2.733   0.733   4.713 -2.0446  0.3307 -0.1391
 7006SOL     OW32653   2.971   4.522   4.435  0.0104 -0.5719  0.4208
 7006SOL    HW132654   2.938   4.444   4.390  2.0129 -2.0769  1.5616
 7006SOL    HW232655   3.067   4.521   4.430  0.0673  2.1680  1.0972
 7007SOL     OW32656   4.301   0.414   4.076  0.4668 -0.0695 -0.0265
 7007SOL    HW132657   4.327   0.409   3.984  2.5645  0.0328  0.5454
 7007SOL    HW232658   4.258   0.330   4.095  1.5083 -0.3084  1.2763
 7008SOL     OW32659   4.712   3.224   5.468 -0.1043  0.0209 -0.6414
 7008SOL    HW132660   4.688   3.212   5.376 -1.6879 -0.3744 -0.1792
 7008SOL    HW232661   0.043   3.158   5.481 -0.0139  0.1868 -0.2966
 7009SOL     OW32662   3.234   0.752   5.663  0.5016  0.3168 -0.1011
 7009SOL    HW132663   3.220   0.762   5.757 -0.3651 -1.7994  0.0020
 7009SOL    HW232664   3.149   0.774   5.623  0.0638 -2.2812 -0.6475
 7010SOL     OW32665   3.478   0.388  10.919  0.1237  0.0409 -0.0185
 7010SOL    HW132666   3.434   0.423  10.997 -1.3453  0.5353 -1.0776
 7010SOL    HW232667   3.430   0.306  10.905  3.5735 -1.8257 -0.7585
 7011SOL     OW32668   3.281   4.144   4.316  0.1420  0.2009  0.2874
 7011SOL    HW132669   3.326   4.132   4.399 -1.7298 -0.7152  1.1624
 7011SOL    HW232670   3.341   4.213   4.288 -1.8259  2.8356  2.5787
 7012SOL     OW32671   1.435   2.974  16.664 -0.0957  0.1453 -0.3571
 7012SOL    HW132672   1.428   3.053  16.718 -1.4791  0.3223 -0.7927
 7012SOL    HW232673   1.366   2.919  16.701 -1.5494  2.5235  0.4675
 7013SOL     OW32674   4.284   3.221  11.855  1.1834  0.3840  0.1858
 7013SOL    HW132675   4.304   3.224  11.761 -0.8701 -1.9924 -0.3301
 7013SOL    HW232676   4.234   3.302  11.861  2.0963  0.8994  0.8268
 7014SOL     OW32677   1.883   1.717   6.571 -0.9398  0.1977 -0.3785
 7014SOL    HW132678   1.874   1.684   6.660  2.8546  0.1709 -0.0181
 7014SOL    HW232679   1.892   1.809   6.595  0.7941  0.1770 -0.9319
 7015SOL     OW32680   2.262   1.725   0.573  0.2315  0.4061 -0.0373
 7015SOL    HW132681   2.204   1.801   0.565 -0.3805  0.2768  2.8645
 7015SOL    HW232682   2.307   1.726   0.489  0.0956 -0.6933 -0.1229
 7016SOL     OW32683   3.097   0.240   7.109  0.1440  1.0908  0.0826
 7016SOL    HW132684   3.022   0.291   7.139 -1.4116  0.0727 -2.0784
 7016SOL    HW232685   3.124   0.307   7.046  0.1787  0.7738 -0.2399
 7017SOL     OW32686   1.983   1.840   1.646  0.4929  0.1087  0.7637
 7017SOL    HW132687   1.942   1.832   1.732  1.4134  2.6152  1.4311
 7017SOL    HW232688   2.001   1.934   1.649 -0.1438  0.2528  0.1575
 7018SOL     OW32689   0.437   2.629   6.516  0.0102  0.0596  0.6552
 7018SOL    HW132690   0.453   2.630   6.422  0.6766 -2.0795  0.7275
 7018SOL    HW232691   0.416   2.536   6.527  0.5377 -0.0117  1.0593
 7019SOL     OW32692   4.073   1.326   2.633  0.2519  0.0839  0.5986
 7019SOL    HW132693   4.022   1.253   2.669  1.9506 -2.4828 -2.2873
 7019SOL    HW232694   4.084   1.374   2.715 -2.9846 -0.1581  1.1664
 7020SOL     OW32695   4.417   2.286   6.820 -0.0008 -0.0337 -0.0536
 7020SOL    HW132696   4.489   2.330   6.774 -0.9807  1.5005 -0.1477
 7020SOL    HW232697   4.393   2.365   6.869  0.2728  0.6176 -0.9560
 7021SOL     OW32698   1.969   2.699   9.854  0.4739  0.2517  0.6701
 7021SOL    HW132699   1.970   2.720   9.947 -0.2749  0.1482  0.7010
 7021SOL    HW232700   1.914   2.621   9.843  1.2969  0.0709 -2.3507
 7022SOL     OW32701   4.420   3.253   2.498 -0.3024 -0.0277 -0.1601
 7022SOL    HW132702   4.377   3.313   2.558  2.6099  0.9806  0.9394
 7022SOL    HW232703   4.405   3.177   2.554  2.2554 -0.8868 -0.6529
 7023SOL     OW32704   3.269   0.622   3.345  0.5278  0.1856 -0.4222
 7023SOL    HW132705   3.227   0.639   3.430 -0.4340 -0.2483 -0.8145
 7023SOL    HW232706   3.230   0.694   3.296  0.3337 -1.3786 -2.5474
 7024SOL     OW32707   2.730   3.175  13.922  0.5931  0.1746 -0.3506
 7024SOL    HW132708   2.703   3.228  13.997  1.8584  0.8472 -0.3647
 7024SOL    HW232709   2.748   3.092  13.966  0.4635  0.2078 -0.2342
 7025SOL     OW32710   4.077   4.403   7.295 -0.0491  0.3302 -0.0654
 7025SOL    HW132711   4.012   4.409   7.224 -0.1417  2.3749  0.2229
 7025SOL    HW232712   4.057   4.488   7.333  0.6430  0.7468 -0.6401
 7026SOL     OW32713   4.361   0.643   7.279 -0.0867 -0.2809 -0.4851
 7026SOL    HW132714   4.373   0.662   7.372  0.0960 -1.0558 -0.3506
 7026SOL    HW232715   4.443   0.681   7.246 -0.7297  0.6632 -0.9664
 7027SOL     OW32716   3.258   3.123   6.217 -0.1165  0.0910  0.5019
 7027SOL    HW132717   3.343   3.088   6.243 -0.3343  0.4864  1.7093
 7027SOL    HW232718   3.274   3.128   6.122 -0.1355  2.9192  0.6533
 7028SOL     OW32719   1.873   2.430   4.428 -0.1095 -0.2496 -0.4842
 7028SOL    HW132720   1.967   2.416   4.439 -0.1279  1.1007  1.3784
 7028SOL    HW232721   1.858   2.399   4.338  1.3538  2.9789 -1.8399
 7029SOL     OW32722   2.202   0.101   7.830  0.4885  0.6102 -0.2288
 7029SOL    HW132723   2.141   0.084   7.758 -1.2004  0.9618  1.1158
 7029SOL    HW232724   2.264   0.150   7.777 -0.4100 -0.3680 -2.1729
 7030SOL     OW32725   4.010   2.455  11.339 -0.5608 -0.7062 -0.1091
 7030SOL    HW132726   3.945   2.419  11.400 -2.7523  0.6657 -1.6069
 7030SOL    HW232727   4.025   2.540  11.379  0.0531 -0.8729  0.0162
 7031SOL     OW32728   0.266   1.391   6.144 -0.4068  0.1568 -0.1083
 7031SOL    HW132729   0.288   1.332   6.071 -0.5427  0.9840 -0.8210
 7031SOL    HW232730   0.260   1.467   6.086 -0.7069 -0.1041 -0.4232
 7032SOL     OW32731   0.925   4.324   7.041  0.1901  0.0987  0.1642
 7032SOL    HW132732   1.005   4.287   7.077  0.8288  1.0933 -0.2709
 7032SOL    HW232733   0.866   4.310   7.115 -0.4380  1.0112 -0.1720
 7033SOL     OW32734   3.186   0.081   5.973  0.1429  0.3597  0.3512
 7033SOL    HW132735   3.143   0.145   5.916 -0.8160 -1.1141 -0.5699
 7033SOL    HW232736   3.268   0.060   5.929 -0.5234  1.0072 -1.2031
 7034SOL     OW32737   4.086   4.651   3.669 -0.4618  0.9125 -0.2641
 7034SOL    HW132738   4.053   4.597   3.597 -0.0229  0.4169 -0.0927
 7034SOL    HW232739   4.109   4.585   3.734 -1.0771  1.5852  0.6511
 7035SOL     OW32740   3.662   0.027   6.847  0.6357 -0.1717  0.5730
 7035SOL    HW132741   3.594   4.698   6.836  0.7725  0.2922 -2.9019
 7035SOL    HW232742   3.723   4.700   6.809 -0.5693 -0.6304 -0.5728
 7036SOL     OW32743   0.100   1.887   2.710 -0.4882  0.3449 -0.2609
 7036SOL    HW132744   0.145   1.845   2.784  0.2107  1.8856  0.1771
 7036SOL    HW232745   0.079   1.806   2.662  2.7920 -2.5064  3.1075
 7037SOL     OW32746   0.520   3.531  15.645 -0.3066 -0.0803 -0.4830
 7037SOL    HW132747   0.491   3.617  15.615  0.4213 -0.0144 -0.9875
 7037SOL    HW232748   0.491   3.481  15.569 -0.9129  0.0183 -0.3217
 7038SOL     OW32749   4.132   0.034   2.970  0.7207  0.2607  0.3102
 7038SOL    HW132750   4.069   4.731   2.911 -0.3668  0.1387  1.5569
 7038SOL    HW232751   4.166   4.693   3.013  0.5290  0.1095  0.1861
 7039SOL     OW32752   3.407   0.217  14.544  0.5387  0.8925  0.3420
 7039SOL    HW132753   3.404   0.160  14.467  1.0919 -1.9070  2.4287
 7039SOL    HW232754   3.434   0.303  14.511  1.0591  1.0219  1.1023
 7040SOL     OW32755   3.882   3.456   1.552  0.7239  0.3943  0.3647
 7040SOL    HW132756   3.838   3.488   1.631  0.9845  0.0979  0.6319
 7040SOL    HW232757   3.960   3.424   1.597  1.8972  1.6057 -0.8140
 7041SOL     OW32758   4.458   4.507   4.435  0.1643  0.1327  0.2057
 7041SOL    HW132759   4.455   4.594   4.396 -1.4420  0.1092  0.3083
 7041SOL    HW232760   4.479   4.455   4.357  0.0402 -0.6946  0.7335
 7042SOL     OW32761   4.293   1.278  11.338  0.3581  0.0136 -0.0668
 7042SOL    HW132762   4.265   1.290  11.429 -1.0831 -0.5462 -0.4304
 7042SOL    HW232763   4.370   1.334  11.330  0.9005 -0.7192  0.0753
 7043SOL     OW32764   1.378   3.205   5.280  0.1818 -0.1550  0.3694
 7043SOL    HW132765   1.387   3.242   5.368 -0.0413  0.9263 -0.0569
 7043SOL    HW232766   1.450   3.246   5.233 -0.9033  0.0997 -1.0481
 7044SOL     OW32767   1.369   0.252  10.679 -0.2642 -0.0565 -0.1023
 7044SOL    HW132768   1.418   0.333  10.697  0.2491  0.1320 -2.2608
 7044SOL    HW232769   1.337   0.276  10.591 -0.0631  0.2041 -0.1058
 7045SOL     OW32770   1.618   1.545   4.383  0.7434 -0.3515  0.3074
 7045SOL    HW132771   1.524   1.524   4.384 -0.0734  3.4527  0.8619
 7045SOL    HW232772   1.649   1.532   4.472 -0.0840  0.7527  0.7447
 7046SOL     OW32773   3.789   1.301   9.562 -0.2811 -0.0771 -0.3105
 7046SOL    HW132774   3.744   1.222   9.592 -1.5523  0.8316  0.1776
 7046SOL    HW232775   3.714   1.360   9.570  1.5252  2.2911 -0.9499
 7047SOL     OW32776   2.483   3.685   3.744  0.0880 -0.0338 -0.2348
 7047SOL    HW132777   2.523   3.599   3.757 -1.6280 -0.7040  0.6258
 7047SOL    HW232778   2.393   3.658   3.725 -0.6673  1.9656  0.5497
 7048SOL     OW32779   0.691   3.805   8.262  0.4280 -0.6275 -0.5705
 7048SOL    HW132780   0.749   3.772   8.193 -0.7156  0.2091 -1.9148
 7048SOL    HW232781   0.633   3.729   8.266 -0.8739  0.3665 -0.9452
 7049SOL     OW32782   3.896   0.637   7.688 -0.0734  0.5496 -0.4122
 7049SOL    HW132783   3.842   0.697   7.638  2.8339  2.3231 -1.4008
 7049SOL    HW232784   3.840   0.559   7.688 -0.3146  0.7076  1.9043
 7050SOL     OW32785   2.969   0.062   8.838 -0.1960  0.4795  0.1231
 7050SOL    HW132786   2.998   4.729   8.781  2.3095  0.3838  1.4822
 7050SOL    HW232787   2.876   0.071   8.818 -0.4402 -1.3179  0.4360
 7051SOL     OW32788   3.024   2.151  16.466 -0.9005  0.1614 -0.3205
 7051SOL    HW132789   2.963   2.136  16.394 -0.8964  3.7053 -1.0809
 7051SOL    HW232790   2.999   2.077  16.522  0.2759 -0.2886 -0.3848
 7052SOL     OW32791   2.542   4.623  13.559 -0.2143  0.3269  0.0963
 7052SOL    HW132792   2.479   4.680  13.602 -1.0447 -1.2585  0.9841
 7052SOL    HW232793   2.537   4.540  13.607  2.1127 -0.9855 -1.8680
 7053SOL     OW32794   4.279   1.214   1.531  0.0484 -0.0180 -0.5007
 7053SOL    HW132795   4.209   1.276   1.551 -0.8437 -1.1917  0.0455
 7053SOL    HW232796   4.271   1.180   1.442 -1.0503 -0.1330 -0.3623
 7054SOL     OW32797   3.395   2.244   1.218  0.2192  0.4747  0.1104
 7054SOL    HW132798   3.354   2.178   1.274 -0.0334 -1.6177 -2.5038
 7054SOL    HW232799   3.466   2.187   1.188 -0.1585  0.1598 -0.1853
 7055SOL     OW32800   3.063   0.472   8.617 -0.0581  0.0476 -0.1091
 7055SOL    HW132801   2.984   0.436   8.577  0.7688 -2.8822  0.8407
 7055SOL    HW232802   3.076   0.562   8.588 -1.5055  0.1697 -0.3802
 7056SOL     OW32803   3.938   4.445  16.000 -0.5463  0.2655  0.0431
 7056SOL    HW132804   3.990   4.496  16.063 -1.5994  1.2332  0.1180
 7056SOL    HW232805   3.944   4.502  15.923 -3.4314 -0.4794 -0.7218
 7057SOL     OW32806   2.394   3.539  13.387  1.0529 -0.0891 -0.4153
 7057SOL    HW132807   2.347   3.541  13.470  1.9325  1.2694  0.0420
 7057SOL    HW232808   2.452   3.469  13.417  1.8783 -0.3167 -2.5087
 7058SOL     OW32809   3.273   0.610  10.049  0.1381  0.3400 -0.8200
 7058SOL    HW132810   3.324   0.602   9.969  0.9515  2.8709 -0.5462
 7058SOL    HW232811   3.342   0.601  10.115  0.8504 -0.9784 -1.7449
 7059SOL     OW32812   1.490   4.184  10.229 -0.5711  0.5344 -0.0693
 7059SOL    HW132813   1.581   4.177  10.201 -1.1747 -0.8881 -1.7107
 7059SOL    HW232814   1.504   4.169  10.323  2.0224 -1.9090 -0.8609
 7060SOL     OW32815   0.270   3.204  12.879 -0.3003  0.0161  0.3086
 7060SOL    HW132816   0.195   3.145  12.872  0.2391 -0.5352 -0.8711
 7060SOL    HW232817   0.295   3.192  12.970 -1.9628 -1.8438  0.5309
 7061SOL     OW32818   0.752   3.800   2.007 -0.3171 -0.4124 -0.0068
 7061SOL    HW132819   0.690   3.737   2.045 -2.6998  1.3795 -0.9238
 7061SOL    HW232820   0.768   3.764   1.919 -1.4098 -2.0559  0.4667
 7062SOL     OW32821   3.094   2.167   4.274 -0.3549 -0.0856 -0.6198
 7062SOL    HW132822   3.167   2.197   4.328 -0.0724 -0.9560 -0.5048
 7062SOL    HW232823   3.129   2.081   4.250 -0.2059 -0.5445  1.2956
 7063SOL     OW32824   3.178   1.170   7.054 -0.0654  0.2133  0.0315
 7063SOL    HW132825   3.216   1.207   7.133 -2.1142  0.8207  0.7276
 7063SOL    HW232826   3.213   1.220   6.981 -1.6472 -0.8035 -1.4397
 7064SOL     OW32827   0.161   1.445   8.569  0.2375 -0.5739  0.3307
 7064SOL    HW132828   0.242   1.407   8.535 -0.1801 -1.6963  0.5618
 7064SOL    HW232829   0.133   1.358   8.598 -1.8538 -0.2015 -0.6313
 7065SOL     OW32830   3.981   3.281   1.948  0.1341  0.0939  0.1094
 7065SOL    HW132831   3.955   3.347   1.884  3.2695 -0.0498 -1.3314
 7065SOL    HW232832   3.906   3.292   2.006 -0.2686  2.4110 -0.8623
 7066SOL     OW32833   4.581   1.147  16.389  1.0244 -0.1376 -0.0444
 7066SOL    HW132834   4.560   1.239  16.373  1.6322 -0.0457 -0.3203
 7066SOL    HW232835   4.621   1.132  16.303 -1.1496 -0.2926 -1.0199
 7067SOL     OW32836   4.455   1.052  11.275 -0.7727 -0.2427 -0.0507
 7067SOL    HW132837   4.402   0.973  11.281 -0.0418 -0.5660  2.0021
 7067SOL    HW232838   4.389   1.120  11.286 -0.7122 -0.4008  1.2709
 7068SOL     OW32839   3.699   2.804  15.366 -0.4446  0.0165  0.4773
 7068SOL    HW132840   3.775   2.775  15.316  0.4790  2.8971  0.1884
 7068SOL    HW232841   3.729   2.894  15.377  0.6359 -0.0972 -1.6312
 7069SOL     OW32842   1.676   4.287   4.951 -0.0811 -0.0731 -0.1052
 7069SOL    HW132843   1.718   4.203   4.969  0.1266 -0.5909 -3.0931
 7069SOL    HW232844   1.749   4.346   4.973  0.6490 -0.5834 -1.1865
 7070SOL     OW32845   4.536   3.956   6.104 -0.4103  0.1447 -0.5417
 7070SOL    HW132846   4.553   3.912   6.187 -0.1028 -0.4458 -0.9152
 7070SOL    HW232847   4.618   3.930   6.061 -0.2891  0.3004 -0.4089
 7071SOL     OW32848   4.536   3.159  12.979  0.2262 -0.0805 -0.1746
 7071SOL    HW132849   4.478   3.234  12.961 -1.2766 -2.0976 -3.6557
 7071SOL    HW232850   4.486   3.104  13.039 -0.5301  2.1920  1.3162
 7072SOL     OW32851   0.724   2.056   5.461  0.1456  0.0929  0.1414
 7072SOL    HW132852   0.797   2.116   5.475 -1.4424  1.8704  0.7955
 7072SOL    HW232853   0.655   2.103   5.508  0.8635  0.6238  0.6619
 7073SOL     OW32854   0.194   2.416   9.190  0.0588  0.0817 -0.0651
 7073SOL    HW132855   0.194   2.320   9.180 -0.8990  0.0833 -0.1140
 7073SOL    HW232856   0.266   2.439   9.132  0.2710 -2.7075 -0.9322
 7074SOL     OW32857   1.153   2.342   0.747  0.3815  0.1240 -0.0758
 7074SOL    HW132858   1.062   2.368   0.754  1.0717  1.8699  2.3250
 7074SOL    HW232859   1.200   2.422   0.770  0.6596 -0.3685  1.1044
 7075SOL     OW32860   0.858   0.276   9.248 -0.4174  0.3990  0.0011
 7075SOL    HW132861   0.773   0.278   9.204 -1.0322 -0.4903  1.1503
 7075SOL    HW232862   0.915   0.300   9.175 -0.5662 -2.6303 -1.1340
 7076SOL     OW32863   3.183   3.807  16.597 -0.0509 -0.1959  0.2969
 7076SOL    HW132864   3.265   3.798  16.646 -0.6594  1.6444  1.6300
 7076SOL    HW232865   3.175   3.714  16.575 -1.6376 -0.1329  0.5842
 7077SOL     OW32866   0.897   1.971   3.701  0.6093  0.0232 -0.3628
 7077SOL    HW132867   0.942   1.894   3.737  0.8251 -0.3913 -1.5043
 7077SOL    HW232868   0.926   2.047   3.751  2.0439 -1.4874  1.0873
 7078SOL     OW32869   1.691   3.163   4.202 -0.8629 -0.1383 -0.6264
 7078SOL    HW132870   1.762   3.131   4.147 -1.7224 -0.7974 -1.3554
 7078SOL    HW232871   1.627   3.211   4.149 -3.1859  0.4508  2.6734
 7079SOL     OW32872   1.070   1.448   1.502 -0.2114  0.1007 -0.2100
 7079SOL    HW132873   1.126   1.373   1.486  0.0473 -0.2246  2.2373
 7079SOL    HW232874   1.133   1.511   1.535  0.7450 -0.4029 -1.0686
 7080SOL     OW32875   3.317   2.058   1.402 -0.2371 -0.5936 -0.5425
 7080SOL    HW132876   3.333   2.005   1.324  0.9789  1.2386 -1.5317
 7080SOL    HW232877   3.378   2.015   1.463 -0.2440 -1.0977 -0.8945
 7081SOL     OW32878   1.603   1.996   0.218  0.1729  0.4656  0.2541
 7081SOL    HW132879   1.579   2.037   0.301 -2.2938  0.6692 -0.5548
 7081SOL    HW232880   1.641   2.071   0.173 -1.2948  0.8031 -0.4224
 7082SOL     OW32881   2.842   0.882   4.739 -0.2012  0.5333  0.6263
 7082SOL    HW132882   2.865   0.950   4.676  2.5036 -0.8184  0.1825
 7082SOL    HW232883   2.906   0.903   4.806  0.3224  0.1654  0.2435
 7083SOL     OW32884   0.667   1.145   2.808 -0.4686  0.1810 -0.2247
 7083SOL    HW132885   0.641   1.087   2.736 -0.5781  0.7902 -0.6716
 7083SOL    HW232886   0.701   1.223   2.764  0.1015 -1.2981 -2.4021
 7084SOL     OW32887   0.226   1.543   2.357 -0.0728  0.1703  0.1093
 7084SOL    HW132888   0.275   1.462   2.369 -2.6864 -1.2257  1.3569
 7084SOL    HW232889   0.281   1.605   2.405 -0.7463 -0.5612  1.8454
 7085SOL     OW32890   1.578   1.425   1.633  0.0963 -0.5694 -0.5010
 7085SOL    HW132891   1.629   1.503   1.654  0.6927 -1.9664  3.2501
 7085SOL    HW232892   1.581   1.426   1.538  0.4852 -0.2698 -0.4839
 7086SOL     OW32893   1.597   0.606   7.702 -0.0607  0.6867  0.3872
 7086SOL    HW132894   1.576   0.524   7.657 -0.0936  1.9684 -1.9194
 7086SOL    HW232895   1.581   0.585   7.794  0.5876 -0.3572  0.2588
 7087SOL     OW32896   2.112   1.905   7.077  0.5921  0.0840  0.2288
 7087SOL    HW132897   2.118   1.994   7.111  0.4858 -0.5333  1.8545
 7087SOL    HW232898   2.064   1.868   7.151  2.0372 -1.1260  0.5561
 7088SOL     OW32899   3.506   0.589  15.209  0.2127  0.2440  0.6132
 7088SOL    HW132900   3.589   0.599  15.163 -1.1577 -0.2307 -1.9802
 7088SOL    HW232901   3.452   0.640  15.148 -1.3958 -2.8272 -0.4987
 7089SOL     OW32902   0.323   3.267  16.075  0.4697  0.1261  0.1619
 7089SOL    HW132903   0.412   3.246  16.102  0.9720  1.1511 -0.7149
 7089SOL    HW232904   0.355   3.329  16.010  2.5416 -0.7362  0.3681
 7090SOL     OW32905   2.051   3.995   2.304  0.2281  0.3141 -0.3847
 7090SOL    HW132906   2.129   4.017   2.356 -0.6298  0.3358  0.9032
 7090SOL    HW232907   2.090   3.955   2.227 -0.2315 -1.1474  0.1373
 7091SOL     OW32908   3.897   1.630  16.073  0.4048 -0.5936 -0.2192
 7091SOL    HW132909   3.935   1.576  16.143  1.7193 -1.1546 -1.3671
 7091SOL    HW232910   3.896   1.566  16.002 -2.5158 -0.8725  0.0921
 7092SOL     OW32911   4.541   0.387   3.337  0.0583 -0.1040  0.3240
 7092SOL    HW132912   4.498   0.319   3.390  1.1720 -1.5728 -0.6322
 7092SOL    HW232913   4.630   0.394   3.372  0.0112 -1.7004  0.8118
 7093SOL     OW32914   2.289   1.442   3.002  0.3495 -0.1458 -0.1731
 7093SOL    HW132915   2.196   1.462   2.991  0.6216  1.0355 -0.2613
 7093SOL    HW232916   2.287   1.361   3.053 -4.0317 -0.0025 -0.1008
 7094SOL     OW32917   2.521   3.512   3.422 -0.6828  0.3325  0.2581
 7094SOL    HW132918   2.523   3.416   3.425 -1.3366  0.2823 -1.1823
 7094SOL    HW232919   2.579   3.533   3.496 -2.2659  1.0426  1.2813
 7095SOL     OW32920   3.755   0.915  15.249 -0.0205 -0.2330 -0.3829
 7095SOL    HW132921   3.666   0.882  15.237 -0.6344  0.6765  1.6855
 7095SOL    HW232922   3.818   0.872  15.192 -1.0289  1.6916 -2.9751
 7096SOL     OW32923   3.664   1.049   9.319  0.2836 -0.1043 -0.2671
 7096SOL    HW132924   3.682   1.136   9.355  1.5566 -0.8633  0.9323
 7096SOL    HW232925   3.594   1.026   9.381  1.9988 -2.1241  0.9357
 7097SOL     OW32926   1.299   1.534  12.160 -0.0160 -0.6433  0.0596
 7097SOL    HW132927   1.354   1.593  12.212 -0.5871  1.0567 -1.2647
 7097SOL    HW232928   1.285   1.476  12.235 -1.1152  0.1274  0.4508
 7098SOL     OW32929   3.631   1.290  14.180 -0.4445 -0.8406 -0.4386
 7098SOL    HW132930   3.562   1.272  14.116 -1.4141 -0.8170  0.5919
 7098SOL    HW232931   3.595   1.367  14.226 -1.1922 -1.4642  0.0179
 7099SOL     OW32932   3.457   1.316   3.542 -0.8245 -0.3355 -0.3778
 7099SOL    HW132933   3.405   1.396   3.551  0.4277  0.4033  0.2600
 7099SOL    HW232934   3.539   1.348   3.580 -0.5572  0.4724 -1.6354
 7100SOL     OW32935   3.645   1.594   7.334  0.2812  0.1802  0.3669
 7100SOL    HW132936   3.638   1.672   7.278 -2.9469  0.6244  1.3558
 7100SOL    HW232937   3.619   1.635   7.417  0.6225 -0.1726  0.6423
 7101SOL     OW32938   0.069   2.608  15.651  0.0092  0.1974  0.3169
 7101SOL    HW132939   4.718   2.599  15.684  0.0972  0.4508  0.6200
 7101SOL    HW232940   0.102   2.519  15.636  0.3373  0.3506  0.1081
 7102SOL     OW32941   0.007   1.729   5.795  0.1487 -0.5747 -0.2599
 7102SOL    HW132942   4.682   1.753   5.864  0.8487  2.1186 -0.5504
 7102SOL    HW232943   4.711   1.650   5.755  1.3315 -2.0073  1.5343
 7103SOL     OW32944   2.931   3.029  13.077 -0.6300 -0.0547  0.0022
 7103SOL    HW132945   3.016   3.069  13.095 -1.1871  0.7989  0.6954
 7103SOL    HW232946   2.879   3.108  13.060  0.0567  0.6682  1.2434
 7104SOL     OW32947   3.884   0.868   1.072 -0.5594 -0.2075 -0.0610
 7104SOL    HW132948   3.900   0.943   1.128 -0.6262  0.7719 -1.3616
 7104SOL    HW232949   3.855   0.809   1.142 -0.5953  0.6789  0.6677
 7105SOL     OW32950   0.183   3.016   9.045 -0.8749 -0.6056  0.4882
 7105SOL    HW132951   0.093   3.015   9.077 -1.4241  0.3986 -1.0298
 7105SOL    HW232952   0.208   2.927   9.070  3.6164  0.3041 -0.7249
 7106SOL     OW32953   3.255   1.586   5.108 -0.4647  0.1581 -0.2577
 7106SOL    HW132954   3.177   1.642   5.105  0.2927  1.1377 -1.8136
 7106SOL    HW232955   3.327   1.647   5.123 -0.5178 -0.5801  2.9632
 7107SOL     OW32956   2.697   3.177   3.969 -0.3961 -0.2121  0.7642
 7107SOL    HW132957   2.621   3.236   3.967  0.1810  0.5673  2.0620
 7107SOL    HW232958   2.719   3.164   4.061  0.0042  1.2446  0.8643
 7108SOL     OW32959   2.801   3.474  13.038  0.2573 -0.1822 -0.3372
 7108SOL    HW132960   2.806   3.434  13.125  0.6685 -1.8008 -1.1103
 7108SOL    HW232961   2.779   3.393  12.993  0.9670 -0.2716 -0.5243
 7109SOL     OW32962   4.056   4.324   6.647  0.1534  0.2577 -0.2672
 7109SOL    HW132963   4.135   4.379   6.654 -0.3087  0.9391 -0.3813
 7109SOL    HW232964   4.076   4.257   6.712  3.0526  1.4027  0.0459
 7110SOL     OW32965   1.066   0.078  10.344 -0.0258  0.0556  1.0112
 7110SOL    HW132966   1.017   0.160  10.336  0.2173 -0.1558 -2.6409
 7110SOL    HW232967   0.997   0.018  10.318 -0.9393  1.9602 -0.9665
 7111SOL     OW32968   3.246   3.433   4.004  0.3469 -0.3446 -0.3625
 7111SOL    HW132969   3.273   3.491   3.933 -0.0260  1.5975  1.0683
 7111SOL    HW232970   3.315   3.452   4.068  0.1718  1.8884 -0.8191
 7112SOL     OW32971   0.136   4.377   1.888  0.5967  0.0195  0.0349
 7112SOL    HW132972   0.087   4.428   1.823 -1.0388 -0.9874  0.5000
 7112SOL    HW232973   0.139   4.423   1.972 -4.4963 -0.7287  0.6199
 7113SOL     OW32974   2.204   2.699  14.885  0.2806 -0.1510  0.1305
 7113SOL    HW132975   2.153   2.666  14.811  2.2839  0.4969 -1.5357
 7113SOL    HW232976   2.293   2.673  14.861  0.5922 -0.1121  1.2375
 7114SOL     OW32977   1.242   0.922   4.265  0.2709 -0.0198 -0.5406
 7114SOL    HW132978   1.250   0.984   4.193 -2.3373  1.8012  0.7299
 7114SOL    HW232979   1.267   0.990   4.329  0.8777 -0.7454 -0.0063
 7115SOL     OW32980   0.890   4.011   6.884  0.7580  0.2317 -0.1387
 7115SOL    HW132981   0.872   3.973   6.971  0.1697 -0.4711 -0.5665
 7115SOL    HW232982   0.944   3.945   6.840 -0.9891 -0.8356 -0.6745
 7116SOL     OW32983   2.043   2.170   6.446  0.6866 -0.4593 -0.1125
 7116SOL    HW132984   2.110   2.125   6.498 -0.5051 -0.3220  1.5290
 7116SOL    HW232985   2.074   2.261   6.441  1.2097 -0.6931 -1.1572
 7117SOL     OW32986   4.305   3.563   7.190  0.1799  0.7682  0.0760
 7117SOL    HW132987   4.311   3.655   7.216 -3.7830  1.4041 -1.2309
 7117SOL    HW232988   4.218   3.536   7.219  0.4094 -0.2207 -0.1753
 7118SOL     OW32989   2.719   0.162   8.993  0.0448  0.3030 -1.2211
 7118SOL    HW132990   2.694   0.097   8.927  1.7233 -2.5336  0.9292
 7118SOL    HW232991   2.811   0.157   9.017  0.2404 -1.0879 -2.2763
 7119SOL     OW32992   4.135   0.860   4.328  0.2906  0.3482 -0.1010
 7119SOL    HW132993   4.205   0.794   4.331 -1.4610 -1.5654 -1.3702
 7119SOL    HW232994   4.059   0.803   4.318  1.6815 -1.5469  0.1614
 7120SOL     OW32995   2.412   1.778   3.101 -0.8352 -0.0624  0.0864
 7120SOL    HW132996   2.327   1.769   3.056 -1.5893 -0.0042  1.4889
 7120SOL    HW232997   2.455   1.842   3.045  3.4989 -0.7475  2.6695
 7121SOL     OW32998   1.686   0.967   8.212 -0.3135  0.3300  0.1827
 7121SOL    HW132999   1.768   0.918   8.209 -0.8484 -0.4812 -1.3801
 7121SOL    HW233000   1.618   0.909   8.178 -0.1212  0.0071  0.3458
 7122SOL     OW33001   4.467   4.585   6.167 -0.7415  0.1740 -0.3166
 7122SOL    HW133002   4.520   4.665   6.174  0.3267 -0.5097 -0.6053
 7122SOL    HW233003   4.482   4.550   6.079 -0.6981 -2.6907  0.8205
 7123SOL     OW33004   2.903   2.844   1.083  0.2729 -0.3237  0.0558
 7123SOL    HW133005   2.912   2.936   1.108 -0.1345 -0.3025  0.1278
 7123SOL    HW233006   2.886   2.792   1.162  0.2761 -1.0160 -0.3962
 7124SOL     OW33007   2.771   0.367   8.824  0.0244 -0.4037 -0.1535
 7124SOL    HW133008   2.786   0.332   8.736  0.6990  0.6352 -0.4564
 7124SOL    HW233009   2.741   0.289   8.870  0.6404  1.3578  3.2003
 7125SOL     OW33010   3.293   3.700   7.989 -0.1480  0.0380 -0.6680
 7125SOL    HW133011   3.277   3.780   8.038  2.2852  0.2412 -0.1871
 7125SOL    HW233012   3.214   3.688   7.936 -0.6323 -1.4858  0.3865
 7126SOL     OW33013   4.673   3.538   9.345  0.2341 -0.0234  0.0850
 7126SOL    HW133014   4.601   3.526   9.284  0.6109 -2.5684  0.1446
 7126SOL    HW233015   4.633   3.550   9.431 -1.7116  0.2374 -0.8775
 7127SOL     OW33016   2.633   1.661   2.266 -0.1085  0.5160  0.9390
 7127SOL    HW133017   2.629   1.734   2.204  0.9909 -1.2576 -1.2250
 7127SOL    HW233018   2.726   1.645   2.282  0.2800  1.0157 -0.8167
 7128SOL     OW33019   1.167   1.544   6.098  0.0740 -0.4110  0.5282
 7128SOL    HW133020   1.193   1.508   6.183 -0.1396  0.2266  0.8594
 7128SOL    HW233021   1.095   1.597   6.130  0.8007  0.7476  0.2340
 7129SOL     OW33022   4.492   0.343   8.115  0.4782  0.9438  0.2283
 7129SOL    HW133023   4.461   0.253   8.125  1.6645  0.1855 -2.9398
 7129SOL    HW233024   4.469   0.391   8.195 -2.4329 -0.1686  0.0706
 7130SOL     OW33025   2.598   3.575   1.853  0.0326  0.0748  0.0142
 7130SOL    HW133026   2.512   3.547   1.822 -0.2384  1.4334 -0.4631
 7130SOL    HW233027   2.651   3.512   1.803 -1.6995 -1.8624  0.6037
 7131SOL     OW33028   4.172   1.684  12.122 -0.3464  0.5001 -0.6005
 7131SOL    HW133029   4.210   1.649  12.041  1.1687 -1.3643  0.9420
 7131SOL    HW233030   4.183   1.620  12.192  1.7745  0.9060 -0.5675
 7132SOL     OW33031   0.424   1.750   4.448  0.3795  0.2987  0.2087
 7132SOL    HW133032   0.360   1.785   4.510  1.8204 -0.2276  2.0081
 7132SOL    HW233033   0.501   1.741   4.504  1.4920 -0.4371 -1.4527
 7133SOL     OW33034   4.136   3.529   9.471  0.6837 -0.1632  0.2126
 7133SOL    HW133035   4.109   3.493   9.386 -2.6933 -0.1111  1.2697
 7133SOL    HW233036   4.123   3.624   9.468  1.6875 -0.0565 -0.5229
 7134SOL     OW33037   1.555   2.358   3.421 -0.0124 -0.1170 -0.3702
 7134SOL    HW133038   1.501   2.290   3.381 -0.6653 -0.3562  0.9039
 7134SOL    HW233039   1.583   2.415   3.349  3.2581  0.2897  1.2237
 7135SOL     OW33040   1.584   0.110   4.165 -0.0300 -0.3567  0.1107
 7135SOL    HW133041   1.498   0.069   4.174  0.3592 -1.4466 -1.1509
 7135SOL    HW233042   1.575   0.177   4.233  1.4212 -1.0833  1.0054
 7136SOL     OW33043   0.803   3.908   4.461  0.4390 -0.5098  0.5219
 7136SOL    HW133044   0.797   3.812   4.466  1.4749 -0.7373 -2.7284
 7136SOL    HW233045   0.861   3.922   4.387 -0.6879  1.4151  0.0055
 7137SOL     OW33046   0.864   4.098   3.210  0.2934  0.5822 -0.2854
 7137SOL    HW133047   0.946   4.138   3.181  0.6361  0.2033  0.1407
 7137SOL    HW233048   0.895   4.028   3.268 -3.6367 -0.8359  0.0811
 7138SOL     OW33049   3.598   2.026   7.466  0.2081 -0.1291  0.3481
 7138SOL    HW133050   3.644   1.978   7.534 -1.4514 -1.4273  0.5573
 7138SOL    HW233051   3.589   2.113   7.504  2.9640  0.7790 -1.0799
 7139SOL     OW33052   4.369   1.288   0.577 -0.2094 -0.1280  0.0767
 7139SOL    HW133053   4.283   1.257   0.548 -1.2055  1.9637  0.7430
 7139SOL    HW233054   4.407   1.295   0.489 -0.7001 -0.3455 -0.1535
 7140SOL     OW33055   0.089   3.169   5.107  0.1367 -0.1121 -0.8215
 7140SOL    HW133056   0.059   3.085   5.072  2.4273 -1.7842  1.2719
 7140SOL    HW233057   0.004   3.196   5.142  1.6073  1.0737  1.8103
 7141SOL     OW33058   2.409   0.047   3.030  0.0594 -0.7733  0.1604
 7141SOL    HW133059   2.404   0.025   3.123 -1.1637 -0.1085  0.2542
 7141SOL    HW233060   2.349   4.718   2.996 -0.6710  0.7767 -1.6133
 7142SOL     OW33061   0.106   4.116  16.211 -0.7421 -0.7783 -0.3205
 7142SOL    HW133062   0.049   4.041  16.192 -1.7437  0.1830 -1.0757
 7142SOL    HW233063   0.193   4.077  16.222 -0.0320  0.5687 -1.2636
 7143SOL     OW33064   0.258   3.125  13.743  0.3129  0.0890  0.5334
 7143SOL    HW133065   0.251   3.110  13.648 -2.2495 -0.0150  0.7303
 7143SOL    HW233066   0.178   3.087  13.780  0.3858  1.2441  1.8529
 7144SOL     OW33067   1.101   2.627   6.771 -0.3375 -0.4006  0.1382
 7144SOL    HW133068   1.134   2.619   6.861 -0.9822 -3.1754  0.1083
 7144SOL    HW233069   1.057   2.542   6.766 -1.0801  0.0061 -0.2628
 7145SOL     OW33070   2.989   0.663   4.044 -0.9765 -0.1410 -0.0995
 7145SOL    HW133071   2.969   0.592   3.984  0.0447 -0.2770 -0.2918
 7145SOL    HW233072   2.976   0.613   4.125 -0.7973  0.1459  0.1085
 7146SOL     OW33073   1.578   2.958   3.189 -0.1372 -0.6285  0.0095
 7146SOL    HW133074   1.632   3.021   3.141 -0.5858 -1.0089 -0.9999
 7146SOL    HW233075   1.637   2.887   3.164 -0.4214 -0.5454 -0.9061
 7147SOL     OW33076   2.868   1.892   7.792 -0.4213  0.2847  0.1487
 7147SOL    HW133077   2.795   1.896   7.853 -0.0829 -1.9906  0.7116
 7147SOL    HW233078   2.928   1.943   7.846 -0.3531  0.5940 -0.2134
 7148SOL     OW33079   1.455   2.974   2.740  0.4205 -0.3317 -0.1982
 7148SOL    HW133080   1.445   3.017   2.825  1.8892  0.1377 -0.2616
 7148SOL    HW233081   1.367   2.938   2.734  0.1050  0.1174  1.7315
 7149SOL     OW33082   0.897   4.635   8.139  0.0036 -0.3293  0.1016
 7149SOL    HW133083   0.903   4.583   8.059 -0.0454 -1.1012  0.5976
 7149SOL    HW233084   0.992   4.643   8.146 -0.0141 -1.2843  1.4339
 7150SOL     OW33085   3.542   1.626  11.160  0.4603  0.6131  0.5472
 7150SOL    HW133086   3.523   1.533  11.152  2.1277  0.2495  1.0148
 7150SOL    HW233087   3.544   1.630  11.256  1.4858  1.2771  0.4948
 7151SOL     OW33088   1.646   4.483  17.667  0.3305 -0.2014 -0.5736
 7151SOL    HW133089   1.561   4.510  17.703  0.0888 -0.8978 -0.6287
 7151SOL    HW233090   1.620   4.395  17.641  1.0984  0.1171 -2.3899
 7152SOL     OW33091   3.620   4.344   6.054 -0.2688  0.6612  0.6500
 7152SOL    HW133092   3.703   4.298   6.041 -0.5056  0.6676 -0.8377
 7152SOL    HW233093   3.598   4.359   5.962 -1.0025  1.5402  0.9675
 7153SOL     OW33094   2.248   4.152  16.794 -0.1146 -0.2372 -0.3137
 7153SOL    HW133095   2.171   4.143  16.849  0.6276  0.0317  0.7572
 7153SOL    HW233096   2.222   4.208  16.721  0.2938  1.2693  0.6948
 7154SOL     OW33097   0.978   1.715   1.388  0.2370  0.0666  0.2001
 7154SOL    HW133098   1.007   1.657   1.458 -0.7705  0.6055  1.0486
 7154SOL    HW233099   0.970   1.653   1.315 -0.5209  1.6489 -1.0729
 7155SOL     OW33100   2.696   3.448   1.509  0.5315 -0.3272  0.4655
 7155SOL    HW133101   2.709   3.405   1.593 -0.1046 -2.2996 -0.4629
 7155SOL    HW233102   2.749   3.528   1.515  2.0963 -1.3040 -0.6131
 7156SOL     OW33103   4.284   0.662  14.840  0.1939  0.0337  0.3811
 7156SOL    HW133104   4.271   0.591  14.777  1.0798  1.1790 -1.0811
 7156SOL    HW233105   4.223   0.730  14.810  0.3758 -0.9764 -2.2413
 7157SOL     OW33106   4.445   3.022   5.712  0.2275 -0.2483  0.5368
 7157SOL    HW133107   4.359   3.023   5.672 -0.0266  1.7053  1.0953
 7157SOL    HW233108   4.482   2.982   5.633  1.6630 -0.6865  1.4314
 7158SOL     OW33109   2.475   0.202  16.155  0.6506 -0.0480 -0.7823
 7158SOL    HW133110   2.490   0.229  16.245 -0.7186  0.8272 -0.8199
 7158SOL    HW233111   2.432   0.118  16.170  0.2347  0.1101 -1.0740
 7159SOL     OW33112   2.269   0.328   9.016  0.7474  0.5580  0.4714
 7159SOL    HW133113   2.220   0.305   8.937  0.0439  1.4645  0.6361
 7159SOL    HW233114   2.272   0.424   9.014 -0.4442  0.5559 -1.7128
 7160SOL     OW33115   3.762   1.838   0.530 -0.3932 -0.2278  0.0322
 7160SOL    HW133116   3.771   1.907   0.597  0.1543  0.5830 -0.8792
 7160SOL    HW233117   3.698   1.780   0.571 -2.7329  3.0094  0.9011
 7161SOL     OW33118   2.499   2.514   9.629 -0.1187  0.3765 -0.5627
 7161SOL    HW133119   2.568   2.467   9.582 -1.4461  0.5619 -2.7108
 7161SOL    HW233120   2.449   2.440   9.664  1.5098 -0.5121 -0.1529
 7162SOL     OW33121   2.185   0.839   3.752 -0.1232 -0.4133 -0.1920
 7162SOL    HW133122   2.254   0.791   3.797  0.7534  1.0262 -0.0084
 7162SOL    HW233123   2.167   0.912   3.811 -3.6472 -0.5751 -1.0767
 7163SOL     OW33124   1.224   3.189   8.450 -0.0429 -0.7706 -0.0486
 7163SOL    HW133125   1.319   3.178   8.446 -0.3922 -3.3722 -0.8741
 7163SOL    HW233126   1.209   3.169   8.357 -0.4570 -0.6089 -0.0161
 7164SOL     OW33127   2.179   0.274   3.229  0.5585  0.1314  0.4040
 7164SOL    HW133128   2.125   0.211   3.179 -0.2143 -0.4138  1.9306
 7164SOL    HW233129   2.270   0.255   3.206  0.1788  0.0704 -1.0992
 7165SOL     OW33130   3.419   3.793   7.430 -0.1302 -0.0371 -0.5495
 7165SOL    HW133131   3.423   3.887   7.445  1.4714  0.2076 -2.5252
 7165SOL    HW233132   3.506   3.767   7.461  0.2248  0.9124 -0.7587
 7166SOL     OW33133   3.489   3.226   4.610 -0.1689  0.1071 -0.3382
 7166SOL    HW133134   3.436   3.146   4.607  0.7341 -0.4468 -1.4820
 7166SOL    HW233135   3.494   3.242   4.704 -0.6336  0.5792 -0.3902
 7167SOL     OW33136   4.059   3.075   3.372 -0.1395 -0.0121 -0.1222
 7167SOL    HW133137   4.030   3.059   3.462 -0.3319 -1.8136 -0.4993
 7167SOL    HW233138   3.973   3.069   3.330 -0.6150  2.5565  0.4740
 7168SOL     OW33139   2.158   0.043   7.260  0.1112 -0.1010 -0.7104
 7168SOL    HW133140   2.102   0.120   7.255 -1.3556 -1.0948  0.0729
 7168SOL    HW233141   2.241   0.067   7.302  0.4198 -2.3333 -0.0057
 7169SOL     OW33142   0.679   2.663  17.675 -0.1999  0.3353  0.5798
 7169SOL    HW133143   0.623   2.586  17.687 -0.3764  0.3919  0.1060
 7169SOL    HW233144   0.610   2.722  17.707 -1.4940 -1.3349  0.9081
 7170SOL     OW33145   0.961   2.790  13.911  0.2164 -0.5674  0.4235
 7170SOL    HW133146   0.940   2.864  13.968  0.2110 -0.9760  0.9428
 7170SOL    HW233147   1.056   2.786  13.905  0.1719 -0.6371 -0.2605
 7171SOL     OW33148   2.116   4.306   9.832 -0.2869  0.2714 -0.0778
 7171SOL    HW133149   2.088   4.227   9.877  0.2096 -0.3533 -0.8771
 7171SOL    HW233150   2.034   4.355   9.840 -0.2254  0.7737 -2.4129
 7172SOL     OW33151   1.735   3.611   4.962  0.2352  0.4068  0.1745
 7172SOL    HW133152   1.816   3.632   4.916  0.3057  1.6020  0.8372
 7172SOL    HW233153   1.748   3.517   4.972 -1.3828  0.2930  1.2432
 7173SOL     OW33154   1.149   2.959   8.615 -0.0683 -0.0194  0.0030
 7173SOL    HW133155   1.172   3.046   8.581  0.9669 -0.2046  0.2226
 7173SOL    HW233156   1.190   2.903   8.550  0.9036 -0.4400  0.9618
 7174SOL     OW33157   3.753   4.220   2.367  0.0987  0.8187  0.0065
 7174SOL    HW133158   3.736   4.314   2.371  0.7690  0.9015  0.9973
 7174SOL    HW233159   3.849   4.220   2.364  0.1481 -1.0986  1.8518
 7175SOL     OW33160   2.192   0.589   8.502  0.0165 -0.7504  0.1179
 7175SOL    HW133161   2.179   0.503   8.463 -3.1627 -0.0964 -0.2101
 7175SOL    HW233162   2.286   0.599   8.519 -0.4551  1.9168  1.1454
 7176SOL     OW33163   3.437   2.768  16.791 -0.3369 -0.1154  0.4981
 7176SOL    HW133164   3.397   2.705  16.732 -0.7824  0.7303 -0.1023
 7176SOL    HW233165   3.363   2.776  16.850  0.1062 -0.2914  1.0790
 7177SOL     OW33166   2.625   4.701   7.102 -0.2483  0.0841  0.2739
 7177SOL    HW133167   2.634   0.036   7.163 -2.0848  0.5679 -0.0322
 7177SOL    HW233168   2.573   0.010   7.036  0.7552 -2.5209 -2.3679
 7178SOL     OW33169   1.914   0.707   1.019  0.3855 -0.2752 -0.0092
 7178SOL    HW133170   1.893   0.775   0.955 -0.1624 -0.5926 -0.1682
 7178SOL    HW233171   1.847   0.639   1.015 -0.8938  0.9435  0.3313
 7179SOL     OW33172   1.456   4.515   7.460  0.0025  0.2479 -0.0008
 7179SOL    HW133173   1.543   4.520   7.421  0.6592  1.7848  1.6442
 7179SOL    HW233174   1.401   4.478   7.391  0.0183 -0.7011  0.4843
 7180SOL     OW33175   1.553   3.412   3.659 -0.3044  0.6388  0.1163
 7180SOL    HW133176   1.615   3.421   3.587  0.7397 -1.8966  0.7128
 7180SOL    HW233177   1.537   3.318   3.650  1.5750  0.0049  3.2497
 7181SOL     OW33178   2.453   1.865   5.445 -0.3780 -0.4701 -0.0126
 7181SOL    HW133179   2.493   1.793   5.494 -1.0737  0.2127  1.5606
 7181SOL    HW233180   2.502   1.940   5.477 -0.9883  0.0456 -0.2948
 7182SOL     OW33181   3.832   4.667   4.659  0.0880  0.5912  0.3386
 7182SOL    HW133182   3.924   4.688   4.673  0.7948 -1.3457 -1.4352
 7182SOL    HW233183   3.826   4.583   4.705 -0.4550  0.6384  0.3652
 7183SOL     OW33184   0.175   3.688  13.227 -0.4022  0.0027  0.1705
 7183SOL    HW133185   0.187   3.637  13.307 -0.6023 -1.3491 -0.6788
 7183SOL    HW233186   0.152   3.772  13.267 -1.5732 -0.1503 -0.1676
 7184SOL     OW33187   0.643   3.823   5.204 -0.2215 -0.2476  0.1871
 7184SOL    HW133188   0.670   3.913   5.187 -0.7133 -0.2062 -0.3563
 7184SOL    HW233189   0.610   3.820   5.294 -2.0564 -0.9019 -0.5118
 7185SOL     OW33190   0.423   0.027   3.690 -0.2584  0.0184 -0.3606
 7185SOL    HW133191   0.432   0.093   3.621  1.4511  0.9054  0.7065
 7185SOL    HW233192   0.468   4.692   3.649  1.1889  0.8857 -0.3190
 7186SOL     OW33193   0.370   4.514  15.018 -0.2564  0.3948 -0.0870
 7186SOL    HW133194   0.420   4.570  14.958  2.1192 -0.4254  1.1345
 7186SOL    HW233195   0.353   4.572  15.092 -0.4086 -1.8287  1.6309
 7187SOL     OW33196   1.664   4.057   7.605 -0.5485 -0.2461  0.3720
 7187SOL    HW133197   1.622   4.135   7.644  1.9321 -0.1644  2.8735
 7187SOL    HW233198   1.626   3.986   7.657 -1.6304  1.1175  1.4582
 7188SOL     OW33199   0.819   3.844  10.026 -0.2983 -0.2859 -0.1818
 7188SOL    HW133200   0.752   3.801   9.973  1.0192 -1.3660 -0.9751
 7188SOL    HW233201   0.904   3.819   9.989 -0.7416 -0.0844 -1.3308
 7189SOL     OW33202   4.093   2.177   5.604  0.0043 -0.0087  0.3198
 7189SOL    HW133203   4.146   2.232   5.661  0.0759 -1.1182  1.3271
 7189SOL    HW233204   4.013   2.165   5.656 -0.0028 -3.0403 -0.3709
 7190SOL     OW33205   0.896   3.993   3.719  0.0044 -0.3098  0.2831
 7190SOL    HW133206   0.919   3.906   3.752  4.4257  1.0317  0.7308
 7190SOL    HW233207   0.987   4.020   3.702  0.2852 -1.0315  0.6551
 7191SOL     OW33208   3.315   0.485  16.568 -0.2456  0.0573 -0.0774
 7191SOL    HW133209   3.319   0.478  16.663  1.8321  0.3487 -0.1477
 7191SOL    HW233210   3.394   0.435  16.548  0.7035  0.9462  1.4651
 7192SOL     OW33211   4.393   2.097   7.263 -0.2588  0.2461 -0.1548
 7192SOL    HW133212   4.439   2.108   7.180  0.6343 -2.0477  0.0420
 7192SOL    HW233213   4.413   2.005   7.278 -0.1089  0.2435 -0.3721
 7193SOL     OW33214   1.539   1.952   7.899 -0.1674 -0.5892  0.1110
 7193SOL    HW133215   1.508   1.978   7.986  1.2286 -0.7903  0.6566
 7193SOL    HW233216   1.608   2.016   7.884 -2.9298  2.1175 -1.0678
 7194SOL     OW33217   0.777   4.036   7.532  0.1685 -0.4389 -0.1762
 7194SOL    HW133218   0.855   4.002   7.575 -0.5716 -0.4853  1.1100
 7194SOL    HW233219   0.779   4.126   7.564  0.5042  1.0971 -4.4495
 7195SOL     OW33220   0.708   0.026  11.667  0.7144 -0.7729  0.4394
 7195SOL    HW133221   0.645   4.718  11.613 -0.4638  0.3937  0.8262
 7195SOL    HW233222   0.764   0.067  11.600 -1.0107 -0.5260 -0.8364
 7196SOL     OW33223   3.451   4.101  16.598  0.3759  0.1860  0.0483
 7196SOL    HW133224   3.484   4.086  16.686  1.0370 -0.3483 -0.2930
 7196SOL    HW233225   3.439   4.196  16.589 -0.6457  0.1489  1.0655
 7197SOL     OW33226   4.099   2.915   2.646  0.0505 -0.6663 -0.2520
 7197SOL    HW133227   4.054   2.992   2.610  0.5037  0.2720  1.1780
 7197SOL    HW233228   4.122   2.956   2.729 -1.6382 -1.7842  0.7593
 7198SOL     OW33229   4.323   4.410   5.671  0.2703 -0.0814 -0.2419
 7198SOL    HW133230   4.279   4.421   5.586  0.2085 -0.5236 -0.2644
 7198SOL    HW233231   4.251   4.399   5.732  1.3611 -0.4199  0.9687
 7199SOL     OW33232   0.611   2.897   6.874 -0.1311 -0.1811  0.0517
 7199SOL    HW133233   0.648   2.812   6.848  1.0870  0.5916 -0.6994
 7199SOL    HW233234   0.528   2.907   6.826  0.3277  2.1116 -0.2205
 7200SOL     OW33235   3.238   0.034   6.924  0.3193 -0.0391 -0.3969
 7200SOL    HW133236   3.310   0.046   6.986  0.4342 -0.9188 -0.3640
 7200SOL    HW233237   3.181   0.094   6.973 -0.7516 -1.9904  0.7539
 7201SOL     OW33238   1.200   3.461   3.358  0.1906  0.5514 -0.3549
 7201SOL    HW133239   1.271   3.406   3.391  0.2451  0.3779 -0.7582
 7201SOL    HW233240   1.194   3.526   3.428 -0.6270  0.1401 -0.0443
 7202SOL     OW33241   4.592   1.359  15.968 -0.6998  0.3961  0.1581
 7202SOL    HW133242   4.669   1.302  15.974 -1.3490 -0.5197 -0.1478
 7202SOL    HW233243   4.580   1.362  15.873  2.1599 -0.3344 -0.2281
 7203SOL     OW33244   2.827   0.187   5.627 -0.4054 -0.1208 -0.4131
 7203SOL    HW133245   2.877   0.251   5.576  0.7118 -1.7605 -1.3491
 7203SOL    HW233246   2.760   0.169   5.561  0.1529  1.7463 -1.5257
 7204SOL     OW33247   2.698   1.690   1.677  0.5827 -0.8526 -0.5879
 7204SOL    HW133248   2.663   1.617   1.728  0.4257 -0.3946 -0.0398
 7204SOL    HW233249   2.775   1.643   1.644  0.3117 -1.8522  0.1953
 7205SOL     OW33250   2.036   3.055   1.903  0.0043 -0.6140 -0.4521
 7205SOL    HW133251   2.054   3.091   1.990 -0.1766 -2.3299  0.3055
 7205SOL    HW233252   2.113   3.083   1.854 -0.1441 -0.1016 -0.3934
 7206SOL     OW33253   4.056   2.302   6.591 -0.3137 -0.4027  0.5007
 7206SOL    HW133254   4.086   2.365   6.656  2.4064 -2.0522  0.8337
 7206SOL    HW233255   3.962   2.319   6.597 -0.1735 -0.0112  1.7645
 7207SOL     OW33256   3.486   3.300   8.444  0.3690 -0.1320  0.2122
 7207SOL    HW133257   3.496   3.274   8.352 -3.7240 -2.2345  0.3851
 7207SOL    HW233258   3.482   3.216   8.489 -0.3896  0.3029  0.9496
 7208SOL     OW33259   3.893   1.872  10.818 -0.3263 -0.1760 -0.1125
 7208SOL    HW133260   3.973   1.835  10.781  0.2024  1.3996 -0.5062
 7208SOL    HW233261   3.927   1.956  10.848 -1.2932  0.6363 -1.3438
 7209SOL     OW33262   0.368   3.994   8.938 -0.3198  0.0329 -0.9134
 7209SOL    HW133263   0.355   3.929   8.869 -4.1697  0.6946 -0.8407
 7209SOL    HW233264   0.353   3.939   9.014 -0.8034 -1.2754 -1.9633
 7210SOL     OW33265   2.366   0.102   5.012  0.3537  0.0576 -0.0516
 7210SOL    HW133266   2.309   0.147   5.074 -2.9027  0.2933 -3.2219
 7210SOL    HW233267   2.372   0.020   5.060  1.4049 -0.3953 -0.9491
 7211SOL     OW33268   3.225   1.910   6.015  0.2355 -1.0419  0.4126
 7211SOL    HW133269   3.287   1.962   6.065  0.8312 -1.5280  0.1872
 7211SOL    HW233270   3.215   1.832   6.069 -0.5977 -1.4168 -0.2772
 7212SOL     OW33271   2.151   3.199   3.017 -0.0812  0.2530 -0.3530
 7212SOL    HW133272   2.149   3.120   3.070 -0.7895  0.6493  0.2002
 7212SOL    HW233273   2.236   3.181   2.976  0.5098  0.1082  0.9582
 7213SOL     OW33274   0.080   3.267   2.658 -0.0736  0.2978  0.2908
 7213SOL    HW133275   0.039   3.248   2.574 -0.5717 -0.0505  0.6102
 7213SOL    HW233276   0.068   3.183   2.701 -0.3236  0.4284  0.4782
 7214SOL     OW33277   3.566   1.536   6.985  0.2538 -0.2763 -0.3511
 7214SOL    HW133278   3.557   1.631   6.988 -0.4093 -0.3313 -0.7452
 7214SOL    HW233279   3.490   1.524   7.042  1.6216  0.0885  1.5484
 7215SOL     OW33280   1.396   0.305   9.895 -0.1539  0.0938 -0.2863
 7215SOL    HW133281   1.391   0.374   9.962  4.0350 -1.0519  1.2338
 7215SOL    HW233282   1.344   0.233   9.929 -0.0770 -0.5421 -1.5219
 7216SOL     OW33283   0.321   1.957   8.610 -0.9132  0.1743  0.4277
 7216SOL    HW133284   0.366   1.889   8.661  0.1047  0.8593  0.4487
 7216SOL    HW233285   0.385   2.027   8.598 -0.0077 -1.0045 -1.5781
 7217SOL     OW33286   1.845   2.337   7.139  0.2460 -0.0417 -0.3961
 7217SOL    HW133287   1.822   2.427   7.114  0.1155  0.1286  0.3360
 7217SOL    HW233288   1.765   2.305   7.180  0.3388  0.4352  0.1409
 7218SOL     OW33289   0.464   0.657   4.781  0.3797  0.3450  0.2715
 7218SOL    HW133290   0.545   0.610   4.801  1.5509  2.0416 -0.5108
 7218SOL    HW233291   0.408   0.608   4.842 -1.7867  1.2070 -1.0082
 7219SOL     OW33292   0.789   1.564   2.388  0.3620  0.2395  0.2713
 7219SOL    HW133293   0.834   1.484   2.360  1.2293  0.9424 -0.3515
 7219SOL    HW233294   0.835   1.631   2.337 -0.4007 -0.9180 -1.9417
 7220SOL     OW33295   1.043   2.672  11.378 -0.3113  0.0522  0.5995
 7220SOL    HW133296   1.086   2.756  11.362  0.8332 -0.8255 -0.9184
 7220SOL    HW233297   0.950   2.693  11.364 -0.1776  0.9412  1.0612
 7221SOL     OW33298   1.344   4.593   0.260  0.4615 -0.3931  0.3950
 7221SOL    HW133299   1.283   4.603   0.334  0.8645  0.0989  0.6556
 7221SOL    HW233300   1.382   4.680   0.250 -2.1327  0.8339  1.0158
 7222SOL     OW33301   2.748   2.411   5.217  0.1164  0.1627 -0.8019
 7222SOL    HW133302   2.734   2.497   5.256 -0.3217 -0.4788  0.4882
 7222SOL    HW233303   2.811   2.385   5.284  0.8030 -0.3852 -1.6662
 7223SOL     OW33304   0.553   0.975   7.822  0.2267 -0.2804 -0.2929
 7223SOL    HW133305   0.534   0.888   7.784 -0.8243  0.2859 -1.0622
 7223SOL    HW233306   0.638   0.983   7.779 -0.5369  0.6489 -1.6155
 7224SOL     OW33307   3.837   2.685   2.269  0.2655 -0.9036 -0.3850
 7224SOL    HW133308   3.843   2.686   2.173  0.8132 -0.9717 -0.3517
 7224SOL    HW233309   3.835   2.777   2.295 -0.2791 -1.2362  0.7347
 7225SOL     OW33310   2.709   2.248   0.295  0.2015 -0.1789  0.2639
 7225SOL    HW133311   2.683   2.202   0.215  0.8292 -0.0891  0.0068
 7225SOL    HW233312   2.772   2.316   0.273  1.5911 -0.9591  1.8943
 7226SOL     OW33313   3.583   2.449  17.373  0.6511 -0.0428  0.1067
 7226SOL    HW133314   3.676   2.446  17.352  0.5208  0.3296 -0.5094
 7226SOL    HW233315   3.558   2.358  17.356 -0.6362  0.1925  0.7104
 7227SOL     OW33316   0.929   1.122   5.133 -0.6957  0.3736  0.6945
 7227SOL    HW133317   0.922   1.211   5.167 -1.8700  1.6458 -2.8873
 7227SOL    HW233318   0.949   1.141   5.042 -1.7448  1.4002  0.6881
 7228SOL     OW33319   0.476   2.774   0.059 -0.1518 -0.1525 -0.0249
 7228SOL    HW133320   0.385   2.772   0.030  0.3135 -0.2011 -1.4867
 7228SOL    HW233321   0.477   2.858   0.104 -0.7204 -0.5537  0.7427
 7229SOL     OW33322   1.543   1.143   6.676 -0.2602  0.4690  0.8118
 7229SOL    HW133323   1.616   1.131   6.736  0.1676  0.4879  0.2928
 7229SOL    HW233324   1.471   1.089   6.707 -0.0814 -0.6135 -0.6495
 7230SOL     OW33325   1.690   3.959   8.985  0.1798 -0.0139  0.5520
 7230SOL    HW133326   1.620   4.020   8.963  0.7765  0.6795  0.5799
 7230SOL    HW233327   1.663   3.927   9.071  0.5842 -0.3855  0.5471
 7231SOL     OW33328   3.939   3.769   2.947  0.2970  0.3971 -0.4654
 7231SOL    HW133329   3.989   3.850   2.935 -1.6488  1.9666  1.7735
 7231SOL    HW233330   3.852   3.798   2.918 -0.3485  0.0844  1.1465
 7232SOL     OW33331   2.153   0.453   2.040  0.2509 -0.5722  0.7141
 7232SOL    HW133332   2.145   0.541   2.079  0.4615 -0.6438  0.9146
 7232SOL    HW233333   2.228   0.423   2.090  1.3338  0.6037 -0.2192
 7233SOL     OW33334   1.379   0.081   6.009  0.0584 -0.4016  0.3676
 7233SOL    HW133335   1.377   0.134   6.089  0.4462  1.0846 -0.6080
 7233SOL    HW233336   1.448   0.127   5.960  0.3108 -2.6055 -1.3552
 7234SOL     OW33337   0.450   1.246   2.587 -0.4005  0.0146 -0.2887
 7234SOL    HW133338   0.463   1.302   2.511 -1.3288  0.5171 -0.0749
 7234SOL    HW233339   0.520   1.181   2.582  0.7836  1.1666  0.8749
 7235SOL     OW33340   1.391   0.540   0.939  0.1999 -0.2684  0.2244
 7235SOL    HW133341   1.434   0.596   1.003  1.0281 -0.0286 -0.5443
 7235SOL    HW233342   1.467   0.529   0.882  0.0061  0.0061 -0.0858
 7236SOL     OW33343   3.696   1.248   5.599 -0.2911  0.1954 -0.2134
 7236SOL    HW133344   3.668   1.327   5.646 -1.2790 -0.4911  0.3642
 7236SOL    HW233345   3.668   1.182   5.663 -0.6155  1.5256  1.0390
 7237SOL     OW33346   4.002   1.628  13.149 -0.3479  0.2368 -0.4564
 7237SOL    HW133347   3.942   1.649  13.221  0.8140  2.5948 -0.1636
 7237SOL    HW233348   4.081   1.629  13.202 -0.0846 -1.1347 -0.8200
 7238SOL     OW33349   0.609   0.365   5.084  0.1547  0.4893  0.2345
 7238SOL    HW133350   0.545   0.411   5.138  0.0064  0.2211  0.2888
 7238SOL    HW233351   0.658   0.313   5.148 -0.5434  2.2895  2.2068
 7239SOL     OW33352   2.891   2.485   0.189  0.5961 -0.0327 -0.0045
 7239SOL    HW133353   2.826   2.476   0.119 -0.1052  0.4682  0.5785
 7239SOL    HW233354   2.938   2.554   0.142  3.1769 -0.5690  1.8007
 7240SOL     OW33355   4.298   2.421   4.063  0.1559  0.1968  0.0565
 7240SOL    HW133356   4.242   2.475   4.118  0.2175 -0.2768  0.5826
 7240SOL    HW233357   4.229   2.361   4.035 -0.3573  0.9958 -0.3788
 7241SOL     OW33358   4.098   4.375   5.826 -0.4758 -0.2355  0.0161
 7241SOL    HW133359   4.056   4.289   5.817 -0.7068  0.1042 -2.0995
 7241SOL    HW233360   4.046   4.434   5.772 -1.5355 -0.1869  1.1090
 7242SOL     OW33361   2.913   2.888  15.024 -0.2452  0.4940 -0.3430
 7242SOL    HW133362   2.947   2.823  15.086  1.4639 -0.7731 -2.6296
 7242SOL    HW233363   2.990   2.897  14.968  0.9671 -1.1874  1.0476
 7243SOL     OW33364   0.662   4.546   8.533 -0.7108 -0.2092 -0.0015
 7243SOL    HW133365   0.566   4.538   8.530 -0.6899 -0.3569 -0.3104
 7243SOL    HW233366   0.677   4.537   8.627 -0.5232 -0.9201 -0.0979
 7244SOL     OW33367   0.456   3.609   9.483  0.9372 -0.4687 -0.7807
 7244SOL    HW133368   0.435   3.528   9.437  0.6110  0.4476 -2.2292
 7244SOL    HW233369   0.367   3.645   9.490  1.4212  0.8461 -1.5491
 7245SOL     OW33370   3.309   2.020   2.236  0.7234  0.6333 -0.3381
 7245SOL    HW133371   3.350   2.004   2.151  0.3769  1.5212 -0.6707
 7245SOL    HW233372   3.383   1.998   2.293  0.9185  1.0055 -0.4486
 7246SOL     OW33373   4.455   3.127   3.235  0.0717 -0.0912 -0.3291
 7246SOL    HW133374   4.549   3.117   3.221  0.2747  0.0405  0.9820
 7246SOL    HW233375   4.441   3.036   3.263  1.9607 -0.7622 -1.5404
 7247SOL     OW33376   0.068   2.929  10.488 -0.4722 -0.7972 -0.0297
 7247SOL    HW133377   0.043   3.019  10.507  2.0571 -0.2473  0.6451
 7247SOL    HW233378   0.110   2.902  10.569 -0.0777 -0.3312 -0.0800
 7248SOL     OW33379   2.844   3.760   2.478 -0.2161 -0.5774  0.4552
 7248SOL    HW133380   2.762   3.743   2.524 -1.1928 -0.1255 -1.1217
 7248SOL    HW233381   2.914   3.721   2.531  1.2405  1.3884 -0.0262
 7249SOL     OW33382   1.485   2.742   1.874  0.2016  0.4316  0.3546
 7249SOL    HW133383   1.575   2.716   1.892 -0.1418 -1.2840 -0.4129
 7249SOL    HW233384   1.498   2.779   1.786 -1.3902 -1.2174 -0.5739
 7250SOL     OW33385   1.684   2.831   1.651  0.3514 -0.4668  0.1349
 7250SOL    HW133386   1.706   2.844   1.743  0.8008  0.7533 -0.1509
 7250SOL    HW233387   1.757   2.777   1.619  0.5248  0.7982 -1.6407
 7251SOL     OW33388   1.599   2.357   8.326  0.0062  0.2194 -0.0233
 7251SOL    HW133389   1.561   2.445   8.319  1.1853  0.6625 -0.8381
 7251SOL    HW233390   1.512   2.318   8.330  0.1761 -0.0665  0.8812
 7252SOL     OW33391   3.193   1.558   1.554  0.2043  0.5723 -0.6367
 7252SOL    HW133392   3.264   1.516   1.602 -0.1577  1.4862  0.7143
 7252SOL    HW233393   3.195   1.510   1.471  0.1820  1.8446 -1.3704
 7253SOL     OW33394   4.360   1.233   8.165  0.0857  0.3144  0.0334
 7253SOL    HW133395   4.380   1.148   8.126  0.9975 -0.2580  1.7472
 7253SOL    HW233396   4.439   1.286   8.150  0.4196  0.2098  1.4780
 7254SOL     OW33397   2.402   1.927   4.976 -0.4421 -0.3703  0.6327
 7254SOL    HW133398   2.461   1.961   4.909 -0.2386  1.1878  1.5806
 7254SOL    HW233399   2.446   1.853   5.017  0.0851 -1.8219 -2.5626
 7255SOL     OW33400   1.427   1.515   5.074  0.2596  0.4582  0.5155
 7255SOL    HW133401   1.408   1.430   5.113 -0.1093  0.7782  1.0304
 7255SOL    HW233402   1.469   1.563   5.145 -2.5590  1.8911  1.2074
 7256SOL     OW33403   1.345   2.706   4.101  0.2441  0.1761  0.1349
 7256SOL    HW133404   1.418   2.664   4.147 -0.9112 -1.3260  0.5793
 7256SOL    HW233405   1.356   2.669   4.014  0.9235  0.2678  0.1853
 7257SOL     OW33406   4.272   3.144   4.685 -0.3997  0.2439  0.0866
 7257SOL    HW133407   4.252   3.094   4.606  1.1427  1.1202 -0.8594
 7257SOL    HW233408   4.298   3.080   4.751  1.0524  0.8950  0.1615
 7258SOL     OW33409   4.521   1.207   1.346 -0.4075  0.2419  0.6241
 7258SOL    HW133410   4.474   1.289   1.366 -1.3117 -0.1264  0.0312
 7258SOL    HW233411   4.603   1.232   1.304  0.0009 -0.7976  0.8303
 7259SOL     OW33412   4.153   0.326   5.072  0.2760 -0.4642 -0.1185
 7259SOL    HW133413   4.090   0.391   5.102  0.4804 -0.4888  0.3552
 7259SOL    HW233414   4.093   0.266   5.028 -1.2396  0.8607  0.1121
 7260SOL     OW33415   3.906   4.511   7.112  0.0404 -0.3708  0.0900
 7260SOL    HW133416   3.836   4.507   7.177  1.5688 -2.5046  1.6116
 7260SOL    HW233417   3.907   4.600   7.077  0.8047 -1.1544 -1.8432
 7261SOL     OW33418   0.260   2.824   3.384 -0.7274 -0.1179  0.0142
 7261SOL    HW133419   0.167   2.817   3.361 -1.1326 -0.5968  1.8485
 7261SOL    HW233420   0.260   2.796   3.475  0.1254 -0.2293 -0.0220
 7262SOL     OW33421   1.029   4.533   7.581 -0.0001 -0.4029  0.0285
 7262SOL    HW133422   1.104   4.586   7.608 -0.2255  0.3834 -0.8654
 7262SOL    HW233423   1.061   4.453   7.540 -1.4045  0.6084 -3.0592
 7263SOL     OW33424   3.273   0.896  12.825  0.1584 -0.0980 -0.2554
 7263SOL    HW133425   3.305   0.982  12.850  1.8868 -0.9963  0.5539
 7263SOL    HW233426   3.202   0.889  12.889 -0.5378  0.8927 -0.9139
 7264SOL     OW33427   2.881   1.240  14.768  0.8928  0.2279 -0.2215
 7264SOL    HW133428   2.925   1.194  14.697  2.5694  0.7660  0.4797
 7264SOL    HW233429   2.890   1.329  14.735 -1.1864  0.3513 -0.4448
 7265SOL     OW33430   3.961   4.160   4.854  0.3223  0.3585 -0.1706
 7265SOL    HW133431   3.976   4.076   4.810  0.9297 -0.1341  0.9722
 7265SOL    HW233432   4.049   4.181   4.884  1.0554 -1.0740 -1.2928
 7266SOL     OW33433   3.129   2.976   5.011 -0.1507 -0.3572 -0.3306
 7266SOL    HW133434   3.146   2.960   4.918 -1.4964 -0.5928 -0.5378
 7266SOL    HW233435   3.140   3.071   5.012  2.7635 -0.7081 -0.4062
 7267SOL     OW33436   2.124   3.806   6.549 -0.2487  0.2827  0.0885
 7267SOL    HW133437   2.108   3.738   6.483  2.1595 -1.7932  1.6209
 7267SOL    HW233438   2.163   3.757   6.622  1.9875 -0.4730 -1.6303
 7268SOL     OW33439   4.705   3.238   6.972 -0.3805  0.5147 -0.8658
 7268SOL    HW133440   4.658   3.310   7.016  0.2127  0.1872  0.3164
 7268SOL    HW233441   4.628   3.198   6.932  0.0810 -0.4808 -0.7461
 7269SOL     OW33442   3.855   3.621   9.234 -0.4118  0.0792 -0.2407
 7269SOL    HW133443   3.920   3.555   9.210 -1.5884 -1.5251  0.9702
 7269SOL    HW233444   3.866   3.615   9.328 -0.7633 -3.0471 -0.4184
 7270SOL     OW33445   4.338   0.652   5.734  0.0910 -0.1535  0.3198
 7270SOL    HW133446   4.424   0.664   5.694 -0.2588 -0.2919 -0.4581
 7270SOL    HW233447   4.363   0.624   5.822 -4.0833  2.1774  2.2511
 7271SOL     OW33448   0.637   2.268  11.682 -0.2071  0.3837  0.0992
 7271SOL    HW133449   0.600   2.213  11.613  0.1794 -0.4115  0.5268
 7271SOL    HW233450   0.723   2.278  11.642 -1.8111  0.1626 -3.4019
 7272SOL     OW33451   4.063   3.671   9.057  0.0194 -0.2911  0.2581
 7272SOL    HW133452   4.081   3.584   9.020 -1.0545  0.3763 -1.8304
 7272SOL    HW233453   4.092   3.660   9.147  0.1536  4.9103  0.8477
 7273SOL     OW33454   2.955   1.869   4.406 -0.5257 -0.0026  0.4660
 7273SOL    HW133455   2.974   1.779   4.434 -0.5845  0.2630  1.3600
 7273SOL    HW233456   3.022   1.877   4.337  1.3472  0.2524  2.3093
 7274SOL     OW33457   0.386   2.198   8.139  0.5958  0.2172 -0.1795
 7274SOL    HW133458   0.375   2.130   8.206 -0.3518  0.1343 -0.4303
 7274SOL    HW233459   0.307   2.179   8.088  1.3755 -0.7656 -1.0307
 7275SOL     OW33460   2.958   3.215   7.356  0.0769 -0.3584  0.0662
 7275SOL    HW133461   2.984   3.298   7.396  3.5626 -1.0476 -0.7791
 7275SOL    HW233462   2.992   3.163   7.428 -0.2831  0.2052  0.6476
 7276SOL     OW33463   2.985   1.372   6.539 -0.3144  0.3592  0.3071
 7276SOL    HW133464   3.021   1.461   6.537  0.4051  0.0730  0.6192
 7276SOL    HW233465   2.917   1.385   6.472 -0.1951 -1.8204 -0.2109
 7277SOL     OW33466   0.279   1.737  17.130  0.6724 -0.3806  0.1699
 7277SOL    HW133467   0.330   1.739  17.049 -0.8194  0.9927 -0.7494
 7277SOL    HW233468   0.197   1.776  17.099  1.5112  0.7074 -0.6981
 7278SOL     OW33469   2.807   1.613   5.288  0.5312  0.1306  0.0477
 7278SOL    HW133470   2.777   1.665   5.213 -0.1111 -0.1810  0.0922
 7278SOL    HW233471   2.764   1.528   5.276  2.2835 -0.7992  0.3051
 7279SOL     OW33472   0.769   3.466   6.156 -0.2458  0.1376  0.0750
 7279SOL    HW133473   0.681   3.469   6.119  0.0192  0.5906 -0.4986
 7279SOL    HW233474   0.761   3.417   6.239  1.8630  0.8963  0.7402
 7280SOL     OW33475   3.300   3.059   3.440 -0.0308  0.0467 -0.0448
 7280SOL    HW133476   3.281   2.982   3.492 -1.4944  0.5688  0.1977
 7280SOL    HW233477   3.236   3.040   3.371  0.6320  1.2608 -0.9939
 7281SOL     OW33478   4.399   0.763   9.900 -0.0541 -0.5594 -0.1085
 7281SOL    HW133479   4.380   0.799   9.814 -0.4879 -1.7160 -0.5031
 7281SOL    HW233480   4.487   0.733   9.877  0.1716  1.5044 -1.9023
 7282SOL     OW33481   0.637   1.886   1.770  0.2492 -0.3522  0.1685
 7282SOL    HW133482   0.551   1.865   1.804  0.2593 -2.4711 -1.1354
 7282SOL    HW233483   0.653   1.795   1.748  0.7138 -0.3588  0.5315
 7283SOL     OW33484   1.331   1.881   0.739 -0.1605 -0.2235 -0.0684
 7283SOL    HW133485   1.326   1.834   0.656  1.1445 -2.8281  1.3275
 7283SOL    HW233486   1.316   1.973   0.716 -2.1571 -0.3376  0.7465
 7284SOL     OW33487   0.331   1.198  17.637  0.2180  0.1677 -0.3256
 7284SOL    HW133488   0.287   1.283  17.627 -0.4216 -0.4542 -2.8128
 7284SOL    HW233489   0.408   1.230  17.683 -1.8920 -0.0869  3.3634
 7285SOL     OW33490   0.501   3.016   3.660 -0.0898 -0.6320 -0.4630
 7285SOL    HW133491   0.492   3.009   3.755  0.5407  1.6656 -0.2471
 7285SOL    HW233492   0.426   2.965   3.629 -0.6530 -0.1287  0.0855
 7286SOL     OW33493   2.415   2.178   9.146  0.1985  0.3058 -0.1828
 7286SOL    HW133494   2.407   2.093   9.189  0.1672  0.9424  1.0855
 7286SOL    HW233495   2.485   2.225   9.191  0.1160 -0.8855  1.1868
 7287SOL     OW33496   3.075   2.423   6.567 -0.1267  0.0586  0.2435
 7287SOL    HW133497   3.059   2.512   6.535 -1.7201 -0.1344  0.5317
 7287SOL    HW233498   2.984   2.394   6.574 -0.9406  2.1693 -1.6340
 7288SOL     OW33499   3.701   4.440   7.690 -0.7410 -0.0124  0.1918
 7288SOL    HW133500   3.640   4.420   7.619  0.0994 -1.6150 -0.0623
 7288SOL    HW233501   3.673   4.376   7.756 -0.9979 -0.7591 -0.6469
 7289SOL     OW33502   4.058   1.969  13.340  0.0846  0.0205 -0.4754
 7289SOL    HW133503   4.072   2.017  13.422  0.9750 -0.5073 -0.3273
 7289SOL    HW233504   4.072   1.880  13.372  0.9724 -0.0947 -1.1989
 7290SOL     OW33505   3.693   1.763   9.887 -0.6515 -0.4472  0.6073
 7290SOL    HW133506   3.746   1.686   9.907  0.9395  0.9555  1.7000
 7290SOL    HW233507   3.690   1.800   9.975  0.4466 -0.8474  0.8085
 7291SOL     OW33508   4.537   2.944   4.756 -0.5483 -0.1390 -0.2539
 7291SOL    HW133509   4.483   3.003   4.704 -0.1787 -0.4824 -1.0418
 7291SOL    HW233510   4.477   2.873   4.780  0.3698 -0.3396  1.4758
 7292SOL     OW33511   0.420   4.179   4.947  0.1940 -0.0886  0.3429
 7292SOL    HW133512   0.510   4.147   4.954  0.4665  0.8070  0.9061
 7292SOL    HW233513   0.416   4.177   4.851  1.8110  0.2053  0.2637
 7293SOL     OW33514   1.751   0.430   0.369  0.5805  0.4851  0.0151
 7293SOL    HW133515   1.785   0.418   0.280 -0.8016 -0.2253 -0.4120
 7293SOL    HW233516   1.812   0.375   0.418 -0.8432 -0.3391  0.8552
 7294SOL     OW33517   1.527   1.080   7.721 -0.2786  0.6373  0.9928
 7294SOL    HW133518   1.610   1.061   7.764 -0.3882 -1.7452  0.1743
 7294SOL    HW233519   1.485   1.141   7.782 -0.3591  0.5714  1.0045
 7295SOL     OW33520   1.420   3.090   1.137 -0.2835 -0.0038  0.5267
 7295SOL    HW133521   1.460   3.007   1.163  0.3224  0.9269  2.5827
 7295SOL    HW233522   1.358   3.105   1.208  2.9171  0.4434  3.2375
 7296SOL     OW33523   1.974   4.259   1.176 -0.0053  0.4458 -0.3861
 7296SOL    HW133524   1.890   4.269   1.221  0.3374 -2.1849  0.8400
 7296SOL    HW233525   1.950   4.267   1.083  0.4470 -0.5118 -0.5874
 7297SOL     OW33526   4.315   4.541   7.257  0.2032  0.6157  0.5412
 7297SOL    HW133527   4.325   4.600   7.331 -0.4718  0.3308  0.8569
 7297SOL    HW233528   4.252   4.478   7.292 -0.7303  1.8097  1.0102
 7298SOL     OW33529   2.199   4.500   6.565  0.6093  0.0983 -0.1700
 7298SOL    HW133530   2.140   4.551   6.621  1.7642  2.1441 -0.8354
 7298SOL    HW233531   2.280   4.540   6.597 -2.1520  3.2410  2.8232
 7299SOL     OW33532   1.970   4.290   5.358 -0.5360 -1.0438  0.3373
 7299SOL    HW133533   2.060   4.292   5.391 -0.1480 -0.8449 -0.7431
 7299SOL    HW233534   1.984   4.356   5.290 -1.1862 -0.9309  0.3074
 7300SOL     OW33535   3.847   2.837   5.234 -0.2843 -0.2031 -0.0440
 7300SOL    HW133536   3.823   2.924   5.204 -2.5559 -0.8910 -0.1759
 7300SOL    HW233537   3.807   2.849   5.320  0.0070 -1.0503  0.2149
 7301SOL     OW33538   1.334   1.672   7.982  0.2711  0.1784  0.4646
 7301SOL    HW133539   1.322   1.603   8.047  0.4484 -0.1434  0.1553
 7301SOL    HW233540   1.411   1.717   8.019  0.3774  2.9546 -3.1604
 7302SOL     OW33541   1.076   3.826   2.350 -0.4465 -0.0769 -0.1785
 7302SOL    HW133542   1.078   3.824   2.254  0.2287 -0.4166 -0.1593
 7302SOL    HW233543   1.122   3.910   2.363 -2.6184  0.7986  1.7081
 7303SOL     OW33544   0.712   0.878  17.036  0.1134 -0.1402  0.0797
 7303SOL    HW133545   0.788   0.846  17.085  0.2513  0.5985  0.3515
 7303SOL    HW233546   0.710   0.800  16.980  0.7167 -0.4611  0.5036
 7304SOL     OW33547   1.721   0.426   2.909 -1.0222  0.0276  0.6116
 7304SOL    HW133548   1.814   0.420   2.886 -1.1822  1.7018 -0.4258
 7304SOL    HW233549   1.706   0.509   2.954  3.3605  1.0670  0.1360
 7305SOL     OW33550   0.004   0.255  17.319 -0.3321  0.3762 -0.4236
 7305SOL    HW133551   0.064   0.323  17.351 -1.3892  1.5883 -0.9936
 7305SOL    HW233552   4.665   0.312  17.311 -1.8396 -1.5216  0.4499
 7306SOL     OW33553   4.234   4.490   7.003  0.4086 -0.2014 -0.5142
 7306SOL    HW133554   4.251   4.504   7.096  0.3482 -2.0582 -0.2229
 7306SOL    HW233555   4.299   4.420   6.990  0.0840 -0.7156  0.6024
 7307SOL     OW33556   3.419   2.245   3.223 -0.2355 -0.7481 -0.7516
 7307SOL    HW133557   3.462   2.244   3.138 -0.9172  0.2738 -1.0959
 7307SOL    HW233558   3.334   2.283   3.203 -1.2060 -1.0432  2.7581
 7308SOL     OW33559   4.683   1.901  15.166  0.1373 -0.3984  0.2309
 7308SOL    HW133560   4.592   1.929  15.157  0.6467  0.2280 -3.0256
 7308SOL    HW233561   4.687   1.815  15.209  2.9269 -0.4137 -0.0674
 7309SOL     OW33562   3.449   2.136  10.608 -0.1332  0.3455  0.0291
 7309SOL    HW133563   3.424   2.048  10.638  0.1097  0.2064 -0.1728
 7309SOL    HW233564   3.541   2.121  10.584 -0.4437 -2.1838  0.4358
 7310SOL     OW33565   4.338   4.640   3.134  0.1250  0.3138 -0.2300
 7310SOL    HW133566   4.316   4.564   3.188  1.2843 -1.2531 -1.9700
 7310SOL    HW233567   4.370   4.696   3.205 -0.3405 -0.4623  0.5864
 7311SOL     OW33568   2.207   0.188   1.903  0.1632 -0.1234  0.4324
 7311SOL    HW133569   2.263   0.250   1.857  2.2031 -2.3817 -0.1106
 7311SOL    HW233570   2.251   0.105   1.889 -0.0371 -0.3173  0.9578
 7312SOL     OW33571   2.656   0.817  14.618 -0.0153 -0.2259  0.0174
 7312SOL    HW133572   2.630   0.905  14.644 -2.0701 -1.4898  2.1738
 7312SOL    HW233573   2.743   0.814  14.659 -0.1876 -0.0552  0.3951
 7313SOL     OW33574   1.342   3.114   7.907  0.3969  0.2932 -0.5187
 7313SOL    HW133575   1.348   3.045   7.842 -2.7194  1.4187 -1.9761
 7313SOL    HW233576   1.390   3.185   7.865  2.9999 -1.6066 -0.7950
 7314SOL     OW33577   3.317   0.966   6.422  0.0369  0.4417  0.3108
 7314SOL    HW133578   3.334   1.045   6.473  0.0701  2.0016 -2.0870
 7314SOL    HW233579   3.231   0.978   6.383 -0.3644 -1.4890  0.6090
 7315SOL     OW33580   4.126   1.065   3.690 -0.4079 -0.0667 -0.3736
 7315SOL    HW133581   4.212   1.103   3.675 -0.9453  1.0146 -0.7167
 7315SOL    HW233582   4.127   0.982   3.642 -1.6047 -0.2881 -0.0348
 7316SOL     OW33583   3.241   1.950   9.461  0.1874  0.4749  0.4325
 7316SOL    HW133584   3.190   1.919   9.387 -0.9732  0.7570  1.1213
 7316SOL    HW233585   3.251   2.044   9.446 -1.2541  0.3631 -1.1786
 7317SOL     OW33586   3.719   3.852  11.107 -0.2853  0.5545 -0.2274
 7317SOL    HW133587   3.736   3.900  11.187 -0.0501 -1.1286  0.7339
 7317SOL    HW233588   3.623   3.849  11.110 -0.1695 -0.5957  2.2642
 7318SOL     OW33589   0.681   3.203   2.329 -0.8160  0.0109 -0.2012
 7318SOL    HW133590   0.711   3.294   2.323 -2.2676  0.6017  1.7154
 7318SOL    HW233591   0.611   3.206   2.264 -0.0217 -2.9189 -1.1885
 7319SOL     OW33592   1.303   1.689  11.956 -0.0054 -0.0299 -0.3279
 7319SOL    HW133593   1.334   1.645  11.877  2.4530  1.1995 -0.0177
 7319SOL    HW233594   1.315   1.623  12.025 -0.2742  0.0667 -0.1874
 7320SOL     OW33595   0.216   2.153   3.935 -0.3966 -0.3403  0.5739
 7320SOL    HW133596   0.219   2.058   3.932 -0.0441 -0.3485  1.3530
 7320SOL    HW233597   0.267   2.164   4.015 -2.1806  0.8516  1.5562
 7321SOL     OW33598   1.583   4.717   9.754  0.7489 -0.0560  0.1714
 7321SOL    HW133599   1.662   4.711   9.808  0.9301 -0.0834 -0.1005
 7321SOL    HW233600   1.536   0.037   9.814  0.8553  2.2237 -1.9558
 7322SOL     OW33601   0.940   0.539   6.279  0.1814 -0.5455  0.4348
 7322SOL    HW133602   0.880   0.575   6.344 -0.5541  3.3091 -2.3824
 7322SOL    HW233603   1.013   0.509   6.333 -1.0463 -1.0980  1.7787
 7323SOL     OW33604   2.801   2.305  12.202 -0.2724  0.1663 -0.1002
 7323SOL    HW133605   2.831   2.217  12.182 -0.3964  0.0482  0.2223
 7323SOL    HW233606   2.884   2.351  12.196 -1.3543  1.8860 -1.8801
 7324SOL     OW33607   0.492   2.700   6.232  0.3985  0.5639 -0.0382
 7324SOL    HW133608   0.561   2.762   6.257 -0.2475  1.2407  0.0603
 7324SOL    HW233609   0.448   2.753   6.165  0.2376  1.8329  1.0593
 7325SOL     OW33610   1.521   2.879   2.337  0.1847  0.0008 -0.1381
 7325SOL    HW133611   1.469   2.955   2.309  0.7845  1.5404  2.9790
 7325SOL    HW233612   1.456   2.830   2.388 -0.5449  0.1013 -0.9621
 7326SOL     OW33613   3.894   1.261  14.085  0.5377  0.0382  0.7791
 7326SOL    HW133614   3.845   1.218  14.016  1.8371 -1.8046  0.9972
 7326SOL    HW233615   3.831   1.242  14.155  1.0085  1.8015  1.6940
 7327SOL     OW33616   4.474   1.379  13.438 -0.0631 -0.3824 -0.4062
 7327SOL    HW133617   4.534   1.436  13.485 -2.1248  0.6186  1.0346
 7327SOL    HW233618   4.400   1.370  13.498  1.2373  0.6856  1.3388
 7328SOL     OW33619   0.542   0.577   2.664 -0.2838  0.0038 -0.0550
 7328SOL    HW133620   0.601   0.549   2.734 -0.0813  0.3516 -0.0881
 7328SOL    HW233621   0.501   0.649   2.711 -0.8324  0.0241 -0.5518
 7329SOL     OW33622   3.933   3.508   1.305  0.2402 -0.1380 -0.0334
 7329SOL    HW133623   3.841   3.483   1.296  0.2463  0.0332 -0.5651
 7329SOL    HW233624   3.931   3.516   1.400 -0.4820 -0.5988 -0.0097
 7330SOL     OW33625   0.871   4.253  17.616  0.1537 -0.4949  0.6690
 7330SOL    HW133626   0.867   4.187  17.547  1.2536  1.2473 -1.0539
 7330SOL    HW233627   0.894   4.205  17.696  1.9600  1.2368  1.1898
 7331SOL     OW33628   4.050   0.102   0.071  0.2161  0.0911 -0.1280
 7331SOL    HW133629   4.134   0.056   0.068  0.2638  0.2449 -1.1913
 7331SOL    HW233630   3.999   0.028   0.105  0.6631 -0.7899 -1.3632
 7332SOL     OW33631   0.155   3.773   3.375  0.0330  0.5381  0.2703
 7332SOL    HW133632   0.064   3.787   3.350 -0.0478  0.0470  0.2951
 7332SOL    HW233633   0.193   3.860   3.362  0.6924  0.2442  0.2258
 7333SOL     OW33634   2.691   2.671   6.246  0.3790 -0.5028 -0.6468
 7333SOL    HW133635   2.649   2.747   6.286  1.4125  0.9546 -2.3456
 7333SOL    HW233636   2.716   2.618   6.322 -0.1429 -0.4216 -0.4198
 7334SOL     OW33637   4.027   0.108   8.147  0.3752  0.0066  0.7955
 7334SOL    HW133638   4.072   0.025   8.161  0.7237  0.2493  1.1070
 7334SOL    HW233639   4.051   0.147   8.231  0.3361  0.4282  0.6137
 7335SOL     OW33640   3.936   0.643   6.655 -0.1331  0.0835 -0.0568
 7335SOL    HW133641   3.844   0.637   6.680 -0.6579 -2.3155 -2.6259
 7335SOL    HW233642   3.975   0.627   6.741  1.3231 -0.1396 -0.7682
 7336SOL     OW33643   2.528   0.877   6.590 -0.1823 -0.4030 -0.0984
 7336SOL    HW133644   2.532   0.896   6.496 -2.3839  0.6843  0.0423
 7336SOL    HW233645   2.602   0.817   6.599 -0.4908 -1.0623 -1.8927
 7337SOL     OW33646   0.895   2.898   8.995  0.0568  0.5312  0.6752
 7337SOL    HW133647   0.871   2.975   9.047  2.1764  0.0066  2.4780
 7337SOL    HW233648   0.943   2.936   8.921 -1.5615  3.3554  1.0690
 7338SOL     OW33649   3.551   3.199   8.180 -0.6209 -0.5111  0.3748
 7338SOL    HW133650   3.619   3.147   8.135 -2.7246 -2.5227 -0.5199
 7338SOL    HW233651   3.477   3.140   8.198  0.9324 -2.4407  0.4557
 7339SOL     OW33652   4.317   0.478   8.284 -0.2066  0.3102  0.2410
 7339SOL    HW133653   4.263   0.442   8.355 -0.6687  0.8027  0.1321
 7339SOL    HW233654   4.257   0.468   8.210  0.2938 -0.0323 -0.1190
 7340SOL     OW33655   0.468   1.706   5.855 -0.7458  0.7772 -0.5569
 7340SOL    HW133656   0.562   1.707   5.833 -0.8465 -3.3926 -1.2676
 7340SOL    HW233657   0.452   1.800   5.849 -1.3688  0.7709  1.0274
 7341SOL     OW33658   2.524   3.434   2.427  0.0280 -0.2069  0.8234
 7341SOL    HW133659   2.499   3.463   2.514 -1.1518 -0.3522  0.5282
 7341SOL    HW233660   2.599   3.489   2.404  0.5644 -1.1410  0.3210
 7342SOL     OW33661   0.074   3.132   4.602 -0.0851  0.6146 -0.0656
 7342SOL    HW133662   0.115   3.163   4.683  0.2115 -0.7984  0.3326
 7342SOL    HW233663   0.004   3.192   4.579 -0.7884 -0.0743  0.2554
 7343SOL     OW33664   2.451   3.883   4.855  1.0789 -0.0398  0.4958
 7343SOL    HW133665   2.483   3.912   4.770 -0.4272 -1.7441 -0.6502
 7343SOL    HW233666   2.432   3.791   4.840  1.6478 -0.4646  2.3955
 7344SOL     OW33667   3.896   4.200  16.224 -0.2267 -0.3614 -0.5668
 7344SOL    HW133668   3.976   4.224  16.272  0.7526 -1.5394 -1.6066
 7344SOL    HW233669   3.877   4.114  16.261 -0.4490  0.0179  0.2114
 7345SOL     OW33670   2.359   1.287   7.808 -0.1752  0.6710 -0.1449
 7345SOL    HW133671   2.377   1.223   7.738  1.1551  0.1344  0.6810
 7345SOL    HW233672   2.322   1.231   7.876 -5.3022  1.6925 -2.1083
 7346SOL     OW33673   0.382   2.354  10.297  0.1377 -0.5154 -0.1873
 7346SOL    HW133674   0.289   2.364  10.277  0.2801 -1.4089 -1.2749
 7346SOL    HW233675   0.383   2.272  10.347  1.3040 -0.8040 -0.6822
 7347SOL     OW33676   1.346   1.987   3.101 -0.3304 -0.0870 -0.1945
 7347SOL    HW133677   1.267   2.040   3.108 -0.9521 -0.8931 -1.2212
 7347SOL    HW233678   1.321   1.909   3.149  1.1106 -0.4513 -0.0153
 7348SOL     OW33679   0.307   0.506   1.524 -0.0749  0.2894 -0.3327
 7348SOL    HW133680   0.360   0.502   1.604  2.0237  0.0208 -1.7269
 7348SOL    HW233681   0.296   0.600   1.513  1.2970  0.6829  1.5766
 7349SOL     OW33682   3.544   2.982   2.564 -0.3975  0.0763 -0.1373
 7349SOL    HW133683   3.553   2.890   2.536  3.0959 -0.6232  3.1810
 7349SOL    HW233684   3.485   3.026   2.503  0.0351  0.6703 -0.1236
 7350SOL     OW33685   3.283   1.311  11.290 -0.0328 -0.0997 -0.0882
 7350SOL    HW133686   3.222   1.243  11.261  0.1869 -0.0567 -0.6559
 7350SOL    HW233687   3.232   1.341  11.365 -1.3151 -2.6298  0.0683
 7351SOL     OW33688   2.228   2.022   6.576 -0.2375  0.0235 -0.1199
 7351SOL    HW133689   2.198   1.931   6.573 -0.5103  0.0633  1.3633
 7351SOL    HW233690   2.304   2.004   6.521 -0.5812  1.4647 -1.0636
 7352SOL     OW33691   2.648   4.186  13.907 -0.2277 -0.1141 -0.1782
 7352SOL    HW133692   2.742   4.200  13.895 -0.3938  1.1538  0.0270
 7352SOL    HW233693   2.648   4.136  13.989  0.3956  1.1027  0.5600
 7353SOL     OW33694   3.379   3.573  10.642  0.4548  0.1341 -0.3059
 7353SOL    HW133695   3.344   3.623  10.568  2.2877 -0.2438 -1.4219
 7353SOL    HW233696   3.459   3.613  10.673  1.0238 -0.6943 -0.6985
 7354SOL     OW33697   1.763   1.060   7.048 -0.3747 -0.1502  0.0287
 7354SOL    HW133698   1.775   1.079   6.955  2.7228  1.3749  0.7597
 7354SOL    HW233699   1.686   1.116   7.064 -1.2417 -1.5191  0.6804
 7355SOL     OW33700   4.107   2.064   6.899  0.4288 -0.1971  0.1686
 7355SOL    HW133701   4.104   2.155   6.870  2.9339  0.1854  1.1102
 7355SOL    HW233702   4.022   2.055   6.941  1.1843 -1.3353  1.4569
 7356SOL     OW33703   2.108   0.087   8.418 -0.4049  0.0806 -0.1388
 7356SOL    HW133704   2.087   0.042   8.499  0.6964  1.8190  1.1169
 7356SOL    HW233705   2.030   0.080   8.363  0.2974 -0.8046 -1.0191
 7357SOL     OW33706   2.736   4.423   4.701 -0.1502  0.5942  0.2052
 7357SOL    HW133707   2.735   4.327   4.711 -0.4031  0.7011  1.2079
 7357SOL    HW233708   2.650   4.431   4.741 -0.4106 -0.0659 -0.2205
 7358SOL     OW33709   1.218   4.723  11.313 -0.3758  0.2585  0.0984
 7358SOL    HW133710   1.298   0.014  11.355 -0.1400 -2.4574  1.5751
 7358SOL    HW233711   1.176   0.059  11.270 -1.7001  0.1925  1.2370
 7359SOL     OW33712   2.220   3.851   4.533 -0.0099  0.4986  0.1515
 7359SOL    HW133713   2.263   3.766   4.544  0.9825  0.6590 -2.4636
 7359SOL    HW233714   2.162   3.832   4.459 -0.7127 -1.7010  1.2728
 7360SOL     OW33715   1.900   3.985   7.271 -0.0112  0.2240 -0.0854
 7360SOL    HW133716   1.977   3.984   7.327 -0.1957  0.2057  0.1682
 7360SOL    HW233717   1.933   3.963   7.184  2.3700 -0.0451  0.8851
 7361SOL     OW33718   4.424   0.458   4.327 -0.2101 -0.0690 -0.0757
 7361SOL    HW133719   4.499   0.413   4.289 -0.7452 -0.1934 -0.9794
 7361SOL    HW233720   4.354   0.436   4.265 -1.2636  1.1860  0.6653
 7362SOL     OW33721   0.828   4.395   9.258  0.1039  0.6180  0.4225
 7362SOL    HW133722   0.783   4.391   9.343 -0.2745  0.8717  0.2328
 7362SOL    HW233723   0.855   4.485   9.277 -0.1070  0.4165  1.6933
 7363SOL     OW33724   2.554   2.617  17.565 -0.5685  0.5847 -0.6576
 7363SOL    HW133725   2.554   2.604  17.470  2.3356 -0.2763 -0.5762
 7363SOL    HW233726   2.535   2.710  17.568  0.6798  0.8859 -2.3171
 7364SOL     OW33727   1.774   4.022   1.372 -0.5622  0.1410 -0.2212
 7364SOL    HW133728   1.712   4.058   1.309  0.8405 -1.4555 -2.5347
 7364SOL    HW233729   1.721   3.970   1.433 -0.3072  0.3861  0.2003
 7365SOL     OW33730   1.085   4.340   0.235 -0.0518  0.0335 -0.1426
 7365SOL    HW133731   1.008   4.289   0.212  0.8364 -1.1755 -0.3979
 7365SOL    HW233732   1.084   4.386   0.151 -0.8984 -0.6937 -0.5304
 7366SOL     OW33733   2.904   3.317   3.297  0.5144 -0.8215 -0.2026
 7366SOL    HW133734   2.953   3.352   3.371  2.1728 -3.4954 -0.0167
 7366SOL    HW233735   2.818   3.306   3.336  0.7668  0.4905  0.6932
 7367SOL     OW33736   0.018   1.273  11.314  0.5893 -0.2605  0.0836
 7367SOL    HW133737   4.723   1.212  11.248 -0.8853 -0.5519  1.0811
 7367SOL    HW233738   4.675   1.323  11.324  1.5178  1.5638 -1.5932
 7368SOL     OW33739   3.287   2.178   8.612  0.3545 -0.8089  0.5201
 7368SOL    HW133740   3.199   2.175   8.650  0.7967 -0.0793  1.6102
 7368SOL    HW233741   3.317   2.259   8.653 -2.7692  1.6664 -2.1004
 7369SOL     OW33742   1.138   2.590   7.032 -0.1828 -0.3591 -0.6360
 7369SOL    HW133743   1.208   2.524   7.026 -0.1550 -0.6762  2.7519
 7369SOL    HW233744   1.085   2.553   7.103 -1.7098  0.2770 -1.4499
 7370SOL     OW33745   0.694   0.822   6.286 -0.2879  0.0551  0.7806
 7370SOL    HW133746   0.603   0.837   6.308 -0.1801 -0.5008  1.6060
 7370SOL    HW233747   0.723   0.771   6.362 -1.3079  0.1942  1.2492
 7371SOL     OW33748   1.723   3.066   6.418 -0.1108  0.5978 -0.3753
 7371SOL    HW133749   1.809   3.078   6.378 -0.3901  0.4775 -1.0240
 7371SOL    HW233750   1.724   3.140   6.478  0.4198 -0.1281  0.5018
 7372SOL     OW33751   3.820   2.894   7.789  0.1805  0.3020 -0.3764
 7372SOL    HW133752   3.880   2.819   7.777 -1.9363 -1.1787 -1.6412
 7372SOL    HW233753   3.776   2.884   7.705 -0.6169 -0.9153  0.1829
 7373SOL     OW33754   3.470   2.404  16.728  0.1891 -0.5329 -0.2572
 7373SOL    HW133755   3.400   2.450  16.683 -0.1280 -0.6335  0.1272
 7373SOL    HW233756   3.440   2.315  16.708  1.1096 -0.3924 -2.2319
 7374SOL     OW33757   0.262   4.707   1.585 -0.3360  0.7518 -0.6148
 7374SOL    HW133758   0.261   4.624   1.536 -0.1785 -0.0305  0.7259
 7374SOL    HW233759   0.211   4.688   1.663  0.3404 -3.1041 -1.0794
 7375SOL     OW33760   4.307   2.505  16.118 -0.2680 -0.3131 -0.1455
 7375SOL    HW133761   4.262   2.587  16.138 -1.9738 -1.7163  1.8479
 7375SOL    HW233762   4.230   2.449  16.129 -1.0673  1.3120  2.4480
 7376SOL     OW33763   1.426   4.568   2.860 -0.1118 -0.5079  0.7319
 7376SOL    HW133764   1.395   4.516   2.787 -1.9573  0.9788  0.4384
 7376SOL    HW233765   1.445   4.654   2.822  2.0034 -1.9093 -1.2979
 7377SOL     OW33766   2.451   0.443   6.140  0.0237 -0.6207 -0.2786
 7377SOL    HW133767   2.476   0.414   6.227 -0.4363 -0.6799 -0.1656
 7377SOL    HW233768   2.434   0.359   6.098  0.3713 -1.1935  0.7324
 7378SOL     OW33769   3.374   2.862   0.939 -0.4703 -0.3851  0.0250
 7378SOL    HW133770   3.419   2.782   0.967  2.7504  0.7527 -1.8921
 7378SOL    HW233771   3.299   2.831   0.888 -0.4795 -1.6861  0.8148
 7379SOL     OW33772   1.070   3.799   2.805 -0.2551  0.0490 -0.2968
 7379SOL    HW133773   1.128   3.867   2.771  0.1423 -0.2913 -0.2999
 7379SOL    HW233774   1.030   3.853   2.873  1.6602  0.6778  0.3471
 7380SOL     OW33775   1.760   3.438   3.459 -0.2454  0.3423  0.2550
 7380SOL    HW133776   1.850   3.463   3.442 -0.8550  1.5988 -1.1434
 7380SOL    HW233777   1.773   3.363   3.517 -1.9698  0.7583  1.1893
 7381SOL     OW33778   0.972   1.742   3.803 -0.3117 -0.6163  0.2856
 7381SOL    HW133779   1.050   1.686   3.798 -0.8807 -1.4509  1.0609
 7381SOL    HW233780   0.970   1.754   3.898 -1.8237 -0.2380  0.2062
 7382SOL     OW33781   4.244   2.386  15.485 -0.1197  0.8815  0.6213
 7382SOL    HW133782   4.248   2.299  15.524 -1.0214  0.3627 -0.4585
 7382SOL    HW233783   4.173   2.385  15.421  0.7261 -0.1041 -0.3014
 7383SOL     OW33784   1.019   0.260   6.678  0.1542 -0.1689 -0.1970
 7383SOL    HW133785   1.099   0.210   6.665  1.0276  1.7265 -2.0158
 7383SOL    HW233786   0.960   0.222   6.613 -0.4964 -0.4905  0.5697
 7384SOL     OW33787   3.181   1.439   2.846 -0.3527  0.0232 -0.0407
 7384SOL    HW133788   3.087   1.439   2.827 -0.0291  1.6841 -1.5975
 7384SOL    HW233789   3.172   1.469   2.936  0.7980 -1.7012  0.6423
 7385SOL     OW33790   3.892   4.510   4.327  0.3902  0.2531 -0.5286
 7385SOL    HW133791   3.899   4.581   4.391  0.0084 -1.5802  1.5424
 7385SOL    HW233792   3.984   4.493   4.306  1.0127  1.8395  0.9450
 7386SOL     OW33793   2.592   2.155   3.765 -0.4954  0.3793  0.2316
 7386SOL    HW133794   2.525   2.163   3.833 -1.2227 -1.4389 -0.2927
 7386SOL    HW233795   2.550   2.198   3.690  0.0947 -1.9164 -1.4012
 7387SOL     OW33796   4.579   0.722   1.266  0.0605 -0.2534  0.0613
 7387SOL    HW133797   4.501   0.667   1.268 -0.6700  0.7808  0.0684
 7387SOL    HW233798   4.544   0.802   1.306 -2.2621 -0.1556 -2.2312
 7388SOL     OW33799   2.978   0.374  13.606  0.2832 -0.3806  0.0670
 7388SOL    HW133800   3.029   0.298  13.633 -1.2371 -1.4241  0.0161
 7388SOL    HW233801   2.886   0.347  13.613  0.0445 -1.0262 -5.0457
 7389SOL     OW33802   4.652   4.667   5.069  0.1668  0.2198  0.2393
 7389SOL    HW133803   4.586   4.608   5.103 -0.3232 -1.3180 -3.4422
 7389SOL    HW233804   4.603   0.008   5.046 -0.7574 -0.5748 -0.5074
 7390SOL     OW33805   1.437   1.260   4.575 -0.2201  0.4941 -0.3159
 7390SOL    HW133806   1.509   1.236   4.516 -0.5198 -1.0035 -0.0728
 7390SOL    HW233807   1.452   1.354   4.583 -0.0559  0.3738  0.7773
 7391SOL     OW33808   4.212   3.875  11.953  0.3538 -0.1594 -0.6848
 7391SOL    HW133809   4.119   3.884  11.974  0.4231  0.3655 -0.5834
 7391SOL    HW233810   4.206   3.852  11.860 -0.0831 -1.6669 -0.2776
 7392SOL     OW33811   3.184   1.360  14.248  0.2250 -0.0395  0.4150
 7392SOL    HW133812   3.229   1.368  14.332  0.6133  1.3945  0.0789
 7392SOL    HW233813   3.199   1.267  14.236 -1.8145 -0.1643 -1.1838
 7393SOL     OW33814   4.013   0.006   3.974 -0.9413  0.2813  0.5916
 7393SOL    HW133815   3.949   4.735   3.903 -1.3074  1.5272  0.7769
 7393SOL    HW233816   4.069   4.667   3.963  2.7501  2.9149  1.0652
 7394SOL     OW33817   2.197   0.394  11.248  0.5410  0.4938 -0.2040
 7394SOL    HW133818   2.178   0.434  11.163 -1.5470 -0.7838 -0.3442
 7394SOL    HW233819   2.107   0.371  11.271  0.4188  0.4663 -0.7073
 7395SOL     OW33820   2.856   0.418   9.611 -0.4404  0.1162 -0.0236
 7395SOL    HW133821   2.777   0.437   9.561  0.8390  2.5412 -1.1182
 7395SOL    HW233822   2.831   0.328   9.633  1.7310 -0.5438 -0.1858
 7396SOL     OW33823   1.338   3.199   0.882  0.0584 -0.2403  0.0617
 7396SOL    HW133824   1.374   3.128   0.830  0.6169  1.5873 -2.0340
 7396SOL    HW233825   1.357   3.167   0.970  0.7845 -3.3567 -1.2695
 7397SOL     OW33826   3.580   0.019  14.957 -0.5301  0.5547  0.7877
 7397SOL    HW133827   3.632   4.706  15.019  0.1996  1.3319  0.8217
 7397SOL    HW233828   3.505   0.047  15.011  0.0754  0.0733  1.8833
 7398SOL     OW33829   2.761   3.761   9.534  0.1060 -0.1145  0.6697
 7398SOL    HW133830   2.667   3.746   9.540 -0.3496  2.2649 -0.5539
 7398SOL    HW233831   2.769   3.803   9.449  0.7562 -1.0529  0.2631
 7399SOL     OW33832   2.471   1.076   8.823 -0.1470  0.0671  0.4057
 7399SOL    HW133833   2.418   1.085   8.745  1.2195 -0.1914 -0.5658
 7399SOL    HW233834   2.538   1.010   8.802 -0.6010  0.6395 -2.7261
 7400SOL     OW33835   3.574   2.206   5.613 -0.0153  0.0139 -0.1587
 7400SOL    HW133836   3.584   2.274   5.546  1.0081 -0.5204 -0.5400
 7400SOL    HW233837   3.628   2.249   5.679 -0.4691 -1.0650  0.9174
 7401SOL     OW33838   4.393   4.342  13.497  0.1449  0.5410 -0.8119
 7401SOL    HW133839   4.367   4.395  13.573  0.0421 -1.0908  0.2841
 7401SOL    HW233840   4.375   4.408  13.430 -0.5277  0.9741 -0.2131
 7402SOL     OW33841   2.754   3.480  17.038 -0.2538 -0.2118  0.1027
 7402SOL    HW133842   2.723   3.569  17.021  0.0170 -0.3758 -1.1983
 7402SOL    HW233843   2.715   3.468  17.125 -0.0836  3.5416  0.7305
 7403SOL     OW33844   4.668   3.748   7.276  0.2005  0.3398  0.0088
 7403SOL    HW133845   4.614   3.709   7.344 -0.4348  0.0597 -0.6484
 7403SOL    HW233846   4.713   3.820   7.320  2.0250 -1.5416  1.2023
 7404SOL     OW33847   2.481   4.485   6.207  0.0214 -0.6906  0.3718
 7404SOL    HW133848   2.535   4.503   6.284  0.3341  0.5451 -0.1370
 7404SOL    HW233849   2.544   4.433   6.157 -1.1962 -0.9095 -0.9170
 7405SOL     OW33850   4.656   2.873   5.201 -0.0469 -0.2337  0.4893
 7405SOL    HW133851   4.642   2.778   5.202 -0.0891 -0.2050  2.8425
 7405SOL    HW233852   4.630   2.884   5.110  1.5437 -0.5683 -0.0037
 7406SOL     OW33853   4.129   0.229   4.618  0.1363 -0.4089  0.3922
 7406SOL    HW133854   4.075   0.277   4.681 -0.4334 -1.4231  0.6648
 7406SOL    HW233855   4.195   0.292   4.590 -0.3587  0.0902  0.3535
 7407SOL     OW33856   3.735   3.884   2.777 -0.1539  0.2416 -0.5825
 7407SOL    HW133857   3.771   3.856   2.693  0.0303 -0.5138 -0.2572
 7407SOL    HW233858   3.664   3.939   2.745 -0.5897  0.6664  1.0956
 7408SOL     OW33859   2.415   0.906   6.306 -0.1631  0.4334 -0.1661
 7408SOL    HW133860   2.325   0.926   6.278 -0.6252  0.6540  1.5173
 7408SOL    HW233861   2.452   0.839   6.249  0.4595 -0.1647  0.9596
 7409SOL     OW33862   1.572   1.043  12.314  0.0692 -0.2228  0.2855
 7409SOL    HW133863   1.516   1.061  12.238  2.4460 -1.4967 -1.7632
 7409SOL    HW233864   1.508   1.000  12.370 -0.7140 -1.1978 -1.3520
 7410SOL     OW33865   3.335   0.220   4.139  0.3296 -0.0729 -0.1751
 7410SOL    HW133866   3.272   0.160   4.098  0.3965  0.3012 -0.8347
 7410SOL    HW233867   3.412   0.172   4.170  1.1729  0.7981 -0.9153
 7411SOL     OW33868   3.780   1.664  13.457 -0.9288 -0.2792 -0.1857
 7411SOL    HW133869   3.875   1.670  13.448 -0.8666  0.5231  1.0028
 7411SOL    HW233870   3.765   1.717  13.535 -0.1095  0.8173 -0.7699
 7412SOL     OW33871   1.339   4.334   9.742 -0.6308 -0.0044  0.0931
 7412SOL    HW133872   1.408   4.389   9.704 -1.7050  0.3913 -1.2764
 7412SOL    HW233873   1.356   4.355   9.834  0.9475 -1.2816  0.0855
 7413SOL     OW33874   0.420   1.146  12.795  0.2495 -0.2115 -0.5969
 7413SOL    HW133875   0.492   1.166  12.855 -0.0789 -1.4734  0.2263
 7413SOL    HW233876   0.464   1.101  12.722 -2.2151 -0.0481 -2.1741
 7414SOL     OW33877   4.067   4.236   3.605 -0.6313 -0.0069  0.0982
 7414SOL    HW133878   4.083   4.281   3.688  1.6876  1.2378 -1.0222
 7414SOL    HW233879   4.134   4.168   3.596  0.2863  1.0312 -0.9062
 7415SOL     OW33880   2.531   4.090   6.174 -0.1226  0.3925  0.5144
 7415SOL    HW133881   2.509   4.000   6.199 -1.9887  1.1528  1.6387
 7415SOL    HW233882   2.598   4.123   6.234  0.3140 -0.0468  0.2691
 7416SOL     OW33883   0.218   3.118  13.472  0.8111  0.2373 -0.1388
 7416SOL    HW133884   0.286   3.183  13.456  1.1403  0.4657  2.2523
 7416SOL    HW233885   0.235   3.053  13.404  1.1632  0.2532 -0.0650
 7417SOL     OW33886   2.338   3.143   3.450  0.3692 -0.2825 -0.2886
 7417SOL    HW133887   2.396   3.174   3.520  0.2191 -0.7536  0.0429
 7417SOL    HW233888   2.328   3.051   3.472 -0.0456 -0.1855 -0.0685
 7418SOL     OW33889   2.945   4.209   4.458  0.6129  0.0136 -0.5189
 7418SOL    HW133890   2.966   4.118   4.482 -2.2644  0.5504  4.0124
 7418SOL    HW233891   2.975   4.222   4.368  0.3376  1.7461 -0.3477
 7419SOL     OW33892   2.215   0.990  15.198  0.2823 -0.4569  0.3646
 7419SOL    HW133893   2.243   1.064  15.252  0.7580  1.8689 -3.0524
 7419SOL    HW233894   2.179   0.929  15.262  1.4521 -0.1986  1.2788
 7420SOL     OW33895   1.012   3.829   7.717 -0.3458  0.5954  0.2575
 7420SOL    HW133896   1.048   3.747   7.752  0.3945  0.1579 -1.5358
 7420SOL    HW233897   0.948   3.850   7.785 -3.4317 -0.9055 -2.1726
 7421SOL     OW33898   1.148   0.822   7.164 -0.7475  0.0197  0.6471
 7421SOL    HW133899   1.160   0.825   7.259 -2.0503  2.2173  0.7359
 7421SOL    HW233900   1.053   0.824   7.159 -0.7408  0.3510  0.6782
 7422SOL     OW33901   4.630   4.653   1.980 -0.2900 -0.0697  0.4697
 7422SOL    HW133902   4.561   4.660   1.914 -1.8992 -2.8531  1.8628
 7422SOL    HW233903   4.644   0.009   1.991 -3.1902  0.3658  0.5448
 7423SOL     OW33904   0.853   3.215   8.525  0.4703 -0.2338 -0.4515
 7423SOL    HW133905   0.867   3.277   8.454  1.4365 -1.6492 -1.4882
 7423SOL    HW233906   0.941   3.217   8.562  0.2545 -1.6997  0.1497
 7424SOL     OW33907   0.619   3.167   8.667 -0.1250 -0.5745  0.2848
 7424SOL    HW133908   0.639   3.088   8.717 -0.1462 -1.3918 -1.0080
 7424SOL    HW233909   0.706   3.190   8.637 -0.2439  0.2112  0.5413
 7425SOL     OW33910   1.417   2.658   3.842 -0.3506 -0.2442  0.0773
 7425SOL    HW133911   1.508   2.684   3.826 -0.2069  0.4149  1.9717
 7425SOL    HW233912   1.406   2.589   3.776  0.7116 -1.9997  1.7507
 7426SOL     OW33913   3.565   4.349   0.979 -0.6091 -0.1830 -0.0070
 7426SOL    HW133914   3.487   4.319   0.932 -1.9127  0.8810  1.4518
 7426SOL    HW233915   3.534   4.371   1.067 -2.0191 -0.0511 -0.5400
 7427SOL     OW33916   4.061   0.598   1.303  0.0085 -0.6914 -0.3269
 7427SOL    HW133917   4.066   0.627   1.212  1.0532  1.7670  0.5263
 7427SOL    HW233918   4.152   0.574   1.321  0.5317  1.6484  0.1454
 7428SOL     OW33919   0.843   3.318   5.731 -0.0082  0.5563 -0.0391
 7428SOL    HW133920   0.896   3.244   5.762  1.8873  1.1645 -1.8486
 7428SOL    HW233921   0.903   3.371   5.679 -0.5993  0.4679 -0.7996
 7429SOL     OW33922   0.945   2.127   8.580  0.0224 -0.0899 -0.2348
 7429SOL    HW133923   0.920   2.069   8.652  1.0054 -1.0465 -0.6573
 7429SOL    HW233924   0.891   2.093   8.509  0.7679 -0.6533 -0.5225
 7430SOL     OW33925   1.240   3.021   2.043  0.3606  0.4279 -0.2386
 7430SOL    HW133926   1.196   2.987   2.121 -2.3126  0.1596 -1.8495
 7430SOL    HW233927   1.236   2.941   1.990  1.1070  0.5152 -0.4268
 7431SOL     OW33928   1.749   4.449   3.179 -0.4176  0.7588  0.1962
 7431SOL    HW133929   1.772   4.534   3.218 -0.9594  0.8588  0.3018
 7431SOL    HW233930   1.655   4.466   3.170 -0.5351  0.1971  0.3401
 7432SOL     OW33931   3.982   1.153   9.451 -0.2271  0.2626 -0.1863
 7432SOL    HW133932   4.070   1.191   9.458 -0.0822 -0.1305  0.0941
 7432SOL    HW233933   3.925   1.219   9.493  0.4585  0.7503 -0.0193
 7433SOL     OW33934   4.389   3.931  14.728 -0.0746  0.0935 -0.0808
 7433SOL    HW133935   4.396   3.855  14.786 -1.3597  1.5254  1.9364
 7433SOL    HW233936   4.401   3.888  14.643  2.2635 -2.2420  1.4080
 7434SOL     OW33937   0.099   4.446   9.566  0.3953  0.3774 -1.1416
 7434SOL    HW133938   0.139   4.494   9.494  2.2746 -1.1191 -1.0931
 7434SOL    HW233939   0.033   4.395   9.519  0.6972 -1.2623  0.1800
 7435SOL     OW33940   0.085   0.600   0.143 -0.2801 -0.3623  0.0317
 7435SOL    HW133941   0.071   0.548   0.223  1.0549  0.8231  1.0345
 7435SOL    HW233942   0.164   0.653   0.154 -0.0429 -0.5384 -0.8651
 7436SOL     OW33943   3.507   4.285   7.846  0.3803 -0.6151  0.0101
 7436SOL    HW133944   3.537   4.360   7.898  0.7681 -1.6896  1.3273
 7436SOL    HW233945   3.413   4.302   7.840 -0.0212 -1.9046  2.9514
 7437SOL     OW33946   2.844   2.165   6.312 -0.1004  0.6966 -0.3179
 7437SOL    HW133947   2.906   2.093   6.310 -0.3731  0.4086  1.0568
 7437SOL    HW233948   2.856   2.193   6.403  1.3814 -0.5310 -0.1331
 7438SOL     OW33949   0.384   0.857   5.817 -0.1728  0.4701  0.2481
 7438SOL    HW133950   0.332   0.904   5.752 -0.1043 -0.2341 -0.3040
 7438SOL    HW233951   0.462   0.852   5.763  0.8679  1.2168  1.6731
 7439SOL     OW33952   4.541   2.370   8.481 -0.5001 -0.2917  0.0531
 7439SOL    HW133953   4.482   2.330   8.545  0.3347 -1.3825  0.1570
 7439SOL    HW233954   4.604   2.299   8.465 -0.8842 -0.7117  0.4196
 7440SOL     OW33955   3.182   4.721   4.082 -0.3088 -0.1480  0.6983
 7440SOL    HW133956   3.116   0.044   4.046  1.5167  1.7859  0.6159
 7440SOL    HW233957   3.150   4.632   4.065  0.4694 -0.3545  0.3321
 7441SOL     OW33958   3.583   2.203   2.595 -0.1394 -0.3840 -0.2836
 7441SOL    HW133959   3.517   2.267   2.569  0.5092  1.7398  3.3027
 7441SOL    HW233960   3.658   2.253   2.629  0.3209 -1.1038 -0.2504
 7442SOL     OW33961   2.359   2.885   2.306 -0.1674  0.4574 -0.0128
 7442SOL    HW133962   2.336   2.803   2.350 -1.0786  0.8216  0.1898
 7442SOL    HW233963   2.455   2.880   2.307 -0.1963 -0.4790 -1.3835
 7443SOL     OW33964   3.372   0.790   8.061 -0.3954  0.4418 -0.0252
 7443SOL    HW133965   3.282   0.799   8.028  0.6621  1.6734 -2.5794
 7443SOL    HW233966   3.383   0.695   8.056  1.8380  0.7322 -0.5245
 7444SOL     OW33967   1.797   3.509   6.927 -0.7868  0.0162 -0.2264
 7444SOL    HW133968   1.810   3.558   7.009  1.5609 -4.3076  1.9688
 7444SOL    HW233969   1.888   3.521   6.898 -0.4248 -1.5449  0.2814
 7445SOL     OW33970   3.425   2.241   6.968 -1.0101  0.3851 -0.1345
 7445SOL    HW133971   3.352   2.204   7.018 -0.0754 -0.6644  0.4293
 7445SOL    HW233972   3.392   2.327   6.940 -0.3854  0.5903 -0.2421
 7446SOL     OW33973   1.804   0.458   8.414 -0.1146  0.0406  0.1101
 7446SOL    HW133974   1.802   0.376   8.462  0.0056  0.3315  0.6150
 7446SOL    HW233975   1.817   0.525   8.482 -4.1109  0.0703  0.8509
 7447SOL     OW33976   4.197   3.505   2.944 -0.5321 -0.2024 -0.2958
 7447SOL    HW133977   4.275   3.481   2.994 -1.7933 -0.6543  1.4290
 7447SOL    HW233978   4.138   3.526   3.017 -0.7735 -1.8850 -0.0118
 7448SOL     OW33979   2.493   2.620  12.671  0.0173 -0.4723  0.3429
 7448SOL    HW133980   2.510   2.707  12.635 -2.1630  0.1898  0.9813
 7448SOL    HW233981   2.509   2.630  12.764 -0.1516  0.6074  0.2493
 7449SOL     OW33982   0.140   3.468   7.789  0.3918 -0.4535 -0.0344
 7449SOL    HW133983   0.199   3.405   7.830  0.1352 -0.1580  0.7782
 7449SOL    HW233984   0.195   3.494   7.715 -0.4962 -0.3183 -0.6481
 7450SOL     OW33985   0.700   1.163   4.033  0.0755 -0.8749  0.2414
 7450SOL    HW133986   0.767   1.133   4.094  2.0355  2.9808 -0.0191
 7450SOL    HW233987   0.717   1.113   3.953 -1.4764  3.6956 -2.9192
 7451SOL     OW33988   2.497   3.254   3.648 -0.1132  0.3324  0.0355
 7451SOL    HW133989   2.436   3.282   3.716  1.0852  0.7673  0.9170
 7451SOL    HW233990   2.569   3.317   3.649  0.9130 -0.8385 -0.1284
 7452SOL     OW33991   4.589   4.067   5.406  0.3786 -0.2808 -0.1246
 7452SOL    HW133992   4.577   4.111   5.490 -0.7048  1.5857 -1.2544
 7452SOL    HW233993   4.671   4.107   5.376 -0.5349  0.7080 -1.3106
 7453SOL     OW33994   2.139   2.386   4.474  0.0339 -0.2528  0.3317
 7453SOL    HW133995   2.167   2.343   4.393 -1.3526  2.9243 -1.8499
 7453SOL    HW233996   2.224   2.384   4.518  0.0346  0.4282  0.3584
 7454SOL     OW33997   1.582   4.593   8.138  0.2644  0.1438  0.1053
 7454SOL    HW133998   1.490   4.567   8.125  0.4621  0.3564 -1.7349
 7454SOL    HW233999   1.639   4.563   8.068  0.7216 -1.1902  1.0577
 7455SOL     OW34000   1.320   0.737   7.815 -0.0391  0.2633 -0.4487
 7455SOL    HW134001   1.326   0.643   7.796 -1.2637 -0.1691  1.2776
 7455SOL    HW234002   1.232   0.737   7.853  0.5770 -0.0165  0.9781
 7456SOL     OW34003   0.275   2.331   2.123  0.1471 -0.2687  0.1674
 7456SOL    HW134004   0.220   2.323   2.201 -0.1276 -0.5142 -0.0479
 7456SOL    HW234005   0.249   2.269   2.055  1.7970 -1.2881  0.4673
 7457SOL     OW34006   3.703   0.532  14.602  0.0411  0.3593  0.3812
 7457SOL    HW134007   3.746   0.453  14.569 -0.3733  0.4141 -0.2665
 7457SOL    HW234008   3.614   0.520  14.570  0.6220 -3.4184  0.2025
 7458SOL     OW34009   2.771   1.868   6.375 -0.6480  0.3435 -0.5774
 7458SOL    HW134010   2.837   1.800   6.361 -0.1184  0.5626  0.7731
 7458SOL    HW234011   2.717   1.862   6.296 -0.3773  2.1485 -0.8870
 7459SOL     OW34012   0.830   4.608   3.782  0.4440  0.0054  0.8280
 7459SOL    HW134013   0.765   4.541   3.762 -0.4772  1.1972 -0.1742
 7459SOL    HW234014   0.885   4.610   3.703 -1.9649 -1.8604 -0.8943
 7460SOL     OW34015   2.415   0.238  11.275  0.2378 -0.2939  0.2160
 7460SOL    HW134016   2.448   0.324  11.249  0.4106 -0.5938 -0.5440
 7460SOL    HW234017   2.324   0.267  11.277  1.1066  2.4069  0.2948
 7461SOL     OW34018   1.724   0.789   2.578  0.0029 -0.4026 -0.4627
 7461SOL    HW134019   1.732   0.883   2.593 -2.0655 -0.0054 -1.8491
 7461SOL    HW234020   1.631   0.766   2.570 -0.3524  1.2804 -1.0367
 7462SOL     OW34021   3.300   2.105   2.848  0.0003  0.1203  0.4096
 7462SOL    HW134022   3.363   2.173   2.869 -1.3013  1.8510 -1.2503
 7462SOL    HW234023   3.222   2.158   2.832 -0.3019 -0.3294  0.3667
 7463SOL     OW34024   4.471   2.261   5.384 -0.0940  0.5579  0.4979
 7463SOL    HW134025   4.556   2.266   5.339 -1.0743 -0.6232 -1.5089
 7463SOL    HW234026   4.416   2.251   5.306  0.1643 -1.5713  0.5785
 7464SOL     OW34027   1.908   4.488  14.653  0.0369  0.2249 -0.4414
 7464SOL    HW134028   1.959   4.529  14.584  0.6511  0.6907  0.2831
 7464SOL    HW234029   1.919   4.397  14.626  1.6967  0.9347 -2.0873
 7465SOL     OW34030   3.266   4.587   8.782  0.6955  0.0967  0.3041
 7465SOL    HW134031   3.338   4.525   8.792 -1.2123 -2.4507 -1.8484
 7465SOL    HW234032   3.206   4.563   8.853  0.2665  1.3477  0.3674
 7466SOL     OW34033   2.400   0.976   9.843 -0.2902 -0.1067  0.4291
 7466SOL    HW134034   2.456   1.049   9.870 -0.7847  0.1529  0.7553
 7466SOL    HW234035   2.459   0.913   9.802  0.5744  0.4434  0.8105
 7467SOL     OW34036   0.888   1.383   8.549  0.2163 -0.5773 -0.0864
 7467SOL    HW134037   0.929   1.380   8.636 -0.9585 -0.4666  0.4872
 7467SOL    HW234038   0.960   1.369   8.488 -0.3017 -1.3030 -0.5278
 7468SOL     OW34039   4.678   0.149   8.346  0.4766  0.5715 -0.0103
 7468SOL    HW134040   4.596   0.126   8.303  0.8984  0.1191 -0.5747
 7468SOL    HW234041   4.726   0.066   8.341  0.5827  0.7276 -1.7741
 7469SOL     OW34042   0.569   1.838   6.152  0.0323  0.1393  0.0948
 7469SOL    HW134043   0.633   1.891   6.199  0.9409  0.2285 -1.2561
 7469SOL    HW234044   0.570   1.866   6.060 -0.4703  2.2828  0.7588
 7470SOL     OW34045   3.736   1.681   5.259  0.0589  0.0258 -0.2850
 7470SOL    HW134046   3.738   1.712   5.349 -0.3503 -0.3934 -0.1283
 7470SOL    HW234047   3.720   1.586   5.257  2.2202 -0.3171 -0.4370
 7471SOL     OW34048   4.613   1.251   9.638 -0.4180  0.1933  0.6619
 7471SOL    HW134049   4.564   1.326   9.603  0.9552  1.1102  0.6708
 7471SOL    HW234050   4.559   1.218   9.709  1.0893  0.1662  1.8132
 7472SOL     OW34051   0.779   2.221   4.344 -0.3612 -0.3892  0.0723
 7472SOL    HW134052   0.707   2.157   4.345  1.3137 -2.1973  3.0817
 7472SOL    HW234053   0.734   2.282   4.286  2.4595  1.3021 -0.3091
 7473SOL     OW34054   2.475   1.089   5.660  0.2182  0.1578 -0.6183
 7473SOL    HW134055   2.385   1.056   5.661 -0.8130  2.9396 -0.5450
 7473SOL    HW234056   2.479   1.130   5.573 -1.2085 -0.9964 -1.2437
 7474SOL     OW34057   0.047   0.990   3.489  0.3306  0.2690  0.5689
 7474SOL    HW134058   0.086   1.045   3.421  1.2156  1.3266  1.9207
 7474SOL    HW234059   4.693   1.015   3.498  0.3386 -0.5202  2.9350
 7475SOL     OW34060   3.069   2.520  17.554  0.2145 -0.3628  0.6190
 7475SOL    HW134061   3.096   2.534  17.645  0.3708  1.2839  0.3215
 7475SOL    HW234062   3.156   2.524  17.515  0.2786 -1.9309  0.5952
 7476SOL     OW34063   0.375   0.793   2.731  0.0085  0.3797 -0.3117
 7476SOL    HW134064   0.314   0.766   2.662 -0.3386  0.6611 -0.1206
 7476SOL    HW234065   0.318   0.816   2.805 -0.6725 -0.4471 -0.5785
 7477SOL     OW34066   1.245   1.573  15.725  0.3426 -0.7940 -0.0557
 7477SOL    HW134067   1.161   1.619  15.727 -0.0221 -1.4529 -0.4779
 7477SOL    HW234068   1.249   1.516  15.802  1.0783  1.4937  1.6101
 7478SOL     OW34069   4.620   1.072   4.580  0.2438 -0.0742 -0.1437
 7478SOL    HW134070   4.627   1.105   4.670  1.1880 -0.7711  0.0389
 7478SOL    HW234071   4.695   1.013   4.577  0.1653 -0.2218  0.6821
 7479SOL     OW34072   1.250   2.156   1.523  0.0868  0.4714 -0.2546
 7479SOL    HW134073   1.229   2.157   1.429 -1.4231  0.1434  0.0717
 7479SOL    HW234074   1.202   2.232   1.558 -1.4271 -1.0625  0.9709
 7480SOL     OW34075   2.332   2.518   6.858 -0.2097  0.0794 -0.7459
 7480SOL    HW134076   2.245   2.528   6.897 -0.3056 -0.3899 -0.8478
 7480SOL    HW234077   2.384   2.472   6.925  1.0514  2.3166 -0.1710
 7481SOL     OW34078   2.561   2.743   6.603  0.4913  0.2838  0.4653
 7481SOL    HW134079   2.572   2.804   6.676  0.0214  1.0521 -0.1104
 7481SOL    HW234080   2.468   2.721   6.610  1.0939 -1.5605  2.5534
 7482SOL     OW34081   3.921   3.508   6.952 -0.0187  0.3004 -0.2494
 7482SOL    HW134082   3.856   3.486   6.885 -0.6657  0.2879  0.3822
 7482SOL    HW234083   3.912   3.604   6.949 -0.0567  0.3025 -0.0808
 7483SOL     OW34084   2.408   2.014   4.122 -0.3429  0.6717  0.1018
 7483SOL    HW134085   2.360   1.931   4.121  0.5738  0.1787 -2.0255
 7483SOL    HW234086   2.337   2.077   4.111  0.0640  0.9787 -0.7710
 7484SOL     OW34087   4.183   3.047   3.707  0.6534  0.3889 -0.1695
 7484SOL    HW134088   4.142   2.961   3.699  1.7798 -0.2294  0.8072
 7484SOL    HW234089   4.241   3.031   3.781  1.5814 -1.1518 -1.2505
 7485SOL     OW34090   2.961   3.451   8.668  0.2077  0.2232 -0.6245
 7485SOL    HW134091   2.876   3.407   8.677 -0.0356  1.0714  1.3939
 7485SOL    HW234092   2.984   3.427   8.578  0.3925  0.7123 -0.7064
 7486SOL     OW34093   2.594   1.372   2.816 -0.0852  0.1681  0.1104
 7486SOL    HW134094   2.658   1.307   2.846  1.7014  1.8822  0.0429
 7486SOL    HW234095   2.592   1.436   2.888 -0.8898  0.1105  0.1381
 7487SOL     OW34096   0.848   0.612  11.302 -0.7691 -0.6777 -0.8734
 7487SOL    HW134097   0.885   0.619  11.390 -1.3766  0.7206 -0.7251
 7487SOL    HW234098   0.873   0.696  11.261  2.1116 -1.3692 -0.5827
 7488SOL     OW34099   4.259   3.194   5.518 -0.0428  0.1965 -0.0163
 7488SOL    HW134100   4.222   3.161   5.600  2.5191 -1.0206  0.6410
 7488SOL    HW234101   4.183   3.205   5.460 -0.9166  0.8527  1.2411
 7489SOL     OW34102   1.597   3.251  10.887  0.2191  0.1337  0.0028
 7489SOL    HW134103   1.659   3.307  10.841  1.6785 -0.8662  0.7449
 7489SOL    HW234104   1.617   3.278  10.977 -0.4834 -1.0136  0.5018
 7490SOL     OW34105   2.019   4.195   8.015 -0.0246 -0.1768  0.1712
 7490SOL    HW134106   1.924   4.196   8.004  0.1345 -1.4230 -1.2623
 7490SOL    HW234107   2.046   4.286   8.033  2.5738 -1.1297  1.0329
 7491SOL     OW34108   1.911   2.111   3.541  0.3987 -0.1291  0.1029
 7491SOL    HW134109   1.892   2.066   3.623 -0.9668  1.3679  0.6082
 7491SOL    HW234110   1.839   2.074   3.491  0.5231 -0.8668  0.4656
 7492SOL     OW34111   1.539   0.040   8.678  0.4574 -0.0815  0.1642
 7492SOL    HW134112   1.496   4.731   8.749 -1.1774  0.2952 -0.5733
 7492SOL    HW234113   1.529   4.718   8.603  1.6015 -1.1292  0.8436
 7493SOL     OW34114   4.536   2.149   6.389 -0.0737  0.4237  0.3116
 7493SOL    HW134115   4.458   2.159   6.443  0.2503  0.3823  0.7894
 7493SOL    HW234116   4.554   2.056   6.382 -2.6189 -0.0968  0.9768
 7494SOL     OW34117   3.024   0.427   8.886  0.0101  0.2175  0.1993
 7494SOL    HW134118   3.041   0.463   8.799 -0.3717  2.1744  0.9382
 7494SOL    HW234119   2.932   0.404   8.876  0.0471  0.4428 -0.6158
 7495SOL     OW34120   0.337   2.697   5.546 -0.6144 -0.5222 -0.0334
 7495SOL    HW134121   0.260   2.681   5.491 -1.7760 -0.9147  1.6898
 7495SOL    HW234122   0.315   2.784   5.580 -1.4950 -1.0460  0.7487
 7496SOL     OW34123   2.032   3.076   2.317 -0.0383 -0.3511 -0.0734
 7496SOL    HW134124   1.939   3.054   2.314 -0.3500  1.0001 -0.2666
 7496SOL    HW234125   2.064   2.988   2.297 -1.1443 -1.5173  3.3255
 7497SOL     OW34126   2.023   0.688   3.465 -0.1203 -0.2961 -0.1910
 7497SOL    HW134127   1.934   0.681   3.502  0.0278 -1.2051  0.0040
 7497SOL    HW234128   2.041   0.780   3.483 -2.1906 -0.2829  1.9204
 7498SOL     OW34129   0.409   4.216   8.192 -0.2680  0.2545  0.0266
 7498SOL    HW134130   0.323   4.178   8.211 -0.2446  0.2446  0.1120
 7498SOL    HW234131   0.446   4.229   8.280 -0.8580  0.0595  0.3066
 7499SOL     OW34132   4.377   2.169   5.156 -0.4485  0.3483  0.6736
 7499SOL    HW134133   4.296   2.136   5.118  0.2850 -0.8013  0.1473
 7499SOL    HW234134   4.435   2.094   5.161  0.3354  0.9441  0.6169
 7500SOL     OW34135   1.096   4.215   2.101 -0.4607 -0.1680 -0.1124
 7500SOL    HW134136   1.124   4.143   2.157  0.9354  0.3383 -0.1509
 7500SOL    HW234137   1.180   4.238   2.060  0.4380  2.3677  3.1630
 7501SOL     OW34138   4.569   0.704  17.020  0.2357  0.4253  0.4177
 7501SOL    HW134139   4.546   0.753  16.941 -0.5816 -2.1371 -0.9066
 7501SOL    HW234140   4.490   0.711  17.073  1.4997 -2.8277  2.6741
 7502SOL     OW34141   2.923   2.725   0.380  0.3770  0.4584 -0.7037
 7502SOL    HW134142   2.991   2.715   0.313  2.4449 -1.7347  1.7127
 7502SOL    HW234143   2.970   2.766   0.451  1.2868 -3.0045  0.7063
 7503SOL     OW34144   2.597   3.952   3.188  0.2001  0.2083 -0.1318
 7503SOL    HW134145   2.564   3.865   3.165  2.5482 -0.1592 -2.1222
 7503SOL    HW234146   2.567   3.970   3.277  1.3593  1.2785  0.0449
 7504SOL     OW34147   0.625   2.872   1.522 -0.0079 -0.5504  0.3128
 7504SOL    HW134148   0.604   2.839   1.435 -1.3410 -0.2027  0.5048
 7504SOL    HW234149   0.629   2.788   1.568  4.2344  0.1258  1.1520
 7505SOL     OW34150   2.070   0.012   8.057 -0.1155 -0.3615  0.2063
 7505SOL    HW134151   2.120   0.022   7.976 -0.8364 -0.8791 -0.3052
 7505SOL    HW234152   2.071   4.655   8.066  3.8130 -0.0480  3.2309
 7506SOL     OW34153   2.628   0.875   5.874  0.2110 -0.3789  0.8020
 7506SOL    HW134154   2.558   0.848   5.815  0.4881  3.4340 -1.2445
 7506SOL    HW234155   2.574   0.939   5.920 -1.5228 -0.2742 -1.4187
 7507SOL     OW34156   1.816   3.791   9.432  0.0757  0.7012  0.1441
 7507SOL    HW134157   1.730   3.833   9.430  0.9588  2.5390  0.1195
 7507SOL    HW234158   1.849   3.787   9.342 -0.7431 -2.8292  0.0363
 7508SOL     OW34159   2.423   4.346   3.488 -0.1158 -0.2982  0.1998
 7508SOL    HW134160   2.332   4.345   3.518  0.8186  1.4515  3.0247
 7508SOL    HW234161   2.416   4.415   3.423 -1.7187  0.6250  1.3760
 7509SOL     OW34162   3.944   0.155   5.031  0.0163  0.5662  0.0240
 7509SOL    HW134163   3.938   0.127   5.122 -2.4575 -3.0931 -1.2916
 7509SOL    HW234164   3.880   0.090   5.000 -1.4659  2.2403 -0.4440
 7510SOL     OW34165   3.617   1.629  14.038  0.0987  0.6806 -0.8282
 7510SOL    HW134166   3.546   1.669  14.089  1.5795  1.8118  0.3436
 7510SOL    HW234167   3.569   1.588  13.967  1.3573  0.4098 -1.5151
 7511SOL     OW34168   1.475   1.311   2.127  0.4375  0.3712 -0.3132
 7511SOL    HW134169   1.524   1.300   2.209 -1.1245  0.0016  0.5828
 7511SOL    HW234170   1.542   1.363   2.081 -1.3710  0.6468 -2.6419
 7512SOL     OW34171   3.346   4.142  10.408 -0.0002  0.0944  0.2877
 7512SOL    HW134172   3.359   4.058  10.365 -0.4076 -0.4625  1.2620
 7512SOL    HW234173   3.380   4.210  10.350  0.6738  0.0141  0.5795
 7513SOL     OW34174   2.120   4.433   8.892 -0.0285  0.0513  0.2765
 7513SOL    HW134175   2.052   4.429   8.959  0.2944  1.6526  0.6910
 7513SOL    HW234176   2.155   4.518   8.919  1.5869 -1.3090  2.4703
 7514SOL     OW34177   3.172   2.916   7.512  0.0767 -0.2407 -0.5312
 7514SOL    HW134178   3.232   2.841   7.521  1.3996  0.6450 -1.9467
 7514SOL    HW234179   3.201   2.972   7.584 -0.7530  0.4297 -0.7185
 7515SOL     OW34180   2.044   4.539  16.612 -0.4445  0.6622 -0.2071
 7515SOL    HW134181   1.962   4.584  16.594 -0.9784  0.2804  1.2089
 7515SOL    HW234182   2.060   4.561  16.704  1.7251  1.7573 -0.8641
 7516SOL     OW34183   4.452   2.833  12.113  0.2829 -0.0056  0.0914
 7516SOL    HW134184   4.448   2.781  12.194  0.4716  2.7409  1.8730
 7516SOL    HW234185   4.515   2.778  12.067 -2.0733 -1.2406 -1.6368
 7517SOL     OW34186   4.437   1.902   1.558  0.7055  0.7175 -0.0863
 7517SOL    HW134187   4.499   1.892   1.486  1.9928  2.6657  0.7450
 7517SOL    HW234188   4.492   1.861   1.624 -0.3100 -2.2799 -1.1092
 7518SOL     OW34189   1.978   4.027   2.787 -0.0909  0.0356 -0.4143
 7518SOL    HW134190   2.063   3.995   2.817 -0.3141 -0.5488 -0.4073
 7518SOL    HW234191   1.972   3.953   2.726 -3.4217 -0.3135  0.3389
 7519SOL     OW34192   1.939   3.405  13.102 -0.4943 -0.5021 -0.5956
 7519SOL    HW134193   1.843   3.400  13.094 -0.4769 -2.2306  0.3124
 7519SOL    HW234194   1.959   3.494  13.072 -2.3472  0.3019  0.5403
 7520SOL     OW34195   1.561   2.622   7.905  0.2773 -0.4591  0.0564
 7520SOL    HW134196   1.622   2.642   7.977  0.6750 -0.2567 -0.3350
 7520SOL    HW234197   1.617   2.638   7.829 -1.7521  1.1571 -1.0824
 7521SOL     OW34198   2.406   0.606  17.455  0.0143  0.3131 -0.6049
 7521SOL    HW134199   2.468   0.569  17.517  1.1413  0.7924 -1.4460
 7521SOL    HW234200   2.401   0.528  17.399 -0.1210 -0.9483  1.1780
 7522SOL     OW34201   0.963   4.420  16.001 -0.4968  0.1140 -0.0744
 7522SOL    HW134202   0.977   4.490  15.937  1.1905 -0.0493  0.1152
 7522SOL    HW234203   1.053   4.387  15.999 -0.6105 -0.2780  1.5325
 7523SOL     OW34204   4.502   2.534   2.883  0.5564  0.4527 -0.7022
 7523SOL    HW134205   4.490   2.629   2.873  0.6797  0.4698 -0.6957
 7523SOL    HW234206   4.476   2.522   2.974  2.2479 -2.1197 -0.5668
 7524SOL     OW34207   3.458   4.371   4.132  0.2187 -0.7802 -0.6298
 7524SOL    HW134208   3.412   4.451   4.107  0.5377 -1.1453 -2.3882
 7524SOL    HW234209   3.473   4.329   4.048  0.6473  0.4166 -1.1564
 7525SOL     OW34210   2.192   0.273   0.916 -0.4969  0.4370 -0.1364
 7525SOL    HW134211   2.190   0.179   0.933  1.0185 -0.0663 -2.9566
 7525SOL    HW234212   2.100   0.295   0.899 -0.6545 -0.8265 -0.9449
 7526SOL     OW34213   2.473   3.572   7.830 -0.1300 -0.1344 -0.2894
 7526SOL    HW134214   2.417   3.579   7.908 -0.1776 -0.7381 -0.2704
 7526SOL    HW234215   2.497   3.663   7.814 -0.0648 -0.1770 -0.4363
 7527SOL     OW34216   2.541   2.136   9.578 -0.7673 -0.6816  0.3648
 7527SOL    HW134217   2.623   2.106   9.616 -1.2319 -2.0528  0.3043
 7527SOL    HW234218   2.499   2.141   9.664 -1.2005 -2.5911  0.2698
 7528SOL     OW34219   2.702   1.748   9.710  1.1051 -0.3718 -0.3151
 7528SOL    HW134220   2.656   1.680   9.663  1.5658 -1.9370  1.4696
 7528SOL    HW234221   2.640   1.820   9.721  2.3731  1.0316 -2.4784
 7529SOL     OW34222   3.122   3.964  15.585  0.5229 -0.1719 -0.0796
 7529SOL    HW134223   3.093   4.014  15.508 -1.7386  0.5277  1.2003
 7529SOL    HW234224   3.035   3.936  15.615  0.1006 -0.1250 -1.2325
 7530SOL     OW34225   3.942   4.281   6.938 -0.2557 -0.0638  0.7649
 7530SOL    HW134226   4.001   4.351   6.967 -2.8445  3.2331 -2.0223
 7530SOL    HW234227   3.862   4.302   6.987  0.2789  3.2590  0.2121
 7531SOL     OW34228   1.905   1.079  14.255  0.0636 -0.1841  0.1940
 7531SOL    HW134229   1.819   1.038  14.250  0.3570 -0.7166 -0.4196
 7531SOL    HW234230   1.895   1.106  14.347  1.3399 -0.7243  0.4851
 7532SOL     OW34231   4.469   3.285   9.483  0.0443  0.0111  0.8600
 7532SOL    HW134232   4.410   3.335   9.427  0.0708  1.5285  2.1789
 7532SOL    HW234233   4.466   3.329   9.568  2.0835  1.2002  0.2997
 7533SOL     OW34234   2.415   4.344   1.769 -0.5350  0.2656 -0.5809
 7533SOL    HW134235   2.442   4.288   1.842  0.8757 -0.0049 -1.3151
 7533SOL    HW234236   2.479   4.416   1.767 -1.3120  0.9591 -0.2250
 7534SOL     OW34237   2.392   4.072  14.564  0.0762  0.5953 -0.5969
 7534SOL    HW134238   2.305   4.033  14.568  1.0542 -1.3469  1.6774
 7534SOL    HW234239   2.377   4.151  14.616  0.0803  0.8892 -1.0341
 7535SOL     OW34240   2.631   0.953  16.138 -0.0373  0.1560 -0.2286
 7535SOL    HW134241   2.648   0.859  16.140  2.5969  0.5854 -1.2636
 7535SOL    HW234242   2.626   0.968  16.044 -0.3367  1.0150 -0.0747
 7536SOL     OW34243   1.430   3.888   8.119  0.1248 -1.1253  0.7677
 7536SOL    HW134244   1.385   3.823   8.172  0.2184  0.0248  2.2737
 7536SOL    HW234245   1.363   3.918   8.057  0.1656 -0.3831  1.0776
 7537SOL     OW34246   3.259   2.205  10.342 -0.5805  0.0403  0.0383
 7537SOL    HW134247   3.273   2.292  10.305 -0.0496 -0.9864 -2.1306
 7537SOL    HW234248   3.164   2.196  10.339 -0.6230  0.7333 -0.7843
 7538SOL     OW34249   3.028   2.675   3.955  0.7338 -0.1981  0.0859
 7538SOL    HW134250   2.970   2.749   3.938  0.1518 -1.4015 -3.1574
 7538SOL    HW234251   3.100   2.720   3.999  2.4607 -1.0027 -1.9141
 7539SOL     OW34252   1.000   1.075  16.404 -0.1520 -0.3709  0.6768
 7539SOL    HW134253   1.021   1.164  16.375 -2.2668  0.6876  2.4444
 7539SOL    HW234254   0.912   1.067  16.367 -0.4536  0.3608  1.2634
 7540SOL     OW34255   4.296   2.948   8.395  0.0333  0.6142  0.0158
 7540SOL    HW134256   4.377   2.923   8.440 -0.2194  0.3351  0.3084
 7540SOL    HW234257   4.331   3.025   8.351  3.8067 -0.8525  0.4503
 7541SOL     OW34258   1.703   1.560   9.368 -0.5436  0.5678 -0.3259
 7541SOL    HW134259   1.625   1.529   9.415 -1.2409 -0.0729 -1.9094
 7541SOL    HW234260   1.699   1.513   9.285  3.2749  0.2190 -0.3019
 7542SOL     OW34261   2.029   4.041   1.515 -0.1217 -0.3330  0.4534
 7542SOL    HW134262   1.964   4.090   1.465  0.6862 -1.0093 -1.2746
 7542SOL    HW234263   1.990   4.004   1.594 -1.5588  0.6680  0.1867
 7543SOL     OW34264   2.151   4.088   3.974  0.1699 -0.3863 -0.1682
 7543SOL    HW134265   2.154   4.084   4.070 -0.0576 -1.9921 -0.2385
 7543SOL    HW234266   2.152   3.994   3.958 -2.9631 -0.0224 -2.5960
 7544SOL     OW34267   4.525   0.409   8.782 -0.3222 -0.0645 -0.1333
 7544SOL    HW134268   4.559   0.409   8.871  1.2380 -0.9101 -0.7356
 7544SOL    HW234269   4.512   0.504   8.777  0.1017  0.0566  1.0359
 7545SOL     OW34270   0.583   2.077  14.940 -0.1933  0.2178 -0.4403
 7545SOL    HW134271   0.562   1.983  14.942 -0.4904  0.2845 -0.3633
 7545SOL    HW234272   0.565   2.111  14.853  0.3437 -1.0735 -1.0581
 7546SOL     OW34273   2.074   3.021   6.490 -0.0646 -0.1717  0.1374
 7546SOL    HW134274   2.103   3.047   6.577 -0.3201 -1.3446  0.5732
 7546SOL    HW234275   2.154   2.976   6.464  1.3236  1.4075  1.7450
 7547SOL     OW34276   2.296   1.198   3.147  0.8313  0.6548 -0.1390
 7547SOL    HW134277   2.331   1.110   3.137 -0.9063 -0.0058 -0.4930
 7547SOL    HW234278   2.229   1.189   3.215 -1.1297  0.6006 -2.0671
 7548SOL     OW34279   2.395   0.879   8.413  0.8810  0.5332 -0.4080
 7548SOL    HW134280   2.384   0.862   8.319 -0.7389  0.6761 -0.2402
 7548SOL    HW234281   2.408   0.791   8.449  1.1564  0.7610  0.0482
 7549SOL     OW34282   2.212   2.163   7.369 -0.0361 -0.0244 -0.2408
 7549SOL    HW134283   2.175   2.173   7.282 -0.7977 -0.3889  0.0368
 7549SOL    HW234284   2.290   2.110   7.356 -1.4711 -1.3688 -3.1202
 7550SOL     OW34285   2.191   3.756  10.627 -0.5295 -0.1613  0.5370
 7550SOL    HW134286   2.226   3.672  10.660 -1.3571 -0.2497  1.1849
 7550SOL    HW234287   2.241   3.821  10.676 -0.1135  0.1276 -0.2713
 7551SOL     OW34288   3.002   3.938   4.516  0.0805  0.3033  0.3733
 7551SOL    HW134289   3.082   3.891   4.491  0.5281  2.5621 -2.4994
 7551SOL    HW234290   2.976   3.897   4.598 -1.4622  1.5464  0.4904
 7552SOL     OW34291   0.372   2.341   6.559  1.3408  0.8683 -0.2976
 7552SOL    HW134292   0.320   2.352   6.479  0.0191 -0.6414  0.3601
 7552SOL    HW234293   0.427   2.267   6.534 -0.9043 -0.5360 -1.1436
 7553SOL     OW34294   0.261   0.337   2.619 -0.4383 -0.4669 -0.6130
 7553SOL    HW134295   0.199   0.301   2.682 -0.2717 -0.7433 -0.6079
 7553SOL    HW234296   0.240   0.279   2.546 -1.9442  0.0190 -0.5732
 7554SOL     OW34297   1.743   2.291   7.837 -0.5942 -0.1081 -0.7303
 7554SOL    HW134298   1.742   2.243   7.754  1.3109 -1.6168  0.0978
 7554SOL    HW234299   1.652   2.307   7.864  0.2158 -0.6031  2.3103
 7555SOL     OW34300   4.167   1.885   5.582  0.6860  0.0333  0.0113
 7555SOL    HW134301   4.231   1.925   5.523 -0.1201  1.6132  0.2092
 7555SOL    HW234302   4.194   1.932   5.661  3.1419 -0.8925 -0.2833
 7556SOL     OW34303   0.376   3.103  11.568 -0.0612  0.5978  0.3510
 7556SOL    HW134304   0.447   3.168  11.568 -1.0496  1.6915  1.5758
 7556SOL    HW234305   0.354   3.098  11.475  0.1853  0.2160  0.3164
 7557SOL     OW34306   3.593   1.954   3.845 -0.4075  0.4173  0.5159
 7557SOL    HW134307   3.554   1.968   3.932 -0.5940 -1.2894  0.7078
 7557SOL    HW234308   3.682   1.975   3.874  0.4380 -0.1609 -1.6929
 7558SOL     OW34309   1.147   3.995   4.744  0.0432 -0.2157  0.5345
 7558SOL    HW134310   1.135   3.981   4.650 -0.9677  1.4603  0.4129
 7558SOL    HW234311   1.092   4.070   4.766 -0.0535  0.0478 -0.6216
 7559SOL     OW34312   1.879   4.118   8.842 -0.5339 -0.2796  0.4196
 7559SOL    HW134313   1.912   4.166   8.918  0.2527 -0.5556  0.2517
 7559SOL    HW234314   1.811   4.068   8.886 -0.5680 -0.0364  0.6422
 7560SOL     OW34315   0.929   2.372   3.419  0.3949 -0.1030  0.0353
 7560SOL    HW134316   0.891   2.460   3.419  0.9951  0.1473 -1.2978
 7560SOL    HW234317   0.884   2.340   3.341 -0.6441  0.6168  0.3359
 7561SOL     OW34318   4.636   3.225   5.734  0.6062 -0.3419 -0.7763
 7561SOL    HW134319   4.582   3.146   5.742 -0.3511  0.4150  0.2483
 7561SOL    HW234320   4.659   3.225   5.641 -0.1241 -0.9411 -0.9640
 7562SOL     OW34321   1.104   2.927  11.340 -0.3227  0.1472  0.1350
 7562SOL    HW134322   1.180   2.948  11.286 -0.9716 -0.7785 -1.1378
 7562SOL    HW234323   1.032   2.946  11.280 -0.2401  1.2889  0.3920
 7563SOL     OW34324   1.528   3.463   4.578 -0.3279 -0.3036  0.1964
 7563SOL    HW134325   1.623   3.465   4.583 -0.1897 -1.4514 -1.5773
 7563SOL    HW234326   1.514   3.434   4.487  1.3030  1.6157 -0.6550
 7564SOL     OW34327   0.099   0.743   8.739  0.5349 -0.1229 -0.2585
 7564SOL    HW134328   0.167   0.742   8.807  1.6939 -0.0435 -1.4153
 7564SOL    HW234329   0.019   0.748   8.791  0.9807 -0.2391  0.4445
 7565SOL     OW34330   3.207   3.314  11.851 -0.6842  0.1992  0.4861
 7565SOL    HW134331   3.283   3.356  11.810 -2.0641  1.3310 -0.9152
 7565SOL    HW234332   3.243   3.282  11.934  0.7513  2.9977  0.9515
 7566SOL     OW34333   3.021   1.304   0.931 -0.2099  0.5358 -0.0266
 7566SOL    HW134334   3.037   1.397   0.941 -2.0504  0.7136  1.2772
 7566SOL    HW234335   3.110   1.269   0.938 -1.9526 -3.9880 -0.5315
 7567SOL     OW34336   0.079   2.615   6.777 -0.0663  0.3038  0.5346
 7567SOL    HW134337   0.082   2.605   6.681 -3.5435  0.2301  0.4420
 7567SOL    HW234338   0.151   2.559   6.806  0.1747  0.3995  0.1241
 7568SOL     OW34339   1.426   4.629   8.885  0.1346 -0.0317 -0.1173
 7568SOL    HW134340   1.393   4.668   8.966  1.5540 -0.3922  0.6327
 7568SOL    HW234341   1.414   4.536   8.908  1.8800 -0.0059  0.8144
 7569SOL     OW34342   0.251   0.445   7.014  0.0361 -0.1678 -0.5034
 7569SOL    HW134343   0.190   0.373   7.028  0.7703 -0.5750  0.6234
 7569SOL    HW234344   0.192   0.520   7.002 -0.7932 -1.2230 -2.8463
 7570SOL     OW34345   0.201   1.923  16.622 -0.3730 -0.5451  0.3550
 7570SOL    HW134346   0.246   1.908  16.539 -0.1481 -0.2451  0.4224
 7570SOL    HW234347   0.261   1.973  16.677  0.8024 -0.9900 -0.5301
 7571SOL     OW34348   1.392   2.567   6.147 -0.5988 -1.0682 -0.0853
 7571SOL    HW134349   1.474   2.614   6.165 -2.3959  1.3648  1.7462
 7571SOL    HW234350   1.342   2.605   6.219  1.4370 -0.1993  0.8691
 7572SOL     OW34351   1.264   4.242   2.663  0.1229 -1.1157  0.2540
 7572SOL    HW134352   1.272   4.161   2.714 -1.2837 -0.9682  0.6936
 7572SOL    HW234353   1.176   4.245   2.627  0.4891 -2.0637 -0.7202
 7573SOL     OW34354   0.188   3.481  13.051  0.6286 -0.1148  0.0854
 7573SOL    HW134355   0.182   3.565  13.097  1.7542  0.1629 -0.2693
 7573SOL    HW234356   0.276   3.489  13.014  0.8332  1.2373  0.8745
 7574SOL     OW34357   3.715   0.288  15.439  0.2171  0.3175 -0.0651
 7574SOL    HW134358   3.797   0.274  15.485 -1.0028  0.9263  2.3275
 7574SOL    HW234359   3.703   0.380  15.464 -1.6864  0.0583 -0.0013
 7575SOL     OW34360   3.829   3.935   5.838 -0.1829 -0.3477 -0.5032
 7575SOL    HW134361   3.792   4.015   5.875 -0.5710 -1.1780  0.9123
 7575SOL    HW234362   3.919   3.960   5.860 -0.2754  0.0880 -0.6187
 7576SOL     OW34363   0.714   3.680   7.404 -0.6226  0.2176  0.2046
 7576SOL    HW134364   0.764   3.615   7.354 -0.1345 -0.1776  1.2217
 7576SOL    HW234365   0.645   3.625   7.442 -2.0361 -0.1825 -2.9172
 7577SOL     OW34366   3.571   3.747   4.745  0.3960 -0.3099  0.0177
 7577SOL    HW134367   3.615   3.813   4.691 -1.7552 -0.5098 -2.0011
 7577SOL    HW234368   3.630   3.741   4.820  1.3595  0.4577 -0.6811
 7578SOL     OW34369   1.367   3.011   9.880  0.1165  0.6014 -0.3220
 7578SOL    HW134370   1.309   2.944   9.914  1.8115 -0.9533 -0.5220
 7578SOL    HW234371   1.372   3.078   9.948 -1.7128 -1.2063  1.5562
 7579SOL     OW34372   2.294   1.679   8.455 -0.2952 -0.0415 -0.0664
 7579SOL    HW134373   2.299   1.678   8.551  1.6452  2.4986 -0.1351
 7579SOL    HW234374   2.245   1.760   8.441  0.6948  0.4725 -0.5402
 7580SOL     OW34375   3.591   1.000   0.943  0.5016  0.0077 -0.0203
 7580SOL    HW134376   3.642   0.922   0.921 -0.0125 -0.2134 -0.4366
 7580SOL    HW234377   3.633   1.028   1.025  2.4342  2.1442 -1.7516
 7581SOL     OW34378   0.450   2.777   3.961  0.2347 -0.1236  0.0095
 7581SOL    HW134379   0.407   2.816   3.885  2.1186  1.1508 -0.3932
 7581SOL    HW234380   0.399   2.704   3.995 -0.1231  0.6057  1.0384
 7582SOL     OW34381   0.962   3.172   3.446  0.2553  0.3814  0.4214
 7582SOL    HW134382   0.959   3.264   3.472  3.7757  1.2299 -2.2412
 7582SOL    HW234383   1.047   3.139   3.475 -0.3335 -1.1405  0.4134
 7583SOL     OW34384   1.689   3.312   5.608  0.0878  0.6120  0.2401
 7583SOL    HW134385   1.710   3.406   5.608  0.1722  0.5847 -2.3536
 7583SOL    HW234386   1.772   3.269   5.588 -0.1771  0.3893 -0.3562
 7584SOL     OW34387   3.580   4.230   0.398  0.0895  0.1579 -0.4048
 7584SOL    HW134388   3.535   4.146   0.389  2.6797 -1.1113 -1.7322
 7584SOL    HW234389   3.520   4.266   0.462 -1.7550  2.3621 -3.3727
 7585SOL     OW34390   0.950   2.641  11.060 -0.3518 -0.5035 -0.4356
 7585SOL    HW134391   0.927   2.549  11.075  2.0708 -0.7551  1.7525
 7585SOL    HW234392   1.043   2.627  11.080 -0.0232  2.2537 -0.0368
 7586SOL     OW34393   0.836   1.286   5.460  0.2355  0.4933 -0.1599
 7586SOL    HW134394   0.826   1.361   5.402  1.1725  1.5617  1.0418
 7586SOL    HW234395   0.766   1.225   5.438  3.3480 -2.0441 -2.8854
 7587SOL     OW34396   2.964   3.082   6.845  0.1271  0.0578  0.3405
 7587SOL    HW134397   3.030   3.117   6.784 -0.2222 -0.2626 -0.2212
 7587SOL    HW234398   2.983   2.988   6.844  0.2665  0.0920 -1.0129
 7588SOL     OW34399   3.598   3.209   1.473  0.0043  0.0449 -0.1814
 7588SOL    HW134400   3.511   3.249   1.481  0.1589  0.7176 -1.7310
 7588SOL    HW234401   3.631   3.255   1.395  0.3141 -0.5951 -0.4254
 7589SOL     OW34402   2.684   1.130   1.069  0.5330 -0.0427  0.0456
 7589SOL    HW134403   2.705   1.148   1.161  2.3085 -0.0194 -0.3540
 7589SOL    HW234404   2.613   1.068   1.082  0.2453  0.1459 -0.6341
 7590SOL     OW34405   0.505   2.797   3.061 -0.1106 -0.5517  0.0923
 7590SOL    HW134406   0.531   2.742   2.988 -1.3549 -0.4050 -0.4603
 7590SOL    HW234407   0.456   2.733   3.112 -1.2293  0.0533 -0.2180
 7591SOL     OW34408   2.577   2.277   5.911 -0.9431 -0.0110  0.2477
 7591SOL    HW134409   2.545   2.300   5.824  0.8465  0.8327 -0.1945
 7591SOL    HW234410   2.618   2.359   5.939 -1.2795  0.1532  0.2542
 7592SOL     OW34411   3.154   3.521   0.490  0.1728  0.3970  0.7020
 7592SOL    HW134412   3.183   3.447   0.436 -1.3317 -0.9543  1.7248
 7592SOL    HW234413   3.096   3.477   0.554  0.8973 -2.7179 -0.7929
 7593SOL     OW34414   0.190   3.834   6.236 -0.0836 -0.3016 -0.3956
 7593SOL    HW134415   0.107   3.825   6.283 -0.8159  0.1912 -1.5971
 7593SOL    HW234416   0.203   3.753   6.187 -0.1882 -1.8917  2.1780
 7594SOL     OW34417   0.473   0.912   6.053 -0.8471 -0.2410 -0.2264
 7594SOL    HW134418   0.563   0.878   6.048 -0.9108 -0.7344  2.2310
 7594SOL    HW234419   0.439   0.881   5.969 -1.8899  0.5335 -0.0887
 7595SOL     OW34420   4.504   3.631   8.983  1.1729 -0.0045 -0.3041
 7595SOL    HW134421   4.511   3.695   8.912  0.9792 -0.6815 -0.9379
 7595SOL    HW234422   4.560   3.560   8.951  1.0456 -0.4182  0.4016
 7596SOL     OW34423   0.880   4.412   0.649  0.2445 -0.1441  0.0303
 7596SOL    HW134424   0.891   4.498   0.609  0.7171  0.5240  1.6041
 7596SOL    HW234425   0.967   4.396   0.684  0.7570 -0.1627 -1.2519
 7597SOL     OW34426   1.802   1.919   4.092  0.0722  0.8079 -0.0994
 7597SOL    HW134427   1.876   1.923   4.031  0.0073 -0.4986 -0.2656
 7597SOL    HW234428   1.749   1.990   4.056 -1.7579  0.9305  2.8710
 7598SOL     OW34429   0.005   1.081   4.907  0.5727  0.5543  0.1532
 7598SOL    HW134430   0.023   0.989   4.890  0.0642  0.4368  0.2605
 7598SOL    HW234431   0.079   1.093   4.966 -1.4167 -0.8189  2.8951
 7599SOL     OW34432   0.995   1.142  16.055 -0.8588 -0.0552  0.4273
 7599SOL    HW134433   0.916   1.196  16.057  0.0694  1.3051  0.7625
 7599SOL    HW234434   0.953   1.075  16.109  0.1557 -0.2789  0.9514
 7600SOL     OW34435   0.964   0.665   5.481 -0.2705 -0.3372 -0.1252
 7600SOL    HW134436   0.942   0.754   5.507  1.0053 -0.1997  0.4928
 7600SOL    HW234437   0.908   0.616   5.541 -1.7887  0.5253 -0.8228
 7601SOL     OW34438   3.794   2.448   4.491  0.5231 -0.2569  0.5146
 7601SOL    HW134439   3.774   2.489   4.408  1.4098 -4.2386 -1.6713
 7601SOL    HW234440   3.808   2.358   4.461  1.3754 -0.8890  2.7388
 7602SOL     OW34441   0.736   1.788   6.462  0.5657  0.2530  0.2026
 7602SOL    HW134442   0.730   1.852   6.390  1.3330  2.0773  1.7560
 7602SOL    HW234443   0.806   1.728   6.436 -0.0024 -1.4213  2.5791
 7603SOL     OW34444   2.360   3.469  11.871  0.2976  0.0149 -0.8646
 7603SOL    HW134445   2.352   3.378  11.843  1.3147 -0.3478  0.0480
 7603SOL    HW234446   2.344   3.469  11.965  0.6525  1.8571 -0.7939
 7604SOL     OW34447   1.570   2.581  15.377 -0.1335 -0.2031 -0.1699
 7604SOL    HW134448   1.491   2.596  15.429  0.6642 -1.4342  1.4165
 7604SOL    HW234449   1.576   2.656  15.319 -1.7741  1.0553  1.2778
 7605SOL     OW34450   4.148   0.833   3.553  0.3193  0.2973  0.3894
 7605SOL    HW134451   4.226   0.779   3.541  1.0438  1.7987 -1.6016
 7605SOL    HW234452   4.074   0.774   3.543  0.7546 -0.4539  1.5505
 7606SOL     OW34453   4.294   3.905  17.587 -0.1892 -0.0442  0.0881
 7606SOL    HW134454   4.388   3.921  17.579 -0.0462 -1.0623 -0.2218
 7606SOL    HW234455   4.277   3.888  17.495  0.6645 -1.7589  0.2468
 7607SOL     OW34456   3.161   1.697   9.680  0.4153 -0.4789  0.3568
 7607SOL    HW134457   3.209   1.687   9.598 -0.6777  1.3497 -0.4960
 7607SOL    HW234458   3.230   1.750   9.718  1.2708  1.3016 -3.6394
 7608SOL     OW34459   1.397   4.687   3.724  0.4370 -0.1974 -0.0295
 7608SOL    HW134460   1.361   4.656   3.808 -2.1783  1.5487 -0.5167
 7608SOL    HW234461   1.349   0.030   3.707 -0.7108 -1.2494 -1.8133
 7609SOL     OW34462   0.441   0.673   2.012 -0.7348 -0.1372 -0.4062
 7609SOL    HW134463   0.415   0.616   1.940  0.7536  0.1217 -1.1480
 7609SOL    HW234464   0.404   0.758   1.988  0.0978  1.4596  3.8533
 7610SOL     OW34465   3.453   4.207   3.914 -0.5733 -0.2190 -0.1775
 7610SOL    HW134466   3.396   4.233   3.841 -1.0826  2.3209  1.1148
 7610SOL    HW234467   3.438   4.113   3.928 -1.7689  0.1926  1.2490
 7611SOL     OW34468   3.137   0.313   4.291  0.4955 -0.3475 -0.3053
 7611SOL    HW134469   3.140   0.261   4.372  0.5967  0.0987 -0.0201
 7611SOL    HW234470   3.208   0.279   4.237  1.2943 -0.0775  0.5693
 7612SOL     OW34471   0.691   0.829   8.455  0.5558  0.2371 -0.2359
 7612SOL    HW134472   0.712   0.766   8.386  0.5089  0.8921 -0.8471
 7612SOL    HW234473   0.772   0.851   8.501  1.4275  1.1776 -2.2149
 7613SOL     OW34474   3.358   0.215   2.286 -0.0544 -0.2034  0.2693
 7613SOL    HW134475   3.266   0.240   2.288  0.7514  2.7577 -0.0702
 7613SOL    HW234476   3.389   0.269   2.214 -1.3856  1.4183  0.9237
 7614SOL     OW34477   3.645   1.442   5.766  0.3808 -0.2402  0.6063
 7614SOL    HW134478   3.681   1.429   5.854 -1.2457 -3.4564  0.8044
 7614SOL    HW234479   3.651   1.537   5.757  0.8929 -0.4143 -0.8123
 7615SOL     OW34480   4.049   0.660   6.038 -0.4696  0.0550 -0.0816
 7615SOL    HW134481   4.120   0.596   6.048 -0.1506  0.4162 -0.0119
 7615SOL    HW234482   3.979   0.596   6.027  0.9374 -1.6039  0.6011
 7616SOL     OW34483   1.719   1.147   3.764  0.1785  0.6158 -0.0110
 7616SOL    HW134484   1.682   1.104   3.841  1.7730 -1.5325 -0.4465
 7616SOL    HW234485   1.710   1.241   3.782  1.5500  1.0314 -1.4952
 7617SOL     OW34486   1.426   0.282  17.040 -0.7026  0.2939  0.0380
 7617SOL    HW134487   1.518   0.275  17.064 -0.7764 -1.5045 -0.2729
 7617SOL    HW234488   1.431   0.370  17.003 -2.7250  0.8794  1.1116
 7618SOL     OW34489   3.771   2.523   3.165  0.0822  0.2425  0.3846
 7618SOL    HW134490   3.709   2.577   3.115 -0.2566  1.2033  1.8482
 7618SOL    HW234491   3.787   2.463   3.092 -1.6888 -1.3578  1.3231
 7619SOL     OW34492   2.697   3.598  14.434 -0.3557 -0.2741  0.6230
 7619SOL    HW134493   2.645   3.533  14.480  0.6561 -0.0821  2.0253
 7619SOL    HW234494   2.786   3.565  14.448 -0.9646 -1.8897  0.6779
 7620SOL     OW34495   1.190   1.929   6.819 -0.4607  0.1841 -0.1275
 7620SOL    HW134496   1.164   1.866   6.753 -1.2378  1.1882 -0.7801
 7620SOL    HW234497   1.284   1.912   6.820 -0.5201 -0.1429  0.1596
 7621SOL     OW34498   1.933   3.960   4.269 -0.5607  0.1322  0.3574
 7621SOL    HW134499   1.929   4.049   4.302  2.3930 -0.6422  2.8830
 7621SOL    HW234500   1.847   3.925   4.293 -2.1218  1.9608 -2.6415
 7622SOL     OW34501   4.661   2.486   1.956  0.2266 -0.0346 -0.0921
 7622SOL    HW134502   4.660   2.417   1.889 -1.8568 -1.0372  0.9625
 7622SOL    HW234503   0.009   2.524   1.939  0.7226 -1.3517 -0.5405
 7623SOL     OW34504   2.727   2.770   7.257 -0.5466  0.0778  0.6014
 7623SOL    HW134505   2.705   2.698   7.315 -2.2963  0.1418  0.0205
 7623SOL    HW234506   2.807   2.797   7.300 -0.2712  2.1468 -1.1866
 7624SOL     OW34507   2.245   3.930  13.516  0.3689 -0.0011 -0.1190
 7624SOL    HW134508   2.253   3.985  13.594 -1.8061  0.3307 -0.1401
 7624SOL    HW234509   2.338   3.920  13.494  0.1859 -3.0287  0.4511
 7625SOL     OW34510   0.649   1.565  13.659  0.2920 -0.2394 -0.1089
 7625SOL    HW134511   0.699   1.601  13.586  0.2875 -0.4675 -0.2262
 7625SOL    HW234512   0.719   1.561  13.724  0.6723  1.0067 -0.4452
 7626SOL     OW34513   1.068   4.268   9.164 -0.0716 -0.7566  0.3831
 7626SOL    HW134514   1.000   4.315   9.211 -0.6112  1.0074 -2.1475
 7626SOL    HW234515   1.086   4.201   9.230  1.5257  0.6303  1.3647
 7627SOL     OW34516   2.561   0.089   6.538 -0.3244 -0.5821 -0.0887
 7627SOL    HW134517   2.656   0.083   6.547 -0.1140 -0.5597 -2.3543
 7627SOL    HW234518   2.558   0.181   6.512 -0.2780 -0.1521  1.4199
 7628SOL     OW34519   2.731   2.504  12.457 -0.6318 -0.2099 -0.0885
 7628SOL    HW134520   2.811   2.450  12.461 -1.2129 -0.9955  0.9717
 7628SOL    HW234521   2.757   2.572  12.395  1.7681 -0.8866  0.1706
 7629SOL     OW34522   4.034   3.698   6.592  0.0385 -0.9411 -0.4766
 7629SOL    HW134523   4.060   3.716   6.501 -0.8552  2.8370 -0.0049
 7629SOL    HW234524   4.115   3.729   6.633 -1.1552  1.0975  0.3395
 7630SOL     OW34525   0.003   4.169  10.387  0.4604  0.3406  0.1864
 7630SOL    HW134526   4.687   4.196  10.313  0.2312 -0.5384  0.0269
 7630SOL    HW234527   4.689   4.094  10.416  0.7095 -1.0559 -2.9488
 7631SOL     OW34528   0.690   2.885  17.396  0.2651  0.4311  0.3026
 7631SOL    HW134529   0.722   2.973  17.417  4.1299 -0.9598  0.2938
 7631SOL    HW234530   0.768   2.835  17.420  1.4315  1.4948 -1.2527
 7632SOL     OW34531   0.343   4.672  15.235  0.5781 -0.0013  0.5184
 7632SOL    HW134532   0.355   4.709  15.322  2.1793 -3.1000  1.6373
 7632SOL    HW234533   0.283   0.001  15.201  0.3797  0.4277  1.7131
 7633SOL     OW34534   3.500   2.094  16.673 -0.2784  0.5328 -0.3504
 7633SOL    HW134535   3.499   2.005  16.707 -0.6120  0.7907  0.3108
 7633SOL    HW234536   3.417   2.099  16.625  0.0820 -0.8534 -1.1001
 7634SOL     OW34537   0.341   4.614   6.147 -0.0963  0.0787  0.3196
 7634SOL    HW134538   0.365   4.562   6.071  0.5919  1.0006 -0.0900
 7634SOL    HW234539   0.372   4.698   6.114 -0.5339  0.0429 -0.1853
 7635SOL     OW34540   4.616   2.031   3.484 -0.1283 -0.2384 -0.0103
 7635SOL    HW134541   4.568   2.114   3.480  0.0271 -0.2226 -1.9312
 7635SOL    HW234542   4.584   1.990   3.403 -1.6926  0.0189  0.4872
 7636SOL     OW34543   0.611   2.881   3.426 -0.0189 -0.3028 -0.3524
 7636SOL    HW134544   0.662   2.912   3.502 -0.1870  0.8051 -0.6860
 7636SOL    HW234545   0.553   2.955   3.408 -0.1487 -0.0636  1.0006
 7637SOL     OW34546   1.215   3.763  10.069 -0.2637 -0.6753  0.4516
 7637SOL    HW134547   1.155   3.690  10.084 -1.3068 -0.3788 -2.4106
 7637SOL    HW234548   1.296   3.712  10.065  0.8641  1.0788  1.1841
 7638SOL     OW34549   1.221   3.892  15.229  0.1439  0.4869 -0.1776
 7638SOL    HW134550   1.304   3.849  15.249  0.5934  1.2440 -0.4336
 7638SOL    HW234551   1.258   3.972  15.193  3.3623 -0.3601  1.2426
 7639SOL     OW34552   1.514   1.946   4.839  0.2713 -0.4816  0.1011
 7639SOL    HW134553   1.422   1.956   4.862  0.5020  2.1290 -0.1043
 7639SOL    HW234554   1.549   1.876   4.894 -0.4672 -1.7133 -1.0108
 7640SOL     OW34555   2.350   4.120   5.976 -0.2034  0.2265 -0.5363
 7640SOL    HW134556   2.301   4.045   6.008 -0.6938  1.7211  2.1546
 7640SOL    HW234557   2.417   4.123   6.044 -1.5493 -2.6352  0.9134
 7641SOL     OW34558   0.384   0.692  16.974  0.0075  0.9222 -0.2993
 7641SOL    HW134559   0.361   0.694  16.881  0.4822  1.5466 -0.4012
 7641SOL    HW234560   0.317   0.629  17.002  0.5374  0.2244 -0.5922
 7642SOL     OW34561   0.926   3.044  14.121  0.5531 -0.3406 -0.1191
 7642SOL    HW134562   0.973   3.075  14.044  0.3206 -0.9936 -0.5206
 7642SOL    HW234563   0.845   3.094  14.113  0.9411  0.4048  0.5346
 7643SOL     OW34564   2.121   4.426   8.361  0.5836 -0.0616 -0.6849
 7643SOL    HW134565   2.086   4.427   8.450 -0.0753 -0.1926 -0.9418
 7643SOL    HW234566   2.207   4.466   8.368 -0.0333  1.4362 -1.7598
 7644SOL     OW34567   4.197   3.129   6.109 -0.0881 -0.2226  0.1695
 7644SOL    HW134568   4.165   3.213   6.143 -0.3774 -0.8715  1.4954
 7644SOL    HW234569   4.265   3.159   6.049 -1.8087  1.6097 -0.9055
 7645SOL     OW34570   4.147   0.182   4.123 -0.3821  0.4621  0.3929
 7645SOL    HW134571   4.130   0.124   4.197  1.2060 -0.6590 -0.1168
 7645SOL    HW234572   4.100   0.145   4.048 -0.8622  2.5535 -0.3381
 7646SOL     OW34573   4.682   0.901   9.544  0.0377 -0.6627  0.8048
 7646SOL    HW134574   0.008   0.856   9.599  0.9134 -1.0780 -0.5262
 7646SOL    HW234575   4.714   0.990   9.556 -0.6830 -0.1725 -0.8256
 7647SOL     OW34576   4.647   2.454   7.302 -0.2174 -0.2415 -0.1818
 7647SOL    HW134577   4.709   2.450   7.229  1.4144 -0.0587  1.1840
 7647SOL    HW234578   4.688   2.528   7.347 -0.3454 -1.1395  1.4265
 7648SOL     OW34579   3.872   1.630   1.196 -0.0439 -0.3920 -0.1660
 7648SOL    HW134580   3.880   1.720   1.227 -0.2303 -0.4536  0.0629
 7648SOL    HW234581   3.825   1.640   1.113  0.3573 -1.1581 -0.4885
 7649SOL     OW34582   1.300   3.660   8.204 -0.1944  0.9069 -0.1369
 7649SOL    HW134583   1.358   3.603   8.254 -1.4770  2.0588  2.6962
 7649SOL    HW234584   1.269   3.603   8.134 -0.3047 -0.1666  0.7914
 7650SOL     OW34585   1.903   1.697   5.464  0.5280  0.6032  0.0419
 7650SOL    HW134586   1.912   1.607   5.494  0.4420  0.1565 -1.2666
 7650SOL    HW234587   1.915   1.674   5.372 -1.8916 -1.6955  0.2915
 7651SOL     OW34588   4.060   4.679  14.658  0.1930 -0.6779 -0.3641
 7651SOL    HW134589   4.096   4.724  14.734  2.3010  0.0075 -1.7607
 7651SOL    HW234590   3.977   4.649  14.694 -1.2343  0.0685 -3.0593
 7652SOL     OW34591   3.034   4.651   3.525 -0.1552 -0.1788 -0.6003
 7652SOL    HW134592   3.018   4.620   3.436 -1.5948 -2.1712  0.3471
 7652SOL    HW234593   2.947   4.656   3.565 -0.8264 -0.2858 -2.0394
 7653SOL     OW34594   3.247   1.753   2.427 -0.0163  0.1057  0.4754
 7653SOL    HW134595   3.251   1.848   2.437 -1.3521  0.0641  1.3776
 7653SOL    HW234596   3.180   1.736   2.493  1.0817  3.5036  2.4863
 7654SOL     OW34597   2.497   4.179   1.557 -0.4932  0.0260 -0.1657
 7654SOL    HW134598   2.488   4.244   1.628  0.2437  1.6989 -1.6139
 7654SOL    HW234599   2.410   4.195   1.521 -1.3309 -1.2986  1.2468
 7655SOL     OW34600   1.441   3.642  13.117  0.4503  0.4566  0.6830
 7655SOL    HW134601   1.450   3.735  13.097 -1.5486  0.4510 -0.2772
 7655SOL    HW234602   1.350   3.622  13.092  1.1867  1.7642 -2.9338
 7656SOL     OW34603   2.776   3.422   6.466 -0.6172 -0.1138 -0.3554
 7656SOL    HW134604   2.791   3.482   6.538  0.9491  0.3094 -1.0227
 7656SOL    HW234605   2.803   3.482   6.396  1.8507 -1.1456 -0.3092
 7657SOL     OW34606   4.135   1.961   3.331  0.1082  0.1411 -0.5626
 7657SOL    HW134607   4.208   2.001   3.379  1.7961 -1.5227 -1.7201
 7657SOL    HW234608   4.152   1.867   3.339 -0.5438  0.2414  1.9668
 7658SOL     OW34609   1.517   0.787   6.054  0.1434  0.5022  0.1580
 7658SOL    HW134610   1.471   0.720   6.002  0.0672  0.0390  0.8214
 7658SOL    HW234611   1.474   0.867   6.022 -0.5127 -0.1207 -0.5407
 7659SOL     OW34612   1.400   0.009   5.163 -0.2641  0.2831 -0.3462
 7659SOL    HW134613   1.323   4.722   5.113 -1.0034  1.3550  0.2619
 7659SOL    HW234614   1.454   4.723   5.088  0.8645  1.6944  0.0096
 7660SOL     OW34615   0.245   1.070  11.177 -0.0141 -0.7049  0.2333
 7660SOL    HW134616   0.241   0.988  11.226 -1.5332 -0.7289  0.0944
 7660SOL    HW234617   0.336   1.096  11.190  0.3807 -0.7070 -2.3690
 7661SOL     OW34618   3.107   2.194   2.275 -0.3147 -0.1766 -0.2114
 7661SOL    HW134619   3.177   2.128   2.272  0.1201  0.3010 -0.6812
 7661SOL    HW234620   3.133   2.249   2.349 -0.1921  1.1213 -1.2053
 7662SOL     OW34621   2.672   2.774   7.912 -0.1568  0.2303 -0.1423
 7662SOL    HW134622   2.612   2.759   7.985 -0.4751  2.0952 -0.0165
 7662SOL    HW234623   2.613   2.766   7.836  1.2155 -2.8711 -0.8984
 7663SOL     OW34624   1.510   3.103   5.536 -0.4545 -0.7972  0.0419
 7663SOL    HW134625   1.442   3.145   5.590  0.5552  0.1146  0.5937
 7663SOL    HW234626   1.579   3.167   5.553 -2.1405  1.3762 -1.1605
 7664SOL     OW34627   2.676   1.072   3.966 -0.3057 -0.1529  0.2577
 7664SOL    HW134628   2.750   1.013   3.976  1.7817  1.8306 -3.4066
 7664SOL    HW234629   2.605   1.009   3.967 -1.1836  0.8248  0.0327
 7665SOL     OW34630   3.272   2.185  10.037  0.1493 -0.0390  0.3201
 7665SOL    HW134631   3.280   2.227  10.122 -3.1541 -0.1960  0.7025
 7665SOL    HW234632   3.320   2.106  10.059  1.0693  0.4533  0.0978
 7666SOL     OW34633   2.728   1.763   4.961 -0.5240  0.0725  0.2105
 7666SOL    HW134634   2.717   1.819   5.038  0.7077 -0.4216  0.7469
 7666SOL    HW234635   2.734   1.839   4.904  2.0738 -0.2569  0.0668
 7667SOL     OW34636   2.295   1.057   8.594 -0.1482  0.3329  0.1974
 7667SOL    HW134637   2.313   0.990   8.529 -1.0982 -1.2454  1.5692
 7667SOL    HW234638   2.239   1.009   8.656 -1.4821  0.0243 -1.2577
 7668SOL     OW34639   0.486   3.468   4.538  0.1639  0.2557  0.3168
 7668SOL    HW134640   0.551   3.537   4.548 -0.2679  0.6304  0.5422
 7668SOL    HW234641   0.545   3.393   4.547  1.7385  1.6344  1.3299
 7669SOL     OW34642   2.743   4.294   6.567  0.5434  0.1659  0.0656
 7669SOL    HW134643   2.800   4.329   6.636  0.1660  1.3976 -0.2496
 7669SOL    HW234644   2.692   4.370   6.538  1.0941 -0.1193 -1.6664
 7670SOL     OW34645   1.875   0.765   5.149  0.0547  0.3567 -0.3100
 7670SOL    HW134646   1.960   0.720   5.151  0.0090  0.3548  2.6941
 7670SOL    HW234647   1.866   0.750   5.055 -0.1759 -1.4489 -0.0104
 7671SOL     OW34648   3.031   3.088   9.926  0.1865 -0.4901  0.1801
 7671SOL    HW134649   2.997   3.072  10.013  1.8299  1.4526  1.1951
 7671SOL    HW234650   2.961   3.138   9.883 -0.7871 -2.4230 -0.4743
 7672SOL     OW34651   2.017   2.862  11.515  0.5642  0.5204 -0.1701
 7672SOL    HW134652   1.950   2.812  11.562  1.7578 -0.2778  0.6790
 7672SOL    HW234653   1.963   2.900  11.445  1.4013  0.4725 -0.8411
 7673SOL     OW34654   3.504   1.064   6.044 -0.1293  0.6769 -0.2613
 7673SOL    HW134655   3.571   1.014   6.090  1.0938  1.7429 -0.8899
 7673SOL    HW234656   3.432   1.025   6.094 -0.5025  1.8752  0.1444
 7674SOL     OW34657   2.052   3.440  12.455 -0.1300 -0.2395 -0.2440
 7674SOL    HW134658   2.018   3.371  12.512 -0.5569  0.7218  0.6549
 7674SOL    HW234659   2.138   3.411  12.426  1.3791  2.0609  1.9224
 7675SOL     OW34660   3.489   0.233   8.158 -0.5373  0.3295 -0.7659
 7675SOL    HW134661   3.512   0.320   8.124 -2.4533  1.7610  1.6092
 7675SOL    HW234662   3.549   0.233   8.232 -3.8705  0.7061  1.9233
 7676SOL     OW34663   2.254   3.393   3.362 -0.1873 -0.0633 -0.3574
 7676SOL    HW134664   2.320   3.409   3.295  0.0470 -1.9743 -0.5927
 7676SOL    HW234665   2.283   3.310   3.401 -0.6449 -0.7979 -1.5910
 7677SOL     OW34666   4.517   1.687   7.059  0.5416  0.3387 -1.1028
 7677SOL    HW134667   4.539   1.721   6.972 -2.7418  3.9148 -0.5069
 7677SOL    HW234668   4.515   1.591   7.055  0.9062  0.2789  0.2990
 7678SOL     OW34669   1.409   2.489  10.741 -0.4163  0.2399 -0.0278
 7678SOL    HW134670   1.477   2.536  10.790 -1.0159  0.5810  0.4822
 7678SOL    HW234671   1.345   2.471  10.810 -1.9647 -0.1275 -1.5783
 7679SOL     OW34672   2.272   2.679   3.741  0.0095  0.2486  0.1447
 7679SOL    HW134673   2.190   2.640   3.771  0.1034  0.1783  0.3098
 7679SOL    HW234674   2.315   2.718   3.817  0.4316 -0.8860  0.4981
 7680SOL     OW34675   3.018   1.929   4.917 -0.1070 -0.0809  0.0067
 7680SOL    HW134676   3.018   1.936   4.821  1.5251  2.2257  0.1895
 7680SOL    HW234677   3.027   2.022   4.937 -0.1298 -0.5699  2.3220
 7681SOL     OW34678   3.530   1.640   6.540 -0.7930 -0.1605  0.0963
 7681SOL    HW134679   3.587   1.604   6.473 -0.4394  0.1630  0.2262
 7681SOL    HW234680   3.598   1.672   6.598  0.2133  0.3794 -1.3756
 7682SOL     OW34681   0.268   0.693   2.485 -0.4677  0.1502 -0.2369
 7682SOL    HW134682   0.189   0.641   2.498  0.4234 -1.3489 -0.7035
 7682SOL    HW234683   0.317   0.629   2.432  3.3813  1.3073  1.9497
 7683SOL     OW34684   0.081   4.548   4.621  0.4423  0.1723  0.0347
 7683SOL    HW134685   0.081   4.640   4.595  0.1827 -0.0782 -0.8461
 7683SOL    HW234686   0.093   4.557   4.715 -0.3187 -0.4617  0.1885
 7684SOL     OW34687   0.417   3.955  16.740 -0.0858  0.1748 -0.6081
 7684SOL    HW134688   0.382   3.884  16.794  0.9574  1.2806  1.5559
 7684SOL    HW234689   0.419   4.025  16.806  0.3888  1.9760 -2.5477
 7685SOL     OW34690   1.888   3.325   4.909  0.0436  0.7032 -0.4321
 7685SOL    HW134691   1.883   3.261   4.837  0.8120  1.1156 -0.8488
 7685SOL    HW234692   1.808   3.316   4.960  0.1727  0.1459 -0.3239
 7686SOL     OW34693   3.141   2.817   4.334 -0.0605 -0.5957  0.1145
 7686SOL    HW134694   3.138   2.726   4.361  0.2886 -0.6345  0.0259
 7686SOL    HW234695   3.070   2.859   4.383  2.4616  2.1839  1.3681
 7687SOL     OW34696   2.273   2.255   5.437  0.1877 -0.1227 -0.2802
 7687SOL    HW134697   2.190   2.298   5.413  1.4854  0.7047 -3.3360
 7687SOL    HW234698   2.277   2.180   5.378  0.7118  1.6824 -2.5495
 7688SOL     OW34699   3.655   3.501   8.344 -0.4508 -0.4924  0.1847
 7688SOL    HW134700   3.602   3.437   8.391  1.4451 -0.6758  2.0416
 7688SOL    HW234701   3.595   3.575   8.331 -1.2062 -1.7358 -3.4003
 7689SOL     OW34702   1.217   3.062   4.810  0.6458 -0.1054  0.1848
 7689SOL    HW134703   1.288   3.125   4.795 -1.4109  1.2859 -3.5677
 7689SOL    HW234704   1.205   3.084   4.903  1.3111 -0.0578  0.2646
 7690SOL     OW34705   3.722   1.232   2.638 -0.1749 -0.1648  0.0487
 7690SOL    HW134706   3.708   1.275   2.722  2.2458  0.4553  0.1178
 7690SOL    HW234707   3.694   1.290   2.567 -1.9853  0.3082  1.1481
 7691SOL     OW34708   4.293   0.155  11.840  0.3318 -0.8478 -0.4178
 7691SOL    HW134709   4.287   0.248  11.862 -0.8496 -0.8786 -0.5701
 7691SOL    HW234710   4.355   0.168  11.768  1.1926  1.2247  0.6978
 7692SOL     OW34711   0.218   0.904   3.050  0.5010  0.0811  0.2898
 7692SOL    HW134712   0.192   0.866   2.966  2.0637 -0.3408 -0.0028
 7692SOL    HW234713   0.134   0.894   3.093 -0.2353  1.5329 -0.8127
 7693SOL     OW34714   4.424   1.288   5.681  0.7511 -0.6357 -0.1694
 7693SOL    HW134715   4.408   1.313   5.772 -0.5468  1.1290 -0.8779
 7693SOL    HW234716   4.402   1.194   5.680  2.0375 -0.9335  1.4216
 7694SOL     OW34717   2.319   3.290  16.894  0.2207  0.2025 -0.1573
 7694SOL    HW134718   2.328   3.366  16.838  1.5941  0.7408  0.7855
 7694SOL    HW234719   2.324   3.332  16.980 -2.2738  0.8572 -0.3243
 7695SOL     OW34720   3.758   3.699   4.939  0.2524 -0.0382  0.0286
 7695SOL    HW134721   3.811   3.623   4.914 -0.7155 -0.3224 -1.2122
 7695SOL    HW234722   3.819   3.752   4.989 -1.2893 -1.6063  3.5886
 7696SOL     OW34723   1.111   2.173  12.202  0.3343  0.0808 -0.5729
 7696SOL    HW134724   1.148   2.255  12.236  2.1114 -1.4590  1.1552
 7696SOL    HW234725   1.018   2.192  12.214  0.7534  1.4341  0.5235
 7697SOL     OW34726   2.077   0.417   2.344  0.3805  0.6341 -0.1206
 7697SOL    HW134727   2.045   0.436   2.432  0.2688  1.9983 -0.4596
 7697SOL    HW234728   2.120   0.333   2.359  1.6882  0.9962 -1.8097
 7698SOL     OW34729   3.274   1.954   3.952 -0.0779 -0.1358 -0.0266
 7698SOL    HW134730   3.347   1.900   3.982  1.1300  0.5926 -1.6494
 7698SOL    HW234731   3.310   2.026   3.901 -2.5821  1.5955  0.6801
 7699SOL     OW34732   0.677   3.975   0.169 -0.0076 -0.4317  0.5118
 7699SOL    HW134733   0.604   4.035   0.165  0.4673  0.0980 -0.3708
 7699SOL    HW234734   0.653   3.901   0.225  0.0941  0.5493  1.8483
 7700SOL     OW34735   1.188   0.022   2.913  0.0015 -0.0273  0.4600
 7700SOL    HW134736   1.119   4.704   2.878 -0.0342  0.5568 -0.4225
 7700SOL    HW234737   1.241   0.039   2.835  1.0033 -3.2693  0.4483
 7701SOL     OW34738   3.114   2.674   0.046 -0.0812  0.3248 -0.5167
 7701SOL    HW134739   3.155   2.688   0.132 -0.4117 -0.7825 -0.1893
 7701SOL    HW234740   3.108   2.767   0.023  1.1720  0.4947 -0.1625
 7702SOL     OW34741   3.301   1.155   8.302 -0.0248  0.2969 -0.2703
 7702SOL    HW134742   3.234   1.097   8.339 -0.4307  0.0359 -1.4347
 7702SOL    HW234743   3.288   1.224   8.368  1.3437 -1.4016  1.7928
 7703SOL     OW34744   4.722   2.719   3.434 -0.0017 -0.0291  0.3169
 7703SOL    HW134745   0.045   2.686   3.501 -0.4269 -1.0105  0.2193
 7703SOL    HW234746   4.638   2.709   3.478 -0.8850 -0.5298 -1.5203
 7704SOL     OW34747   0.672   0.985   8.208 -0.4480 -0.0680  0.3827
 7704SOL    HW134748   0.661   0.925   8.282 -0.7984 -0.6183 -0.1147
 7704SOL    HW234749   0.695   1.063   8.258  0.1369  1.4112 -2.1616
 7705SOL     OW34750   1.885   0.917  12.826  0.3957  0.5459 -0.6063
 7705SOL    HW134751   1.885   0.855  12.898 -1.6488 -0.2946 -1.3251
 7705SOL    HW234752   1.935   0.989  12.864 -0.8800  0.3634  1.4493
 7706SOL     OW34753   2.494   0.352  13.197 -0.0158  0.4235  0.2716
 7706SOL    HW134754   2.579   0.395  13.203  1.0856 -2.0713  2.6175
 7706SOL    HW234755   2.514   0.265  13.231 -1.7483  0.7645  2.1105
 7707SOL     OW34756   0.057   0.760   3.354 -0.0493 -0.4305 -0.3839
 7707SOL    HW134757   0.014   0.799   3.277 -0.2971  2.0445  0.9931
 7707SOL    HW234758   0.075   0.841   3.402  1.0328  0.7774 -2.8529
 7708SOL     OW34759   3.684   1.466  16.849 -0.0850 -0.4849  0.0483
 7708SOL    HW134760   3.753   1.530  16.831 -0.8455  0.1426 -0.6417
 7708SOL    HW234761   3.623   1.521  16.898 -1.2974 -1.4148 -0.4095
 7709SOL     OW34762   1.652   0.072  10.078 -0.1235  0.7304  0.2088
 7709SOL    HW134763   1.690   0.082  10.166  1.1356  0.7351 -0.3278
 7709SOL    HW234764   1.663   0.164  10.054 -0.0631  0.5757 -0.3451
 7710SOL     OW34765   4.162   1.283   8.775 -0.0264 -0.0253 -0.3801
 7710SOL    HW134766   4.244   1.326   8.796 -0.3093  0.6868 -0.7251
 7710SOL    HW234767   4.174   1.279   8.680 -1.9526  2.2936 -0.7329
 7711SOL     OW34768   4.681   4.404   5.269  0.1350  0.1416 -0.1456
 7711SOL    HW134769   4.686   4.421   5.174 -0.4879  0.0486 -0.1931
 7711SOL    HW234770   4.731   4.323   5.275 -0.6487 -0.2997  0.3524
 7712SOL     OW34771   4.221   4.333   2.216  0.5327  0.8527 -0.0953
 7712SOL    HW134772   4.155   4.335   2.147  0.6737  0.2272 -0.2444
 7712SOL    HW234773   4.237   4.427   2.229  2.3388  0.8974 -2.4655
 7713SOL     OW34774   3.382   1.725   6.769  0.1330  0.2247 -0.4482
 7713SOL    HW134775   3.433   1.682   6.701 -2.2476 -3.2818 -0.0278
 7713SOL    HW234776   3.455   1.751   6.824 -0.6454  1.4595  0.0042
 7714SOL     OW34777   2.069   0.433   6.934  0.1284 -0.1670 -0.0956
 7714SOL    HW134778   2.139   0.442   6.870  0.7282 -1.1791  0.4187
 7714SOL    HW234779   1.999   0.428   6.869 -0.2073  1.4242  0.1399
 7715SOL     OW34780   3.825   1.802   8.732 -0.0020 -0.0809  0.4042
 7715SOL    HW134781   3.811   1.804   8.637  1.7003 -0.2323  0.1386
 7715SOL    HW234782   3.747   1.851   8.758 -0.0481 -0.4116  0.8866
 7716SOL     OW34783   0.688   4.262   9.024  0.4298  0.2117  0.1129
 7716SOL    HW134784   0.732   4.177   9.032  4.2207  2.2623  0.7173
 7716SOL    HW234785   0.717   4.317   9.097  0.3870  1.8857 -1.1333
 7717SOL     OW34786   0.757   2.430   6.743  0.2996 -0.5995 -0.0304
 7717SOL    HW134787   0.703   2.457   6.817  1.7982 -0.7505  1.1215
 7717SOL    HW234788   0.827   2.380   6.786 -0.8238 -3.1431 -1.1234
 7718SOL     OW34789   3.649   0.295   1.909  0.5307 -0.2793 -0.3218
 7718SOL    HW134790   3.723   0.350   1.935 -1.7521  1.7247  1.9256
 7718SOL    HW234791   3.642   0.308   1.815 -1.2042  2.6829  0.2250
 7719SOL     OW34792   2.542   2.564  12.927  0.0812 -0.4567  0.1943
 7719SOL    HW134793   2.476   2.496  12.914 -0.4590  0.5330 -2.1838
 7719SOL    HW234794   2.619   2.513  12.951  1.2597  1.1447 -0.1394
 7720SOL     OW34795   1.563   1.358   3.518  0.7350  0.4858  0.5072
 7720SOL    HW134796   1.571   1.410   3.438 -3.5948  0.9767  0.3829
 7720SOL    HW234797   1.538   1.429   3.577 -0.7063  1.8378 -1.7094
 7721SOL     OW34798   3.215   1.513  10.867 -0.8004 -0.7340 -0.2374
 7721SOL    HW134799   3.190   1.551  10.783 -1.3839 -1.2148 -0.2866
 7721SOL    HW234800   3.286   1.570  10.894 -0.6527 -0.6426 -0.8188
 7722SOL     OW34801   2.209   1.455  11.197 -0.5948 -0.6814  0.3687
 7722SOL    HW134802   2.303   1.438  11.192 -0.7926 -1.4183 -0.9711
 7722SOL    HW234803   2.186   1.419  11.111 -0.9494  1.2901 -0.3475
 7723SOL     OW34804   3.412   0.455   5.574 -0.2246 -0.1579  0.3439
 7723SOL    HW134805   3.325   0.493   5.574 -1.5527 -3.1803 -1.2024
 7723SOL    HW234806   3.406   0.389   5.644 -1.0877 -0.1703  0.2554
 7724SOL     OW34807   3.948   1.104   8.874  0.0853 -0.6675  0.2064
 7724SOL    HW134808   3.996   1.040   8.927 -0.6191 -1.5607 -0.2184
 7724SOL    HW234809   4.017   1.162   8.842 -0.6396 -0.1987 -0.5057
 7725SOL     OW34810   3.518   3.611   1.211 -0.1614  0.0791  0.1490
 7725SOL    HW134811   3.527   3.707   1.210 -2.2063  0.3110  2.1946
 7725SOL    HW234812   3.502   3.592   1.119  1.0289 -0.0630 -0.0323
 7726SOL     OW34813   2.467   1.378   3.260  0.5789 -0.0418  0.3276
 7726SOL    HW134814   2.430   1.412   3.341 -1.3193 -1.4085  0.0312
 7726SOL    HW234815   2.394   1.319   3.238  0.5502  1.0358 -2.5616
 7727SOL     OW34816   0.760   2.498   4.883 -0.4657 -0.1214  0.0495
 7727SOL    HW134817   0.765   2.504   4.788 -2.2965  2.3484  0.1037
 7727SOL    HW234818   0.846   2.520   4.917 -0.5875 -2.4544  1.8236
 7728SOL     OW34819   0.728   3.722  14.463 -0.0444 -0.1398  0.1779
 7728SOL    HW134820   0.664   3.705  14.532 -1.6581 -0.4694 -1.4052
 7728SOL    HW234821   0.698   3.655  14.401 -3.2095  1.9104 -0.5100
 7729SOL     OW34822   0.361   4.625   8.845 -0.2845 -0.3025 -0.4028
 7729SOL    HW134823   0.313   4.708   8.854 -2.5056 -1.7922  1.5432
 7729SOL    HW234824   0.293   4.559   8.858  1.1247 -1.5664  0.4376
 7730SOL     OW34825   2.834   2.248   4.296  0.0974  0.3715  0.6893
 7730SOL    HW134826   2.839   2.326   4.241  0.3331  0.7376  1.2284
 7730SOL    HW234827   2.926   2.220   4.304 -0.2722 -0.4832  1.8740
 7731SOL     OW34828   4.230   1.394   7.903 -0.2333  0.4457 -0.0668
 7731SOL    HW134829   4.173   1.317   7.900  1.0500 -0.5187  0.6016
 7731SOL    HW234830   4.191   1.455   7.965 -0.8117  0.2421 -0.2239
 7732SOL     OW34831   2.363   3.448   5.346  0.1390  0.0892  0.2493
 7732SOL    HW134832   2.415   3.447   5.426 -0.0491 -2.5320  0.3518
 7732SOL    HW234833   2.368   3.537   5.312  1.5173  0.1770  0.6796
 7733SOL     OW34834   0.522   3.594  15.227 -0.2978  0.1669 -0.0575
 7733SOL    HW134835   0.544   3.686  15.243  0.0576  0.2077 -0.7680
 7733SOL    HW234836   0.433   3.580  15.258 -1.5303  1.5733 -2.9572
 7734SOL     OW34837   1.622   2.301   5.451  0.6455  0.2356  0.0906
 7734SOL    HW134838   1.659   2.283   5.538 -1.0770  0.8179  0.9391
 7734SOL    HW234839   1.599   2.394   5.453 -0.1483  0.0699 -1.6238
 7735SOL     OW34840   1.309   4.234  15.362 -0.7391  0.7038  0.2944
 7735SOL    HW134841   1.272   4.303  15.308 -0.0180  0.8368 -0.0381
 7735SOL    HW234842   1.317   4.163  15.298 -1.7472 -1.2603  2.3170
 7736SOL     OW34843   1.696   1.367   6.965  0.0143 -0.1652  0.0395
 7736SOL    HW134844   1.629   1.307   6.999  1.2571 -1.4121  0.2817
 7736SOL    HW234845   1.651   1.449   6.986  1.2972  0.7617 -0.8679
 7737SOL     OW34846   3.749   2.203  17.064 -0.4011 -0.3301  1.0094
 7737SOL    HW134847   3.814   2.137  17.039 -0.4748  0.6650 -1.8130
 7737SOL    HW234848   3.711   2.229  16.979  1.2812  0.2502  0.4338
 7738SOL     OW34849   3.161   2.530   7.827  0.0383 -0.1353 -0.6431
 7738SOL    HW134850   3.089   2.569   7.777  0.7116 -0.4811 -1.8711
 7738SOL    HW234851   3.175   2.601   7.889  0.5205  0.8318 -1.8646
 7739SOL     OW34852   4.188   0.565   0.313 -0.5897  0.1274 -0.1187
 7739SOL    HW134853   4.259   0.574   0.377  1.4884  1.0616 -2.5469
 7739SOL    HW234854   4.175   0.470   0.315 -0.8729  0.1464 -1.0026
 7740SOL     OW34855   2.281   1.956   8.881  0.6420  0.2524  0.4902
 7740SOL    HW134856   2.200   1.995   8.916  0.1234 -0.8302  0.5213
 7740SOL    HW234857   2.266   1.964   8.787  2.3058 -3.8940 -0.1491
 7741SOL     OW34858   1.159   0.102   4.306 -0.4155  0.1287  0.6549
 7741SOL    HW134859   1.106   0.127   4.382 -2.3751 -1.8215 -0.0776
 7741SOL    HW234860   1.104   0.118   4.229  0.1111 -1.0099  0.0347
 7742SOL     OW34861   1.395   4.346   8.925  0.7720  0.0249 -0.7161
 7742SOL    HW134862   1.333   4.340   8.853  1.5762 -1.7865 -1.2519
 7742SOL    HW234863   1.432   4.260   8.906  0.4409  0.0848 -1.6616
 7743SOL     OW34864   3.621   3.723   2.956  0.1273 -0.0927  0.2849
 7743SOL    HW134865   3.642   3.759   2.869 -1.5786 -0.5861 -0.3353
 7743SOL    HW234866   3.537   3.765   2.972  0.4636  1.0071 -0.8346
 7744SOL     OW34867   3.043   1.610   9.332  0.1077  0.0822  0.3739
 7744SOL    HW134868   2.999   1.656   9.403  1.7294 -1.0781  2.1259
 7744SOL    HW234869   3.036   1.519   9.361 -0.8051 -0.4088 -1.3493
 7745SOL     OW34870   0.153   1.039   7.841  1.0953  0.1115  0.4268
 7745SOL    HW134871   0.116   1.110   7.788 -0.1496  0.2452  1.4641
 7745SOL    HW234872   0.193   0.973   7.784  0.8451  1.0221 -0.8029
 7746SOL     OW34873   1.328   0.348  15.774 -0.3022 -0.2544  0.3521
 7746SOL    HW134874   1.353   0.418  15.834 -0.1679 -0.1570  0.1827
 7746SOL    HW234875   1.300   0.279  15.835  1.8022 -1.6578 -0.2548
 7747SOL     OW34876   0.351   2.238  10.717 -0.2540  0.2276 -0.2493
 7747SOL    HW134877   0.426   2.219  10.662  0.6335 -1.3581  1.5027
 7747SOL    HW234878   0.402   2.287  10.782  0.6140  4.3573 -4.0786
 7748SOL     OW34879   2.682   3.763  12.197 -0.2361  0.0929  0.5045
 7748SOL    HW134880   2.596   3.729  12.225  0.1422 -0.2177  1.2891
 7748SOL    HW234881   2.695   3.836  12.257  1.5137  0.7487 -0.6844
 7749SOL     OW34882   2.344   0.911  12.015  0.0668 -0.2391 -0.3327
 7749SOL    HW134883   2.315   0.993  11.975 -0.7031 -0.9358 -1.1847
 7749SOL    HW234884   2.383   0.870  11.939 -0.1109 -3.2529  1.2120
 7750SOL     OW34885   2.115   0.823  12.694 -0.1128 -0.0817 -0.2119
 7750SOL    HW134886   2.043   0.875  12.728 -0.2320 -1.0577  1.0357
 7750SOL    HW234887   2.137   0.755  12.758  1.9170 -0.2717 -1.1126
 7751SOL     OW34888   2.258   0.217   2.240  0.2634  0.5857  0.4272
 7751SOL    HW134889   2.298   0.133   2.264  0.1093  0.8147  1.5033
 7751SOL    HW234890   2.325   0.279   2.268  0.0148  2.1135 -2.3845
 7752SOL     OW34891   1.612   3.880   2.181  0.0174  0.5511 -0.2004
 7752SOL    HW134892   1.537   3.827   2.207  0.8446 -0.2778  0.5015
 7752SOL    HW234893   1.678   3.812   2.162  0.1985  0.6960 -0.0822
 7753SOL     OW34894   0.934   2.420   3.999  0.0168 -0.1238 -0.2208
 7753SOL    HW134895   0.952   2.493   3.939  0.3688  0.3253  0.4267
 7753SOL    HW234896   0.913   2.473   4.076  0.7952  0.7600 -0.6031
 7754SOL     OW34897   1.877   1.868   4.363 -0.0819 -1.2111  0.3130
 7754SOL    HW134898   1.819   1.853   4.288  0.3847  1.6888 -0.6256
 7754SOL    HW234899   1.823   1.928   4.413  2.8113  0.2947  1.6150
 7755SOL     OW34900   2.762   2.705  16.060  0.1034  0.7861  0.2880
 7755SOL    HW134901   2.828   2.742  16.118  0.1007  0.5031  0.4709
 7755SOL    HW234902   2.791   2.614  16.050 -1.6811  0.3461 -0.9467
 7756SOL     OW34903   2.854   2.732  17.502 -0.4583 -0.0074 -0.4807
 7756SOL    HW134904   2.816   2.738  17.590 -0.3311 -0.3891 -0.4009
 7756SOL    HW234905   2.937   2.686  17.514 -1.3068 -1.4652 -0.2165
 7757SOL     OW34906   0.646   2.791   4.246 -0.0164  0.9584 -0.1370
 7757SOL    HW134907   0.711   2.845   4.202 -1.4923  1.5860 -1.5657
 7757SOL    HW234908   0.559   2.828   4.231 -0.0317  1.0328  0.1403
 7758SOL     OW34909   2.334   4.633   6.027 -0.3424  0.2751  0.6568
 7758SOL    HW134910   2.386   4.579   6.086  0.6368  1.2957  0.7208
 7758SOL    HW234911   2.288   4.572   5.969  0.8260  1.0484 -1.0495
 7759SOL     OW34912   2.679   1.139   1.349  0.1103 -0.2471 -0.0272
 7759SOL    HW134913   2.664   1.060   1.402 -1.6304  0.1868  0.1222
 7759SOL    HW234914   2.717   1.205   1.407 -3.0691 -0.0717  1.8341
 7760SOL     OW34915   4.021   0.463   6.455 -0.6718  0.3789 -0.0599
 7760SOL    HW134916   4.112   0.435   6.462 -0.9823 -0.4141  0.8138
 7760SOL    HW234917   4.025   0.538   6.513  1.8336 -0.2044  0.5375
 7761SOL     OW34918   3.673   2.784   6.704  0.2194  0.2902 -0.1449
 7761SOL    HW134919   3.765   2.805   6.693  0.6747 -1.4377  0.2964
 7761SOL    HW234920   3.661   2.706   6.649 -1.1659  0.2333  0.2284
 7762SOL     OW34921   3.427   3.100   4.353  0.1388 -0.0777 -0.0392
 7762SOL    HW134922   3.500   3.161   4.362 -1.7860  1.9543  1.7829
 7762SOL    HW234923   3.436   3.038   4.425  0.3395  0.8698  0.7547
 7763SOL     OW34924   4.400   0.977   7.105 -0.0172  0.2524 -0.0341
 7763SOL    HW134925   4.305   0.989   7.109  0.1139  1.3405 -0.1188
 7763SOL    HW234926   4.418   0.975   7.011  3.0323  3.3884  0.4911
 7764SOL     OW34927   4.470   3.907   4.297 -0.6517  0.4642 -0.4990
 7764SOL    HW134928   4.503   3.991   4.265  0.1294 -0.0482 -1.0259
 7764SOL    HW234929   4.374   3.903   4.289 -0.8104 -1.7395  2.3037
 7765SOL     OW34930   4.214   3.889   4.235 -0.9155 -0.2741 -0.1191
 7765SOL    HW134931   4.212   3.836   4.155 -1.2786  0.7469 -0.7755
 7765SOL    HW234932   4.121   3.886   4.257 -0.5220 -0.8717  1.4939
 7766SOL     OW34933   2.583   4.709   4.880  0.4742  0.0071 -0.3168
 7766SOL    HW134934   2.505   4.729   4.930 -0.1986 -0.8013 -1.0483
 7766SOL    HW234935   2.578   4.613   4.884  2.9371 -0.1015  0.5540
 7767SOL     OW34936   4.031   1.721   4.416 -0.4408 -0.4230 -0.1020
 7767SOL    HW134937   4.080   1.641   4.398 -0.4501 -1.2310  3.3939
 7767SOL    HW234938   4.028   1.711   4.512  2.5706 -0.0653  0.0422
 7768SOL     OW34939   1.139   0.586  13.291 -0.2606 -0.7012  0.1918
 7768SOL    HW134940   1.092   0.668  13.306  4.6630  2.2249 -0.2162
 7768SOL    HW234941   1.232   0.600  13.309  0.1816 -1.8198 -1.2463
 7769SOL     OW34942   2.452   2.967   4.956  0.4216  0.3861  0.2823
 7769SOL    HW134943   2.528   2.934   4.907  0.9653  0.6499  0.9486
 7769SOL    HW234944   2.455   2.907   5.030  0.9170  2.9827  2.3598
 7770SOL     OW34945   3.921   3.970  11.564  0.2161 -0.7693  0.2879
 7770SOL    HW134946   3.894   3.922  11.642  0.6459  0.6277  1.2938
 7770SOL    HW234947   4.003   3.923  11.547  0.3970 -0.2553 -0.2648
 7771SOL     OW34948   1.418   0.886  12.499 -0.4701 -0.1730 -0.5338
 7771SOL    HW134949   1.336   0.892  12.548  0.2706 -3.2836  1.1339
 7771SOL    HW234950   1.475   0.868  12.575  0.8498 -3.3343 -2.2803
 7772SOL     OW34951   4.539   1.822   2.601  0.1018  0.3786  0.5131
 7772SOL    HW134952   4.489   1.902   2.614  2.3336  2.0734 -1.4077
 7772SOL    HW234953   4.487   1.758   2.650 -0.3395 -1.4152 -2.2805
 7773SOL     OW34954   3.883   3.773   6.941 -0.1360  0.7733 -0.4096
 7773SOL    HW134955   3.878   3.869   6.933 -0.4769  0.8089  0.1840
 7773SOL    HW234956   3.827   3.761   7.017  1.0087  1.8946  0.6213
 7774SOL     OW34957   3.886   4.429   2.954  0.5284  0.1599 -0.4812
 7774SOL    HW134958   3.839   4.487   2.894  2.2800 -0.9117 -2.8912
 7774SOL    HW234959   3.970   4.446   2.912  1.4726 -1.0515  0.9356
 7775SOL     OW34960   0.808   4.196   8.137  0.2524  0.4519  0.2353
 7775SOL    HW134961   0.760   4.272   8.170  0.6410  0.7456  0.1309
 7775SOL    HW234962   0.750   4.124   8.160 -0.7964  0.7848 -1.3985
 7776SOL     OW34963   0.875   0.168   8.103 -0.2089 -0.3679 -0.0641
 7776SOL    HW134964   0.863   0.079   8.134  1.8165  0.1716  2.2869
 7776SOL    HW234965   0.906   0.148   8.014 -0.4855 -1.5233  0.0968
 7777SOL     OW34966   4.632   0.961   5.488 -0.6841 -0.3684  0.2814
 7777SOL    HW134967   4.678   1.023   5.432  0.7447 -1.5449  0.1370
 7777SOL    HW234968   4.670   0.980   5.573  1.8056 -0.8717 -0.7089
 7778SOL     OW34969   0.342   0.408   2.186 -0.1354  0.2430 -0.1131
 7778SOL    HW134970   0.286   0.486   2.187  0.3236  0.5042  3.4753
 7778SOL    HW234971   0.370   0.415   2.277  1.9087  0.4345 -0.7467
 7779SOL     OW34972   2.996   0.871  16.115 -0.9374  0.2643  0.1737
 7779SOL    HW134973   2.998   0.788  16.067 -1.3280  1.4762 -1.9246
 7779SOL    HW234974   3.049   0.852  16.193 -1.1952  0.5912  0.4260
 7780SOL     OW34975   0.564   1.073  12.549  0.1340 -0.2054  0.0872
 7780SOL    HW134976   0.580   1.138  12.480 -1.4640  0.0125 -0.0921
 7780SOL    HW234977   0.648   1.028  12.541 -0.1889 -0.7743 -0.0315
 7781SOL     OW34978   4.283   0.613   5.197 -0.7301 -0.1065  0.5167
 7781SOL    HW134979   4.232   0.669   5.255 -0.4080  1.6152 -0.8573
 7781SOL    HW234980   4.340   0.675   5.152  1.9270 -2.0283  1.2407
 7782SOL     OW34981   2.209   0.932   9.329  0.4498 -0.1863 -0.1326
 7782SOL    HW134982   2.249   1.018   9.344  0.7287  0.0179 -2.1337
 7782SOL    HW234983   2.278   0.869   9.349  0.1527 -0.4265  0.1322
 7783SOL     OW34984   0.562   3.740   9.061  0.2463 -0.0848 -0.2855
 7783SOL    HW134985   0.490   3.681   9.038  1.8186 -1.1093 -2.5403
 7783SOL    HW234986   0.633   3.706   9.006  1.4888  0.3803  1.0557
 7784SOL     OW34987   3.784   3.352   5.020 -0.7409 -0.1785  0.4123
 7784SOL    HW134988   3.864   3.403   5.032  0.1535 -1.7033  0.8435
 7784SOL    HW234989   3.804   3.303   4.940  1.7705 -1.7084  1.9766
 7785SOL     OW34990   3.971   4.418   9.238 -0.0858  0.2009 -0.5218
 7785SOL    HW134991   3.966   4.323   9.232 -3.5839  0.2397  1.9799
 7785SOL    HW234992   3.994   4.427   9.145 -2.7568 -1.4040 -1.3304
 7786SOL     OW34993   0.845   2.900   8.663  0.0118  0.0478  0.8762
 7786SOL    HW134994   0.802   2.911   8.578  1.7946  3.0178  0.3398
 7786SOL    HW234995   0.935   2.929   8.644  0.0083 -0.3383  0.2686
 7787SOL     OW34996   4.337   2.617  13.938  0.5492 -1.0496  0.0022
 7787SOL    HW134997   4.378   2.561  13.872  0.4794  0.9199 -1.7107
 7787SOL    HW234998   4.246   2.598  13.917  0.7176 -0.2035 -1.5532
 7788SOL     OW34999   2.506   2.288   3.511  0.0964 -0.1900  0.4302
 7788SOL    HW135000   2.560   2.308   3.434 -0.2262 -1.1154 -0.0372
 7788SOL    HW235001   2.466   2.370   3.538  0.4423 -0.2261  1.0676
 7789SOL     OW35002   4.471   1.953   7.586  0.1365  0.2799  0.4027
 7789SOL    HW135003   4.487   2.033   7.537  0.0056  0.4785  0.6892
 7789SOL    HW235004   4.554   1.905   7.590  0.5160  0.9995  0.9796
 7790SOL     OW35005   1.841   0.649  12.672  0.5987  0.8369  0.1410
 7790SOL    HW135006   1.869   0.713  12.607  1.2140  0.1892 -0.2240
 7790SOL    HW235007   1.892   0.677  12.748  1.4091 -1.2470  0.3708
 7791SOL     OW35008   4.299   0.278   0.509  0.3951  0.1546 -0.1674
 7791SOL    HW135009   4.231   0.322   0.560  0.6074  1.6503 -1.1713
 7791SOL    HW235010   4.269   0.290   0.419 -0.7120  1.8754  0.4204
 7792SOL     OW35011   3.874   3.049   9.819 -0.6134 -0.2186 -0.0116
 7792SOL    HW135012   3.855   3.063   9.726  0.3756 -1.1063 -0.3422
 7792SOL    HW235013   3.922   2.966   9.824  1.4670  0.9248 -0.9509
 7793SOL     OW35014   3.918   1.079   1.231  0.1746  0.0375 -0.6776
 7793SOL    HW135015   3.961   1.031   1.302 -1.8281 -1.0714 -0.2107
 7793SOL    HW235016   3.950   1.168   1.237 -0.4580  0.2444 -0.4066
 7794SOL     OW35017   4.388   3.953  10.115  0.5065 -0.0691  0.2846
 7794SOL    HW135018   4.370   3.893  10.187 -0.2000  1.5437  1.4380
 7794SOL    HW235019   4.477   3.981  10.131  0.2953 -0.2294  1.6767
 7795SOL     OW35020   4.190   2.614   7.880 -0.0018  0.3198  0.0122
 7795SOL    HW135021   4.248   2.621   7.956 -1.5529  1.6847  1.0470
 7795SOL    HW235022   4.247   2.557   7.827 -2.2092 -1.6131 -0.3040
 7796SOL     OW35023   4.487   0.325   6.273 -0.2261 -0.3644 -0.2233
 7796SOL    HW135024   4.504   0.265   6.346  0.2845  0.7697  0.5828
 7796SOL    HW235025   4.523   0.266   6.206 -0.4148 -0.0830 -0.5695
 7797SOL     OW35026   0.138   3.342   9.303 -0.4792 -0.1914  0.1131
 7797SOL    HW135027   0.062   3.400   9.297  0.7384  1.2479 -1.1490
 7797SOL    HW235028   0.110   3.272   9.363  2.3941 -0.3678  1.2302
 7798SOL     OW35029   2.941   1.141   9.199 -0.4406  0.4219 -0.5184
 7798SOL    HW135030   3.028   1.144   9.161  0.0355  1.6464  0.6595
 7798SOL    HW235031   2.904   1.092   9.125 -1.9749 -1.6684  1.6204
 7799SOL     OW35032   2.448   3.479  13.834 -0.3764  0.1680 -0.3191
 7799SOL    HW135033   2.428   3.443  13.921  0.9142 -3.3404 -1.5035
 7799SOL    HW235034   2.414   3.569  13.832 -1.0821 -0.1032 -0.4803
 7800SOL     OW35035   3.876   1.942  14.820 -0.5996  0.3441 -0.1704
 7800SOL    HW135036   3.922   1.860  14.802 -1.2196 -0.0232 -0.0844
 7800SOL    HW235037   3.945   2.006  14.803 -1.2902  0.5389 -2.1981
 7801SOL     OW35038   1.709   1.662   1.695 -0.1110 -0.0185 -0.3416
 7801SOL    HW135039   1.797   1.643   1.727 -0.2118 -0.6331 -0.4179
 7801SOL    HW235040   1.726   1.703   1.610 -1.2621  0.9923 -0.0836
 7802SOL     OW35041   3.519   3.913   3.419  0.2902  0.1248  0.0633
 7802SOL    HW135042   3.550   3.992   3.465  1.8259  0.2005 -1.0778
 7802SOL    HW235043   3.479   3.962   3.347 -0.5130 -2.6539 -1.3593
 7803SOL     OW35044   3.376   1.561   1.037 -0.1155  0.3149  0.0829
 7803SOL    HW135045   3.359   1.572   1.130  0.9008 -0.1264  0.3146
 7803SOL    HW235046   3.393   1.467   1.028 -0.3909  0.3413 -0.7469
 7804SOL     OW35047   1.126   0.874   8.173  0.7519 -0.3733  0.9064
 7804SOL    HW135048   1.065   0.859   8.101  0.2979 -1.5870  1.5596
 7804SOL    HW235049   1.083   0.951   8.210  0.5655 -0.6023  1.1656
 7805SOL     OW35050   0.411   4.432   5.087 -0.7120 -0.3243 -0.2231
 7805SOL    HW135051   0.402   4.342   5.054  1.0740 -0.4173 -0.4130
 7805SOL    HW235052   0.459   4.475   5.017  0.1182  1.0495  1.2046
 7806SOL     OW35053   1.260   0.463   3.747 -0.7636 -0.4610 -0.6294
 7806SOL    HW135054   1.196   0.534   3.758  3.4336  2.7832  2.9528
 7806SOL    HW235055   1.309   0.488   3.826 -1.4070 -3.0052  0.5506
 7807SOL     OW35056   0.066   4.122   2.381 -0.3027 -0.3481  0.6304
 7807SOL    HW135057   0.085   4.159   2.295 -1.0890 -1.6396 -0.0950
 7807SOL    HW235058   0.129   4.171   2.434  0.5275 -0.0996 -0.5931
 7808SOL     OW35059   2.703   2.105  13.674 -0.1158 -0.1966  0.1484
 7808SOL    HW135060   2.712   2.086  13.767 -0.5517 -0.7448  0.0806
 7808SOL    HW235061   2.718   2.021  13.630  0.1494  0.4046 -0.9158
 7809SOL     OW35062   0.757   1.115  14.017  0.5749 -0.1063  0.2647
 7809SOL    HW135063   0.795   1.183  14.072  3.7804 -3.8006  2.6076
 7809SOL    HW235064   0.753   1.154  13.929  3.5221 -0.0193  0.1497
 7810SOL     OW35065   3.961   0.778  15.068  0.4249 -0.2355  0.0267
 7810SOL    HW135066   3.992   0.814  14.984  1.1291 -1.9714 -0.4464
 7810SOL    HW235067   4.028   0.779  15.136 -1.6814  1.2100  2.0803
 7811SOL     OW35068   4.113   0.601   0.776 -0.2261  0.4670 -0.2879
 7811SOL    HW135069   4.140   0.645   0.695  1.4965 -0.8926 -0.4581
 7811SOL    HW235070   4.110   0.511   0.744  0.3110 -0.4928  2.3496
 7812SOL     OW35071   3.828   1.721  11.060 -0.1838 -0.1466 -0.0855
 7812SOL    HW135072   3.733   1.716  11.064 -0.3610  3.2936  0.3053
 7812SOL    HW235073   3.841   1.764  10.975 -1.1721 -1.4360 -0.8777
 7813SOL     OW35074   1.390   0.698   4.177 -0.2082  0.3090 -0.8894
 7813SOL    HW135075   1.419   0.660   4.260 -0.9986  0.8801 -0.3542
 7813SOL    HW235076   1.370   0.789   4.199  2.3560  0.5641  0.3617
 7814SOL     OW35077   1.506   3.834   7.698 -0.2666  0.0124  0.2719
 7814SOL    HW135078   1.488   3.771   7.767 -4.2489  2.2649  1.2869
 7814SOL    HW235079   1.434   3.832   7.635  0.0728 -0.6209 -0.0960
 7815SOL     OW35080   3.282   2.934  16.529 -0.1240 -0.2897  0.2945
 7815SOL    HW135081   3.350   2.999  16.546 -1.3133  1.8284 -2.9587
 7815SOL    HW235082   3.327   2.860  16.490  0.1410 -0.0063  0.0640
 7816SOL     OW35083   3.995   1.336  16.765  0.5157  0.1151 -0.2964
 7816SOL    HW135084   4.008   1.431  16.761  2.3155 -0.0595  1.4573
 7816SOL    HW235085   3.976   1.317  16.857 -0.9448 -1.4534 -0.9149
 7817SOL     OW35086   0.521   0.555  15.643  0.0747 -0.0801  0.2134
 7817SOL    HW135087   0.470   0.588  15.716 -1.5620 -1.9883 -0.0920
 7817SOL    HW235088   0.489   0.623  15.584 -0.4684  0.2211  0.8586
 7818SOL     OW35089   2.310   2.146   5.112 -0.3117 -0.3277 -0.1294
 7818SOL    HW135090   2.247   2.082   5.144 -1.2773  0.2512 -0.8445
 7818SOL    HW235091   2.358   2.084   5.057 -1.6956 -0.7979 -0.8064
 7819SOL     OW35092   3.782   1.063   2.132 -0.0137  0.0667 -0.6048
 7819SOL    HW135093   3.713   1.112   2.175  0.0963 -0.8476  0.6007
 7819SOL    HW235094   3.752   1.009   2.059 -3.3798  1.7350 -0.4293
 7820SOL     OW35095   4.552   0.754   6.781  0.6069  0.2629  0.1541
 7820SOL    HW135096   4.638   0.780   6.812 -0.2572  2.0356  1.0840
 7820SOL    HW235097   4.541   0.664   6.814 -0.1124  1.1376  2.2947
 7821SOL     OW35098   0.416   0.289   1.010  0.2952  0.4506  0.2871
 7821SOL    HW135099   0.395   0.204   1.047 -1.3621  0.7476  0.0328
 7821SOL    HW235100   0.384   0.337   1.086 -2.3761  1.3550 -1.4251
 7822SOL     OW35101   4.631   2.743   4.035 -0.6836  0.4145 -0.3296
 7822SOL    HW135102   4.691   2.746   3.960 -0.6983 -1.0509 -0.4083
 7822SOL    HW235103   4.671   2.670   4.081 -1.4953  0.4497  0.4347
 7823SOL     OW35104   0.476   3.990   3.686 -0.1825 -0.1456  0.5613
 7823SOL    HW135105   0.520   3.981   3.771  0.8486 -0.4289 -0.0059
 7823SOL    HW235106   0.451   3.900   3.666  1.4592 -0.9331  2.0748
 7824SOL     OW35107   3.946   4.273   4.091  0.5777  0.0912 -0.0422
 7824SOL    HW135108   3.873   4.316   4.047  2.0663  0.0481 -2.5755
 7824SOL    HW235109   3.923   4.180   4.081 -0.0365  0.4657 -1.9277
 7825SOL     OW35110   1.409   0.011   9.157  0.5234 -0.3444  0.0106
 7825SOL    HW135111   1.457   0.094   9.156  1.7972 -1.0949 -2.3863
 7825SOL    HW235112   1.319   0.040   9.171  1.0861  2.1608 -1.6269
 7826SOL     OW35113   0.034   1.255   1.453 -0.0565 -0.1394  0.2720
 7826SOL    HW135114   0.024   1.347   1.478  0.6695 -0.7097  2.6374
 7826SOL    HW235115   0.048   1.272   1.360 -0.7695 -1.2529 -0.0331
 7827SOL     OW35116   1.680   2.038  17.124 -0.1448  0.6679 -0.1957
 7827SOL    HW135117   1.635   2.108  17.078 -1.5284 -0.4977 -0.6383
 7827SOL    HW235118   1.707   1.974  17.058 -0.9979 -0.3416  0.4154
 7828SOL     OW35119   0.161   2.916   1.398 -0.0920 -0.0495  0.2800
 7828SOL    HW135120   0.082   2.873   1.431  0.7816  0.0713  2.5767
 7828SOL    HW235121   0.193   2.954   1.480  1.6317 -1.9091  0.4906
 7829SOL     OW35122   2.658   2.968   0.657  0.3718  0.3191  0.0907
 7829SOL    HW135123   2.676   2.949   0.749  2.9709 -1.1762 -0.7364
 7829SOL    HW235124   2.563   2.957   0.655  0.4147 -0.7811  4.3483
 7830SOL     OW35125   4.218   0.898  17.492 -0.0326 -0.4784 -0.6588
 7830SOL    HW135126   4.272   0.943  17.427  0.1416 -1.2141 -1.0252
 7830SOL    HW235127   4.143   0.868  17.442  1.2238 -0.2144 -2.6972
 7831SOL     OW35128   4.139   3.443  13.413  0.1283 -0.0659 -0.4815
 7831SOL    HW135129   4.135   3.537  13.426 -1.8428  0.1781 -2.9081
 7831SOL    HW235130   4.231   3.414  13.413 -0.7518 -2.8425 -0.1830
 7832SOL     OW35131   4.465   2.905  14.717 -0.2249 -0.2087  0.3468
 7832SOL    HW135132   4.372   2.914  14.694  0.0040  0.2533 -0.3997
 7832SOL    HW235133   4.495   2.856  14.641 -2.8004 -0.9230 -0.1956
 7833SOL     OW35134   3.302   2.269   7.334  0.6124  0.0723  0.3704
 7833SOL    HW135135   3.284   2.187   7.289  2.2897 -0.5920  0.8925
 7833SOL    HW235136   3.288   2.243   7.425  0.9972 -1.5220 -0.0332
 7834SOL     OW35137   3.150   3.501  14.533 -0.5224  0.4946 -0.2924
 7834SOL    HW135138   3.084   3.555  14.576 -2.9461 -0.5610 -2.6880
 7834SOL    HW235139   3.187   3.461  14.612  3.0326 -2.5684 -3.4729
 7835SOL     OW35140   2.815   3.097  14.817  0.0024  0.0759 -0.0942
 7835SOL    HW135141   2.747   3.164  14.825  0.1416  0.2428 -0.3112
 7835SOL    HW235142   2.806   3.052  14.901  0.1821  0.5667  0.1908
 7836SOL     OW35143   0.776   1.433   3.067  0.2774 -0.1988 -0.4372
 7836SOL    HW135144   0.803   1.368   3.003 -0.4146 -0.6037 -0.3244
 7836SOL    HW235145   0.680   1.424   3.068  0.1902  0.7063 -0.8079
 7837SOL     OW35146   4.480   1.019   5.786  0.0399 -0.4327 -0.1287
 7837SOL    HW135147   4.455   0.996   5.876 -0.6290 -0.7909 -0.4061
 7837SOL    HW235148   4.508   0.932   5.757 -1.6101 -0.8807 -0.3459
 7838SOL     OW35149   2.790   2.102   9.700 -0.5368  0.4068  1.2772
 7838SOL    HW135150   2.882   2.081   9.715 -0.5438  0.1106  0.9018
 7838SOL    HW235151   2.757   2.050   9.773  1.5935  0.0354  1.9722
 7839SOL     OW35152   1.545   0.223   6.420  0.5412 -0.0945 -0.3400
 7839SOL    HW135153   1.535   0.298   6.478 -1.5736  1.3699 -2.5706
 7839SOL    HW235154   1.463   0.174   6.428 -1.0029  2.8062  1.4188
 7840SOL     OW35155   2.822   4.393   2.221 -0.0621 -0.1924 -0.7087
 7840SOL    HW135156   2.771   4.430   2.293  1.3740 -0.6335  0.5286
 7840SOL    HW235157   2.810   4.473   2.169 -0.5567  0.2962  0.1468
 7841SOL     OW35158   1.494   4.241   6.880 -0.3370  0.7273 -0.1640
 7841SOL    HW135159   1.500   4.336   6.881 -1.9240  0.8787 -2.7781
 7841SOL    HW235160   1.463   4.223   6.791  0.1367  0.1529 -0.2125
 7842SOL     OW35161   1.768   2.850  16.735 -0.3509 -0.2118 -0.0514
 7842SOL    HW135162   1.783   2.759  16.760  1.0124  0.3030  0.9529
 7842SOL    HW235163   1.856   2.882  16.753 -0.9686  1.7733 -0.5309
 7843SOL     OW35164   1.413   3.916   9.044 -0.3783 -0.0038  0.0699
 7843SOL    HW135165   1.323   3.901   9.016  0.2771 -0.2970 -1.9054
 7843SOL    HW235166   1.431   3.834   9.090 -1.3405 -0.3444 -0.1589
 7844SOL     OW35167   2.671   1.476   5.897  0.5956  0.0231  0.7941
 7844SOL    HW135168   2.662   1.381   5.890  2.3596 -0.1637  1.1421
 7844SOL    HW235169   2.753   1.486   5.849  0.0757  1.6737  0.2211
 7845SOL     OW35170   4.728   3.332   1.107  0.6423  0.2565 -0.2760
 7845SOL    HW135171   0.081   3.330   1.077  0.7385  2.1931 -0.1103
 7845SOL    HW235172   4.731   3.308   1.200 -2.4183 -2.6061 -0.9212
 7846SOL     OW35173   1.240   2.835   4.671  1.1689 -0.6870  0.1274
 7846SOL    HW135174   1.160   2.875   4.636  0.6965 -1.9032 -0.2025
 7846SOL    HW235175   1.246   2.888   4.750  0.0460  1.4451 -1.2152
 7847SOL     OW35176   1.827   3.676   7.384  0.4030 -0.0830 -1.0559
 7847SOL    HW135177   1.759   3.742   7.400  1.1229  0.3995 -0.0053
 7847SOL    HW235178   1.865   3.651   7.468  0.3871  2.1982 -0.3550
 7848SOL     OW35179   2.055   4.372  14.873  0.6187  0.0430  0.0701
 7848SOL    HW135180   2.023   4.427  14.801 -0.0438  0.4972  0.7185
 7848SOL    HW235181   2.018   4.424  14.944  1.6417 -0.0737  0.6865
 7849SOL     OW35182   1.002   0.005   4.021 -0.1130 -0.1554  0.0390
 7849SOL    HW135183   0.960   4.711   3.942  0.8611 -0.0743 -0.5192
 7849SOL    HW235184   0.942   4.721   4.092  1.1420  0.5342  1.3237
 7850SOL     OW35185   2.204   1.893  12.786  0.2142 -0.2692  0.1984
 7850SOL    HW135186   2.136   1.897  12.719 -2.2946 -3.1742  2.6018
 7850SOL    HW235187   2.170   1.857  12.868 -0.4033  1.1708  0.5730
 7851SOL     OW35188   1.526   0.006   1.341 -0.4230 -0.1258  0.5314
 7851SOL    HW135189   1.478   0.005   1.259 -1.7309 -2.2977  1.3348
 7851SOL    HW235190   1.596   4.681   1.330 -0.7345 -0.1888 -0.9840
 7852SOL     OW35191   1.162   1.673  12.721 -0.9188 -0.6352  0.0298
 7852SOL    HW135192   1.245   1.630  12.743 -0.4518 -1.1267 -2.6820
 7852SOL    HW235193   1.147   1.720  12.803  0.5014  1.4634 -0.8922
 7853SOL     OW35194   4.037   3.199  15.683 -0.4654  0.3420  0.2385
 7853SOL    HW135195   4.002   3.282  15.651 -3.0307 -0.7300  0.2008
 7853SOL    HW235196   4.028   3.216  15.777 -1.4273 -0.5562  0.3046
 7854SOL     OW35197   1.556   2.050   9.484  0.5969 -0.2879 -0.1034
 7854SOL    HW135198   1.569   1.975   9.426 -0.5184 -0.8572  0.3917
 7854SOL    HW235199   1.576   2.013   9.570  0.6094  0.6912  0.3166
 7855SOL     OW35200   0.948   0.657  16.855  0.3086 -0.7528  0.1195
 7855SOL    HW135201   0.865   0.647  16.901  0.1733  0.0834  0.0559
 7855SOL    HW235202   0.914   0.686  16.770 -1.7020  1.7515  1.7742
 7856SOL     OW35203   3.536   4.581   3.722 -0.0667 -0.4722  0.5636
 7856SOL    HW135204   3.466   4.625   3.674 -0.3466  0.1214  1.5074
 7856SOL    HW235205   3.514   4.601   3.813  0.4497  0.7723  0.4065
 7857SOL     OW35206   1.089   3.185   8.018 -0.0386 -0.5954 -0.0077
 7857SOL    HW135207   1.127   3.124   8.082  1.7347 -0.3832 -0.8469
 7857SOL    HW235208   1.138   3.165   7.938  0.0169  0.7228 -0.3082
 7858SOL     OW35209   4.434   3.668   3.192 -0.1385  0.5313  0.1007
 7858SOL    HW135210   4.376   3.598   3.164 -0.0761  1.2972 -1.9013
 7858SOL    HW235211   4.431   3.730   3.120  2.4126  0.1525 -0.3364
 7859SOL     OW35212   0.236   1.577   0.733  0.1005 -0.2964 -0.1662
 7859SOL    HW135213   0.291   1.499   0.733 -0.0046 -0.3701  0.4688
 7859SOL    HW235214   0.289   1.634   0.676  0.1472  0.1794  0.3528
 7860SOL     OW35215   3.339   4.447  10.297 -0.0010  0.2097 -0.1132
 7860SOL    HW135216   3.424   4.435  10.253  0.8259  1.5334  1.1360
 7860SOL    HW235217   3.285   4.397  10.235  2.6387 -0.3916 -1.9642
 7861SOL     OW35218   3.971   2.208   8.251 -0.6150  0.2355 -0.6380
 7861SOL    HW135219   4.051   2.195   8.302 -2.2116  1.2515  2.1728
 7861SOL    HW235220   3.998   2.280   8.194 -1.7114  3.0626  2.4148
 7862SOL     OW35221   2.450   1.201   9.516  0.1277  0.4703  0.2071
 7862SOL    HW135222   2.447   1.273   9.579  1.1407 -0.0098  0.8153
 7862SOL    HW235223   2.493   1.133   9.569 -1.1409 -0.3786  0.1481
 7863SOL     OW35224   1.655   0.939   1.361 -0.3992 -0.5433  0.1577
 7863SOL    HW135225   1.623   0.945   1.451 -1.7531 -0.9950 -0.2905
 7863SOL    HW235226   1.690   0.850   1.366 -2.9358 -1.5329 -0.1011
 7864SOL     OW35227   1.029   4.396   8.065 -0.0628  0.0810 -0.2974
 7864SOL    HW135228   1.027   4.388   7.970 -0.4634 -1.7361 -0.1511
 7864SOL    HW235229   0.985   4.314   8.088 -1.2701  0.9383  0.4524
 7865SOL     OW35230   2.925   2.888   7.417  0.4443 -1.2520 -0.1296
 7865SOL    HW135231   3.015   2.891   7.452  0.2990  1.8212 -0.0526
 7865SOL    HW235232   2.911   2.976   7.384  1.6439 -0.8845  0.3260
 7866SOL     OW35233   0.721   3.203   0.294 -0.2117 -0.2030 -0.2394
 7866SOL    HW135234   0.755   3.163   0.214  1.4569 -1.0089  0.8665
 7866SOL    HW235235   0.677   3.278   0.255 -1.4955 -1.7899 -1.8163
 7867SOL     OW35236   1.710   0.235   5.364 -0.6762 -0.3902  0.2551
 7867SOL    HW135237   1.721   0.173   5.292  1.4023 -0.2862  0.4809
 7867SOL    HW235238   1.730   0.316   5.318 -0.3565 -1.1311 -0.8885
 7868SOL     OW35239   2.817   4.477   5.457  0.0434 -0.1422  0.0004
 7868SOL    HW135240   2.815   4.476   5.553  0.9093 -1.1245 -0.0001
 7868SOL    HW235241   2.900   4.520   5.438  0.2121 -0.7308 -0.5735
 7869SOL     OW35242   1.450   3.177   7.194 -0.4272  0.4834 -0.1383
 7869SOL    HW135243   1.482   3.230   7.121  0.2604  2.1334  1.3736
 7869SOL    HW235244   1.375   3.136   7.150  0.5368  1.0375 -2.2689
 7870SOL     OW35245   4.527   3.651   4.245 -0.3973 -0.1534  0.6990
 7870SOL    HW135246   4.518   3.746   4.250  2.4408  0.2038 -1.0672
 7870SOL    HW235247   4.603   3.634   4.300 -0.3161 -2.5688 -0.1500
 7871SOL     OW35248   4.683   1.783   2.390 -0.5078  0.0787  0.2314
 7871SOL    HW135249   0.007   1.852   2.367 -0.6834 -0.1156 -0.7886
 7871SOL    HW235250   4.645   1.809   2.474  1.6220  1.0592  0.8929
 7872SOL     OW35251   1.865   2.482  10.314  0.0569 -0.1197  0.1393
 7872SOL    HW135252   1.795   2.461  10.375  0.4647 -0.8122  0.3752
 7872SOL    HW235253   1.943   2.497  10.367  1.2565 -1.7643 -1.1391
 7873SOL     OW35254   1.150   1.731  11.668 -0.5269 -0.7294 -0.0606
 7873SOL    HW135255   1.204   1.653  11.677  0.0163 -0.3113  0.2446
 7873SOL    HW235256   1.099   1.741  11.749  0.4747  1.4534  0.3050
 7874SOL     OW35257   3.506   3.088   6.959 -0.2464  0.5010 -0.0244
 7874SOL    HW135258   3.522   3.030   6.884  0.6483  0.0502  0.5237
 7874SOL    HW235259   3.417   3.123   6.950  0.6545  2.6197 -0.9246
 7875SOL     OW35260   3.032   3.229   3.571 -0.8162 -0.8870  0.0672
 7875SOL    HW135261   3.117   3.188   3.586  0.8081  2.1185 -0.9202
 7875SOL    HW235262   2.988   3.200   3.651 -1.6087 -0.1823 -0.1175
 7876SOL     OW35263   1.145   3.518  13.507  0.0905 -0.2815  0.3464
 7876SOL    HW135264   1.227   3.560  13.480  0.5715 -0.6532  1.2080
 7876SOL    HW235265   1.175   3.435  13.543  0.5476 -0.2255  0.0999
 7877SOL     OW35266   4.634   2.904   7.143  0.1582 -0.1165  0.4219
 7877SOL    HW135267   4.678   2.822   7.121  0.6689  0.4817 -0.7808
 7877SOL    HW235268   4.710   2.960   7.127 -0.7715  1.0511  0.1031
 7878SOL     OW35269   3.577   1.497   9.742  0.6469 -0.0018 -0.3932
 7878SOL    HW135270   3.533   1.420   9.705 -2.0875  1.9747 -1.2716
 7878SOL    HW235271   3.546   1.570   9.689  1.3208  0.3821 -0.2558
 7879SOL     OW35272   2.223   3.578   1.876 -0.5098  0.3984 -0.3958
 7879SOL    HW135273   2.251   3.662   1.911  0.4319 -0.8782  1.9030
 7879SOL    HW235274   2.149   3.548   1.929 -0.2920  3.8692  1.8122
 7880SOL     OW35275   0.475   2.964  14.818 -0.5036 -0.1665 -0.0195
 7880SOL    HW135276   0.559   2.922  14.836 -1.2745 -1.1336  1.3131
 7880SOL    HW235277   0.491   3.058  14.807 -0.2380 -0.1282  0.6990
 7881SOL     OW35278   4.339   0.154   9.140 -0.3345 -0.1753  0.4327
 7881SOL    HW135279   4.270   0.214   9.166 -0.3337 -0.2783  0.6638
 7881SOL    HW235280   4.318   0.147   9.046  0.4860  1.5165  0.1192
 7882SOL     OW35281   1.126   4.733   9.095  0.5939 -0.5937  0.0268
 7882SOL    HW135282   1.118   4.691   9.009 -2.4867 -1.8944  0.9155
 7882SOL    HW235283   1.058   0.062   9.084  0.4633 -0.8191 -0.5683
 7883SOL     OW35284   1.025   2.057   2.274 -0.2063 -0.2872 -0.2599
 7883SOL    HW135285   1.035   2.103   2.190  2.0905 -0.4919 -0.1078
 7883SOL    HW235286   0.932   2.072   2.285  0.0502  0.7496  0.4715
 7884SOL     OW35287   3.173   1.800  14.346  0.3229  0.1706  0.1612
 7884SOL    HW135288   3.092   1.828  14.388 -0.0299 -0.3197 -0.1846
 7884SOL    HW235289   3.218   1.761  14.420 -1.0644 -2.1390 -0.2021
 7885SOL     OW35290   4.553   1.425   7.038  0.3302  0.1467 -0.5215
 7885SOL    HW135291   4.637   1.422   6.993  1.4840 -1.2571  1.6842
 7885SOL    HW235292   4.523   1.336   7.018  1.3492 -0.7402  1.8612
 7886SOL     OW35293   1.602   2.486  16.308 -0.1152 -0.7498  0.0206
 7886SOL    HW135294   1.692   2.494  16.340 -0.8938  0.4205  1.8525
 7886SOL    HW235295   1.563   2.444  16.384  1.8039  1.3871  2.1714
 7887SOL     OW35296   2.634   4.479   4.440  0.6147  0.4383 -0.3757
 7887SOL    HW135297   2.681   4.454   4.520  1.1057  1.2976 -0.3935
 7887SOL    HW235298   2.638   4.574   4.435 -1.5481  0.6265  1.4165
 7888SOL     OW35299   0.785   2.056  12.180 -0.0986  0.1231 -0.2622
 7888SOL    HW135300   0.777   2.116  12.106  3.0342  0.4922 -0.3363
 7888SOL    HW235301   0.737   1.978  12.155  0.1751 -0.6247  1.5087
 7889SOL     OW35302   2.257   1.149   4.898 -0.1169  0.5139 -0.4704
 7889SOL    HW135303   2.352   1.142   4.911 -0.5533  1.2456  3.0006
 7889SOL    HW235304   2.226   1.166   4.987  2.2762  0.7719  0.3239
 7890SOL     OW35305   1.149   0.979   3.151  0.3451  0.5776 -0.2650
 7890SOL    HW135306   1.196   0.996   3.233  0.1392 -1.7945  0.3444
 7890SOL    HW235307   1.102   1.062   3.158 -0.0155  0.3988 -0.5748
 7891SOL     OW35308   0.785   1.092   8.772 -0.2437 -0.3810 -0.5574
 7891SOL    HW135309   0.742   1.150   8.835 -0.1982  1.0857 -1.9030
 7891SOL    HW235310   0.712   1.043   8.733 -1.5802  0.8080  0.4462
 7892SOL     OW35311   0.246   4.092   4.645  0.2820 -0.2178  0.2078
 7892SOL    HW135312   0.202   4.041   4.714  1.1175  0.3145  1.1254
 7892SOL    HW235313   0.176   4.155   4.628  0.5569  0.0472  0.0605
 7893SOL     OW35314   0.383   4.073   3.178  0.0499  0.8587  0.1172
 7893SOL    HW135315   0.464   4.101   3.220  0.7026 -0.5846 -0.1924
 7893SOL    HW235316   0.412   3.982   3.174  0.7847  1.1345 -0.7035
 7894SOL     OW35317   2.530   0.085  15.888  0.2951  0.2979  0.0233
 7894SOL    HW135318   2.487   0.136  15.958 -0.7797 -0.3707 -0.1543
 7894SOL    HW235319   2.619   0.119  15.882  0.6033 -0.7257 -1.0725
 7895SOL     OW35320   2.325   1.233   9.234  0.3328  0.1309  0.1926
 7895SOL    HW135321   2.380   1.237   9.312  3.4014  0.7482 -1.9684
 7895SOL    HW235322   2.393   1.220   9.167 -1.5658 -1.3042 -1.4560
 7896SOL     OW35323   1.235   2.840   3.002 -0.0718 -0.3735 -0.2734
 7896SOL    HW135324   1.182   2.779   3.052  0.6265 -1.6974 -1.1507
 7896SOL    HW235325   1.208   2.930   3.023  1.5276 -0.5200  2.3215
 7897SOL     OW35326   1.514   3.584  13.662  0.1776 -0.1968  0.0634
 7897SOL    HW135327   1.484   3.493  13.655 -0.6523  0.2470 -1.9578
 7897SOL    HW235328   1.476   3.615  13.580  2.8731  1.0416 -0.7284
 7898SOL     OW35329   3.182   3.186   4.103 -0.6161 -0.2038 -0.0222
 7898SOL    HW135330   3.276   3.203   4.116 -0.2162 -1.6826 -0.9682
 7898SOL    HW235331   3.162   3.269   4.061 -0.9650  0.0246  0.6028
 7899SOL     OW35332   1.821   3.906  16.995  0.1584 -0.0072 -0.2183
 7899SOL    HW135333   1.905   3.861  16.988  0.2000  0.3671 -2.0972
 7899SOL    HW235334   1.811   3.892  16.901  3.5150  1.1283 -0.7659
 7900SOL     OW35335   0.645   1.448   8.535  0.0723 -0.0245 -0.1937
 7900SOL    HW135336   0.738   1.424   8.541  0.3893  1.2838  0.1537
 7900SOL    HW235337   0.663   1.492   8.451 -0.1739  1.6266  0.6235
 7901SOL     OW35338   0.356   4.621  10.364  0.1344  0.1671  0.6176
 7901SOL    HW135339   0.263   4.601  10.353 -0.1388  1.5991  0.4467
 7901SOL    HW235340   0.391   4.539  10.327 -0.2756  0.3673 -0.2259
 7902SOL     OW35341   4.467   4.121   9.011 -0.3767  0.5817 -0.1051
 7902SOL    HW135342   4.411   4.198   9.018  0.4986  1.3709 -1.6440
 7902SOL    HW235343   4.548   4.144   9.057 -0.3472 -0.7909  0.5275
 7903SOL     OW35344   2.026   1.450   4.795 -0.2174 -0.9232  0.7993
 7903SOL    HW135345   2.097   1.499   4.753 -1.9319  0.8261 -0.0803
 7903SOL    HW235346   2.041   1.368   4.749 -1.0527  0.4752 -1.9391
 7904SOL     OW35347   0.269   1.159   5.050  0.4491 -0.2836 -0.2154
 7904SOL    HW135348   0.297   1.248   5.031 -0.6271  0.3986  1.3625
 7904SOL    HW235349   0.354   1.117   5.040  0.2969 -0.8606  0.8333
 7905SOL     OW35350   0.034   3.987   6.602  0.0523 -0.2389  0.1226
 7905SOL    HW135351   0.003   4.076   6.621  0.4537  0.1729 -1.1163
 7905SOL    HW235352   0.129   3.992   6.592 -0.1245 -1.0505 -2.0028
 7906SOL     OW35353   1.858   1.720   2.360  0.1150  0.0739 -0.1833
 7906SOL    HW135354   1.879   1.735   2.452  0.7220 -1.1167 -0.1311
 7906SOL    HW235355   1.813   1.636   2.363 -1.4627  0.9155 -0.4199
 7907SOL     OW35356   0.792   0.847   7.418  0.2081  0.8708 -0.3840
 7907SOL    HW135357   0.857   0.784   7.387 -1.9363 -1.2665 -0.6195
 7907SOL    HW235358   0.710   0.798   7.407  0.2763  0.2303  2.0287
 7908SOL     OW35359   0.327   3.783   7.463  0.6606  0.3697  0.2745
 7908SOL    HW135360   0.376   3.865   7.463 -1.2190  1.5128  0.7280
 7908SOL    HW235361   0.357   3.722   7.529  0.4327 -1.5791 -1.4051
 7909SOL     OW35362   1.237   0.475   3.441 -0.4174 -0.0803  0.2184
 7909SOL    HW135363   1.199   0.553   3.401 -1.9033 -1.0306 -0.2032
 7909SOL    HW235364   1.251   0.505   3.531  3.8318  0.3055 -0.5609
 7910SOL     OW35365   3.242   2.423  10.196 -0.5574  0.1382  0.3543
 7910SOL    HW135366   3.165   2.468  10.161 -0.8912  0.3949  1.4464
 7910SOL    HW235367   3.270   2.494  10.254 -0.8905  0.4921  0.0821
 7911SOL     OW35368   1.710   0.363   1.675  0.4444  0.4104 -0.1237
 7911SOL    HW135369   1.653   0.428   1.715  0.3162  0.4846 -0.4297
 7911SOL    HW235370   1.702   0.298   1.746  1.5567  1.8498  1.3154
 7912SOL     OW35371   2.055   3.108  13.122 -0.5335  0.2792  0.4382
 7912SOL    HW135372   2.039   3.198  13.094  0.2026 -0.1596 -1.3913
 7912SOL    HW235373   2.011   3.104  13.207 -1.3233  0.6343  0.0443
 7913SOL     OW35374   3.724   0.775   6.364  0.7090  0.4694  0.4721
 7913SOL    HW135375   3.772   0.714   6.309 -0.3143  0.1168 -0.0255
 7913SOL    HW235376   3.690   0.712   6.428  1.2998 -1.0028 -0.6738
 7914SOL     OW35377   0.041   0.585   9.176 -0.2568 -0.4249  0.6095
 7914SOL    HW135378   0.036   0.656   9.111  1.9129  2.5215  3.6724
 7914SOL    HW235379   4.737   0.624   9.253 -1.0239 -1.1209  0.5424
 7915SOL     OW35380   1.517   2.358   3.901 -0.2182 -0.0931 -0.2930
 7915SOL    HW135381   1.490   2.359   3.809 -1.8388  0.5623  0.1836
 7915SOL    HW235382   1.437   2.370   3.952  0.1599 -2.3111  0.8315
 7916SOL     OW35383   3.523   3.753   2.533  0.1541 -0.1276 -0.3102
 7916SOL    HW135384   3.598   3.805   2.505  1.7816 -2.9349 -1.1764
 7916SOL    HW235385   3.549   3.668   2.496  1.4753 -0.3409  1.1040
 7917SOL     OW35386   0.879   0.816   7.142  0.5820  0.2345 -0.0221
 7917SOL    HW135387   0.787   0.811   7.117  0.2673  0.6270  1.0471
 7917SOL    HW235388   0.898   0.729   7.179  0.7101 -0.0875 -0.8432
 7918SOL     OW35389   4.074   3.455   2.202 -0.2657  0.2432  0.3433
 7918SOL    HW135390   4.098   3.464   2.294  2.2365 -0.5810 -0.2092
 7918SOL    HW235391   4.059   3.362   2.189  0.7631 -0.0505  1.3169
 7919SOL     OW35392   3.860   1.855  10.281 -0.0611 -0.7761 -0.0209
 7919SOL    HW135393   3.920   1.808  10.223  0.6517 -0.7436  0.6871
 7919SOL    HW235394   3.817   1.912  10.217  0.3190 -2.0501 -1.4115
 7920SOL     OW35395   2.339   3.082   5.489  0.1520 -0.2400  0.3089
 7920SOL    HW135396   2.290   3.143   5.433 -0.6426  0.1041  1.3766
 7920SOL    HW235397   2.276   3.062   5.557 -1.8124 -0.8143 -1.6644
 7921SOL     OW35398   1.714   3.840  12.751  0.0917  0.1246  0.5379
 7921SOL    HW135399   1.771   3.779  12.798  0.5649 -0.1931 -0.4327
 7921SOL    HW235400   1.764   3.840  12.669  1.7160 -0.3616  1.5277
 7922SOL     OW35401   3.936   2.636   7.790  0.0633 -0.1358  0.5256
 7922SOL    HW135402   4.016   2.635   7.842  0.8358 -1.1233 -0.6840
 7922SOL    HW235403   3.969   2.644   7.700 -0.3271 -2.5735  0.1376
 7923SOL     OW35404   1.389   0.881  11.321  0.4883  0.6152  0.2816
 7923SOL    HW135405   1.376   0.876  11.226  0.8180  0.3318  0.2520
 7923SOL    HW235406   1.429   0.967  11.332  3.4091 -0.5093 -1.4685
 7924SOL     OW35407   2.486   4.427   0.535 -0.5410 -0.2012  0.1457
 7924SOL    HW135408   2.497   4.333   0.545 -3.5095 -0.3509  1.9928
 7924SOL    HW235409   2.485   4.455   0.626  0.4705  0.8538 -0.1540
 7925SOL     OW35410   4.106   4.126   1.510 -0.1926 -0.3240 -0.4744
 7925SOL    HW135411   4.100   4.034   1.486 -2.9675 -0.3591  0.3640
 7925SOL    HW235412   4.061   4.158   1.431  0.3756 -0.3588 -0.8136
 7926SOL     OW35413   2.217   4.359  12.331 -0.1661 -0.7005 -0.0400
 7926SOL    HW135414   2.147   4.413  12.296 -0.0519  0.1726  1.0755
 7926SOL    HW235415   2.215   4.387  12.423 -0.9083  0.3997 -0.3908
 7927SOL     OW35416   0.270   4.518   7.516  0.4140 -0.6290  0.0567
 7927SOL    HW135417   0.187   4.546   7.554 -1.7134 -1.6128 -3.8439
 7927SOL    HW235418   0.247   4.513   7.423 -0.0907 -1.3141  0.2232
 7928SOL     OW35419   2.277   3.565   3.644  0.5004  0.5102 -0.1361
 7928SOL    HW135420   2.204   3.504   3.645 -2.3971  4.0070 -1.0394
 7928SOL    HW235421   2.286   3.579   3.550 -1.0115 -0.0708 -0.3641
 7929SOL     OW35422   2.281   4.003   6.394  0.2338 -0.1968 -0.5066
 7929SOL    HW135423   2.323   4.066   6.452 -1.6845 -0.0549  0.7388
 7929SOL    HW235424   2.238   3.946   6.458 -0.0090 -0.8762 -1.2611
 7930SOL     OW35425   3.271   3.327   0.326  0.0292 -0.3480 -0.3820
 7930SOL    HW135426   3.239   3.276   0.252  1.3854 -1.6180 -0.0929
 7930SOL    HW235427   3.328   3.261   0.367  1.5290  1.8192  1.0354
 7931SOL     OW35428   3.198   3.072   3.737 -0.1332  0.4271 -0.0547
 7931SOL    HW135429   3.174   2.981   3.719 -0.8665  0.9029 -1.4842
 7931SOL    HW235430   3.165   3.072   3.827  1.4666 -2.3446  0.5346
 7932SOL     OW35431   3.562   2.027   6.833 -0.7948 -0.3523  0.1495
 7932SOL    HW135432   3.556   2.112   6.876  1.3868 -2.3532  4.3513
 7932SOL    HW235433   3.478   2.026   6.787 -0.7729 -0.8924  0.1179
 7933SOL     OW35434   2.528   1.971   0.078 -0.1754  0.5305 -0.2056
 7933SOL    HW135435   2.532   2.066   0.073 -3.0115  0.6542 -0.2406
 7933SOL    HW235436   2.621   1.953   0.095 -0.1619 -1.7327 -2.6951
 7934SOL     OW35437   3.191   0.734   3.570 -0.6023  0.1941  0.3080
 7934SOL    HW135438   3.183   0.725   3.665  2.0448 -1.1754  0.4124
 7934SOL    HW235439   3.234   0.819   3.562  0.5319 -0.2430  1.8923
 7935SOL     OW35440   1.602   0.904   1.624 -0.2640 -0.2951  0.4477
 7935SOL    HW135441   1.591   0.987   1.671  0.1339  0.3376 -0.5748
 7935SOL    HW235442   1.635   0.847   1.694 -0.4467 -2.7307 -1.4463
 7936SOL     OW35443   2.396   3.053   4.045  0.0716  0.1355 -0.3658
 7936SOL    HW135444   2.385   3.066   4.139  0.2832  1.5519 -0.5318
 7936SOL    HW235445   2.441   2.969   4.035 -2.8363 -1.3563 -0.7421
 7937SOL     OW35446   3.519   4.240   9.512 -0.2115 -0.8172  0.1384
 7937SOL    HW135447   3.579   4.264   9.582 -0.4120 -0.0780  0.0589
 7937SOL    HW235448   3.552   4.151   9.501  0.1605 -0.3561 -2.4333
 7938SOL     OW35449   3.343   1.814   3.745 -0.2899 -0.1854 -0.0220
 7938SOL    HW135450   3.419   1.840   3.797 -0.8165 -0.5320  0.9225
 7938SOL    HW235451   3.283   1.876   3.787 -1.5787 -0.8160 -0.9266
 7939SOL     OW35452   3.269   0.940  14.885 -0.4813 -0.6165 -0.2206
 7939SOL    HW135453   3.303   0.886  14.956  3.8402 -0.1625 -1.9245
 7939SOL    HW235454   3.216   1.006  14.930  0.0593 -0.2481 -0.1258
 7940SOL     OW35455   2.568   2.307   1.971 -0.0285 -0.4024  0.4240
 7940SOL    HW135456   2.533   2.376   2.027  2.7474  1.5781 -0.2592
 7940SOL    HW235457   2.549   2.227   2.019  0.1041 -0.5760  0.1875
 7941SOL     OW35458   4.476   1.345   9.074 -0.4471  0.1563 -0.7575
 7941SOL    HW135459   4.445   1.435   9.078 -0.7982  0.0682 -1.5757
 7941SOL    HW235460   4.560   1.359   9.031  0.5671 -1.7432  0.5811
 7942SOL     OW35461   2.397   2.356  10.270 -0.2283  0.1162  0.2275
 7942SOL    HW135462   2.330   2.324  10.210  1.0203 -1.4423 -0.3091
 7942SOL    HW235463   2.419   2.443  10.236  2.8904 -0.8120 -0.1251
 7943SOL     OW35464   1.019   1.315   8.849 -0.4208  0.1391 -0.5948
 7943SOL    HW135465   1.080   1.245   8.873  0.0804 -0.3972 -3.3889
 7943SOL    HW235466   0.967   1.323   8.929 -0.2749 -1.5910 -0.3188
 7944SOL     OW35467   2.484   0.322   5.847 -0.1227 -0.1376 -0.1840
 7944SOL    HW135468   2.432   0.248   5.879  1.9618 -1.2423  0.6156
 7944SOL    HW235469   2.422   0.357   5.783 -1.2730 -1.8635 -0.0138
 7945SOL     OW35470   1.255   3.508   6.927 -0.0619  0.3129  0.1916
 7945SOL    HW135471   1.287   3.473   7.010 -1.8786 -1.5197  0.1054
 7945SOL    HW235472   1.284   3.599   6.924  0.6701  0.0502 -1.0388
 7946SOL     OW35473   1.275   0.547   8.677 -0.8670 -0.5030  0.2585
 7946SOL    HW135474   1.364   0.545   8.642 -0.4318 -0.1671  1.3624
 7946SOL    HW235475   1.297   0.509   8.761 -0.7611 -1.5948 -0.2620
 7947SOL     OW35476   2.491   2.325   4.860  0.1035 -0.0528 -0.1544
 7947SOL    HW135477   2.468   2.267   4.933 -0.0121  0.3454  0.1240
 7947SOL    HW235478   2.582   2.354   4.869  1.2802 -4.3809  2.2152
 7948SOL     OW35479   3.822   2.565  10.261 -0.4252 -0.1904  0.4431
 7948SOL    HW135480   3.895   2.578  10.201 -0.2460  1.1151  0.9325
 7948SOL    HW235481   3.796   2.485  10.216  0.7009 -0.4153  0.2100
 7949SOL     OW35482   0.351   3.582   0.237  0.1819  0.2182  0.0457
 7949SOL    HW135483   0.256   3.579   0.249  0.0333  2.5410 -0.5863
 7949SOL    HW235484   0.373   3.673   0.258 -1.7630  0.7053 -0.0446
 7950SOL     OW35485   0.123   4.147   4.223  0.3806 -0.3186  0.6708
 7950SOL    HW135486   0.165   4.098   4.152 -0.7603  1.5015 -1.2641
 7950SOL    HW235487   0.204   4.165   4.270  1.4941 -0.8356 -1.0504
 7951SOL     OW35488   3.728   0.233  15.185  0.0996 -0.8764  0.3811
 7951SOL    HW135489   3.650   0.179  15.175 -0.5962 -0.3489  2.8676
 7951SOL    HW235490   3.724   0.248  15.279 -1.6167 -1.2780  0.3760
 7952SOL     OW35491   3.806   0.272   8.848 -0.0257  0.0119  0.4231
 7952SOL    HW135492   3.748   0.196   8.849  0.1383 -0.1447 -1.8530
 7952SOL    HW235493   3.758   0.345   8.887 -0.7075 -0.6216  0.7707
 7953SOL     OW35494   0.825   4.666  11.236 -0.0812 -0.5889 -0.5244
 7953SOL    HW135495   0.886   4.728  11.196  0.0831  0.8461  1.9551
 7953SOL    HW235496   0.784   4.627  11.159  5.1063  0.3529 -3.7863
 7954SOL     OW35497   1.818   4.395   3.750  0.4869 -0.2747  0.5831
 7954SOL    HW135498   1.837   4.489   3.751 -1.1552  0.0710 -0.7308
 7954SOL    HW235499   1.801   4.378   3.657 -0.3343  0.4017  0.6045
 7955SOL     OW35500   2.514   2.532   0.347 -0.6494  0.3899 -0.1860
 7955SOL    HW135501   2.562   2.591   0.406  0.0431 -0.7248  0.3520
 7955SOL    HW235502   2.457   2.492   0.412  1.5513 -1.5532  0.5480
 7956SOL     OW35503   1.604   1.489   9.113  0.2426  0.0864 -0.0669
 7956SOL    HW135504   1.577   1.550   9.044  0.6281 -0.7589 -0.9676
 7956SOL    HW235505   1.520   1.485   9.159  0.8781  2.2061  1.2665
 7957SOL     OW35506   3.756   0.945  14.581  0.2280  0.3671  0.2475
 7957SOL    HW135507   3.711   1.024  14.553  0.7811  0.2787 -0.9157
 7957SOL    HW235508   3.846   0.974  14.567  1.1274 -1.5151  2.0622
 7958SOL     OW35509   4.620   3.852   3.272  0.0639 -0.1308  0.1153
 7958SOL    HW135510   4.607   3.758   3.268 -0.1547 -0.0526 -0.9578
 7958SOL    HW235511   4.571   3.878   3.195  0.1223 -1.8832 -0.4953
 7959SOL     OW35512   4.660   2.333   1.716  0.4399 -0.2206  0.0389
 7959SOL    HW135513   4.723   2.270   1.680  2.9600  1.9073  0.7054
 7959SOL    HW235514   4.587   2.321   1.656 -0.1124 -0.5200  0.7782
 7960SOL     OW35515   3.476   3.432   7.629 -0.2090  0.6392 -0.0741
 7960SOL    HW135516   3.565   3.405   7.604 -0.2947  0.5383 -0.2738
 7960SOL    HW235517   3.497   3.520   7.657  2.4019 -0.3727  1.1240
 7961SOL     OW35518   1.946   3.208   5.525  0.0459  0.1734 -0.2866
 7961SOL    HW135519   1.980   3.232   5.611 -0.0965 -0.1931 -0.1257
 7961SOL    HW235520   2.027   3.223   5.476 -0.7526  1.4647 -1.2036
 7962SOL     OW35521   1.076   2.869   6.893 -0.4112 -0.0118  0.1187
 7962SOL    HW135522   1.036   2.791   6.854  0.3963  0.0962 -0.9031
 7962SOL    HW235523   1.170   2.866   6.878 -0.2732 -3.0788  1.5494
 7963SOL     OW35524   4.674   3.281  10.259 -0.0761 -0.5891  0.6167
 7963SOL    HW135525   4.691   3.219  10.330 -1.4578  1.3886  2.6673
 7963SOL    HW235526   4.667   3.359  10.314  2.6241  0.3847 -0.4313
 7964SOL     OW35527   0.378   3.151  17.362  0.2177  0.1204  0.4370
 7964SOL    HW135528   0.404   3.243  17.351 -0.8092  0.4042  0.3534
 7964SOL    HW235529   0.307   3.142  17.298  2.0911 -2.6599 -1.2427
 7965SOL     OW35530   4.571   2.611   0.095 -0.0388  0.1027 -0.3028
 7965SOL    HW135531   4.482   2.629   0.125 -0.9622 -0.2495 -2.7764
 7965SOL    HW235532   4.592   2.700   0.065 -0.5890  0.7076  1.1365
 7966SOL     OW35533   0.506   4.671   5.380  0.1282 -0.2939  0.2297
 7966SOL    HW135534   0.569   0.002   5.400 -0.6404  0.5829 -0.3656
 7966SOL    HW235535   0.572   4.608   5.350 -0.1621 -0.3660 -0.2597
 7967SOL     OW35536   3.552   0.931   3.367  0.4100  0.2087 -0.5676
 7967SOL    HW135537   3.606   0.902   3.440 -2.5775 -1.4744  0.9436
 7967SOL    HW235538   3.477   0.968   3.415 -0.1238 -0.2680 -1.0351
 7968SOL     OW35539   1.757   2.712  13.366 -0.0229  0.5396 -0.5390
 7968SOL    HW135540   1.838   2.761  13.352 -0.2859  0.8987 -0.7908
 7968SOL    HW235541   1.795   2.624  13.364  0.5017  0.7324  0.8249
 7969SOL     OW35542   4.527   1.632   7.477 -0.5959 -0.5243 -0.5145
 7969SOL    HW135543   4.467   1.576   7.525 -2.6618  1.6162 -0.5908
 7969SOL    HW235544   4.575   1.563   7.432 -0.9177  0.5135 -2.4631
 7970SOL     OW35545   2.700   3.097  16.750 -0.1351 -0.7715 -0.0808
 7970SOL    HW135546   2.693   3.187  16.781  1.4508 -0.5774 -0.2861
 7970SOL    HW235547   2.794   3.101  16.733 -0.5456  1.1643 -1.9337
 7971SOL     OW35548   2.141   3.942   7.112 -0.3388 -0.1234  0.1980
 7971SOL    HW135549   2.228   3.980   7.126 -0.6523  0.8689 -0.5640
 7971SOL    HW235550   2.121   3.998   7.037 -3.4246 -1.0146  0.3571
 7972SOL     OW35551   0.767   1.283   2.349  0.0578 -0.1296  0.2336
 7972SOL    HW135552   0.762   1.198   2.306 -0.4552  1.1650 -2.2649
 7972SOL    HW235553   0.843   1.321   2.304 -1.8144  1.6311 -1.4601
 7973SOL     OW35554   0.546   0.327   4.811  0.2424 -0.0436  0.2662
 7973SOL    HW135555   0.452   0.344   4.817  0.5791  1.3843  1.4075
 7973SOL    HW235556   0.584   0.341   4.898 -0.7271 -0.4023  0.7464
 7974SOL     OW35557   3.135   0.493  11.622 -0.2156 -0.9835 -0.1500
 7974SOL    HW135558   3.086   0.503  11.540  2.4782 -0.0592 -1.6413
 7974SOL    HW235559   3.116   0.409  11.664  1.4069 -1.2290  0.0602
 7975SOL     OW35560   2.499   0.106   3.543 -0.0478  0.4151 -0.1140
 7975SOL    HW135561   2.577   0.156   3.520  2.4819 -4.4858 -2.2231
 7975SOL    HW235562   2.543   0.028   3.578 -1.3048 -0.9341 -1.4818
 7976SOL     OW35563   3.340   4.385   4.775 -0.6901  0.3188  0.2799
 7976SOL    HW135564   3.301   4.376   4.862 -1.5922  1.6599  0.0149
 7976SOL    HW235565   3.270   4.334   4.733  0.2307 -0.4796 -0.3003
 7977SOL     OW35566   1.208   1.699   6.597 -0.1611 -0.3336  0.3136
 7977SOL    HW135567   1.220   1.613   6.637 -1.7616 -0.6258  0.1698
 7977SOL    HW235568   1.298   1.712   6.567 -0.4296  1.1337  0.1628
 7978SOL     OW35569   3.455   0.426   9.873 -0.0226  0.0857 -0.3967
 7978SOL    HW135570   3.424   0.342   9.838  2.6915 -0.5627 -1.2340
 7978SOL    HW235571   3.501   0.458   9.795  0.3527  0.5462  0.0144
 7979SOL     OW35572   0.343   2.478   2.616  0.4947  0.4809  0.0244
 7979SOL    HW135573   0.417   2.525   2.579  1.2143 -1.6312 -1.2293
 7979SOL    HW235574   0.289   2.478   2.537 -1.0243  1.5182  1.0746
 7980SOL     OW35575   1.599   3.624  10.665 -0.0979 -0.0356  0.2677
 7980SOL    HW135576   1.512   3.586  10.670 -0.1451  0.2576  1.9624
 7980SOL    HW235577   1.639   3.563  10.604 -1.9360  0.9680 -1.9320
 7981SOL     OW35578   1.768   0.471   2.434 -0.3509 -0.2228  0.0230
 7981SOL    HW135579   1.756   0.417   2.512 -2.0391 -0.0412 -0.1098
 7981SOL    HW235580   1.734   0.552   2.474  0.4954 -0.7447  1.7892
 7982SOL     OW35581   3.672   0.769   2.727 -0.1845 -0.2850  0.1002
 7982SOL    HW135582   3.588   0.795   2.765  0.6908  1.0137  1.1640
 7982SOL    HW235583   3.678   0.840   2.663 -0.7406 -0.9226 -0.6474
 7983SOL     OW35584   3.886   0.724   4.332 -0.6572 -0.6501  0.5545
 7983SOL    HW135585   3.818   0.698   4.270 -1.0737  3.1608 -0.5970
 7983SOL    HW235586   3.921   0.640   4.361  2.1023  0.7175  1.2812
 7984SOL     OW35587   1.507   2.208   5.202 -0.8741  0.1923  0.7945
 7984SOL    HW135588   1.545   2.268   5.267 -2.2783  0.6898  1.1482
 7984SOL    HW235589   1.541   2.236   5.117 -1.1145 -0.0681  0.6146
 7985SOL     OW35590   2.723   1.615   5.551 -0.8726  0.4035  0.0223
 7985SOL    HW135591   2.800   1.575   5.591 -1.2257 -1.3793 -1.1062
 7985SOL    HW235592   2.766   1.646   5.471  0.5435 -0.6390  0.3862
 7986SOL     OW35593   1.060   3.057   0.117 -0.2249  0.0534  0.1848
 7986SOL    HW135594   1.002   2.987   0.087 -2.7897  1.8095  1.0368
 7986SOL    HW235595   1.077   3.102   0.035  1.2286  0.0985  0.5149
 7987SOL     OW35596   4.510   0.714   7.549  0.5583 -0.3953  0.2735
 7987SOL    HW135597   4.565   0.767   7.605  1.6125 -0.2022 -0.9306
 7987SOL    HW235598   4.447   0.668   7.605  0.6786  0.4209  1.0580
 7988SOL     OW35599   0.432   0.750   6.428  0.2388  0.3013  0.1386
 7988SOL    HW135600   0.470   0.739   6.515  0.1922  0.0273  0.1230
 7988SOL    HW235601   0.407   0.660   6.406  0.6700  0.1308  0.3592
 7989SOL     OW35602   0.760   3.122  17.502  0.6693 -0.3385 -0.2079
 7989SOL    HW135603   0.690   3.187  17.510  1.4927  0.4754  0.3604
 7989SOL    HW235604   0.838   3.150  17.550  0.0320 -0.4302  0.8762
 7990SOL     OW35605   1.786   3.215  13.524 -0.8636  0.1996  0.1674
 7990SOL    HW135606   1.773   3.170  13.608  2.3669 -2.2234 -0.6306
 7990SOL    HW235607   1.837   3.292  13.550 -1.3948  1.8323 -3.7218
 7991SOL     OW35608   0.068   3.162  11.391 -0.3532 -0.3964  0.4258
 7991SOL    HW135609   0.035   3.241  11.347 -0.4160 -0.7072 -0.0818
 7991SOL    HW235610   0.012   3.092  11.357 -1.3187 -0.3042  1.8279
 7992SOL     OW35611   0.356   2.135   4.180 -0.4222  0.1327  0.5209
 7992SOL    HW135612   0.392   2.047   4.179 -0.4456  0.1086  1.8521
 7992SOL    HW235613   0.301   2.135   4.258  1.2206  0.7537  1.6847
 7993SOL     OW35614   3.508   3.033   2.836  0.0063 -0.2484 -0.2044
 7993SOL    HW135615   3.550   2.992   2.761 -0.7875  2.1799 -1.9758
 7993SOL    HW235616   3.461   3.101   2.787 -1.6541 -2.3607 -1.5220
 7994SOL     OW35617   3.360   1.934  10.379 -0.2021  0.1009 -0.5204
 7994SOL    HW135618   3.326   2.023  10.368 -2.3986 -0.6144  0.4684
 7994SOL    HW235619   3.360   1.932  10.474 -0.7345 -0.5483 -0.5298
 7995SOL     OW35620   1.979   1.072  16.371 -0.3718  0.0444 -0.0034
 7995SOL    HW135621   1.934   0.987  16.368 -0.4349  0.0646  0.3079
 7995SOL    HW235622   1.930   1.109  16.444 -0.9955 -1.1107  0.1723
 7996SOL     OW35623   4.138   0.565   8.096  0.1009 -0.2117  0.4620
 7996SOL    HW135624   4.096   0.488   8.058 -0.6773 -0.3651  1.6378
 7996SOL    HW235625   4.145   0.612   8.012 -0.2167 -0.1151  0.4910
 7997SOL     OW35626   4.488   2.733   3.570  0.3041 -0.0991 -0.3059
 7997SOL    HW135627   4.467   2.723   3.478 -2.7604 -0.9303  0.4802
 7997SOL    HW235628   4.489   2.827   3.588  0.5573 -0.2300  0.3847
 7998SOL     OW35629   0.911   4.099   1.330 -0.0266 -0.5306 -0.1031
 7998SOL    HW135630   0.956   4.069   1.410 -1.1131  2.8634  1.7702
 7998SOL    HW235631   0.832   4.144   1.359  0.5969  0.2619  0.3600
 7999SOL     OW35632   3.515   2.280   2.946 -0.2858  0.2484 -0.1098
 7999SOL    HW135633   3.603   2.317   2.950 -0.2873  0.1574  0.8277
 7999SOL    HW235634   3.485   2.325   2.867 -1.0041  0.1922  0.1213
 8000SOL     OW35635   1.197   0.829   3.831 -0.3111  0.7341 -0.3924
 8000SOL    HW135636   1.152   0.748   3.809  0.2946  0.4452 -0.5624
 8000SOL    HW235637   1.119   0.881   3.854  1.7727  3.0115  1.5309
 8001SOL     OW35638   1.225   4.730   6.639  0.1495  0.1189 -0.6922
 8001SOL    HW135639   1.237   0.061   6.573  0.8984 -1.5931 -2.3721
 8001SOL    HW235640   1.308   4.684   6.628  0.2402  0.2193 -0.4168
 8002SOL     OW35641   3.459   3.976   0.448 -0.0525 -0.6565 -0.4038
 8002SOL    HW135642   3.503   3.932   0.375 -0.5761  0.5482 -1.4372
 8002SOL    HW235643   3.367   3.954   0.431 -0.0442  0.5890 -1.9814
 8003SOL     OW35644   0.788   3.706   0.368 -0.3358  0.0073 -0.6850
 8003SOL    HW135645   0.843   3.712   0.446 -0.6968  1.3899 -0.5367
 8003SOL    HW235646   0.832   3.630   0.329 -0.8156 -1.0648  0.9066
 8004SOL     OW35647   3.426   0.121   7.101  0.3332  0.3050 -0.5212
 8004SOL    HW135648   3.470   0.135   7.185 -2.0958  0.9720  0.6604
 8004SOL    HW235649   3.473   0.172   7.036  2.8466 -1.4046 -0.0357
 8005SOL     OW35650   1.566   2.246   9.799  0.1798  0.3823  0.1879
 8005SOL    HW135651   1.591   2.156   9.818  0.7886  0.4444 -0.3361
 8005SOL    HW235652   1.620   2.255   9.720  0.2474 -2.7752 -0.0922
 8006SOL     OW35653   2.465   3.654   0.878 -0.3621 -0.1082 -0.2314
 8006SOL    HW135654   2.415   3.619   0.952 -0.9828 -0.5122 -0.8348
 8006SOL    HW235655   2.405   3.723   0.849  1.9518  1.8782 -0.1736
 8007SOL     OW35656   3.150   1.030   9.598 -0.3226 -0.7126 -1.0236
 8007SOL    HW135657   3.095   0.993   9.529 -1.8027  2.1924 -1.4039
 8007SOL    HW235658   3.204   1.089   9.546 -2.2695  1.6047 -0.4257
 8008SOL     OW35659   3.794   2.033   0.728  0.4722 -0.0267 -0.1751
 8008SOL    HW135660   3.887   2.055   0.730  0.1312  1.5116 -1.2005
 8008SOL    HW235661   3.775   2.047   0.821 -0.0522  1.7561 -0.5503
 8009SOL     OW35662   3.323   1.707  14.552 -0.0845  0.0884  0.1028
 8009SOL    HW135663   3.392   1.687  14.488  0.8889 -0.4334  1.3236
 8009SOL    HW235664   3.364   1.679  14.634 -0.0626  0.2786  0.1574
 8010SOL     OW35665   3.112   4.475   2.596  1.0422  0.3189  0.0141
 8010SOL    HW135666   3.056   4.483   2.673  0.6413 -0.6886 -0.1847
 8010SOL    HW235667   3.069   4.403   2.550  0.5682  0.3455  0.4124
 8011SOL     OW35668   0.143   2.729  14.511 -0.0532  1.2570 -0.0024
 8011SOL    HW135669   0.170   2.701  14.598 -0.4384 -1.2822 -0.6882
 8011SOL    HW235670   0.117   2.646  14.470  0.1077  1.0736  0.2673
 8012SOL     OW35671   2.252   2.223   7.904  0.3376  0.1904 -1.0737
 8012SOL    HW135672   2.290   2.276   7.975  1.2299 -2.1046  0.1724
 8012SOL    HW235673   2.259   2.279   7.827 -0.1821  0.5034 -0.8936
 8013SOL     OW35674   1.134   3.281   7.163 -0.5176 -0.4742  0.8601
 8013SOL    HW135675   1.205   3.339   7.192  0.5775 -1.6250  0.4444
 8013SOL    HW235676   1.121   3.228   7.242  0.9963 -0.1306  1.3410
 8014SOL     OW35677   2.094   1.998   4.209  0.2452 -0.1653 -0.1911
 8014SOL    HW135678   2.008   1.956   4.218  0.3397 -0.8009 -2.3570
 8014SOL    HW235679   2.126   1.982   4.298  0.0861 -2.5245 -0.5715
 8015SOL     OW35680   1.569   2.301   0.313 -0.3376 -0.2461  0.0250
 8015SOL    HW135681   1.525   2.238   0.369 -0.6217 -0.3211 -0.2805
 8015SOL    HW235682   1.629   2.342   0.375  0.7786  0.1105 -1.2977
 8016SOL     OW35683   3.519   4.543  17.053 -0.4536  0.4792 -0.2490
 8016SOL    HW135684   3.473   4.624  17.074 -0.2970  0.1969  1.1557
 8016SOL    HW235685   3.580   4.562  16.981  0.2481 -1.3839 -0.1517
 8017SOL     OW35686   3.187   3.795   0.204 -0.5016 -0.8537  0.1707
 8017SOL    HW135687   3.192   3.700   0.202  2.4972 -0.7167  1.4127
 8017SOL    HW235688   3.159   3.816   0.114 -3.8572 -1.3827  1.1111
 8018SOL     OW35689   1.921   2.406   8.849 -0.7684 -0.3744  0.9810
 8018SOL    HW135690   1.884   2.477   8.902 -0.1446  1.2522 -0.7698
 8018SOL    HW235691   1.899   2.333   8.907 -3.1765 -2.4329 -2.5038
 8019SOL     OW35692   2.180   3.676  15.736 -0.0136  0.5345  0.0498
 8019SOL    HW135693   2.224   3.667  15.651 -0.2771  0.9528 -0.1279
 8019SOL    HW235694   2.120   3.602  15.740  0.7666 -0.0473  1.1402
 8020SOL     OW35695   0.831   0.327   5.317  0.1427 -0.3544 -0.2746
 8020SOL    HW135696   0.816   0.416   5.348 -0.8817 -0.0622 -1.6185
 8020SOL    HW235697   0.927   0.318   5.317  0.2778  1.1029  2.3243
 8021SOL     OW35698   0.544   1.056   1.360 -0.1664  0.1666  0.1088
 8021SOL    HW135699   0.470   1.096   1.406 -1.2997 -1.3023 -0.4321
 8021SOL    HW235700   0.496   1.050   1.277 -1.0356  0.9718  0.5465
 8022SOL     OW35701   4.311   1.485   6.826 -0.3538  0.1687 -0.6085
 8022SOL    HW135702   4.377   1.426   6.861 -1.9999 -1.9645 -1.1488
 8022SOL    HW235703   4.251   1.507   6.896 -0.1806 -1.3297 -0.0049
 8023SOL     OW35704   0.077   1.073   6.093 -0.4344  0.1735 -0.4670
 8023SOL    HW135705   0.150   1.096   6.036  1.1329  1.3268  2.0576
 8023SOL    HW235706   0.028   1.156   6.089 -2.8234 -1.2347 -0.8082
 8024SOL     OW35707   0.468   3.891  16.468  0.0410 -0.0070  0.1180
 8024SOL    HW135708   0.527   3.959  16.437 -2.0376  0.4374 -2.8794
 8024SOL    HW235709   0.434   3.927  16.551  1.1913 -1.6007  1.2592
 8025SOL     OW35710   3.447   1.769   4.018  0.3998  0.2367 -0.1206
 8025SOL    HW135711   3.530   1.721   4.017  0.0637 -0.2821 -2.0241
 8025SOL    HW235712   3.386   1.702   4.050  0.7437  0.5897  1.2935
 8026SOL     OW35713   3.361   1.924   4.676  0.0195 -0.0922 -0.1950
 8026SOL    HW135714   3.270   1.898   4.667  0.2571 -0.2041 -2.2417
 8026SOL    HW235715   3.388   1.872   4.752 -0.8881 -0.6497 -0.2562
 8027SOL     OW35716   4.385   2.060   9.106 -0.4041  0.3295  0.0532
 8027SOL    HW135717   4.472   2.023   9.096 -0.0678  1.3346 -0.8125
 8027SOL    HW235718   4.365   2.081   9.015  1.3171  1.0538 -0.1576
 8028SOL     OW35719   1.464   4.513   6.872 -0.5292  0.1198  0.0005
 8028SOL    HW135720   1.519   4.591   6.879  1.7780 -1.5774  0.5912
 8028SOL    HW235721   1.423   4.528   6.787  0.1239  0.0697 -0.3235
 8029SOL     OW35722   3.930   0.856   5.882 -0.2793  0.0927  0.2006
 8029SOL    HW135723   4.019   0.893   5.880  0.1106 -0.8745 -0.0526
 8029SOL    HW235724   3.952   0.788   5.945 -0.2300 -0.3663 -0.3051
 8030SOL     OW35725   0.431   3.183   3.052  0.6460 -0.5733 -0.1691
 8030SOL    HW135726   0.523   3.156   3.059  1.3647  1.9576  0.3619
 8030SOL    HW235727   0.408   3.154   3.140  1.9067  0.2438  0.4275
 8031SOL     OW35728   1.930   0.334   3.485  0.0122 -0.5430 -0.0819
 8031SOL    HW135729   1.939   0.430   3.486 -0.1406 -0.5136 -1.1554
 8031SOL    HW235730   1.989   0.306   3.555 -1.2486 -2.5963  0.1422
 8032SOL     OW35731   0.350   3.549   6.643  0.1757 -0.3967 -0.3671
 8032SOL    HW135732   0.397   3.613   6.590 -1.4191  0.4837 -0.7139
 8032SOL    HW235733   0.412   3.529   6.713  0.5453 -0.9061 -0.8398
 8033SOL     OW35734   1.897   4.683   1.071  0.1368 -0.0908  0.0884
 8033SOL    HW135735   1.965   4.654   1.132 -0.6027  0.3320  1.1138
 8033SOL    HW235736   1.848   4.601   1.060 -2.4812  1.7276 -1.8284
 8034SOL     OW35737   4.670   0.559   4.009 -0.0949 -0.1872 -0.0358
 8034SOL    HW135738   4.638   0.648   4.027  0.6473  0.0766  0.0033
 8034SOL    HW235739   4.616   0.532   3.935 -1.4084 -0.1005  0.8869
 8035SOL     OW35740   3.876   4.176   9.798 -0.2533  0.2056  0.1020
 8035SOL    HW135741   3.937   4.164   9.725 -1.3096  0.9887 -0.9095
 8035SOL    HW235742   3.908   4.260   9.833 -0.0114  0.8846 -1.7320
 8036SOL     OW35743   2.448   0.114   6.956 -0.2505  0.0431 -0.6618
 8036SOL    HW135744   2.500   0.192   6.936 -0.0385  0.0340 -0.1489
 8036SOL    HW235745   2.366   0.115   6.906 -0.2715  0.4311 -0.6162
 8037SOL     OW35746   2.054   1.187   2.940  0.1210  0.6072 -0.0074
 8037SOL    HW135747   2.079   1.122   2.874 -0.7568 -0.2336  0.4967
 8037SOL    HW235748   2.128   1.187   3.001 -0.3096 -1.5634  0.5061
 8038SOL     OW35749   3.811   0.446   4.093  0.1297  0.0527  0.6281
 8038SOL    HW135750   3.879   0.496   4.048 -1.4125  0.9946 -0.6566
 8038SOL    HW235751   3.741   0.510   4.101  0.8542  0.7653  1.3245
 8039SOL     OW35752   0.117   2.049   8.090  0.4772  0.0666 -0.1424
 8039SOL    HW135753   0.143   2.015   8.176 -2.0255  1.4859  1.1874
 8039SOL    HW235754   0.088   1.970   8.045 -0.9424 -0.4419  1.6597
 8040SOL     OW35755   2.372   1.005  15.734  0.1068  0.6784  0.1551
 8040SOL    HW135756   2.393   0.945  15.663  1.8328 -0.2755  1.4736
 8040SOL    HW235757   2.327   1.073  15.683 -2.5904 -1.6398 -0.5507
 8041SOL     OW35758   3.139   0.017  14.579 -0.7325  0.2726 -0.0189
 8041SOL    HW135759   3.142   0.063  14.495  3.3514 -0.2941 -0.1739
 8041SOL    HW235760   3.135   0.086  14.646 -0.5338 -0.7249  1.0201
 8042SOL     OW35761   0.080   2.717   7.887  0.1026 -0.0329  0.4045
 8042SOL    HW135762   0.062   2.664   7.809  0.2727 -0.2126  0.4873
 8042SOL    HW235763   0.038   2.654   7.945 -0.7894  1.3984  1.3000
 8043SOL     OW35764   2.686   4.483   5.748  0.1088 -0.1731 -0.6154
 8043SOL    HW135765   2.595   4.508   5.767  0.9917  2.1088  0.6635
 8043SOL    HW235766   2.724   4.569   5.767 -1.8417  0.2810  1.3431
 8044SOL     OW35767   3.603   0.640   8.882 -0.4950 -0.3815 -0.6575
 8044SOL    HW135768   3.522   0.640   8.934 -0.9471  0.8347 -1.3440
 8044SOL    HW235769   3.598   0.710   8.817  0.8031  0.4890  0.1903
 8045SOL     OW35770   2.543   4.135   4.979  0.2023 -0.9071 -0.2239
 8045SOL    HW135771   2.525   4.053   4.933 -0.1660  0.2153 -2.0494
 8045SOL    HW235772   2.636   4.127   4.999  0.4055  0.0129 -0.8245
 8046SOL     OW35773   2.730   1.268   4.195  0.2655  0.1438 -0.5478
 8046SOL    HW135774   2.729   1.206   4.122  1.1790  0.2114 -0.6157
 8046SOL    HW235775   2.717   1.214   4.274 -0.6553  1.5801  0.2789
 8047SOL     OW35776   1.130   1.180  17.229  0.0156 -0.3100  0.3066
 8047SOL    HW135777   1.180   1.185  17.310 -0.0928  0.1346  0.3485
 8047SOL    HW235778   1.054   1.233  17.255 -0.6426 -0.7582 -0.7027
 8048SOL     OW35779   3.422   4.618   3.985 -0.9613 -0.2539 -0.0008
 8048SOL    HW135780   3.484   4.652   4.049 -1.9592  0.8495  0.3960
 8048SOL    HW235781   3.343   4.661   4.017  0.8074  0.1181  3.8608
 8049SOL     OW35782   0.789   4.474  10.995 -0.3319  0.0879  0.3979
 8049SOL    HW135783   0.884   4.477  10.990 -0.4042 -2.0410 -2.2889
 8049SOL    HW235784   0.769   4.404  10.933 -0.9199 -0.4691  1.2114
 8050SOL     OW35785   0.344   4.362  17.234  0.1354 -0.3353 -0.3198
 8050SOL    HW135786   0.361   4.394  17.145  2.1762 -0.7553 -0.0745
 8050SOL    HW235787   0.331   4.449  17.273 -0.2107 -0.5816  0.1121
 8051SOL     OW35788   4.680   0.582   3.612 -0.6770 -0.0118 -0.4502
 8051SOL    HW135789   4.683   0.624   3.526  3.4635 -1.3356 -0.9540
 8051SOL    HW235790   0.001   0.642   3.657  2.4179 -1.1482 -2.9609
 8052SOL     OW35791   3.134   2.299   7.988 -0.4741  0.7135 -0.1892
 8052SOL    HW135792   3.138   2.361   7.914 -1.8163  1.1436  0.0870
 8052SOL    HW235793   3.219   2.302   8.031 -1.1147 -0.5879  1.1519
 8053SOL     OW35794   2.542   0.664   0.763 -0.6707 -0.4917  0.5915
 8053SOL    HW135795   2.493   0.727   0.816 -1.5804 -0.8600  0.1854
 8053SOL    HW235796   2.515   0.580   0.801 -2.7344 -1.1199 -2.2809
 8054SOL     OW35797   3.940   2.540   5.735  0.0071 -0.3116 -0.7392
 8054SOL    HW135798   4.022   2.587   5.751 -0.7241 -0.3299  3.2519
 8054SOL    HW235799   3.913   2.508   5.821  1.1159 -1.0889 -0.6782
 8055SOL     OW35800   3.416   1.870  10.658  0.3401 -0.5811  0.1105
 8055SOL    HW135801   3.502   1.831  10.675  1.1075  1.0874  0.1438
 8055SOL    HW235802   3.361   1.812  10.710 -0.4463 -1.3239 -1.5949
 8056SOL     OW35803   4.349   2.643  15.100 -0.0181  0.2441  0.3866
 8056SOL    HW135804   4.309   2.558  15.115  2.1998 -0.2238  3.5215
 8056SOL    HW235805   4.404   2.646  15.178  0.5551 -0.2220 -0.0043
 8057SOL     OW35806   3.656   4.354  15.695 -0.5973 -0.1669 -0.3712
 8057SOL    HW135807   3.672   4.276  15.641  0.7518 -1.0221  1.2766
 8057SOL    HW235808   3.596   4.395  15.632  0.1904 -1.6228 -2.0623
 8058SOL     OW35809   3.345   1.584   3.358 -0.1841  0.1041  0.0332
 8058SOL    HW135810   3.360   1.568   3.451  5.0649  1.0241 -0.6772
 8058SOL    HW235811   3.328   1.677   3.369  1.5382  0.4292 -0.0338
 8059SOL     OW35812   3.386   0.970   7.397 -0.0415  0.2208 -0.0466
 8059SOL    HW135813   3.469   0.946   7.357  0.5181  2.1769 -0.0516
 8059SOL    HW235814   3.348   0.888   7.428  1.2534 -1.0705 -1.9134
 8060SOL     OW35815   0.857   0.511  13.784 -0.2145 -0.0998 -0.2615
 8060SOL    HW135816   0.910   0.444  13.827  0.2517  2.3474  3.0266
 8060SOL    HW235817   0.828   0.454  13.713 -1.8586 -1.1570  1.2723
 8061SOL     OW35818   1.906   1.679   5.764 -0.1458 -0.1017 -0.5801
 8061SOL    HW135819   1.886   1.752   5.706  3.4721  0.2466 -1.4204
 8061SOL    HW235820   1.847   1.702   5.835 -0.2092 -0.4133 -0.5314
 8062SOL     OW35821   1.893   4.215   8.344 -0.3414 -0.4776  0.0079
 8062SOL    HW135822   1.868   4.232   8.434 -0.3006  0.8590 -0.2314
 8062SOL    HW235823   1.976   4.261   8.329  0.8753 -1.2958  4.3802
 8063SOL     OW35824   0.473   4.541   9.759 -0.2685 -0.3264 -0.4729
 8063SOL    HW135825   0.545   4.485   9.786  0.3057  0.4015 -0.5188
 8063SOL    HW235826   0.512   4.624   9.731 -0.8314  0.2331  0.4095
 8064SOL     OW35827   1.325   3.035  10.879  0.8793 -0.3530 -0.0861
 8064SOL    HW135828   1.307   3.006  10.790  1.3517 -0.4132 -0.1589
 8064SOL    HW235829   1.363   2.954  10.914 -0.7212 -0.9336  0.3132
 8065SOL     OW35830   0.354   3.126   6.114  0.1326  0.0531 -0.5657
 8065SOL    HW135831   0.328   3.183   6.042 -0.9052 -0.0838 -0.3048
 8065SOL    HW235832   0.403   3.180   6.176 -0.6721 -0.9016  0.8938
 8066SOL     OW35833   3.228   3.367  10.090  0.4159  0.5074 -0.4722
 8066SOL    HW135834   3.305   3.360  10.146 -0.9985 -2.8856  1.0278
 8066SOL    HW235835   3.257   3.321  10.011  0.2104  0.8480 -0.7473
 8067SOL     OW35836   1.808   1.496   4.940 -0.1794 -0.0263 -0.0256
 8067SOL    HW135837   1.891   1.483   4.894  1.2708  3.7380  1.5961
 8067SOL    HW235838   1.809   1.425   5.004 -2.0346  0.6896  0.7956
 8068SOL     OW35839   3.316   1.572   3.630  0.4064  0.0401 -1.0986
 8068SOL    HW135840   3.359   1.629   3.693  0.0954 -0.0099 -0.8400
 8068SOL    HW235841   3.238   1.622   3.606  0.1799  0.9810  1.6718
 8069SOL     OW35842   0.129   3.619   4.761 -0.4495  0.5081  0.1091
 8069SOL    HW135843   0.034   3.615   4.765 -0.3268 -2.0935 -0.1297
 8069SOL    HW235844   0.159   3.561   4.831 -0.5091 -1.5601 -1.5962
 8070SOL     OW35845   3.800   1.152   7.148 -0.4803 -0.0728 -0.7919
 8070SOL    HW135846   3.737   1.088   7.113  0.4904 -1.3847 -0.1378
 8070SOL    HW235847   3.877   1.097   7.162 -0.7959  0.3000  2.3928
 8071SOL     OW35848   4.045   0.972   1.492  0.2085 -0.2714  0.3224
 8071SOL    HW135849   4.117   1.009   1.543 -0.9861  1.7965  0.5070
 8071SOL    HW235850   4.098   0.910   1.441 -2.0784 -1.3159 -0.7921
 8072SOL     OW35851   2.019   4.675  11.786  0.3053 -0.1289 -0.4810
 8072SOL    HW135852   2.018   0.015  11.843  1.9321  0.7802 -1.6829
 8072SOL    HW235853   1.926   4.662  11.770 -0.1693 -1.2335  3.1787
 8073SOL     OW35854   2.020   0.274   8.857 -0.5686  0.0777 -0.1808
 8073SOL    HW135855   1.962   0.214   8.811  0.5433 -1.0464 -0.1243
 8073SOL    HW235856   1.965   0.310   8.926 -2.2709 -1.7629 -0.5809
 8074SOL     OW35857   4.372   0.892   2.282  0.1589  0.4988  0.1414
 8074SOL    HW135858   4.346   0.972   2.328 -0.7330 -0.0498  0.5834
 8074SOL    HW235859   4.308   0.892   2.211  1.0093 -0.0558 -0.6158
 8075SOL     OW35860   4.111   0.356   1.614 -0.0416 -0.2271  0.2487
 8075SOL    HW135861   4.169   0.424   1.579  1.5678 -1.4565  0.5424
 8075SOL    HW235862   4.116   0.364   1.709  1.1280  0.3814  0.1486
 8076SOL     OW35863   1.976   1.606   7.782  0.1072 -0.8798  0.3705
 8076SOL    HW135864   2.043   1.564   7.729 -0.7573 -0.1824 -1.2642
 8076SOL    HW235865   2.025   1.636   7.859  0.7735  0.0609 -0.4201
 8077SOL     OW35866   3.671   0.500  11.806  0.1851  0.6459  0.7094
 8077SOL    HW135867   3.662   0.407  11.787 -1.3586  1.0508 -0.5192
 8077SOL    HW235868   3.612   0.531  11.738 -0.7556 -2.0379  0.3140
 8078SOL     OW35869   0.299   1.654  11.095 -0.5863 -0.2190 -0.1805
 8078SOL    HW135870   0.261   1.566  11.098 -0.5637 -0.2553 -0.9126
 8078SOL    HW235871   0.390   1.627  11.106 -0.0477  1.2221 -1.0892
 8079SOL     OW35872   2.145   0.685   7.055  0.2689  0.3866 -0.1790
 8079SOL    HW135873   2.076   0.738   7.015 -1.2750 -1.3545  0.1394
 8079SOL    HW235874   2.114   0.601   7.021 -0.4542  0.7751 -0.4758
 8080SOL     OW35875   0.585   0.031  10.785 -0.4843  0.3037 -0.4271
 8080SOL    HW135876   0.509   4.725  10.746 -1.1183 -0.1703  1.3554
 8080SOL    HW235877   0.582   4.733  10.873  0.0058 -0.9805 -0.9368
 8081SOL     OW35878   2.107   1.463   7.595  0.4294 -0.2421 -0.0563
 8081SOL    HW135879   2.201   1.469   7.611  0.6769  1.2015 -2.1242
 8081SOL    HW235880   2.092   1.369   7.608 -0.0480 -0.0850  0.5515
 8082SOL     OW35881   2.968   2.115   0.558  0.2082 -0.2297  0.0934
 8082SOL    HW135882   2.880   2.091   0.526 -0.8441  1.7125  1.5316
 8082SOL    HW235883   2.977   2.209   0.544  1.8020 -0.3585  0.2645
 8083SOL     OW35884   1.297   0.219   3.678 -0.2237  0.0022  0.2131
 8083SOL    HW135885   1.286   0.210   3.772 -0.4599  1.0468  0.2872
 8083SOL    HW235886   1.295   0.314   3.667 -0.9483 -0.1568 -1.0338
 8084SOL     OW35887   1.157   0.998  17.456  0.0794  0.1409  0.3307
 8084SOL    HW135888   1.147   1.058  17.529 -0.3345  0.4734  0.0000
 8084SOL    HW235889   1.239   1.035  17.424 -1.5492  3.7996  0.4258
 8085SOL     OW35890   3.584   2.321   3.637 -0.8774 -0.0427 -0.3211
 8085SOL    HW135891   3.528   2.382   3.589 -0.5928  1.1107  0.8172
 8085SOL    HW235892   3.607   2.260   3.567  0.2787  1.6194 -1.4082
 8086SOL     OW35893   3.950   4.404   6.405 -0.2855  0.1852  0.1140
 8086SOL    HW135894   3.918   4.469   6.467 -1.6771 -2.5577  2.2446
 8086SOL    HW235895   3.998   4.356   6.473  2.0183 -0.6576 -2.1040
 8087SOL     OW35896   4.180   4.033   7.845  0.1220  0.1332  0.4068
 8087SOL    HW135897   4.143   4.120   7.827  1.4503  1.0987  2.3100
 8087SOL    HW235898   4.130   3.988   7.777 -0.2381  1.2857 -0.0927
 8088SOL     OW35899   3.335   3.030   2.323  0.4795  0.7508  0.3769
 8088SOL    HW135900   3.373   3.086   2.256 -1.6515  2.0653  0.2680
 8088SOL    HW235901   3.253   3.078   2.332 -0.4656 -0.5265 -1.6594
 8089SOL     OW35902   0.141   0.436  17.475  0.7981  0.3306 -0.1939
 8089SOL    HW135903   0.178   0.524  17.469 -1.1680  1.2957  1.7327
 8089SOL    HW235904   0.079   0.440  17.547 -0.0596 -0.6275 -0.8748
 8090SOL     OW35905   2.664   1.120  14.641  0.1454  0.6789 -0.1514
 8090SOL    HW135906   2.582   1.154  14.677 -0.3968  0.3351 -1.0832
 8090SOL    HW235907   2.733   1.171  14.684  0.1044 -1.2588  2.2289
 8091SOL     OW35908   3.513   1.602  17.027 -0.1724  0.3763  0.1715
 8091SOL    HW135909   3.449   1.555  17.081 -1.5979  1.3668 -0.6853
 8091SOL    HW235910   3.466   1.620  16.946 -1.4830 -1.0495  0.6140
 8092SOL     OW35911   1.787   4.479   2.218 -0.0046 -0.4986  0.0320
 8092SOL    HW135912   1.800   4.405   2.159 -0.9108  1.2035 -2.2861
 8092SOL    HW235913   1.767   4.551   2.158  1.7729  0.7801  0.9541
 8093SOL     OW35914   2.561   1.763   5.192  0.0332 -0.1165  0.4930
 8093SOL    HW135915   2.474   1.729   5.213  0.5448 -0.9223  1.3173
 8093SOL    HW235916   2.568   1.812   5.273  0.4589 -2.8630  2.1135
 8094SOL     OW35917   0.677   0.070   6.225 -0.2893 -0.1311 -0.9034
 8094SOL    HW135918   0.624   0.118   6.161 -0.1815  0.3680 -0.6229
 8094SOL    HW235919   0.755   0.041   6.178 -0.0065 -1.1652  0.1829
 8095SOL     OW35920   3.036   3.298  14.800 -0.3228 -0.6936  0.3176
 8095SOL    HW135921   3.010   3.217  14.845  1.5615 -0.9839  0.8995
 8095SOL    HW235922   2.960   3.350  14.776  0.2142 -0.1711 -0.2228
 8096SOL     OW35923   1.233   3.977   2.001  0.0563 -0.6786  0.1699
 8096SOL    HW135924   1.185   4.060   2.007  1.3266 -0.0547  1.7194
 8096SOL    HW235925   1.169   3.913   2.029 -0.6942 -1.3004 -2.9683
 8097SOL     OW35926   0.518   0.836   3.614  0.3584  0.2100 -0.2188
 8097SOL    HW135927   0.476   0.821   3.699 -0.2747  1.6521 -0.2789
 8097SOL    HW235928   0.454   0.864   3.547  0.0018 -2.1068 -0.8481
 8098SOL     OW35929   3.865   3.640   2.099 -0.2447  0.4645 -0.1451
 8098SOL    HW135930   3.946   3.663   2.145  0.2184  0.6881 -1.0821
 8098SOL    HW235931   3.876   3.545   2.100  1.3609  0.6364 -3.5994
 8099SOL     OW35932   1.462   2.213   9.247 -0.3650  0.1119 -0.2377
 8099SOL    HW135933   1.378   2.171   9.226 -1.1881  0.6820  1.8692
 8099SOL    HW235934   1.502   2.161   9.317  1.1597  1.4643 -0.1074
 8100SOL     OW35935   4.725   4.496  12.656 -0.4912 -0.4440  0.1053
 8100SOL    HW135936   0.020   4.459  12.573  1.6548  1.1681  0.2357
 8100SOL    HW235937   4.670   4.423  12.684  1.0061 -1.3353  0.7501
 8101SOL     OW35938   3.312   1.627  11.669 -0.0980  0.2566  0.2179
 8101SOL    HW135939   3.355   1.542  11.662  1.3075  1.0144 -0.5095
 8101SOL    HW235940   3.390   1.678  11.692 -0.9773  1.4733  0.5155
 8102SOL     OW35941   4.437   3.150   8.304  0.1819 -0.4871  0.4562
 8102SOL    HW135942   4.504   3.125   8.241  1.3317 -1.1290  1.9167
 8102SOL    HW235943   4.480   3.219   8.355 -1.9291  1.6134 -0.6469
 8103SOL     OW35944   4.261   2.151  17.316  0.6457  0.1821 -0.0266
 8103SOL    HW135945   4.301   2.133  17.231  2.4962 -0.9824  1.1118
 8103SOL    HW235946   4.304   2.084  17.369 -2.0880  0.5110  2.5998
 8104SOL     OW35947   2.791   0.589   0.676 -0.2567 -0.4821 -0.1780
 8104SOL    HW135948   2.835   0.667   0.708 -0.5527  0.7755 -2.8078
 8104SOL    HW235949   2.711   0.618   0.720 -0.7242 -1.2457 -0.5212
 8105SOL     OW35950   2.852   0.619   2.172 -0.0189  0.6437 -0.1964
 8105SOL    HW135951   2.877   0.528   2.180  1.7309  1.4288  3.2745
 8105SOL    HW235952   2.793   0.635   2.246  0.7435  0.2643  0.4835
 8106SOL     OW35953   0.146   4.111   8.782  0.1487 -0.8188 -0.2835
 8106SOL    HW135954   0.067   4.156   8.813  0.3532  0.3849 -1.5279
 8106SOL    HW235955   0.215   4.140   8.841 -0.9781 -1.6373  1.4281
 8107SOL     OW35956   0.130   2.634   5.404 -0.5690  0.3052  0.0048
 8107SOL    HW135957   0.111   2.564   5.341  0.2446 -0.5913  0.7704
 8107SOL    HW235958   0.042   2.658   5.433 -0.9654 -0.3754 -0.6181
 8108SOL     OW35959   1.400   0.530   3.966 -0.2987  0.0989  0.1030
 8108SOL    HW135960   1.379   0.602   4.027 -3.4860 -1.4085  0.8094
 8108SOL    HW235961   1.384   0.451   4.017  2.5991 -0.5063  0.0519
 8109SOL     OW35962   3.687   2.263  16.795  0.2331 -0.5512 -0.0470
 8109SOL    HW135963   3.649   2.186  16.752  0.4329 -0.4739 -0.3575
 8109SOL    HW235964   3.625   2.330  16.764  1.2714  0.4975  0.1443
 8110SOL     OW35965   0.848   0.667   8.736  0.2860  0.2576  0.5496
 8110SOL    HW135966   0.856   0.739   8.674  1.5393 -0.2740  0.0844
 8110SOL    HW235967   0.883   0.591   8.689  1.3745 -0.6455  2.8117
 8111SOL     OW35968   4.438   4.610   1.783 -0.1637 -0.1778 -0.2361
 8111SOL    HW135969   4.385   4.684   1.753  0.5714  0.2799 -0.3886
 8111SOL    HW235970   4.361   4.562   1.814  0.1219 -1.1642 -1.0231
 8112SOL     OW35971   4.524   3.851  16.569  0.3948 -0.5418 -0.1848
 8112SOL    HW135972   4.579   3.772  16.569  1.3922  0.1552  1.7653
 8112SOL    HW235973   4.521   3.866  16.664  0.2656  0.6727 -0.3851
 8113SOL     OW35974   4.605   1.921   9.024  0.0723  0.1232 -0.2305
 8113SOL    HW135975   4.680   1.883   8.978  0.1155 -0.4140  0.2841
 8113SOL    HW235976   4.578   1.839   9.067  1.3355  0.7842  1.8246
 8114SOL     OW35977   1.529   0.874   8.628  0.3897 -0.5760  0.0568
 8114SOL    HW135978   1.598   0.923   8.583  0.1431  1.0012  1.3521
 8114SOL    HW235979   1.548   0.789   8.590  1.4235 -0.1774 -0.3361
 8115SOL     OW35980   4.442   0.567   5.970  0.2102 -0.0209  0.2613
 8115SOL    HW135981   4.415   0.618   6.046 -0.3770 -2.8309  1.9376
 8115SOL    HW235982   4.537   0.581   5.973 -0.0523  1.8216 -0.0803
 8116SOL     OW35983   4.141   2.640  12.856  0.2538  0.0213 -0.3213
 8116SOL    HW135984   4.231   2.664  12.880  0.4220 -1.4504  0.5525
 8116SOL    HW235985   4.098   2.725  12.857 -0.9592 -0.5827 -1.1203
 8117SOL     OW35986   2.246   4.517   9.744 -0.4835  0.4176 -0.4108
 8117SOL    HW135987   2.218   4.429   9.768 -1.2856  0.9551  0.6238
 8117SOL    HW235988   2.226   4.564   9.825  3.2761 -1.3295  1.5317
 8118SOL     OW35989   4.247   0.237   7.571 -0.0576  0.7858 -0.1470
 8118SOL    HW135990   4.234   0.329   7.547  0.3864  0.8948  0.0439
 8118SOL    HW235991   4.252   0.243   7.666  1.9697  0.1668 -0.2289
 8119SOL     OW35992   1.637   4.170   1.183  0.5702 -0.4626 -0.4203
 8119SOL    HW135993   1.553   4.153   1.225  0.3767  0.2237 -0.5229
 8119SOL    HW235994   1.625   4.131   1.097  2.5959 -1.0494 -0.4327
 8120SOL     OW35995   4.190   3.269   1.391 -0.2677 -0.2073  0.1317
 8120SOL    HW135996   4.262   3.259   1.329 -1.1956  0.9888 -1.1185
 8120SOL    HW235997   4.110   3.295   1.346 -0.1182 -1.1345 -0.6799
 8121SOL     OW35998   1.342   4.696   4.153  0.1100  0.1687  0.3232
 8121SOL    HW135999   1.269   4.683   4.092  1.5038 -0.1028 -1.2918
 8121SOL    HW236000   1.284   4.722   4.225 -0.2867  0.2813 -0.0372
 8122SOL     OW36001   0.278   4.563   3.818  0.1441  0.7154  0.1335
 8122SOL    HW136002   0.275   4.498   3.747 -2.7952  0.0200  0.8974
 8122SOL    HW236003   0.332   4.632   3.779  1.3798  0.1231  0.7791
 8123SOL     OW36004   4.029   4.032  15.832 -0.4272  0.2258  0.1850
 8123SOL    HW136005   3.990   4.037  15.745  2.2206 -0.5289 -1.0372
 8123SOL    HW236006   3.957   4.083  15.869  0.7115  1.5560  0.5914
 8124SOL     OW36007   3.075   1.120   8.626 -0.6262 -0.1263 -0.1784
 8124SOL    HW136008   3.058   1.133   8.532  2.4434 -2.3964 -1.0447
 8124SOL    HW236009   3.169   1.135   8.638 -0.2405 -0.9265 -2.1906
 8125SOL     OW36010   1.868   4.043   5.396  0.6840 -0.1062 -0.3766
 8125SOL    HW136011   1.909   3.985   5.332  0.2692 -1.0062  0.1784
 8125SOL    HW236012   1.920   4.123   5.388 -0.8837  1.2841  3.3628
 8126SOL     OW36013   2.156   4.700   5.244  0.0307  0.3484  0.2233
 8126SOL    HW136014   2.092   4.629   5.242  0.3892  0.0410 -0.8822
 8126SOL    HW236015   2.238   4.657   5.220 -0.9303 -0.9229 -0.8092
 8127SOL     OW36016   4.516   1.986   1.848 -0.3166  0.6410  0.0773
 8127SOL    HW136017   4.581   2.014   1.783 -1.2571  2.9781  0.1550
 8127SOL    HW236018   4.569   1.937   1.911  0.5392  0.0406 -1.1097
 8128SOL     OW36019   2.992   3.092   3.183 -0.6480 -0.2808  0.0343
 8128SOL    HW136020   2.975   3.170   3.237  0.6893 -0.7217  1.0948
 8128SOL    HW236021   2.931   3.115   3.113  0.4868  3.1942  0.1506
 8129SOL     OW36022   0.015   3.214   7.536 -0.5299 -0.3031 -0.4158
 8129SOL    HW136023   0.033   3.295   7.489  0.4846  0.6442  1.5985
 8129SOL    HW236024   0.091   3.161   7.513  0.7972  1.3828  0.1194
 8130SOL     OW36025   3.362   2.727   7.531 -0.5261 -0.1059 -0.4289
 8130SOL    HW136026   3.413   2.716   7.612  0.3194  3.8239 -0.4486
 8130SOL    HW236027   3.382   2.651   7.477  1.2328 -1.1979  1.7391
 8131SOL     OW36028   3.451   0.831   2.322  0.3734 -0.3654 -0.1453
 8131SOL    HW136029   3.489   0.916   2.301  0.6552 -0.5348 -0.3233
 8131SOL    HW236030   3.387   0.840   2.252  1.1084  0.7432 -0.6726
 8132SOL     OW36031   0.495   1.764   1.413  0.0728  0.6219  0.1977
 8132SOL    HW136032   0.553   1.745   1.487  0.0208  0.2311  0.1368
 8132SOL    HW236033   0.553   1.805   1.349 -0.0529  0.8113  0.2064
 8133SOL     OW36034   3.480   1.865   7.227  0.1949  0.0118  0.4006
 8133SOL    HW136035   3.386   1.882   7.221  0.1379 -1.3427 -2.5998
 8133SOL    HW236036   3.501   1.947   7.271 -0.9781  1.2085 -1.2940
 8134SOL     OW36037   3.511   2.046   0.938  0.2593 -0.3932 -0.1933
 8134SOL    HW136038   3.450   2.095   0.993 -0.2982 -1.6491  0.3006
 8134SOL    HW236039   3.593   2.092   0.955  0.9467 -1.5963 -0.2384
 8135SOL     OW36040   1.753   1.794   1.469  0.2667  0.2863  0.2386
 8135SOL    HW136041   1.685   1.860   1.452 -0.5318 -0.3660  0.9397
 8135SOL    HW236042   1.828   1.853   1.474  1.9815 -1.7887 -0.9637
 8136SOL     OW36043   4.182   1.565   7.056  0.1544  0.4532  0.4358
 8136SOL    HW136044   4.216   1.643   7.011 -0.4547  0.8732  0.7016
 8136SOL    HW236045   4.147   1.614   7.131 -0.0993  0.8097  0.0822
 8137SOL     OW36046   3.418   0.054   5.601 -0.2969 -0.2277 -0.0139
 8137SOL    HW136047   3.372   0.071   5.518 -1.5423  1.4142  1.0255
 8137SOL    HW236048   3.351   0.004   5.648  0.5077 -0.1117  1.2467
 8138SOL     OW36049   4.521   4.332   8.528 -0.0360 -0.2137 -0.5117
 8138SOL    HW136050   4.459   4.306   8.460  0.7431 -3.0390 -0.1568
 8138SOL    HW236051   4.482   4.296   8.608 -0.2534  0.5604 -0.2709
 8139SOL     OW36052   3.198   3.028  17.099 -0.1144  0.0163  0.8501
 8139SOL    HW136053   3.147   2.974  17.038  0.1466  1.1996 -0.4162
 8139SOL    HW236054   3.257   2.971  17.149  0.1793 -1.8915 -1.6993
 8140SOL     OW36055   2.582   2.229   0.010 -0.3756 -0.0128  0.3026
 8140SOL    HW136056   2.488   2.245   0.005 -0.5901 -1.2988  0.4225
 8140SOL    HW236057   2.623   2.314   0.027 -0.3018  0.3324 -1.4934
 8141SOL     OW36058   4.019   2.392   8.040 -0.1016 -0.0336 -0.0799
 8141SOL    HW136059   4.060   2.478   8.040  3.8757 -1.9091 -0.0643
 8141SOL    HW236060   3.931   2.413   8.007  1.1882  0.9543 -2.8951
 8142SOL     OW36061   4.701   1.677  14.389  0.2492  0.2788 -0.2115
 8142SOL    HW136062   4.680   1.768  14.371  0.0225  0.1653 -0.5303
 8142SOL    HW236063   0.023   1.659  14.316 -1.8664 -0.3436 -1.8153
 8143SOL     OW36064   1.294   4.145   5.997 -0.0312 -0.6899  0.2381
 8143SOL    HW136065   1.321   4.158   6.088  1.6247  1.3293 -0.5302
 8143SOL    HW236066   1.330   4.060   5.973  2.0178  0.1647  0.2247
 8144SOL     OW36067   1.225   2.685   8.461  0.1498 -0.2465  0.0799
 8144SOL    HW136068   1.192   2.690   8.371  0.0709  0.3779  0.1372
 8144SOL    HW236069   1.305   2.737   8.457 -1.2517  1.8158 -2.2021
 8145SOL     OW36070   3.093   1.565   0.961 -0.3886 -0.2911 -0.1682
 8145SOL    HW136071   3.188   1.561   0.971 -0.2413  2.1405 -0.5804
 8145SOL    HW236072   3.066   1.607   0.879 -0.2676 -1.3917 -0.7663
 8146SOL     OW36073   0.346   0.476  13.781 -0.7695  0.5801 -0.3274
 8146SOL    HW136074   0.379   0.531  13.853  1.7106 -0.4278 -0.6921
 8146SOL    HW236075   0.348   0.389  13.820  1.4124  1.4762  1.5521
 8147SOL     OW36076   2.781   3.596   8.835  0.1280  0.1702 -0.3222
 8147SOL    HW136077   2.852   3.618   8.894 -0.4786 -2.5185  1.4210
 8147SOL    HW236078   2.761   3.505   8.858 -2.7611  0.4373 -1.7698
 8148SOL     OW36079   2.357   1.624   9.896 -0.1313  0.3030  0.1489
 8148SOL    HW136080   2.292   1.560   9.868  0.4343 -0.8657  1.5495
 8148SOL    HW236081   2.427   1.564   9.920 -0.3056 -0.4477 -1.1898
 8149SOL     OW36082   0.334   2.700   1.360  0.0096  0.3300 -0.4465
 8149SOL    HW136083   0.267   2.768   1.362 -0.0157  0.2999 -0.2265
 8149SOL    HW236084   0.389   2.738   1.292  1.6031  0.4458  0.9121
 8150SOL     OW36085   1.533   0.222   2.071 -0.9688  0.2395  0.9729
 8150SOL    HW136086   1.548   0.306   2.115  1.5936 -0.7029  1.9062
 8150SOL    HW236087   1.515   0.167   2.147 -1.6841  0.7481  1.1772
 8151SOL     OW36088   2.003   4.504   4.424  0.6529  0.0247 -0.0246
 8151SOL    HW136089   1.935   4.571   4.415  0.2305 -0.8586 -3.3958
 8151SOL    HW236090   1.953   4.435   4.468  1.1958 -0.9734 -0.9714
 8152SOL     OW36091   2.123   1.571   0.774  0.0074  0.3387  0.4159
 8152SOL    HW136092   2.170   1.623   0.709 -0.6992  0.2065 -0.1994
 8152SOL    HW236093   2.106   1.641   0.838 -3.3909 -0.0070 -0.0845
 8153SOL     OW36094   1.731   1.440  12.673  0.1506 -0.2685  0.0771
 8153SOL    HW136095   1.679   1.439  12.592  0.2455  2.7085 -0.0301
 8153SOL    HW236096   1.714   1.527  12.709 -1.2651 -0.5339  0.0665
 8154SOL     OW36097   2.611   0.574   4.959  0.1471 -0.1046  0.0260
 8154SOL    HW136098   2.647   0.587   4.871  0.7961  0.1982  0.3364
 8154SOL    HW236099   2.679   0.520   5.000 -1.1290 -0.3092  1.8554
 8155SOL     OW36100   3.197   2.622   6.769 -0.0542  0.6037 -0.4390
 8155SOL    HW136101   3.208   2.558   6.698 -1.4397 -1.4455  1.1818
 8155SOL    HW236102   3.107   2.651   6.754  0.6490  2.9560  0.0091
 8156SOL     OW36103   4.621   2.326   0.401  0.1980 -0.3579 -0.2623
 8156SOL    HW136104   4.585   2.403   0.445  0.7081 -0.7980  0.9261
 8156SOL    HW236105   4.562   2.257   0.430 -1.0217  0.4574 -0.7721
 8157SOL     OW36106   4.377   2.505   3.731  0.1504  0.1042  0.0591
 8157SOL    HW136107   4.442   2.465   3.789  1.7560 -0.2395 -1.9620
 8157SOL    HW236108   4.433   2.570   3.688  2.2538 -0.3827  2.0422
 8158SOL     OW36109   2.189   0.696   1.122 -0.5732  0.6734 -0.1332
 8158SOL    HW136110   2.134   0.628   1.161 -0.5483  0.2625 -0.8143
 8158SOL    HW236111   2.166   0.689   1.030 -2.7845  2.8119  0.2830
 8159SOL     OW36112   0.601   1.415  11.524 -0.0306  0.0413  0.4095
 8159SOL    HW136113   0.641   1.397  11.609 -0.3422  1.2560  0.8007
 8159SOL    HW236114   0.546   1.336  11.528 -0.7644  0.5820  0.9195
 8160SOL     OW36115   4.575   3.666  11.357 -0.3974  0.1734 -0.0720
 8160SOL    HW136116   4.551   3.731  11.423 -1.9069 -0.8983  0.4412
 8160SOL    HW236117   4.487   3.631  11.342  0.1036 -0.7095 -0.9817
 8161SOL     OW36118   0.979   2.506   6.348 -0.3057 -0.1692  0.0187
 8161SOL    HW136119   1.027   2.433   6.387  1.8201  1.3580  0.2737
 8161SOL    HW236120   1.010   2.584   6.394  2.1487 -2.1065  1.6624
 8162SOL     OW36121   4.035   2.035   0.807 -0.2877  0.2585 -0.1906
 8162SOL    HW136122   4.093   2.088   0.861 -1.2018  2.7754 -1.6356
 8162SOL    HW236123   4.093   1.965   0.778  0.1944  0.1971  0.9318
 8163SOL     OW36124   0.058   3.361   8.229 -0.2396  0.6341 -0.2806
 8163SOL    HW136125   0.006   3.353   8.149 -0.7650  1.6295 -0.0410
 8163SOL    HW236126   4.734   3.354   8.302  1.7154  1.2523  1.4210
 8164SOL     OW36127   2.200   3.571   3.940  0.0098  0.2101  0.1448
 8164SOL    HW136128   2.209   3.633   4.013  1.5606  0.6870 -0.4387
 8164SOL    HW236129   2.230   3.622   3.864 -1.7499 -1.7219 -1.8349
 8165SOL     OW36130   4.049   2.648   4.469 -0.0587  0.3581 -0.2343
 8165SOL    HW136131   4.016   2.559   4.483  0.7549  0.2285  0.9076
 8165SOL    HW236132   4.069   2.677   4.558  0.7030  0.7924 -0.5449
 8166SOL     OW36133   0.557   2.184   6.413 -0.2054  0.5960 -0.0495
 8166SOL    HW136134   0.567   2.180   6.318 -1.4843  1.8029 -0.2281
 8166SOL    HW236135   0.599   2.271   6.417 -1.5617  1.2363  0.1733
 8167SOL     OW36136   1.796   2.780   6.097 -0.1832  0.3283 -0.0217
 8167SOL    HW136137   1.750   2.856   6.062 -0.2578  0.4177  0.2662
 8167SOL    HW236138   1.753   2.759   6.180 -0.4939  0.5752 -0.1229
 8168SOL     OW36139   3.833   4.271   2.666 -0.0366  0.9445 -0.4108
 8168SOL    HW136140   3.918   4.262   2.625 -0.4957  1.2383 -1.4343
 8168SOL    HW236141   3.785   4.262   2.583 -0.9896  0.7819  0.1487
 8169SOL     OW36142   0.752   4.172   4.511 -0.4970 -0.3854  0.2029
 8169SOL    HW136143   0.783   4.083   4.491 -1.1877 -0.3402 -1.0573
 8169SOL    HW236144   0.681   4.151   4.572  0.2658  0.3807  1.3445
 8170SOL     OW36145   4.203   0.087  10.753 -0.1602 -0.4886  0.3347
 8170SOL    HW136146   4.124   0.113  10.800 -0.4811  0.7297 -0.8718
 8170SOL    HW236147   4.249   0.033  10.817 -1.5709 -0.4696  1.3440
 8171SOL     OW36148   0.365   2.467   5.719  0.1378  0.4179 -0.2674
 8171SOL    HW136149   0.383   2.548   5.673  0.0213  0.7126  0.2099
 8171SOL    HW236150   0.412   2.484   5.801  0.8758  1.4822 -0.9209
 8172SOL     OW36151   0.120   2.872  13.126 -0.1577 -0.1837 -0.0187
 8172SOL    HW136152   0.120   2.917  13.041 -0.6651  1.6855  0.9834
 8172SOL    HW236153   0.047   2.919  13.166 -1.5973 -2.2789 -0.1728
 8173SOL     OW36154   4.249   4.396   8.009 -0.4041 -0.1561  0.1900
 8173SOL    HW136155   4.179   4.425   7.950  1.6872  1.3092 -1.5730
 8173SOL    HW236156   4.290   4.326   7.958  0.0610  1.2699 -1.3829
 8174SOL     OW36157   0.698   1.652   7.544 -0.5518  0.1390  0.2072
 8174SOL    HW136158   0.649   1.657   7.626  0.4609 -1.8837  0.9423
 8174SOL    HW236159   0.747   1.570   7.555 -0.1929  0.4974  1.2564
 8175SOL     OW36160   3.939   0.645  16.648  0.1341 -0.2768 -0.6617
 8175SOL    HW136161   3.845   0.656  16.664  0.3428 -0.1468  0.4167
 8175SOL    HW236162   3.938   0.582  16.576  3.2639 -2.5255  1.3085
 8176SOL     OW36163   3.309   3.528  15.582  0.4513  0.1088 -0.0302
 8176SOL    HW136164   3.341   3.618  15.590  0.1827  0.3435 -1.5318
 8176SOL    HW236165   3.228   3.533  15.634  0.1772 -3.0758 -0.1759
 8177SOL     OW36166   3.871   2.306   9.424 -0.0908 -0.8675 -0.0781
 8177SOL    HW136167   3.821   2.375   9.380  1.9478  0.8282  0.2675
 8177SOL    HW236168   3.905   2.352   9.501 -0.8539  1.2345 -1.0055
 8178SOL     OW36169   2.165   3.782  15.331 -0.4056 -0.3151  0.0552
 8178SOL    HW136170   2.130   3.834  15.259 -0.4347  0.0837  0.3585
 8178SOL    HW236171   2.096   3.717  15.334  0.2598 -1.1049 -2.0159
 8179SOL     OW36172   2.566   0.677   6.109 -0.0357 -0.1651  0.4379
 8179SOL    HW136173   2.538   0.586   6.102  2.9416 -0.9395 -1.6700
 8179SOL    HW236174   2.561   0.712   6.020 -0.5592  2.2214  1.4190
 8180SOL     OW36175   2.640   0.755   8.039 -0.2299  0.4190 -0.0904
 8180SOL    HW136176   2.632   0.820   8.110  3.7741 -1.0651  1.7385
 8180SOL    HW236177   2.642   0.814   7.964  0.8578  0.2873 -0.1736
 8181SOL     OW36178   1.064   4.280   2.495  0.2746  0.0831 -0.2125
 8181SOL    HW136179   1.038   4.359   2.447 -0.5655  1.2754  2.2187
 8181SOL    HW236180   0.983   4.240   2.526 -1.3803  3.1940 -0.5413
 8182SOL     OW36181   0.418   0.451   3.422 -0.3813 -0.6627  0.6076
 8182SOL    HW136182   0.360   0.472   3.496 -0.5721 -2.2374  0.8956
 8182SOL    HW236183   0.387   0.513   3.356  1.5280  1.1147  1.3520
 8183SOL     OW36184   1.884   2.394   2.837  0.1150 -0.7002 -0.2689
 8183SOL    HW136185   1.822   2.462   2.812 -0.1774 -1.0934 -0.6091
 8183SOL    HW236186   1.950   2.414   2.770 -1.8216  1.0360 -1.6405
 8184SOL     OW36187   4.111   3.380   9.018 -0.4322  0.3560 -0.1578
 8184SOL    HW136188   4.046   3.322   8.979 -2.8966  2.5677  0.6537
 8184SOL    HW236189   4.181   3.371   8.953  0.2541  0.8896  0.5038
 8185SOL     OW36190   1.158   1.629   7.514  0.2299 -0.7900  0.2185
 8185SOL    HW136191   1.243   1.654   7.478  0.2939 -0.2353  0.7582
 8185SOL    HW236192   1.143   1.697   7.580 -2.4966 -0.1506 -1.0547
 8186SOL     OW36193   2.690   0.546   7.625 -0.0572  0.0449 -0.1645
 8186SOL    HW136194   2.602   0.584   7.618 -0.0372  0.2790  0.7544
 8186SOL    HW236195   2.681   0.451   7.635  0.4778 -0.0695 -0.7967
 8187SOL     OW36196   0.334   2.133   5.663  0.1720  0.2582 -0.1250
 8187SOL    HW136197   0.425   2.161   5.659 -0.5047  2.2902 -1.2628
 8187SOL    HW236198   0.299   2.185   5.590 -3.0885  1.2587  2.1587
 8188SOL     OW36199   2.221   1.837   1.963  0.4522 -0.3830 -0.0989
 8188SOL    HW136200   2.183   1.760   2.005 -2.5322  1.3354  0.4370
 8188SOL    HW236201   2.303   1.801   1.932  0.8079  0.9630 -0.7406
 8189SOL     OW36202   0.766   3.924   7.287  0.7495 -0.0172 -0.0842
 8189SOL    HW136203   0.775   3.965   7.374  0.9832  0.1173 -0.1709
 8189SOL    HW236204   0.721   3.841   7.303  1.5755 -0.2801  0.9026
 8190SOL     OW36205   0.230   3.174   9.700 -0.3305 -0.2864 -0.0422
 8190SOL    HW136206   0.281   3.093   9.706  2.8207  1.7303  0.0364
 8190SOL    HW236207   0.297   3.241   9.713 -0.3289 -0.8820  2.9509
 8191SOL     OW36208   2.352   1.682   6.732  0.9845  0.0434 -0.5250
 8191SOL    HW136209   2.338   1.677   6.638  0.0782 -0.0874 -0.3828
 8191SOL    HW236210   2.262   1.706   6.753  0.9912  0.6585 -1.2058
 8192SOL     OW36211   2.909   4.141   0.852 -0.4993 -0.1522  0.6784
 8192SOL    HW136212   2.905   4.198   0.775 -0.0435  1.0067  1.5159
 8192SOL    HW236213   2.986   4.088   0.831  0.4029  2.7754 -3.5311
 8193SOL     OW36214   0.968   1.105  10.446 -0.1195  0.1229 -0.0768
 8193SOL    HW136215   1.023   1.119  10.522 -0.7548  2.0107  0.0223
 8193SOL    HW236216   0.982   1.180  10.389  2.7365  0.2598  0.8214
 8194SOL     OW36217   1.148   1.821  15.905 -0.3186 -0.2421 -0.1381
 8194SOL    HW136218   1.165   1.775  15.988 -2.5264 -0.5601  0.1430
 8194SOL    HW236219   1.238   1.835  15.877  0.0158 -1.7692  0.1357
 8195SOL     OW36220   1.725   0.557   8.940  0.0783 -0.0186  0.0571
 8195SOL    HW136221   1.656   0.594   8.995 -0.3214 -2.0546  0.9204
 8195SOL    HW236222   1.770   0.490   8.991  0.7998 -0.4604 -1.1663
 8196SOL     OW36223   4.575   3.812   4.531  0.4240 -0.8671  0.4566
 8196SOL    HW136224   4.497   3.834   4.582 -2.0187 -1.4791 -2.9585
 8196SOL    HW236225   4.533   3.825   4.445  1.9962 -1.4653 -0.4078
 8197SOL     OW36226   0.934   0.018   0.272  0.3849  0.7678 -0.0703
 8197SOL    HW136227   0.895   4.711   0.197 -1.6038 -1.3229  2.2351
 8197SOL    HW236228   0.853   0.038   0.319  0.7805  1.1297  0.4635
 8198SOL     OW36229   1.096   0.610   6.538  0.8607  0.1653  0.6369
 8198SOL    HW136230   1.026   0.577   6.594  1.6246  0.5056  1.7837
 8198SOL    HW236231   1.052   0.693   6.519 -0.4345 -0.9988 -1.5448
 8199SOL     OW36232   1.755   0.109   2.937  0.0651  0.0586  0.0713
 8199SOL    HW136233   1.672   0.109   2.984  0.6766  0.9268  1.1824
 8199SOL    HW236234   1.738   0.095   2.844  0.1757  0.5247 -0.0214
 8200SOL     OW36235   1.139   0.009   5.907 -0.3318  0.4865 -0.4007
 8200SOL    HW136236   1.219   0.044   5.946 -0.2809  0.9650 -0.9308
 8200SOL    HW236237   1.170   4.717   5.821  0.7906  0.9789 -0.1738
 8201SOL     OW36238   2.438   3.154   2.524 -0.2608 -0.4611  0.1472
 8201SOL    HW136239   2.445   3.246   2.500 -2.0652 -0.1223  0.8719
 8201SOL    HW236240   2.446   3.120   2.435  1.9733  0.5751 -0.0352
 8202SOL     OW36241   3.950   3.571   8.775  0.1040 -0.3652  0.0896
 8202SOL    HW136242   4.022   3.610   8.727 -0.2223  0.7641  0.5229
 8202SOL    HW236243   3.965   3.477   8.766  2.2870  0.2719 -2.8173
 8203SOL     OW36244   0.157   0.244   4.366 -0.4384  0.3944  0.2414
 8203SOL    HW136245   0.120   0.321   4.323  0.1210  1.8455  2.3581
 8203SOL    HW236246   0.250   0.261   4.377 -0.2461  0.2301 -1.0809
 8204SOL     OW36247   1.189   1.426   5.237  0.0450 -0.9612 -0.3907
 8204SOL    HW136248   1.201   1.401   5.329 -1.5739 -0.2485  0.0081
 8204SOL    HW236249   1.178   1.521   5.241  2.3556 -0.7439  1.0356
 8205SOL     OW36250   4.221   0.542   9.834  0.3687  0.2700 -0.1557
 8205SOL    HW136251   4.273   0.614   9.871 -1.1438  0.8052  0.9447
 8205SOL    HW236252   4.232   0.468   9.895  1.0757  0.8644  0.4459
 8206SOL     OW36253   4.166   3.723   2.760 -0.2437 -0.0240  0.2879
 8206SOL    HW136254   4.235   3.782   2.790 -1.5878  1.8570 -0.3018
 8206SOL    HW236255   4.183   3.645   2.813  0.1012 -0.6998 -0.8080
 8207SOL     OW36256   4.055   1.363   7.247  0.6363 -0.0952  0.8656
 8207SOL    HW136257   3.967   1.373   7.284 -0.0305 -1.4982 -0.3145
 8207SOL    HW236258   4.091   1.437   7.296 -1.4960  1.4586  0.1047
 8208SOL     OW36259   2.399   1.439   5.802  0.2892  0.2398  0.0713
 8208SOL    HW136260   2.488   1.450   5.835  1.0150 -1.1105 -1.4567
 8208SOL    HW236261   2.412   1.450   5.708  0.2715 -3.0092 -0.2834
 8209SOL     OW36262   1.365   2.742   2.516  0.7220  0.2250  0.4695
 8209SOL    HW136263   1.290   2.692   2.484  0.1848 -0.5026  2.8422
 8209SOL    HW236264   1.341   2.769   2.605 -1.5163  0.8040 -0.3003
 8210SOL     OW36265   3.416   4.437   7.540  0.0581 -0.9324 -0.2940
 8210SOL    HW136266   3.347   4.385   7.581  0.4293 -1.7157 -0.6596
 8210SOL    HW236267   3.393   4.422   7.448 -0.8030 -0.0335 -0.2216
 8211SOL     OW36268   0.280   1.415   8.926  0.2079 -0.3309 -0.3336
 8211SOL    HW136269   0.286   1.497   8.876  0.0545 -0.3065 -0.3130
 8211SOL    HW236270   0.366   1.397   8.963 -1.0861 -1.4419  2.1396
 8212SOL     OW36271   3.148   2.529  17.027  0.0446  0.5554 -0.5731
 8212SOL    HW136272   3.073   2.472  17.009  1.1845 -1.1454  0.0341
 8212SOL    HW236273   3.138   2.606  16.972 -2.1055 -0.0647 -1.0646
 8213SOL     OW36274   1.913   4.233   0.914  0.1403 -0.2307 -0.2954
 8213SOL    HW136275   1.994   4.240   0.864  1.2869 -1.4412  1.4076
 8213SOL    HW236276   1.859   4.188   0.849 -1.4916 -0.0847  0.9651
 8214SOL     OW36277   1.669   3.451  13.034 -0.2350 -0.3043 -0.0081
 8214SOL    HW136278   1.587   3.498  13.040  1.2081  1.9343  2.0883
 8214SOL    HW236279   1.658   3.398  12.955 -2.0761  0.4382 -0.2538
 8215SOL     OW36280   2.626   3.232   1.365  0.4694 -0.2585 -0.2597
 8215SOL    HW136281   2.642   3.317   1.406  1.4115 -1.0951  1.1311
 8215SOL    HW236282   2.698   3.185   1.408  1.4153  0.9317 -0.5410
 8216SOL     OW36283   4.114   3.543  16.905  0.3915  0.6080  0.2678
 8216SOL    HW136284   4.062   3.469  16.935 -0.6966  1.8881  1.5297
 8216SOL    HW236285   4.150   3.509  16.823 -2.3707 -1.8005  0.0920
 8217SOL     OW36286   1.317   4.302   5.206 -0.0309 -0.6113 -0.7764
 8217SOL    HW136287   1.265   4.242   5.261 -1.6012  1.4993  0.0299
 8217SOL    HW236288   1.389   4.322   5.266 -0.7986 -0.8010  0.2227
 8218SOL     OW36289   3.640   4.451  15.979  0.6330 -0.3487  0.3709
 8218SOL    HW136290   3.656   4.441  15.886  0.2623  0.6858  0.1970
 8218SOL    HW236291   3.578   4.524  15.983  0.0499 -0.9057  1.4819
 8219SOL     OW36292   0.004   2.556   7.683 -0.4648 -0.1771  0.0211
 8219SOL    HW136293   0.026   2.570   7.591  0.8700  1.3343  0.5832
 8219SOL    HW236294   4.656   2.514   7.678 -1.0312  1.1031 -0.9628
 8220SOL     OW36295   1.446   0.272   1.413  0.1292  0.1098  0.3055
 8220SOL    HW136296   1.464   0.185   1.376 -3.3789  1.1165 -3.8168
 8220SOL    HW236297   1.369   0.255   1.466 -0.4802 -0.0174 -0.6088
 8221SOL     OW36298   3.192   1.624  15.640 -0.0599 -0.4215  0.2874
 8221SOL    HW136299   3.157   1.711  15.661  1.7909  0.0162  1.5560
 8221SOL    HW236300   3.239   1.656  15.563 -1.2873  3.1427  1.0039
 8222SOL     OW36301   2.131   2.271   2.675  0.5974  0.2232  0.4865
 8222SOL    HW136302   2.107   2.358   2.645 -0.3220 -1.0704 -2.5122
 8222SOL    HW236303   2.050   2.222   2.665 -0.7537  2.2673  1.5629
 8223SOL     OW36304   1.765   2.461   3.884  0.5763 -0.0726 -0.1442
 8223SOL    HW136305   1.675   2.429   3.878 -0.0551  1.9791 -1.6449
 8223SOL    HW236306   1.800   2.376   3.909  0.4365  0.6694  2.6617
 8224SOL     OW36307   3.924   4.326   5.399  0.8090  0.2471 -0.1053
 8224SOL    HW136308   4.016   4.353   5.401  1.1601 -1.1011  2.0972
 8224SOL    HW236309   3.878   4.394   5.349  0.8436  0.4666  0.1568
 8225SOL     OW36310   1.616   4.547  13.642 -0.6016  0.3140 -0.0659
 8225SOL    HW136311   1.641   4.614  13.707 -0.6600 -1.7166  2.0483
 8225SOL    HW236312   1.532   4.513  13.672 -1.8213  1.0058 -2.7456
 8226SOL     OW36313   1.199   3.370  11.094 -0.5118 -0.1859 -0.1236
 8226SOL    HW136314   1.288   3.349  11.125 -0.5726 -2.8115 -1.7458
 8226SOL    HW236315   1.175   3.289  11.048 -1.9376  0.3636 -0.3257
 8227SOL     OW36316   3.383   4.529   2.618 -0.4579 -0.0871  0.7873
 8227SOL    HW136317   3.297   4.487   2.626 -0.3141 -0.5115  0.1203
 8227SOL    HW236318   3.393   4.552   2.526 -2.0365  0.3318  0.7193
 8228SOL     OW36319   0.085   2.065  15.770 -0.1929 -0.3264  1.0605
 8228SOL    HW136320   0.136   2.112  15.835 -0.9126  2.1809 -0.1985
 8228SOL    HW236321   0.001   2.106  15.792 -0.4413  1.0519 -2.3935
 8229SOL     OW36322   2.792   2.944   4.240 -0.1404  0.0948  0.2385
 8229SOL    HW136323   2.757   3.003   4.307 -0.9112 -0.1938  0.0968
 8229SOL    HW236324   2.885   2.945   4.263 -0.3660 -0.7037  1.2097
 8230SOL     OW36325   2.026   1.291  14.088  0.2705  0.7207  0.2387
 8230SOL    HW136326   1.973   1.235  14.146  0.7109 -1.5835 -1.5632
 8230SOL    HW236327   2.094   1.232  14.056 -0.8702  0.5775 -1.9303
 8231SOL     OW36328   3.385   3.643   4.063  0.1109  0.2512 -0.3483
 8231SOL    HW136329   3.366   3.726   4.106  0.9676  0.8713 -1.1565
 8231SOL    HW236330   3.458   3.610   4.114  2.2825  1.5854 -2.5647
 8232SOL     OW36331   1.432   1.366  14.203  0.1480 -0.5711 -0.1636
 8232SOL    HW136332   1.424   1.405  14.116 -2.0086  0.7068  0.6029
 8232SOL    HW236333   1.457   1.442  14.255 -2.2455 -0.1289  0.3605
 8233SOL     OW36334   1.679   4.602  13.937 -0.2643 -0.7085 -0.6983
 8233SOL    HW136335   1.660   4.694  13.952  0.0477 -0.6245 -0.8124
 8233SOL    HW236336   1.625   4.566  14.007 -1.3418  0.4213 -0.9445
 8234SOL     OW36337   1.267   2.756   6.299  0.2385 -0.1668  0.4135
 8234SOL    HW136338   1.196   2.807   6.258 -0.3233 -0.0476  1.5392
 8234SOL    HW236339   1.247   2.769   6.392  2.8775 -0.5161  1.0288
 8235SOL     OW36340   3.619   1.308   6.047  0.0566  0.5316 -0.8352
 8235SOL    HW136341   3.537   1.357   6.043 -0.7340 -0.5787  1.8296
 8235SOL    HW236342   3.583   1.221   6.063  0.3000  0.6063  0.1259
 8236SOL     OW36343   4.230   2.452   2.664  0.3205 -0.2018 -0.3186
 8236SOL    HW136344   4.176   2.438   2.586 -0.3762  2.7445 -0.3671
 8236SOL    HW236345   4.253   2.545   2.665  0.5068 -0.2252 -2.1375
 8237SOL     OW36346   4.717   2.063   7.111  0.1774  0.5586  0.6410
 8237SOL    HW136347   4.647   2.014   7.154  0.0305  0.8230  0.7003
 8237SOL    HW236348   4.656   2.100   7.046 -0.6735  0.4207  1.3615
 8238SOL     OW36349   1.654   2.948  13.264  0.2632  0.5962 -0.3923
 8238SOL    HW136350   1.670   2.864  13.307 -2.2408  1.0059  1.3321
 8238SOL    HW236351   1.745   2.979  13.262 -0.4918  2.9926  1.7942
 8239SOL     OW36352   1.898   4.230   2.575  0.2865 -0.7963  0.2551
 8239SOL    HW136353   1.902   4.174   2.498  2.1034  1.7715 -1.5251
 8239SOL    HW236354   1.933   4.168   2.639 -0.2808 -1.5506 -0.1659
 8240SOL     OW36355   0.659   3.098   6.294 -0.0834  0.8491 -0.2035
 8240SOL    HW136356   0.688   3.155   6.222 -1.1837  0.9445 -0.5766
 8240SOL    HW236357   0.677   3.014   6.251 -1.7600  0.1594  0.4395
 8241SOL     OW36358   0.126   0.267   2.064  0.4059 -0.5102 -0.4953
 8241SOL    HW136359   0.217   0.259   2.037  0.4033  3.7298 -1.7597
 8241SOL    HW236360   0.132   0.282   2.158 -0.4781 -0.4914 -0.4365
 8242SOL     OW36361   2.394   3.236   4.947  0.0713  0.3837  0.8373
 8242SOL    HW136362   2.429   3.149   4.928 -3.8951 -0.5402 -2.2117
 8242SOL    HW236363   2.429   3.240   5.036  0.2569 -0.7201  0.8070
 8243SOL     OW36364   3.377   0.366  11.990 -0.2468  0.3907 -0.0710
 8243SOL    HW136365   3.295   0.376  11.943  0.1526 -0.9246 -1.0437
 8243SOL    HW236366   3.358   0.418  12.068 -1.0393 -0.0793  0.0461
 8244SOL     OW36367   4.230   4.176   4.082  0.8085  0.3118 -0.6233
 8244SOL    HW136368   4.176   4.109   4.123  2.6471 -1.2604 -0.7835
 8244SOL    HW236369   4.165   4.243   4.061  1.2867  1.3471  1.1629
 8245SOL     OW36370   0.303   2.932   2.988 -0.2457  0.0371 -0.2075
 8245SOL    HW136371   0.329   3.023   2.995 -2.2094  0.5857 -0.1929
 8245SOL    HW236372   0.382   2.885   3.015 -1.4374 -1.4888  0.6297
 8246SOL     OW36373   0.343   4.139   7.758 -0.2227 -0.2786  0.0469
 8246SOL    HW136374   0.414   4.187   7.801  1.3041 -1.6331 -0.9450
 8246SOL    HW236375   0.389   4.095   7.687 -0.6134 -2.2782  1.0432
 8247SOL     OW36376   4.283   1.120   4.798 -0.7648  0.1660  0.2106
 8247SOL    HW136377   4.322   1.063   4.732  2.4166 -0.4412  2.6441
 8247SOL    HW236378   4.330   1.100   4.879 -1.4135 -0.1942  0.5025
 8248SOL     OW36379   1.383   1.450   7.791 -0.0531 -0.3094  0.2924
 8248SOL    HW136380   1.342   1.529   7.826  1.2241  0.0100  1.0612
 8248SOL    HW236381   1.471   1.448   7.828  1.6137  3.4854 -3.2881
 8249SOL     OW36382   2.564   0.398   6.402 -0.0913 -0.0030 -0.0979
 8249SOL    HW136383   2.559   0.474   6.459  3.0008  0.6194 -0.6526
 8249SOL    HW236384   2.658   0.387   6.390 -0.3923 -1.0050 -1.6567
 8250SOL     OW36385   3.237   2.823   3.660  0.1512  0.5207 -0.1633
 8250SOL    HW136386   3.175   2.763   3.619 -0.2577  0.6415  0.2812
 8250SOL    HW236387   3.293   2.773   3.719 -1.6035 -1.4119 -0.1298
 8251SOL     OW36388   2.028   4.263   4.720  0.1393  0.3383 -0.7886
 8251SOL    HW136389   2.020   4.256   4.625 -0.6033 -1.3675 -0.6057
 8251SOL    HW236390   2.067   4.180   4.746  3.4768  1.8024 -1.0623
 8252SOL     OW36391   1.548   1.792  12.555 -0.4764  0.1369  0.3070
 8252SOL    HW136392   1.543   1.704  12.516  0.2483 -0.7113  2.1316
 8252SOL    HW236393   1.454   1.810  12.557 -0.5621 -0.2251 -0.2562
 8253SOL     OW36394   0.628   4.394   5.294  0.0743  1.0091  0.1705
 8253SOL    HW136395   0.559   4.331   5.316  1.7445 -0.6354  0.6630
 8253SOL    HW236396   0.606   4.406   5.202 -2.5927 -1.2997  0.5095
 8254SOL     OW36397   2.561   4.176  13.544 -0.8422 -0.2398 -0.1303
 8254SOL    HW136398   2.635   4.126  13.578 -1.7539 -0.3049  1.7306
 8254SOL    HW236399   2.581   4.160  13.451  3.0242  1.9029  0.3192
 8255SOL     OW36400   3.990   2.370   7.458 -0.1370  0.3826 -0.3392
 8255SOL    HW136401   3.937   2.374   7.379  2.4190  2.2604 -1.9395
 8255SOL    HW236402   4.032   2.285   7.446  0.4030  0.8913 -1.9440
 8256SOL     OW36403   1.283   0.366   5.612  0.0242  0.1354  0.6471
 8256SOL    HW136404   1.271   0.356   5.706 -3.6551  0.0961  0.1834
 8256SOL    HW236405   1.332   0.289   5.584 -0.9294  0.1716 -1.0927
 8257SOL     OW36406   4.004   2.983  13.862 -0.3835  0.5244  0.1591
 8257SOL    HW136407   3.949   2.939  13.797 -1.3716  1.1261  0.5884
 8257SOL    HW236408   4.009   2.911  13.925  2.5527  0.2658 -0.3678
 8258SOL     OW36409   2.937   2.909  13.820 -0.1339 -0.0063 -0.4533
 8258SOL    HW136410   2.978   2.829  13.851  1.9746  1.5846  0.8305
 8258SOL    HW236411   2.872   2.867  13.763 -0.1244 -0.8635  0.1801
 8259SOL     OW36412   0.864   2.832   0.056 -0.3614  0.2676 -0.1595
 8259SOL    HW136413   0.893   2.791   0.137  2.0466  3.5077  0.5797
 8259SOL    HW236414   0.797   2.766   0.036  0.9943 -1.3246  0.5612
 8260SOL     OW36415   1.747   2.470  10.067 -0.4977 -0.4290  0.4460
 8260SOL    HW136416   1.765   2.495  10.157 -0.6433  2.4047 -0.3029
 8260SOL    HW236417   1.830   2.428  10.042  0.5362 -0.8897  4.6589
 8261SOL     OW36418   1.053   2.866   1.341  0.5113 -0.4611 -0.2385
 8261SOL    HW136419   1.038   2.851   1.247  1.0356  1.8730 -0.7021
 8261SOL    HW236420   1.063   2.776   1.370 -0.8442 -0.1125  1.3020
 8262SOL     OW36421   0.499   2.025   2.799  0.1632  0.1664 -0.0230
 8262SOL    HW136422   0.501   2.097   2.862  3.5874 -1.6007  1.8814
 8262SOL    HW236423   0.463   2.063   2.719  1.5440  2.2348  0.3598
 8263SOL     OW36424   4.122   2.416   8.397 -0.2744 -0.5470  0.0756
 8263SOL    HW136425   4.103   2.465   8.477  0.0295 -1.5048  0.7303
 8263SOL    HW236426   4.152   2.332   8.432  0.2891 -2.0614 -3.9623
 8264SOL     OW36427   0.256   2.337   3.493  0.4554  0.2490 -1.0079
 8264SOL    HW136428   0.327   2.289   3.451 -0.1866 -1.5041 -0.0634
 8264SOL    HW236429   0.211   2.268   3.541 -0.0421  1.3465  0.0924
 8265SOL     OW36430   4.216   1.054   9.936 -0.5147  0.4595  0.3413
 8265SOL    HW136431   4.238   1.062  10.029  3.2262 -2.1253 -0.3550
 8265SOL    HW236432   4.144   0.991   9.940  0.4365 -0.6844 -0.7318
 8266SOL     OW36433   0.353   3.673   0.973  0.3479  0.1283  0.0610
 8266SOL    HW136434   0.281   3.735   0.961  0.1495 -0.0478  0.3411
 8266SOL    HW236435   0.387   3.688   1.061 -0.5643  1.1399  0.2369
 8267SOL     OW36436   2.453   4.135   9.736  0.7737  0.3647 -0.0745
 8267SOL    HW136437   2.375   4.143   9.683  2.1054 -0.1284 -2.1217
 8267SOL    HW236438   2.521   4.117   9.671  1.1252  0.1538  0.3442
 8268SOL     OW36439   2.329   0.594   9.039  0.3355 -0.0697 -0.2981
 8268SOL    HW136440   2.424   0.605   9.044  0.3206  0.8691 -2.1741
 8268SOL    HW236441   2.301   0.681   9.009  0.2383  0.5364  1.5365
 8269SOL     OW36442   2.230   2.896  10.473 -0.0718 -0.1792 -0.0167
 8269SOL    HW136443   2.283   2.976  10.478  0.8028 -0.9039  2.5025
 8269SOL    HW236444   2.291   2.829  10.443  1.2088  1.1654 -0.4044
 8270SOL     OW36445   1.337   4.517   8.042 -0.1838  0.1098 -0.5521
 8270SOL    HW136446   1.255   4.469   8.027  0.3450 -0.4140 -1.7101
 8270SOL    HW236447   1.294   4.589   8.089 -0.4031 -0.6786  0.4524
 8271SOL     OW36448   1.789   3.444  10.791  0.3054 -0.3897  0.2188
 8271SOL    HW136449   1.770   3.526  10.837 -0.2455 -1.4106  1.7972
 8271SOL    HW236450   1.839   3.478  10.717 -1.7703 -2.6179 -2.2128
 8272SOL     OW36451   4.249   4.001   5.155  0.2992  0.2089  0.4466
 8272SOL    HW136452   4.236   3.907   5.170 -2.1590  0.2184 -1.5388
 8272SOL    HW236453   4.243   4.009   5.060 -1.3815  0.2849  0.5511
 8273SOL     OW36454   2.579   0.049  13.087 -0.2593  0.0786  0.2345
 8273SOL    HW136455   2.512   0.007  13.033  2.6094 -2.0250 -1.7511
 8273SOL    HW236456   2.647   4.722  13.070 -0.6948 -0.2320 -0.3492
 8274SOL     OW36457   3.917   2.925   8.251 -0.4324 -0.4446  0.2692
 8274SOL    HW136458   3.958   2.960   8.330  0.4248 -0.0946 -0.3349
 8274SOL    HW236459   3.940   2.990   8.184 -0.5802 -0.7255 -0.0518
 8275SOL     OW36460   2.380   2.672   5.775  0.0293  0.0192 -0.3037
 8275SOL    HW136461   2.365   2.767   5.776 -1.0343 -0.2218  4.2478
 8275SOL    HW236462   2.376   2.646   5.867 -0.5057  0.5060 -0.1848
 8276SOL     OW36463   1.516   2.210   2.415 -0.2766  0.3222 -0.0332
 8276SOL    HW136464   1.527   2.276   2.346  0.7520  2.3598  2.0814
 8276SOL    HW236465   1.441   2.166   2.375  0.4551  0.3715 -1.4953
 8277SOL     OW36466   1.995   1.709   7.519  0.2012  0.2280  0.0566
 8277SOL    HW136467   2.002   1.728   7.612  2.1520  0.7682 -0.1985
 8277SOL    HW236468   2.035   1.622   7.519  2.8475  1.4297 -0.3128
 8278SOL     OW36469   0.834   1.282   9.656 -0.0318  0.3348 -0.4967
 8278SOL    HW136470   0.746   1.270   9.620 -1.1857  0.8051  2.1830
 8278SOL    HW236471   0.879   1.199   9.641  2.2190  1.6123 -0.9077
 8279SOL     OW36472   1.400   0.816   1.434 -0.1816  0.0947 -0.7441
 8279SOL    HW136473   1.337   0.864   1.487  1.9105  1.0652  0.8550
 8279SOL    HW236474   1.483   0.838   1.476 -0.2687  0.8104 -0.9475
 8280SOL     OW36475   2.569   3.660   6.011  0.5641  0.3705 -0.1186
 8280SOL    HW136476   2.612   3.596   6.066  0.0811  1.7083  1.8153
 8280SOL    HW236477   2.543   3.724   6.077 -2.5830 -0.0981 -0.8907
 8281SOL     OW36478   1.206   1.119   8.870  0.2020 -0.0252  0.2138
 8281SOL    HW136479   1.247   1.042   8.908 -0.0568  0.3192  1.1831
 8281SOL    HW236480   1.260   1.128   8.791  1.3083 -0.6341  0.9142
 8282SOL     OW36481   2.565   2.156   3.018  0.2791 -0.4673 -0.3622
 8282SOL    HW136482   2.556   2.251   3.031 -4.1679 -1.0349  0.7221
 8282SOL    HW236483   2.471   2.137   3.019  0.7635 -2.4350  3.3916
 8283SOL     OW36484   4.310   2.426   5.565  0.1607 -0.2072  0.4566
 8283SOL    HW136485   4.232   2.439   5.511  0.2787 -1.2321  0.0286
 8283SOL    HW236486   4.368   2.390   5.497 -0.6696  0.4041 -0.5737
 8284SOL     OW36487   3.520   3.143   1.860  0.1177 -0.4652  0.2920
 8284SOL    HW136488   3.450   3.151   1.924  0.2241  0.8088  0.2387
 8284SOL    HW236489   3.550   3.233   1.871 -0.5742 -0.0564 -1.1750
 8285SOL     OW36490   0.181   4.198   9.339  0.1032  0.2430  0.0007
 8285SOL    HW136491   0.163   4.243   9.256  0.4380  0.0932 -0.1557
 8285SOL    HW236492   0.235   4.270   9.372 -2.2500  1.7723  0.4759
 8286SOL     OW36493   3.361   1.432   1.735 -0.0903 -0.4122  0.0544
 8286SOL    HW136494   3.441   1.393   1.698 -0.1517 -1.2950  0.8459
 8286SOL    HW236495   3.398   1.467   1.816  0.3917 -2.5548  0.7594
 8287SOL     OW36496   1.966   4.305   7.426  0.2246 -0.8153  0.2022
 8287SOL    HW136497   2.020   4.226   7.436 -0.2109 -1.4855 -2.7970
 8287SOL    HW236498   1.906   4.272   7.358 -0.9969 -0.6493  1.1935
 8288SOL     OW36499   3.025   0.765   7.514  0.1209 -0.3062 -0.3318
 8288SOL    HW136500   3.001   0.747   7.605  1.7788 -2.8873 -0.4219
 8288SOL    HW236501   2.952   0.824   7.495  0.6908 -0.4239 -2.8698
 8289SOL     OW36502   0.179   0.170   2.428 -0.3626 -0.6031  0.4988
 8289SOL    HW136503   0.142   0.082   2.437 -0.5373 -0.6205 -0.3875
 8289SOL    HW236504   0.095   0.216   2.417  0.5768  1.4307  1.8727
 8290SOL     OW36505   3.702   3.818   1.461 -1.0210 -0.6169  0.1335
 8290SOL    HW136506   3.793   3.821   1.432 -1.1259  2.0002  0.1092
 8290SOL    HW236507   3.687   3.911   1.478 -0.4220 -0.8725  2.0319
 8291SOL     OW36508   4.329   0.075   4.347 -0.7337  0.0366  0.7566
 8291SOL    HW136509   4.375   0.151   4.312  0.5943  0.0697  2.5990
 8291SOL    HW236510   4.403   0.041   4.398  1.1829 -0.1971 -2.1314
 8292SOL     OW36511   4.670   1.903  16.794  0.5170  0.1455 -0.4486
 8292SOL    HW136512   4.663   1.808  16.784 -0.6669  0.2074 -0.1447
 8292SOL    HW236513   0.027   1.910  16.810  0.8254 -1.0681 -1.7127
 8293SOL     OW36514   2.997   0.765   9.902  0.1013  0.4415 -0.2827
 8293SOL    HW136515   3.044   0.767   9.985 -1.6242  0.9731  0.6905
 8293SOL    HW236516   2.995   0.670   9.890 -2.4350  0.5454 -0.7171
 8294SOL     OW36517   3.732   3.045   8.016  0.6509 -0.3770  0.2950
 8294SOL    HW136518   3.748   2.966   7.964 -1.6079  0.0617 -1.0577
 8294SOL    HW236519   3.824   3.071   8.021  0.5999 -0.6434  2.4152
 8295SOL     OW36520   1.245   3.273   4.394  0.2068 -0.0388  0.0162
 8295SOL    HW136521   1.303   3.198   4.384 -0.9444 -1.4193  3.7016
 8295SOL    HW236522   1.298   3.345   4.360 -2.4275  2.4087  1.0873
 8296SOL     OW36523   1.516   4.599   8.411  0.0088  0.1391 -0.2435
 8296SOL    HW136524   1.530   4.508   8.438  0.6672 -0.3275 -2.1813
 8296SOL    HW236525   1.573   4.607   8.335  1.2797  0.6288  0.7524
 8297SOL     OW36526   2.668   3.356  16.825 -0.0896 -0.5007  0.0368
 8297SOL    HW136527   2.684   3.386  16.914  3.0745 -0.1256 -0.6573
 8297SOL    HW236528   2.582   3.388  16.799 -0.0679  0.0155  0.6192
 8298SOL     OW36529   3.153   0.665   2.667 -0.1675  0.7704  0.4780
 8298SOL    HW136530   3.071   0.714   2.661 -0.0156  0.9699  0.0285
 8298SOL    HW236531   3.156   0.659   2.763  1.5485  0.3655  0.4058
 8299SOL     OW36532   4.562   1.874   3.220 -0.3420 -0.0945 -0.2287
 8299SOL    HW136533   4.532   1.956   3.181  0.5793 -1.1690 -3.1917
 8299SOL    HW236534   4.577   1.814   3.147  1.2571 -0.7604  0.6389
 8300SOL     OW36535   0.120   2.562  12.789 -0.7654  0.0970  0.0065
 8300SOL    HW136536   0.139   2.469  12.784 -0.3763  0.1119  1.2658
 8300SOL    HW236537   0.081   2.572  12.876  1.2739 -1.1201  1.0642
 8301SOL     OW36538   2.929   1.500   5.692  0.5783 -0.5095 -0.7111
 8301SOL    HW136539   3.022   1.477   5.689  0.8242  0.1504  1.6759
 8301SOL    HW236540   2.930   1.578   5.748 -0.1755  1.2574 -3.1582
 8302SOL     OW36541   4.650   3.600   7.846 -0.7639 -0.2945 -0.2347
 8302SOL    HW136542   4.627   3.552   7.926 -0.5592  0.9214  0.5489
 8302SOL    HW236543   4.710   3.535   7.808  0.4396  1.8121 -1.9065
 8303SOL     OW36544   0.882   1.384   5.148  0.0871 -0.3436 -0.1027
 8303SOL    HW136545   0.964   1.432   5.140  1.0616 -1.6641  1.8549
 8303SOL    HW236546   0.815   1.451   5.142 -1.8841 -2.1340  2.1021
 8304SOL     OW36547   3.105   0.433   7.882  0.2615  0.0606  0.1254
 8304SOL    HW136548   3.011   0.434   7.862 -0.0435 -3.2605  1.4671
 8304SOL    HW236549   3.134   0.392   7.801 -1.3377 -0.0538 -0.3840
 8305SOL     OW36550   0.957   4.206   6.497 -0.0147 -0.0305 -0.7891
 8305SOL    HW136551   1.044   4.245   6.504  0.0248 -0.1531 -0.6042
 8305SOL    HW236552   0.919   4.233   6.580 -1.3639 -1.2991 -1.0004
 8306SOL     OW36553   0.527   1.812  14.915 -0.4619  0.2255 -0.2846
 8306SOL    HW136554   0.476   1.736  14.886  1.2324 -1.5192  1.2821
 8306SOL    HW236555   0.482   1.835  14.996  0.7469 -0.6699  0.6497
 8307SOL     OW36556   4.386   0.542   9.163 -0.0956 -0.1114 -0.1954
 8307SOL    HW136557   4.353   0.606   9.099  1.9168 -0.4927 -1.5973
 8307SOL    HW236558   4.445   0.489   9.110  0.2869  0.7468 -0.6317
 8308SOL     OW36559   3.687   2.111   7.223  1.0784 -0.4209  0.1491
 8308SOL    HW136560   3.653   2.106   7.312 -0.1507 -0.8330 -0.3453
 8308SOL    HW236561   3.742   2.033   7.217  2.2205  0.2759  1.6460
 8309SOL     OW36562   3.169   1.412   3.820 -0.2193 -0.1840 -0.1364
 8309SOL    HW136563   3.085   1.384   3.783 -0.0908 -0.9189  0.1160
 8309SOL    HW236564   3.217   1.417   3.738  0.4491  0.2753  0.2840
 8310SOL     OW36565   4.104   2.044   9.909  0.1636  0.2408 -0.1055
 8310SOL    HW136566   4.071   2.120   9.861 -2.4149 -0.5805  0.3776
 8310SOL    HW236567   4.029   1.984   9.910  0.7374 -0.4729  0.9152
 8311SOL     OW36568   4.252   3.879  10.759  0.2174  0.2994 -0.2229
 8311SOL    HW136569   4.340   3.899  10.726  0.4453  1.2315  0.9513
 8311SOL    HW236570   4.210   3.893  10.675 -0.8065  0.7420  0.3664
 8312SOL     OW36571   1.934   0.672   2.335  0.4421 -0.1746  0.6442
 8312SOL    HW136572   1.934   0.601   2.398  1.0957 -0.8052 -0.0629
 8312SOL    HW236573   1.973   0.625   2.261 -1.0464  1.4797 -1.2262
 8313SOL     OW36574   2.985   4.704   2.119  0.5391 -0.7536 -0.5455
 8313SOL    HW136575   3.039   4.625   2.117 -1.2680 -1.9531 -2.4674
 8313SOL    HW236576   3.059   0.025   2.109  0.3850 -0.3073  0.8643
 8314SOL     OW36577   3.994   0.552   8.339  0.0904  0.4826  0.2084
 8314SOL    HW136578   3.907   0.588   8.320  0.6288  0.8896 -1.4401
 8314SOL    HW236579   4.022   0.583   8.253  1.4830  0.1411  0.5329
 8315SOL     OW36580   1.912   3.081   4.585 -0.2089 -0.3581  0.0935
 8315SOL    HW136581   1.899   3.082   4.680 -0.4973  1.1574  0.0505
 8315SOL    HW236582   1.924   2.990   4.558  0.4284 -0.7023  1.5346
 8316SOL     OW36583   3.846   1.794   9.550 -0.9185 -0.4648  0.8687
 8316SOL    HW136584   3.939   1.775   9.554 -0.6433  0.6081 -0.4286
 8316SOL    HW236585   3.810   1.711   9.519  0.0632 -0.7079  0.3773
 8317SOL     OW36586   3.269   3.163   7.049  0.2842  0.2370 -0.1715
 8317SOL    HW136587   3.232   3.082   7.085 -0.5798  0.6068 -0.2227
 8317SOL    HW236588   3.270   3.213   7.131  0.4455 -0.1755  0.0753
 8318SOL     OW36589   3.314   3.444   1.253  0.1814 -0.1428  0.2852
 8318SOL    HW136590   3.243   3.493   1.212 -0.1362  0.1002  1.1330
 8318SOL    HW236591   3.378   3.515   1.245 -0.5344  0.5148  0.4158
 8319SOL     OW36592   0.611   4.513   8.101  0.3291  0.1750  0.3692
 8319SOL    HW136593   0.701   4.541   8.085  1.2007 -1.4719  2.4691
 8319SOL    HW236594   0.625   4.463   8.181  0.5418  0.6595  0.6303
 8320SOL     OW36595   3.128   2.423   3.957 -0.3720  0.1608 -0.0416
 8320SOL    HW136596   3.088   2.499   3.998 -0.3919  0.5762 -0.8187
 8320SOL    HW236597   3.199   2.461   3.905  2.7123 -1.5691  2.9315
 8321SOL     OW36598   3.488   2.614   5.935  0.3940  0.0607 -0.3117
 8321SOL    HW136599   3.581   2.595   5.941  0.3214 -0.5784 -1.2138
 8321SOL    HW236600   3.482   2.707   5.958 -1.8051  0.1723 -1.2676
 8322SOL     OW36601   1.040   3.775   8.586 -0.4800 -0.6338 -0.1090
 8322SOL    HW136602   0.953   3.812   8.568 -0.6882 -0.7543  0.6577
 8322SOL    HW236603   1.052   3.728   8.503  1.5496 -2.0607  1.0064
 8323SOL     OW36604   1.482   1.884   6.816 -0.7237  0.7160  0.3306
 8323SOL    HW136605   1.520   1.798   6.799 -2.8240 -0.4847  1.6709
 8323SOL    HW236606   1.532   1.936   6.753 -0.5155 -0.8625 -0.8084
 8324SOL     OW36607   2.769   0.725   8.592 -0.4793 -0.2063  0.4397
 8324SOL    HW136608   2.800   0.795   8.535 -0.7795  0.1137  0.6709
 8324SOL    HW236609   2.853   0.687   8.618 -0.6655  0.1284  1.5342
 8325SOL     OW36610   3.054   2.524   2.366  0.1280 -0.1538  0.1500
 8325SOL    HW136611   2.974   2.555   2.408 -0.3316  0.9599 -1.5280
 8325SOL    HW236612   3.109   2.602   2.370  0.9409 -0.7268  0.0665
 8326SOL     OW36613   4.153   1.883   1.276 -0.0621 -0.1556 -0.1877
 8326SOL    HW136614   4.117   1.972   1.278  0.6348  0.1462 -1.1287
 8326SOL    HW236615   4.162   1.865   1.369  0.5571 -1.0862 -0.4350
 8327SOL     OW36616   0.971   0.144   7.138  0.0751 -0.4241  0.2989
 8327SOL    HW136617   1.021   0.142   7.057  1.8794 -1.8026  1.4423
 8327SOL    HW236618   0.888   0.103   7.116 -0.4605  0.8419 -0.0581
 8328SOL     OW36619   1.098   1.030   5.723 -0.1704  0.0266  0.3169
 8328SOL    HW136620   1.095   1.069   5.636  0.8695  1.5415  0.9533
 8328SOL    HW236621   1.175   0.973   5.723 -1.6675 -1.9612 -2.9088
 8329SOL     OW36622   1.075   2.026   4.079 -0.8853 -0.0865  0.4874
 8329SOL    HW136623   1.065   1.931   4.074  0.5737 -0.2969  1.6191
 8329SOL    HW236624   1.110   2.041   4.167  2.6201 -1.0163 -0.7566
 8330SOL     OW36625   4.710   0.375   8.588  0.0837  0.4710  0.6611
 8330SOL    HW136626   4.634   0.387   8.645  0.6405 -2.3972  2.0020
 8330SOL    HW236627   4.693   0.296   8.537  1.1268 -0.7936  2.2845
 8331SOL     OW36628   2.868   3.991  17.277 -0.3625  0.1398  0.0468
 8331SOL    HW136629   2.815   4.070  17.265 -0.4484 -0.0499 -0.7541
 8331SOL    HW236630   2.802   3.926  17.303 -1.0996  1.3401  1.1865
 8332SOL     OW36631   3.088   3.373   1.615  0.2357 -0.5041 -0.5034
 8332SOL    HW136632   3.046   3.456   1.594  2.1231  0.7167  0.5621
 8332SOL    HW236633   3.014   3.315   1.631 -0.1448 -0.4075 -1.9290
 8333SOL     OW36634   0.909   1.499   7.184  0.3856  0.0370  0.2841
 8333SOL    HW136635   0.916   1.574   7.125 -2.4060 -0.4095 -0.6310
 8333SOL    HW236636   0.982   1.446   7.153  2.2850  2.1747  1.1215
 8334SOL     OW36637   0.575   4.340   4.176 -0.1310  0.7870 -0.3752
 8334SOL    HW136638   0.580   4.256   4.130  0.4495  1.1535 -0.9926
 8334SOL    HW236639   0.494   4.381   4.147 -1.5075 -0.5147  1.6766
 8335SOL     OW36640   4.687   3.235   9.981 -0.4082  0.9660  0.3466
 8335SOL    HW136641   4.716   3.325   9.965 -0.1739  0.9856  0.8814
 8335SOL    HW236642   4.705   3.233  10.075  1.4059  1.7141  0.0189
 8336SOL     OW36643   4.028   4.266   7.826 -0.0778 -0.3804 -0.1501
 8336SOL    HW136644   3.954   4.320   7.797 -0.3082 -0.5173  0.1788
 8336SOL    HW236645   4.012   4.263   7.921  0.0586 -1.2419 -0.1562
 8337SOL     OW36646   4.440   2.728   7.958  0.9635  0.5886 -0.3031
 8337SOL    HW136647   4.469   2.809   7.999  0.8741 -0.4945  1.9264
 8337SOL    HW236648   4.511   2.666   7.976 -2.2501 -3.1011 -0.2444
 8338SOL     OW36649   1.444   3.927   7.212 -0.5130 -0.5676 -0.3680
 8338SOL    HW136650   1.491   3.876   7.146 -1.9342 -1.6025 -0.5686
 8338SOL    HW236651   1.509   3.924   7.283  1.4499 -1.6855 -2.1988
 8339SOL     OW36652   3.138   3.686   7.383 -0.5244  0.1005 -0.1249
 8339SOL    HW136653   3.197   3.755   7.413 -0.9088  1.0772 -1.6643
 8339SOL    HW236654   3.144   3.690   7.288 -1.3560  0.9425 -0.1440
 8340SOL     OW36655   0.085   3.405   7.330  0.3711  0.1665 -0.6548
 8340SOL    HW136656   0.141   3.399   7.253 -0.4920 -3.9475 -1.0083
 8340SOL    HW236657   0.009   3.355   7.299 -1.1479  2.0706  0.0465
 8341SOL     OW36658   1.818   2.057   3.160  0.0934 -0.1458  0.3938
 8341SOL    HW136659   1.842   2.105   3.081 -1.0298  1.7656  1.2026
 8341SOL    HW236660   1.880   1.985   3.173 -0.7410 -0.8015  0.7588
 8342SOL     OW36661   3.565   3.331   0.102 -0.3764 -0.1392  1.0606
 8342SOL    HW136662   3.560   3.365   0.013  3.0553 -1.4876  0.3509
 8342SOL    HW236663   3.595   3.240   0.098 -0.2574 -0.1027  1.1182
 8343SOL     OW36664   3.401   4.668  13.606 -0.1319  0.1013  0.4239
 8343SOL    HW136665   3.369   4.578  13.613 -1.9511  0.3848 -3.6665
 8343SOL    HW236666   3.363   4.688  13.520 -1.3544  1.9059  1.3760
 8344SOL     OW36667   2.787   1.930   2.537  0.0035 -0.1830  0.2346
 8344SOL    HW136668   2.773   1.979   2.618 -0.2659 -1.8199  1.1860
 8344SOL    HW236669   2.730   1.857   2.560 -0.1867 -0.1003  0.0243
 8345SOL     OW36670   2.679   0.691   2.366  0.1278  0.0220 -0.0532
 8345SOL    HW136671   2.630   0.644   2.433  1.9850 -2.3728 -0.4186
 8345SOL    HW236672   2.610   0.755   2.347 -0.6414 -0.5523  0.8267
 8346SOL     OW36673   4.403   3.336   1.830  0.1640  0.5998 -0.0105
 8346SOL    HW136674   4.358   3.251   1.822  0.3120  0.4901  0.3041
 8346SOL    HW236675   4.461   3.329   1.906  0.4188 -0.9189 -0.3487
 8347SOL     OW36676   2.373   3.444  16.679  0.1927 -0.4011  0.1253
 8347SOL    HW136677   2.303   3.487  16.629 -0.9203 -0.0522  1.9730
 8347SOL    HW236678   2.427   3.412  16.607 -0.0648  0.8301 -0.6182
 8348SOL     OW36679   0.944   3.380   2.463 -0.2392 -0.2434 -0.0668
 8348SOL    HW136680   1.012   3.447   2.455 -0.2634 -0.3299 -1.0211
 8348SOL    HW236681   0.872   3.423   2.418 -0.2033  0.6708  0.7644
 8349SOL     OW36682   3.422   0.019   9.072 -0.0755 -0.1884 -0.3410
 8349SOL    HW136683   3.381   0.097   9.035 -1.4264 -0.4226  0.6476
 8349SOL    HW236684   3.409   4.695   9.001  0.7445 -0.0634 -0.6005
 8350SOL     OW36685   0.089   4.362  14.264  0.5355  0.3736 -0.5442
 8350SOL    HW136686   4.735   4.334  14.262  0.4019  0.7198  0.8306
 8350SOL    HW236687   0.088   4.416  14.343  0.6326  0.9853 -0.9560
 8351SOL     OW36688   1.535   2.727   2.974 -0.3169  0.5905 -0.4095
 8351SOL    HW136689   1.452   2.766   2.946 -1.7977 -1.5139  1.0753
 8351SOL    HW236690   1.536   2.656   2.909  0.1903  0.6913 -0.5053
 8352SOL     OW36691   1.972   4.555   5.750 -0.5944 -0.4587 -0.2930
 8352SOL    HW136692   1.918   4.526   5.676  2.4918  0.0642 -2.7186
 8352SOL    HW236693   1.905   4.586   5.811 -1.5961 -0.5467 -1.3313
 8353SOL     OW36694   0.383   0.995   6.593  0.3673 -0.1629  0.0447
 8353SOL    HW136695   0.477   0.979   6.594  0.3584 -0.2185 -0.0239
 8353SOL    HW236696   0.357   0.972   6.504 -1.1871  0.8193  0.2491
 8354SOL     OW36697   4.255   3.559   3.915 -0.0559  0.5438 -0.1589
 8354SOL    HW136698   4.230   3.509   3.837  0.7209  0.0382 -0.0887
 8354SOL    HW236699   4.345   3.584   3.892  0.0256  1.5529  1.2766
 8355SOL     OW36700   1.322   0.045  17.592  0.1725 -0.3154 -0.0079
 8355SOL    HW136701   1.247   0.025  17.536 -0.0309  1.2194 -0.2778
 8355SOL    HW236702   1.347   4.691  17.607  3.3933  0.9425  2.2285
 8356SOL     OW36703   1.230   0.225   2.154  0.1594 -0.0434 -0.1941
 8356SOL    HW136704   1.157   0.176   2.117  0.9480 -1.4373  0.0859
 8356SOL    HW236705   1.276   0.266   2.081 -1.0182  1.8509  0.1350
 8357SOL     OW36706   4.476   2.352   2.681 -0.3787  0.7769  0.5963
 8357SOL    HW136707   4.387   2.378   2.657 -0.4209 -0.6183 -0.7471
 8357SOL    HW236708   4.488   2.402   2.761  0.3732  0.3579  0.7532
 8358SOL     OW36709   4.073   3.129   5.734 -0.5348 -0.1037  0.2794
 8358SOL    HW136710   4.091   3.210   5.782 -0.5531 -2.0239  3.5075
 8358SOL    HW236711   4.049   3.065   5.801 -0.8293  1.0986  1.3385
 8359SOL     OW36712   0.129   1.865   6.916 -0.2068 -0.7837  0.8552
 8359SOL    HW136713   0.124   1.932   6.984 -1.1560 -0.9777  0.9740
 8359SOL    HW236714   0.166   1.787   6.958  0.9039 -0.4932  0.4020
 8360SOL     OW36715   2.060   1.205   4.657 -0.2178 -0.1101 -0.2913
 8360SOL    HW136716   2.029   1.130   4.708  0.4266  0.7442  1.3506
 8360SOL    HW236717   2.147   1.177   4.628  0.4329  0.4556  1.0922
 8361SOL     OW36718   4.500   2.315   2.248 -0.2216 -0.4008  0.3724
 8361SOL    HW136719   4.562   2.291   2.179 -1.0808 -0.5520 -0.3576
 8361SOL    HW236720   4.446   2.237   2.258  0.0047 -0.6734 -0.4561
 8362SOL     OW36721   0.316   1.749   7.684 -0.2699  0.1132  0.4549
 8362SOL    HW136722   0.389   1.697   7.718 -0.0693 -0.6807 -1.1872
 8362SOL    HW236723   0.364   1.823   7.649  0.3434 -0.7489 -0.5108
 8363SOL     OW36724   1.559   3.812   0.168 -0.3057 -0.1118 -0.4397
 8363SOL    HW136725   1.597   3.741   0.116 -1.5423 -0.8176 -0.3743
 8363SOL    HW236726   1.485   3.840   0.115 -0.2697 -1.8358 -1.4164
 8364SOL     OW36727   0.183   2.244   0.775 -0.2146 -0.3387  0.3310
 8364SOL    HW136728   0.092   2.220   0.794 -0.4107  1.3859  1.6503
 8364SOL    HW236729   0.202   2.205   0.690 -1.6800 -0.8077  0.2143
 8365SOL     OW36730   1.099   3.162  10.956 -0.0514  0.1872  0.3237
 8365SOL    HW136731   1.073   3.191  10.869  0.4787  0.4579  0.2603
 8365SOL    HW236732   1.172   3.103  10.937  0.0156  0.4943 -0.3615
 8366SOL     OW36733   2.232   3.148   8.967 -0.1337  0.0340  0.0592
 8366SOL    HW136734   2.222   3.089   9.042 -1.6732  0.1252 -0.0605
 8366SOL    HW236735   2.325   3.169   8.964 -0.4201  1.2924  0.0571
 8367SOL     OW36736   3.226   3.825  14.528 -0.3163 -0.1489  0.3922
 8367SOL    HW136737   3.245   3.872  14.447  0.7932 -2.2530 -0.5801
 8367SOL    HW236738   3.246   3.735  14.502  0.8117 -0.4682  2.2888
 8368SOL     OW36739   1.141   4.730   6.903  0.0236  0.3472 -0.4923
 8368SOL    HW136740   1.140   4.713   6.809 -1.2664  2.1185 -0.7878
 8368SOL    HW236741   1.063   4.696   6.947  0.1024  1.3959  0.4421
 8369SOL     OW36742   2.625   0.179   1.823 -0.4414  0.2006  0.8575
 8369SOL    HW136743   2.653   0.225   1.744 -3.6152  0.1330 -0.3132
 8369SOL    HW236744   2.532   0.172   1.802 -0.0085 -0.8250 -0.7310
 8370SOL     OW36745   4.450   2.126   2.981 -0.2994 -0.4597 -0.4517
 8370SOL    HW136746   4.360   2.104   2.960 -0.3078 -2.5217  1.7868
 8370SOL    HW236747   4.495   2.072   2.916 -1.3026 -0.1871 -1.3709
 8371SOL     OW36748   0.064   0.270   6.037  0.2406 -0.5242  0.6376
 8371SOL    HW136749   0.003   0.321   5.984  2.8714  0.8270 -1.0990
 8371SOL    HW236750   0.139   0.329   6.039  0.9372 -1.3603 -0.6103
 8372SOL     OW36751   0.832   2.765   6.419  0.0417 -0.8862  0.2596
 8372SOL    HW136752   0.757   2.809   6.458 -0.0700  1.1487 -2.2427
 8372SOL    HW236753   0.815   2.772   6.325  0.1409  0.6310  0.3585
 8373SOL     OW36754   0.936   0.831  11.141 -0.1790 -0.2744 -0.5334
 8373SOL    HW136755   0.870   0.898  11.122  0.2280  0.5835  1.1572
 8373SOL    HW236756   1.009   0.882  11.176  0.7320 -1.4575 -0.7265
 8374SOL     OW36757   3.177   1.970   3.074  0.0088  0.0433 -0.2021
 8374SOL    HW136758   3.227   1.989   2.995  1.5579  0.0029  0.7731
 8374SOL    HW236759   3.244   1.910   3.106  0.1510  0.9270  1.1489
 8375SOL     OW36760   2.010   1.841   3.280 -0.3147  0.3889 -0.1998
 8375SOL    HW136761   1.956   1.764   3.291  1.8871 -1.2059 -0.5542
 8375SOL    HW236762   2.047   1.843   3.369  0.5044 -3.8599 -0.4422
 8376SOL     OW36763   4.213   1.369  13.335 -0.4253  0.2357  0.1429
 8376SOL    HW136764   4.234   1.455  13.298 -0.1090  0.3135  0.5062
 8376SOL    HW236765   4.257   1.306  13.277 -0.2516 -1.4355  2.0775
 8377SOL     OW36766   3.232   1.017  13.887  0.1305 -0.9567 -0.2733
 8377SOL    HW136767   3.168   0.952  13.856  0.2392 -1.4983  0.6382
 8377SOL    HW236768   3.258   1.042  13.798  0.3958  2.3041  0.7332
 8378SOL     OW36769   4.112   3.031  16.547 -0.8903 -0.0089  0.0714
 8378SOL    HW136770   4.093   3.101  16.484  0.5563  0.1323 -0.2217
 8378SOL    HW236771   4.117   3.076  16.631  0.6487 -0.7954  0.4043
 8379SOL     OW36772   3.315   1.864   8.552 -0.5645 -0.5055 -0.2607
 8379SOL    HW136773   3.329   1.954   8.580  2.4706 -0.5245 -1.6549
 8379SOL    HW236774   3.373   1.863   8.476 -1.8648 -2.3693 -1.2504
 8380SOL     OW36775   0.979   4.479   2.339  0.2740  0.1604 -0.1578
 8380SOL    HW136776   0.920   4.456   2.267  0.3101 -0.6848  0.0898
 8380SOL    HW236777   1.018   4.559   2.305  0.1387  0.6618  0.8482
 8381SOL     OW36778   0.633   0.755  17.372 -0.2435  0.6517  0.5588
 8381SOL    HW136779   0.686   0.821  17.416 -0.1593  1.5290 -0.8663
 8381SOL    HW236780   0.641   0.781  17.280 -1.0140  1.2856  0.6698
 8382SOL     OW36781   1.644   1.692   8.899  0.1321 -0.4053  0.0905
 8382SOL    HW136782   1.601   1.610   8.874  0.1306 -0.3634 -0.0453
 8382SOL    HW236783   1.724   1.677   8.848  0.5142 -1.7577  1.0564
 8383SOL     OW36784   0.979   1.399   3.942 -0.8733  0.3352  0.1777
 8383SOL    HW136785   0.972   1.440   4.028 -0.7212 -2.6703  1.6446
 8383SOL    HW236786   0.885   1.388   3.932 -0.4200 -2.3361 -1.2354
 8384SOL     OW36787   1.135   4.692   7.358 -0.3742  0.5532 -0.1767
 8384SOL    HW136788   1.203   4.670   7.422  0.9044  3.0497 -0.6772
 8384SOL    HW236789   1.055   4.701   7.410  0.0379 -0.1223  0.5731
 8385SOL     OW36790   4.397   0.393  11.220 -0.1258  0.6316 -0.5344
 8385SOL    HW136791   4.367   0.448  11.293 -1.3882 -0.7231 -0.0333
 8385SOL    HW236792   4.341   0.433  11.153 -0.1240  2.7269  0.7026
 8386SOL     OW36793   0.939   2.716   5.708  0.2941 -0.0098 -0.6804
 8386SOL    HW136794   1.003   2.668   5.656 -0.6850 -1.3472 -0.6482
 8386SOL    HW236795   0.863   2.729   5.652 -0.4786  3.0361  1.0329
 8387SOL     OW36796   2.367   4.309   7.703  0.0061 -0.3280 -0.3898
 8387SOL    HW136797   2.350   4.403   7.693  0.1024 -0.0408  1.9544
 8387SOL    HW236798   2.290   4.275   7.657  0.6684  1.3645 -2.6949
 8388SOL     OW36799   1.486   2.255  10.644  0.2490 -0.0060  0.0804
 8388SOL    HW136800   1.457   2.211  10.723 -0.7363  1.7108  0.6661
 8388SOL    HW236801   1.458   2.343  10.668 -0.2419  0.1353 -0.9942
 8389SOL     OW36802   1.944   2.894   0.588  0.3817 -0.7828  0.2143
 8389SOL    HW136803   1.971   2.898   0.496  0.2384  0.1792  0.2089
 8389SOL    HW236804   1.941   2.987   0.609 -1.4160 -0.3506 -1.9077
 8390SOL     OW36805   1.261   4.587   0.664  0.1354  0.0041  0.2092
 8390SOL    HW136806   1.224   4.528   0.598  1.1676  1.0495 -1.3249
 8390SOL    HW236807   1.269   4.661   0.603 -0.4744  1.0898  1.4617
 8391SOL     OW36808   0.490   2.401   0.996  0.0241  0.0963 -0.2042
 8391SOL    HW136809   0.504   2.319   0.949  1.5163  0.7700 -0.9340
 8391SOL    HW236810   0.394   2.398   0.998  0.0693 -1.1762 -0.2227
 8392SOL     OW36811   1.483   4.632   3.477  0.4259  0.2866 -0.3404
 8392SOL    HW136812   1.455   4.630   3.569 -0.6772  2.4336 -0.6387
 8392SOL    HW236813   1.476   4.726   3.463 -0.2873 -0.1688 -3.0206
 8393SOL     OW36814   4.594   3.256   9.045  0.0539  0.1430  0.1617
 8393SOL    HW136815   4.600   3.164   9.021 -2.7541 -0.7533  2.8531
 8393SOL    HW236816   4.605   3.253   9.140 -0.4012 -1.3208  0.1624
 8394SOL     OW36817   3.781   4.431   8.867  0.0960  0.0149 -0.2460
 8394SOL    HW136818   3.865   4.389   8.886  0.3039  0.2837 -0.5629
 8394SOL    HW236819   3.760   4.478   8.947  0.5589  0.8256 -0.6031
 8395SOL     OW36820   1.009   4.237   4.818 -0.2437  0.0938  0.2104
 8395SOL    HW136821   0.979   4.302   4.755 -1.5985 -1.4983 -0.8148
 8395SOL    HW236822   1.066   4.283   4.879  0.4721 -1.4037  0.6677
 8396SOL     OW36823   3.473   0.223   9.645  0.2029  0.2282  0.7723
 8396SOL    HW136824   3.383   0.202   9.668 -0.1950  1.0751  0.0231
 8396SOL    HW236825   3.497   0.132   9.630 -0.7875  0.4210 -1.9393
 8397SOL     OW36826   1.131   2.665   2.359 -0.4066 -0.2388  0.0681
 8397SOL    HW136827   1.142   2.757   2.334  0.0299 -0.7366 -1.5959
 8397SOL    HW236828   1.060   2.662   2.422 -1.5071 -1.5226 -1.2501
 8398SOL     OW36829   4.134   2.184   0.378 -0.0173  0.0850 -0.3826
 8398SOL    HW136830   4.144   2.193   0.472  2.6573  0.8770 -0.7494
 8398SOL    HW236831   4.181   2.263   0.351  0.1953  0.1303  0.1200
 8399SOL     OW36832   2.248   0.277   4.767  0.3187  0.2030  0.6641
 8399SOL    HW136833   2.315   0.220   4.806 -0.3818 -0.7314  0.5040
 8399SOL    HW236834   2.285   0.312   4.686 -2.2730 -0.9083 -0.9735
 8400SOL     OW36835   3.173   2.469   5.296 -0.3556 -0.3614  0.2215
 8400SOL    HW136836   3.188   2.551   5.249 -1.3678 -0.4953 -0.3549
 8400SOL    HW236837   3.220   2.407   5.240 -0.1724 -0.4428  0.4673
 8401SOL     OW36838   0.511   3.707   9.971  0.3099 -0.4486  0.0548
 8401SOL    HW136839   0.528   3.680   9.881  1.0586 -0.4983  0.2146
 8401SOL    HW236840   0.418   3.685   9.976  0.3019 -0.4865 -0.2950
 8402SOL     OW36841   2.347   3.936  10.737  0.0105 -0.2424  0.0483
 8402SOL    HW136842   2.316   3.985  10.813  0.3131  0.8708 -0.5439
 8402SOL    HW236843   2.382   4.012  10.690 -1.6477 -0.5719 -1.7059
 8403SOL     OW36844   1.943   0.453   9.478 -0.7934  0.4101 -0.2686
 8403SOL    HW136845   2.027   0.471   9.436  0.1815 -0.5715  1.2626
 8403SOL    HW236846   1.974   0.471   9.566 -0.7598  1.0454 -0.4107
 8404SOL     OW36847   3.000   1.059  16.463 -0.2589  0.6078 -0.3170
 8404SOL    HW136848   2.961   1.073  16.377  3.0036 -0.7068 -2.0068
 8404SOL    HW236849   2.962   0.974  16.487  1.3446 -0.2887 -0.8974
 8405SOL     OW36850   0.361   0.133   1.979 -0.1882 -0.0392 -0.4671
 8405SOL    HW136851   0.343   0.152   1.887  0.8278 -0.1329 -0.6910
 8405SOL    HW236852   0.437   0.190   1.992 -0.0211  0.0434 -1.8663
 8406SOL     OW36853   3.783   1.901   7.637 -0.2346  0.0206 -0.0377
 8406SOL    HW136854   3.803   1.931   7.726 -3.2781 -1.8509  1.2700
 8406SOL    HW236855   3.859   1.849   7.612 -0.0144  0.0444  0.5785
 8407SOL     OW36856   0.971   1.776   2.283 -0.5073 -0.3572  0.0535
 8407SOL    HW136857   0.915   1.789   2.207 -0.2489  1.6440  0.2032
 8407SOL    HW236858   1.022   1.857   2.283 -0.5990 -0.2954  1.0168
 8408SOL     OW36859   1.922   3.595  10.486 -0.0590 -0.4459 -0.0906
 8408SOL    HW136860   2.006   3.598  10.441 -0.4607  0.9722 -0.7329
 8408SOL    HW236861   1.906   3.688  10.503 -1.6395 -0.7264  0.0244
 8409SOL     OW36862   3.930   3.997   7.117 -0.0157  0.3230  0.0998
 8409SOL    HW136863   4.007   3.942   7.126 -2.9711 -3.8362  0.0339
 8409SOL    HW236864   3.971   4.074   7.078  0.6447 -1.0256 -1.8433
 8410SOL     OW36865   1.826   3.536  12.583  0.3271 -0.4214  0.2165
 8410SOL    HW136866   1.896   3.481  12.547 -1.0340 -1.5900 -0.6742
 8410SOL    HW236867   1.857   3.625  12.565 -0.1563 -0.7132 -2.0528
 8411SOL     OW36868   0.124   2.364  10.255  1.1191 -0.3085  0.1573
 8411SOL    HW136869   0.112   2.373  10.160  1.0278  0.8032  0.2679
 8411SOL    HW236870   0.092   2.453  10.271 -0.2028 -0.8295  0.4480
 8412SOL     OW36871   3.143   3.212   2.343 -0.4731 -0.3129 -0.5787
 8412SOL    HW136872   3.199   3.288   2.363  0.6250 -1.4759  0.7841
 8412SOL    HW236873   3.064   3.252   2.308 -0.4073  0.4834  0.1761
 8413SOL     OW36874   0.048   4.308   4.999  0.4631 -0.2075  0.0670
 8413SOL    HW136875   4.702   4.277   4.965  1.6096 -0.4104 -2.6353
 8413SOL    HW236876   0.088   4.228   5.033  0.0158  0.4145  2.0579
 8414SOL     OW36877   0.033   3.967   5.642 -0.1066  0.1476 -0.4459
 8414SOL    HW136878   4.707   4.028   5.679 -0.0318 -0.3316  0.4684
 8414SOL    HW236879   4.718   3.888   5.648  0.7650 -0.4352 -0.4034
 8415SOL     OW36880   4.186   4.099   6.805 -0.3547 -0.1981  0.0670
 8415SOL    HW136881   4.254   4.116   6.870  0.1772  0.6647 -0.7107
 8415SOL    HW236882   4.232   4.069   6.726  2.7586  0.9620  1.4278
 8416SOL     OW36883   3.457   4.011   5.846  0.4849 -0.3523 -0.3406
 8416SOL    HW136884   3.427   3.949   5.780  0.1771 -2.4027  1.6882
 8416SOL    HW236885   3.457   3.950   5.921  1.2456 -1.9608 -1.6417
 8417SOL     OW36886   2.967   0.385   3.596 -0.2995  0.9115 -0.2193
 8417SOL    HW136887   3.027   0.407   3.525 -0.7474  0.1290 -0.8381
 8417SOL    HW236888   3.035   0.363   3.660 -0.4050  1.6452  0.1503
 8418SOL     OW36889   4.716   3.874   2.268 -0.1344 -0.0076  0.2133
 8418SOL    HW136890   4.737   3.956   2.313 -1.0855  0.4058 -0.0838
 8418SOL    HW236891   4.685   3.917   2.188  1.1407 -0.8527 -0.7317
 8419SOL     OW36892   4.630   3.282   8.632 -0.2947 -0.1310 -0.8417
 8419SOL    HW136893   4.563   3.216   8.652 -0.9627  0.2853 -1.6731
 8419SOL    HW236894   4.706   3.226   8.642 -0.9554 -0.5633  1.7341
 8420SOL     OW36895   1.980   3.418  14.788  0.3012 -0.5555  0.2699
 8420SOL    HW136896   2.018   3.348  14.842  1.8565  0.5416  0.5692
 8420SOL    HW236897   2.068   3.448  14.766  0.3043 -0.0998  0.8767
 8421SOL     OW36898   4.535   1.176   9.276 -0.2072 -0.0597  0.0807
 8421SOL    HW136899   4.522   1.241   9.207  0.5096 -1.7853 -1.6743
 8421SOL    HW236900   4.592   1.225   9.336 -1.3065 -0.3531  1.3817
 8422SOL     OW36901   2.795   3.709  11.760 -0.1942 -0.6404  0.3330
 8422SOL    HW136902   2.759   3.621  11.767  0.9792 -1.2124 -0.9240
 8422SOL    HW236903   2.878   3.679  11.799  0.9435  0.8880 -0.8950
 8423SOL     OW36904   1.346   3.912   9.718  0.0346 -0.0070 -0.1124
 8423SOL    HW136905   1.273   3.975   9.717 -0.3627 -0.4809 -1.0743
 8423SOL    HW236906   1.420   3.970   9.736  0.7492 -2.2216  3.9544
 8424SOL     OW36907   4.048   2.979   7.451 -0.2345  0.8937 -0.4121
 8424SOL    HW136908   4.129   3.006   7.408  1.3840 -1.9573  0.8451
 8424SOL    HW236909   4.078   2.890   7.470 -1.2063  1.0880  2.0107
 8425SOL     OW36910   1.280   2.561  15.461  0.1799  0.3801 -0.4787
 8425SOL    HW136911   1.185   2.547  15.459  0.1660  0.2348  0.9223
 8425SOL    HW236912   1.313   2.487  15.511  0.7612  0.0554 -1.3641
 8426SOL     OW36913   3.924   3.712   4.484 -0.3473  0.0526  0.3916
 8426SOL    HW136914   3.841   3.669   4.507 -1.6920  1.3511 -1.9631
 8426SOL    HW236915   3.950   3.664   4.405 -0.9406  0.2831  0.0549
 8427SOL     OW36916   4.192   3.623   7.899 -0.3199  0.0738  0.1051
 8427SOL    HW136917   4.184   3.605   7.993 -0.8511 -0.3231 -0.0193
 8427SOL    HW236918   4.160   3.546   7.853 -0.0124  0.7343 -1.2159
 8428SOL     OW36919   1.209   3.623   5.059  0.1340 -0.5390  0.2934
 8428SOL    HW136920   1.252   3.704   5.084 -2.0645 -0.0090  2.2808
 8428SOL    HW236921   1.177   3.658   4.976  1.2778 -1.2174 -0.4497
 8429SOL     OW36922   1.947   2.852   4.443 -0.6208  0.3956 -0.5643
 8429SOL    HW136923   1.996   2.918   4.393 -1.2401  1.0530 -0.2960
 8429SOL    HW236924   2.012   2.782   4.451  0.7933  1.9078  1.0928
 8430SOL     OW36925   2.580   1.067  16.568  0.5610 -0.3347  0.1742
 8430SOL    HW136926   2.519   1.082  16.496  0.2236  2.2786  1.0065
 8430SOL    HW236927   2.554   0.977  16.585  0.6383 -0.3625  0.1477
 8431SOL     OW36928   0.965   1.934   5.213 -0.1707 -0.3199  0.3379
 8431SOL    HW136929   0.922   2.020   5.207  1.5579  0.6915  2.2873
 8431SOL    HW236930   0.980   1.929   5.119 -1.5397 -1.5757  0.1836
 8432SOL     OW36931   3.727   3.158   6.072  0.0753  0.1178  0.0443
 8432SOL    HW136932   3.669   3.170   6.147  0.3143  3.7162 -0.3342
 8432SOL    HW236933   3.779   3.239   6.080  1.4625 -0.6008 -1.7607
 8433SOL     OW36934   3.540   1.239  16.957 -0.6024  0.6175  0.3726
 8433SOL    HW136935   3.574   1.307  16.898 -2.8784  0.9696 -0.5068
 8433SOL    HW236936   3.606   1.253  17.025  1.7545 -1.1568 -1.5445
 8434SOL     OW36937   3.064   1.380   7.381  0.6670 -0.0457 -0.5190
 8434SOL    HW136938   3.113   1.320   7.437 -0.9117  0.2632  1.2036
 8434SOL    HW236939   2.983   1.329   7.371  0.1880  0.9686 -1.8052
 8435SOL     OW36940   0.930   1.252   4.829  0.1946  0.7127 -0.5659
 8435SOL    HW136941   1.001   1.269   4.891 -0.0324 -1.2593  0.2427
 8435SOL    HW236942   0.976   1.179   4.787 -3.6432 -1.8047 -0.4289
 8436SOL     OW36943   2.405   0.770   4.265  0.1328 -0.4551 -0.0995
 8436SOL    HW136944   2.426   0.761   4.172  0.5173  0.2703 -0.0868
 8436SOL    HW236945   2.491   0.800   4.296  0.3329 -2.0151  0.8337
 8437SOL     OW36946   3.166   3.514   7.613 -0.0936  0.2934  0.0941
 8437SOL    HW136947   3.254   3.480   7.625 -0.8583 -1.7837 -0.2058
 8437SOL    HW236948   3.172   3.569   7.535 -2.6448  0.2355 -0.1593
 8438SOL     OW36949   0.833   2.966   8.106  0.5955  0.2588 -0.0399
 8438SOL    HW136950   0.802   2.978   8.017  0.3829  0.5056  0.0666
 8438SOL    HW236951   0.912   2.914   8.091 -0.7283 -2.7203  3.2018
 8439SOL     OW36952   2.594   0.925   1.847 -0.1007  0.0565 -0.2866
 8439SOL    HW136953   2.512   0.923   1.798 -0.3940  1.4873  0.1611
 8439SOL    HW236954   2.591   0.847   1.903 -1.0713 -0.5019 -1.1144
 8440SOL     OW36955   2.789   1.291   3.857 -0.5117 -0.0198  0.2049
 8440SOL    HW136956   2.732   1.312   3.783 -2.5195 -4.0038  0.6419
 8440SOL    HW236957   2.727   1.228   3.895 -0.4598 -2.2097 -3.3385
 8441SOL     OW36958   0.394   0.316  15.578  0.6441 -0.0776 -0.2632
 8441SOL    HW136959   0.442   0.387  15.620  0.1421  0.0689  0.0491
 8441SOL    HW236960   0.318   0.362  15.541 -0.2295 -0.7784  0.6699
 8442SOL     OW36961   4.541   2.767  14.291  0.4839  0.1986 -0.2807
 8442SOL    HW136962   4.513   2.677  14.274 -0.5419  0.0713  2.1060
 8442SOL    HW236963   4.543   2.797  14.200  0.1257  1.2077  0.0436
 8443SOL     OW36964   3.104   3.952  13.670  0.0674  0.3648 -0.5332
 8443SOL    HW136965   3.116   3.947  13.575 -1.9042 -0.8237 -0.7207
 8443SOL    HW236966   3.011   3.931  13.680 -0.3507  2.1539 -0.7410
 8444SOL     OW36967   4.110   4.211   2.712  0.4192 -0.0578 -0.0772
 8444SOL    HW136968   4.123   4.158   2.633  2.1012 -1.2764  1.0093
 8444SOL    HW236969   4.105   4.142   2.778 -1.2257  2.3102  2.2332
 8445SOL     OW36970   1.252   0.407   4.526 -0.1336 -0.0782 -0.0896
 8445SOL    HW136971   1.255   0.502   4.517 -1.9550  0.0218  0.3312
 8445SOL    HW236972   1.313   0.397   4.599 -0.7576  0.0813  0.4528
 8446SOL     OW36973   0.172   2.888   5.667 -0.2098 -0.3714  0.5894
 8446SOL    HW136974   0.122   2.925   5.594 -1.7825 -2.7042  0.4867
 8446SOL    HW236975   0.113   2.815   5.687 -1.8357  0.5581 -0.9260
 8447SOL     OW36976   1.679   2.442   6.175 -0.2950 -0.2411 -0.2838
 8447SOL    HW136977   1.767   2.454   6.140 -1.2065 -0.6018 -2.7290
 8447SOL    HW236978   1.679   2.497   6.254 -2.4003  0.8625 -1.0328
 8448SOL     OW36979   3.333   1.645   5.478  0.2672  0.3597 -0.0392
 8448SOL    HW136980   3.321   1.651   5.383  0.7386  2.5061  0.0315
 8448SOL    HW236981   3.254   1.593   5.490 -0.1419  0.4521 -2.3237
 8449SOL     OW36982   4.355   1.667   2.764 -0.3447 -0.6390 -0.4991
 8449SOL    HW136983   4.277   1.721   2.781  0.9568  0.6772  1.2558
 8449SOL    HW236984   4.347   1.586   2.813 -3.0859  1.0156  1.7935
 8450SOL     OW36985   0.470   2.063   0.543  0.2036  0.0851 -0.1782
 8450SOL    HW136986   0.463   2.048   0.448 -0.4415 -0.7256 -0.0007
 8450SOL    HW236987   0.477   2.157   0.560  1.9718  0.0047 -0.4387
 8451SOL     OW36988   2.247   4.553   7.688 -0.5003 -0.3598 -0.6213
 8451SOL    HW136989   2.152   4.557   7.683 -0.6473 -1.2715  1.6250
 8451SOL    HW236990   2.258   4.629   7.746 -0.8179  0.3098 -1.4341
 8452SOL     OW36991   0.176   2.973   7.684  0.1722  0.1868 -1.0766
 8452SOL    HW136992   0.211   3.035   7.620  1.6692 -0.7072 -1.0948
 8452SOL    HW236993   0.259   2.950   7.724 -1.8175 -2.4295  1.4713
 8453SOL     OW36994   0.059   0.067   4.105 -0.5338 -0.1590  0.2954
 8453SOL    HW136995   0.039   0.076   4.012 -2.4152  0.8730  0.7969
 8453SOL    HW236996   0.154   0.080   4.110 -0.3751 -0.7363 -1.1271
 8454SOL     OW36997   1.210   1.512   1.138  0.0553  0.4721 -0.2691
 8454SOL    HW136998   1.289   1.470   1.170  0.4729  1.9561  0.6157
 8454SOL    HW236999   1.223   1.494   1.045  0.1196  1.0128 -0.3647
 8455SOL     OW37000   4.062   4.009   2.915 -0.1286 -0.4171  0.4193
 8455SOL    HW137001   4.118   4.026   2.991  1.0168 -0.0892 -0.4868
 8455SOL    HW237002   3.989   4.071   2.919 -0.3072 -0.6574  1.0164
 8456SOL     OW37003   0.320   1.934   2.047 -0.1296 -0.1845 -0.0161
 8456SOL    HW137004   0.376   1.903   1.975 -0.1854  1.9931 -1.0085
 8456SOL    HW237005   0.288   1.852   2.083 -1.4428 -0.0994 -0.9810
 8457SOL     OW37006   3.296   3.040   5.291  0.4961 -0.2715  0.3072
 8457SOL    HW137007   3.346   2.972   5.338 -1.0777 -1.4095  0.3250
 8457SOL    HW237008   3.239   3.075   5.359 -1.7918 -2.8603 -0.2739
 8458SOL     OW37009   4.021   2.982  15.539  0.5540 -0.3114 -0.1837
 8458SOL    HW137010   4.064   2.971  15.455 -0.5298 -1.2909 -0.6128
 8458SOL    HW237011   4.031   3.074  15.564 -0.3840 -0.2110 -0.1815
 8459SOL     OW37012   2.465   1.346   1.447 -0.2119 -0.0652  0.2016
 8459SOL    HW137013   2.435   1.293   1.374 -0.1074  0.1652 -0.0058
 8459SOL    HW237014   2.559   1.327   1.444  0.1367  1.7692 -0.5304
 8460SOL     OW37015   1.392   0.314  13.559  0.1122  0.0306 -0.1012
 8460SOL    HW137016   1.419   0.279  13.644  1.3428 -2.0030 -1.3266
 8460SOL    HW237017   1.322   0.377  13.574 -0.1163 -0.0083 -0.9690
 8461SOL     OW37018   0.880   2.457   9.327  0.2476 -0.5381 -0.1449
 8461SOL    HW137019   0.867   2.518   9.254 -0.2633  0.0928  0.4707
 8461SOL    HW237020   0.912   2.512   9.399 -2.1272 -0.0820  0.5548
 8462SOL     OW37021   0.810   0.382   1.406  0.5312  0.0105  0.2089
 8462SOL    HW137022   0.818   0.475   1.384 -1.4889  0.4019  1.2092
 8462SOL    HW237023   0.752   0.347   1.339  0.3830  0.8079 -0.0803
 8463SOL     OW37024   1.155   3.540   5.318 -0.4667  0.3440  0.3080
 8463SOL    HW137025   1.206   3.462   5.296  0.2983  0.3589  1.9923
 8463SOL    HW237026   1.166   3.607   5.251 -0.2249 -1.0186 -0.9999
 8464SOL     OW37027   3.317   4.096   4.577  0.5636 -0.3507 -0.1256
 8464SOL    HW137028   3.253   4.141   4.633 -0.0515 -1.5303  0.1255
 8464SOL    HW237029   3.395   4.123   4.627 -0.7668  1.6579  0.8840
 8465SOL     OW37030   2.714   0.243  15.997  0.4533 -0.1761 -0.2926
 8465SOL    HW137031   2.757   0.165  16.030  1.3401  0.2280 -0.4866
 8465SOL    HW237032   2.651   0.260  16.067  2.3470 -0.0197  1.3447
 8466SOL     OW37033   1.828   0.830   3.036 -0.2114 -0.0180 -0.0965
 8466SOL    HW137034   1.835   0.874   3.121 -1.8027 -1.9185  0.9952
 8466SOL    HW237035   1.774   0.752   3.048 -0.6604  0.4105  0.6510
 8467SOL     OW37036   1.908   0.365  11.239 -0.0487  0.1441  0.1220
 8467SOL    HW137037   1.822   0.392  11.271 -0.3283 -1.4353  0.6786
 8467SOL    HW237038   1.914   0.284  11.289 -0.3429  0.1478  0.1619
 8468SOL     OW37039   4.038   0.272  11.328 -0.0482 -0.4911  0.1791
 8468SOL    HW137040   4.131   0.267  11.307 -0.1302 -3.0914  0.3994
 8468SOL    HW237041   4.034   0.237  11.417 -1.2566 -1.8782 -0.4163
 8469SOL     OW37042   3.706   0.210   9.237 -0.0273  0.1179  0.0351
 8469SOL    HW137043   3.747   0.297   9.229 -2.8720  1.3049 -1.7601
 8469SOL    HW237044   3.615   0.236   9.223  0.5239  1.2818 -1.3801
 8470SOL     OW37045   2.367   1.975   9.351 -0.4031 -0.1842 -0.1337
 8470SOL    HW137046   2.392   2.052   9.402  1.1699 -1.2809  0.7399
 8470SOL    HW237047   2.382   1.897   9.403  0.5105  1.2381  1.7299
 8471SOL     OW37048   1.580   1.793  13.718  0.1034  0.4226  0.2342
 8471SOL    HW137049   1.646   1.830  13.776  0.0986  1.9340 -0.7135
 8471SOL    HW237050   1.619   1.710  13.690 -0.1561 -0.2207  1.7826
 8472SOL     OW37051   0.239   3.353   4.300  0.1577  0.3990 -0.2626
 8472SOL    HW137052   0.167   3.296   4.328 -0.5806  1.2759 -0.4119
 8472SOL    HW237053   0.209   3.442   4.315  0.0057  0.2480  0.3379
 8473SOL     OW37054   0.818   4.040   9.076  0.1428 -0.5230  0.1859
 8473SOL    HW137055   0.901   4.057   9.033 -0.3650  0.4393 -0.4137
 8473SOL    HW237056   0.834   3.952   9.110 -1.5543 -0.7387  0.4362
 8474SOL     OW37057   1.952   4.020  12.089  0.0678 -0.2028  0.3637
 8474SOL    HW137058   1.873   4.024  12.035  1.2090  0.9593 -1.2405
 8474SOL    HW237059   1.992   4.105  12.069  2.1139 -1.6135 -1.4607
 8475SOL     OW37060   1.870   4.431   2.873 -0.5504  0.5678 -0.2280
 8475SOL    HW137061   1.815   4.362   2.835 -0.0475  0.1089 -0.1270
 8475SOL    HW237062   1.802   4.494   2.894 -1.2170 -0.9613  2.1551
 8476SOL     OW37063   0.001   2.515   4.242 -0.9284  0.2673 -0.0161
 8476SOL    HW137064   0.051   2.434   4.236  2.5122  2.3055  0.6316
 8476SOL    HW237065   0.006   2.529   4.337  2.5077  1.7574 -0.3931
 8477SOL     OW37066   1.103   0.315   5.392  0.4660  0.2139 -0.1543
 8477SOL    HW137067   1.090   0.327   5.486 -1.0815  0.4695 -0.4042
 8477SOL    HW237068   1.159   0.392   5.380 -0.3245  0.3635 -2.9815
 8478SOL     OW37069   4.002   4.677   8.915 -0.6222 -0.1453 -0.1400
 8478SOL    HW137070   3.930   4.700   8.973 -0.1869  0.8904 -0.0071
 8478SOL    HW237071   3.969   4.715   8.834 -0.2059  2.1052  0.7495
 8479SOL     OW37072   1.355   4.674  17.063 -0.3324 -0.0221 -0.1099
 8479SOL    HW137073   1.387   4.713  17.144 -0.8738 -0.6741  0.4106
 8479SOL    HW237074   1.410   4.596  17.062 -1.0424 -0.5340  1.4124
 8480SOL     OW37075   0.765   0.933   5.069 -0.0068 -0.2239  0.7311
 8480SOL    HW137076   0.732   0.884   5.144 -2.0907  0.7149  0.4336
 8480SOL    HW237077   0.837   0.986   5.103 -3.1712  2.7027  2.9097
 8481SOL     OW37078   0.055   0.971  10.989 -0.0702 -0.0683 -0.0314
 8481SOL    HW137079   0.129   1.006  11.038 -0.0096  1.0844 -0.9195
 8481SOL    HW237080   0.061   1.027  10.911  0.1206  0.2688  0.2241
 8482SOL     OW37081   4.679   2.168  12.439  0.7819  0.1535 -0.3486
 8482SOL    HW137082   4.729   2.107  12.493 -2.2436 -0.2320  2.0240
 8482SOL    HW237083   4.607   2.178  12.502  1.4443  1.9612  0.1073
 8483SOL     OW37084   1.804   1.592   6.344 -0.0405  0.0537 -0.2513
 8483SOL    HW137085   1.848   1.622   6.424 -2.4727 -0.1959  1.1694
 8483SOL    HW237086   1.754   1.515   6.369  0.7335 -0.3758 -0.0211
 8484SOL     OW37087   2.429   1.830  12.639  0.1469 -0.3270 -0.5254
 8484SOL    HW137088   2.349   1.838  12.692  0.8676 -0.1064  0.5327
 8484SOL    HW237089   2.445   1.919  12.608 -0.2785  0.9914  3.0232
 8485SOL     OW37090   2.147   0.997   6.260  0.1480 -0.4625 -0.2894
 8485SOL    HW137091   2.134   1.003   6.165 -2.0656 -0.7131 -0.0178
 8485SOL    HW237092   2.058   0.975   6.288 -0.1830 -0.6829 -1.5025
 8486SOL     OW37093   2.041   4.300   6.419  0.3597  0.1431  0.5064
 8486SOL    HW137094   2.056   4.367   6.485  0.9291 -0.5597  1.0898
 8486SOL    HW237095   2.116   4.313   6.362  1.1173  1.4839  1.8319
 8487SOL     OW37096   0.095   4.171   5.328  0.0225  0.2165 -0.0278
 8487SOL    HW137097   0.160   4.216   5.382 -0.7241  1.0189  0.2006
 8487SOL    HW237098   0.144   4.109   5.274  0.2308  0.1583  0.2281
 8488SOL     OW37099   4.434   1.239   6.891 -0.2567  0.2670 -0.3514
 8488SOL    HW137100   4.344   1.228   6.921 -0.9191  0.9082 -2.0834
 8488SOL    HW237101   4.442   1.150   6.858 -2.1235 -0.0335 -0.0032
 8489SOL     OW37102   2.920   3.583  14.634  0.1178  0.0803  0.3936
 8489SOL    HW137103   2.875   3.654  14.680 -1.7737  0.0289 -1.3344
 8489SOL    HW237104   2.852   3.518  14.648  0.3414 -0.8766 -2.8483
 8490SOL     OW37105   3.550   4.665  13.828  0.3224  0.0839  0.0527
 8490SOL    HW137106   3.634   4.692  13.791  0.3072 -0.8865 -0.6982
 8490SOL    HW237107   3.497   4.680  13.749 -1.5176 -1.5548  0.9485
 8491SOL     OW37108   0.105   1.258  15.522  0.5087 -0.0556 -0.1132
 8491SOL    HW137109   0.056   1.312  15.585  0.0960  2.6802 -2.7885
 8491SOL    HW237110   0.198   1.273  15.537  0.2549  0.2190  1.2364
 8492SOL     OW37111   0.674   3.167  15.354  0.3333 -0.6822 -0.2115
 8492SOL    HW137112   0.651   3.087  15.305 -2.9307  0.3284 -0.3184
 8492SOL    HW237113   0.760   3.148  15.392 -0.8392 -3.8067  0.9187
 8493SOL     OW37114   2.735   1.343   1.514  0.6049 -0.3496 -0.1343
 8493SOL    HW137115   2.756   1.315   1.603  0.2827  0.7724  0.2987
 8493SOL    HW237116   2.797   1.416   1.508 -1.4308  1.2944 -1.2401
 8494SOL     OW37117   0.118   4.478   9.848  0.5767 -0.5455  0.3205
 8494SOL    HW137118   0.134   4.386   9.826 -1.3592 -0.6055 -0.8517
 8494SOL    HW237119   0.117   4.513   9.759  2.3381 -0.9441  0.1436
 8495SOL     OW37120   3.809   2.388   6.686 -0.1819 -0.0140 -0.2464
 8495SOL    HW137121   3.841   2.355   6.770 -0.1809 -0.4123 -0.4053
 8495SOL    HW237122   3.715   2.394   6.703  0.0092  1.5709  0.3331
 8496SOL     OW37123   2.559   2.577   2.037 -0.0387  0.1281  0.7242
 8496SOL    HW137124   2.465   2.578   2.058  0.1951  0.9038  1.7642
 8496SOL    HW237125   2.556   2.606   1.946 -1.8576  0.4451  0.8729
 8497SOL     OW37126   1.268   3.845   0.066  0.3651  0.5539 -0.0332
 8497SOL    HW137127   1.197   3.793   0.104  1.2024  1.7149  3.0973
 8497SOL    HW237128   1.260   3.920   0.125  1.8873  0.6793  0.0165
 8498SOL     OW37129   1.402   4.403   1.472 -0.1002  0.0218  0.0370
 8498SOL    HW137130   1.378   4.390   1.564 -0.2547  1.6465  0.2344
 8498SOL    HW237131   1.496   4.388   1.484  0.0155  0.8799  0.2260
 8499SOL     OW37132   2.975   1.301   2.211 -0.5221 -0.0355  0.2227
 8499SOL    HW137133   2.975   1.293   2.306  1.4222  0.5440  0.2710
 8499SOL    HW237134   3.066   1.331   2.204 -0.1198 -0.4553  3.6070
 8500SOL     OW37135   4.119   0.698   7.863  0.3868 -0.1944 -0.1582
 8500SOL    HW137136   4.047   0.676   7.805  1.0110 -1.4478 -0.4641
 8500SOL    HW237137   4.142   0.788   7.842 -0.5300  0.2218  0.6166
 8501SOL     OW37138   1.732   0.199   1.902 -0.4385  0.7116  0.1722
 8501SOL    HW137139   1.795   0.267   1.926  0.8498  0.8538 -3.7246
 8501SOL    HW237140   1.664   0.212   1.968  1.0016  0.6565  1.6639
 8502SOL     OW37141   3.724   2.837   4.556 -0.0139 -0.3887 -0.8896
 8502SOL    HW137142   3.791   2.845   4.487 -0.4877  0.6522 -1.2292
 8502SOL    HW237143   3.772   2.800   4.630 -0.8136 -0.9363 -0.6522
 8503SOL     OW37144   0.796   0.202   1.946  0.1297  0.0467  0.1961
 8503SOL    HW137145   0.792   0.210   1.850  0.4973  1.8940  0.3381
 8503SOL    HW237146   0.708   0.233   1.970  0.1972 -0.6282  1.2961
 8504SOL     OW37147   4.267   4.580   6.345  0.8007  0.0899  0.9114
 8504SOL    HW137148   4.211   4.522   6.292  1.7237 -1.3456  1.5151
 8504SOL    HW237149   4.322   4.610   6.272 -0.6817 -1.6699 -0.9488
 8505SOL     OW37150   2.938   1.584   7.552 -0.2288 -0.2177 -0.0456
 8505SOL    HW137151   2.960   1.635   7.474 -0.2148 -0.7727 -0.3982
 8505SOL    HW237152   2.967   1.496   7.530  0.5907 -0.2022  0.9373
 8506SOL     OW37153   1.032   1.969  14.600 -0.5747 -0.7243 -0.2365
 8506SOL    HW137154   1.104   1.971  14.663 -0.6315 -1.0851 -0.1620
 8506SOL    HW237155   0.968   1.912  14.641 -2.8137  1.3323 -0.8717
 8507SOL     OW37156   3.942   0.855  13.176  0.5282  0.3037  0.3058
 8507SOL    HW137157   4.015   0.897  13.223  1.0611 -0.8130  0.4717
 8507SOL    HW237158   3.905   0.933  13.135 -0.3382 -0.2950 -0.0387
 8508SOL     OW37159   2.104   1.626   8.230 -0.3920  0.0933  0.5132
 8508SOL    HW137160   2.123   1.544   8.275 -1.9093  0.0952  1.1505
 8508SOL    HW237161   2.042   1.652   8.298  1.1041  0.4347  1.7246
 8509SOL     OW37162   0.344   2.819  10.415  0.0814 -0.3073 -0.3677
 8509SOL    HW137163   0.319   2.903  10.453  1.8540 -0.3412  0.8882
 8509SOL    HW237164   0.383   2.780  10.493 -0.1470  1.1967  0.4798
 8510SOL     OW37165   1.153   3.110   1.658 -0.5746  0.2215  0.5552
 8510SOL    HW137166   1.226   3.069   1.704  0.4403 -0.6517 -1.8214
 8510SOL    HW237167   1.079   3.092   1.715 -0.2656  1.7487  1.4277
 8511SOL     OW37168   4.603   1.865   1.315 -0.0420 -0.4702  0.3234
 8511SOL    HW137169   4.665   1.794   1.331  0.4579 -0.0715  0.1688
 8511SOL    HW237170   4.541   1.818   1.258  1.2620  0.1555 -1.5944
 8512SOL     OW37171   0.714   4.201   7.201  0.4398  0.0387  0.0560
 8512SOL    HW137172   0.712   4.106   7.207 -0.2346  0.1593  1.5324
 8512SOL    HW237173   0.790   4.223   7.255  0.0718 -1.2711  1.1200
 8513SOL     OW37174   0.831   2.026   3.198  0.2181  0.2012 -0.8017
 8513SOL    HW137175   0.751   1.977   3.216  1.7260 -1.8153  0.3128
 8513SOL    HW237176   0.846   2.044   3.291  1.2388 -1.6815 -0.6235
 8514SOL     OW37177   2.449   4.628   4.158 -0.4019 -0.0852 -0.8348
 8514SOL    HW137178   2.491   4.713   4.138 -0.8686  0.4139  0.3276
 8514SOL    HW237179   2.382   4.622   4.090  2.3503 -2.4791 -3.3836
 8515SOL     OW37180   2.863   1.301  15.685  0.1338 -0.1326  0.1460
 8515SOL    HW137181   2.847   1.301  15.780 -1.9101 -2.3489 -0.2121
 8515SOL    HW237182   2.957   1.322  15.682 -0.2980  1.8765  0.3105
 8516SOL     OW37183   0.196   2.513  15.997  0.0102  0.5362 -0.0025
 8516SOL    HW137184   0.150   2.595  15.984  0.1544  0.4474 -1.0267
 8516SOL    HW237185   0.282   2.535  16.035 -0.2527  0.6826  0.5119
 8517SOL     OW37186   1.769   0.109  14.894  0.2193 -0.0287 -0.1069
 8517SOL    HW137187   1.690   0.151  14.859 -1.1089 -3.5321 -1.2430
 8517SOL    HW237188   1.833   0.180  14.889 -0.4928  0.6665  0.4242
 8518SOL     OW37189   2.445   3.271  12.181 -0.2121 -0.0387 -0.4157
 8518SOL    HW137190   2.490   3.346  12.143  1.7251 -0.7322  0.5157
 8518SOL    HW237191   2.362   3.315  12.200  0.1737  0.2689  0.5710
 8519SOL     OW37192   3.847   0.560   4.971  0.1579  0.2631  0.2172
 8519SOL    HW137193   3.929   0.609   4.982  0.4685 -0.4050  0.8757
 8519SOL    HW237194   3.841   0.573   4.877  1.2358 -0.3712  0.0660
 8520SOL     OW37195   2.812   0.814   7.082  0.7013  0.0095  0.3842
 8520SOL    HW137196   2.798   0.836   6.990  2.3141 -1.5354 -0.2206
 8520SOL    HW237197   2.836   0.897   7.125 -0.9774 -0.4036  2.1157
 8521SOL     OW37198   1.359   1.469   9.243 -0.0044 -0.2215  0.2069
 8521SOL    HW137199   1.339   1.418   9.164  0.4342 -0.3164  0.1589
 8521SOL    HW237200   1.308   1.422   9.309 -0.2389  1.9990  1.6137
 8522SOL     OW37201   3.511   1.081   2.266  0.0264  0.1759 -0.3427
 8522SOL    HW137202   3.466   1.105   2.185 -1.2318  0.8949  0.5738
 8522SOL    HW237203   3.482   1.145   2.331 -2.2491 -0.4791 -0.7102
 8523SOL     OW37204   2.244   2.087   8.628 -0.1065  0.0905 -0.2094
 8523SOL    HW137205   2.300   2.124   8.560 -1.2761  0.7622 -0.8085
 8523SOL    HW237206   2.194   2.163   8.658  1.3430  0.8183  0.3926
 8524SOL     OW37207   3.500   1.505   4.854  0.0336 -0.1998 -0.6532
 8524SOL    HW137208   3.582   1.523   4.807  0.8849 -2.6153 -0.1032
 8524SOL    HW237209   3.479   1.428   4.802 -0.9130 -0.5494  0.2600
 8525SOL     OW37210   0.678   4.070  16.418 -0.3725 -0.0977 -0.6994
 8525SOL    HW137211   0.688   4.164  16.434 -1.6270 -0.0144 -0.3857
 8525SOL    HW237212   0.724   4.066  16.334  1.2847 -1.3362  0.2757
 8526SOL     OW37213   1.406   3.199   7.628  0.4753  0.1636  0.0666
 8526SOL    HW137214   1.403   3.290   7.656  0.3128  0.3786 -0.6379
 8526SOL    HW237215   1.472   3.192   7.558 -0.4844 -0.7409 -0.7395
 8527SOL     OW37216   3.463   0.798   6.691 -0.2615  0.4161  0.2639
 8527SOL    HW137217   3.367   0.787   6.693  0.0929 -2.7308 -0.1299
 8527SOL    HW237218   3.484   0.891   6.685  0.3868  0.2384 -0.1881
 8528SOL     OW37219   3.442   1.592   6.099  0.5270  0.3099 -0.1747
 8528SOL    HW137220   3.407   1.524   6.156  0.7128 -0.6271 -1.1813
 8528SOL    HW237221   3.523   1.607   6.149 -0.2817  1.2103  0.8636
 8529SOL     OW37222   3.944   0.848   8.180 -1.2085 -0.1032  0.4721
 8529SOL    HW137223   3.871   0.795   8.212 -1.7812  1.1303  1.2052
 8529SOL    HW237224   3.916   0.843   8.089 -1.5272  0.1449  0.5604
 8530SOL     OW37225   4.531   2.396   3.473 -0.8118 -0.6765  0.0808
 8530SOL    HW137226   4.582   2.400   3.554  0.5635  0.1935 -0.8328
 8530SOL    HW237227   4.597   2.396   3.404  0.9881  1.2939  1.8504
 8531SOL     OW37228   2.662   4.153   1.330  0.2924 -0.4179 -0.7426
 8531SOL    HW137229   2.600   4.106   1.275  1.4272  0.6784 -2.9299
 8531SOL    HW237230   2.604   4.158   1.406 -0.9470 -0.4358 -1.6921
 8532SOL     OW37231   0.349   1.151   3.127 -0.2726 -0.4058 -0.2780
 8532SOL    HW137232   0.400   1.215   3.078  0.5054 -0.5921  0.2796
 8532SOL    HW237233   0.329   1.081   3.064 -1.2310  0.3272 -0.7742
 8533SOL     OW37234   4.091   2.327   4.551 -0.7056  0.5033 -0.1212
 8533SOL    HW137235   4.171   2.379   4.563 -0.2614 -0.3559  0.6197
 8533SOL    HW237236   4.110   2.252   4.606  0.2670  0.1278 -0.9602
 8534SOL     OW37237   2.003   0.423   7.388 -0.0809 -0.1892  0.3216
 8534SOL    HW137238   1.990   0.417   7.482  3.3881  1.6786  0.9183
 8534SOL    HW237239   1.959   0.506   7.367 -0.7336 -0.7104 -0.3688
 8535SOL     OW37240   1.306   0.391   6.074 -0.2214 -0.0925 -0.0612
 8535SOL    HW137241   1.377   0.338   6.112 -1.2458  0.7164  3.0122
 8535SOL    HW237242   1.258   0.428   6.148 -2.1142  0.9575 -1.8374
 8536SOL     OW37243   1.848   0.447   4.046 -0.2203 -0.3618 -0.3714
 8536SOL    HW137244   1.832   0.400   3.964 -1.2150 -0.5777 -0.0485
 8536SOL    HW237245   1.888   0.383   4.105 -0.1277 -0.9097 -1.0320
 8537SOL     OW37246   0.520   2.881   5.325 -0.6462  0.2687 -0.2546
 8537SOL    HW137247   0.533   2.970   5.293  1.9739  0.0065  0.0649
 8537SOL    HW237248   0.438   2.857   5.283 -0.5317 -1.5237  0.5483
 8538SOL     OW37249   3.573   1.069   6.749 -0.3459 -0.2849 -0.0630
 8538SOL    HW137250   3.649   1.090   6.695  0.0411  0.6789  0.8325
 8538SOL    HW237251   3.539   1.158   6.760  1.0671  0.1572  0.7020
 8539SOL     OW37252   3.243   3.056   7.737  0.1554  0.0955  0.4053
 8539SOL    HW137253   3.326   3.098   7.759  0.1784  0.4738 -0.4038
 8539SOL    HW237254   3.190   3.112   7.794 -1.2617 -0.1347 -0.6861
 8540SOL     OW37255   0.334   2.874  17.198  0.0116  0.2315 -0.6702
 8540SOL    HW137256   0.285   2.827  17.130  0.1739  0.9408 -1.2779
 8540SOL    HW237257   0.272   2.947  17.201  1.3927  1.4759 -2.8627
 8541SOL     OW37258   1.863   4.486   0.084  0.2221 -0.0327 -0.1793
 8541SOL    HW137259   1.834   4.419   0.147  2.0099 -0.2759  0.3812
 8541SOL    HW237260   1.816   4.457   0.007  0.5992  1.5163 -0.9939
 8542SOL     OW37261   0.447   4.271   6.335 -0.3657  0.0706  0.1162
 8542SOL    HW137262   0.522   4.297   6.282 -0.7434  0.4649 -0.2308
 8542SOL    HW237263   0.412   4.198   6.284  0.0265 -0.8810  1.2131
 8543SOL     OW37264   4.640   0.857  17.719 -0.4268 -0.1982 -0.0866
 8543SOL    HW137265   4.692   0.779  17.698  1.3284  0.7619  0.7258
 8543SOL    HW237266   4.552   0.833  17.691 -0.0775 -0.9930 -0.5097
 8544SOL     OW37267   0.514   0.486   8.032 -0.7668  0.1101 -0.7605
 8544SOL    HW137268   0.586   0.424   8.046 -0.1491  1.7953  3.5731
 8544SOL    HW237269   0.450   0.441   8.088  1.4017 -1.8671  0.1345
 8545SOL     OW37270   1.537   1.563   3.339 -0.1247 -0.8233 -0.5168
 8545SOL    HW137271   1.578   1.623   3.275 -1.5272  2.0962  1.3159
 8545SOL    HW237272   1.446   1.566   3.308  0.2197  0.4529 -1.4444
 8546SOL     OW37273   1.509   2.463   1.978  0.3035 -0.0323 -0.3799
 8546SOL    HW137274   1.587   2.517   1.977 -0.1740  0.6824  0.7055
 8546SOL    HW237275   1.456   2.506   1.911  0.3089 -0.1542 -0.4612
 8547SOL     OW37276   0.765   3.837   8.623 -0.4325 -0.2907  0.3177
 8547SOL    HW137277   0.693   3.876   8.573  0.3205  1.9669  0.9554
 8547SOL    HW237278   0.756   3.885   8.706 -1.9237 -2.6319  1.4999
 8548SOL     OW37279   1.095   3.770   7.247  0.2997 -0.6611 -0.0779
 8548SOL    HW137280   1.065   3.710   7.179 -0.8138 -0.2864  0.0870
 8548SOL    HW237281   1.057   3.725   7.323 -0.0806 -1.3047 -0.6550
 8549SOL     OW37282   1.787   3.550   8.074 -0.1807  0.3731  0.2736
 8549SOL    HW137283   1.865   3.574   8.124  0.8967 -0.4359 -1.0113
 8549SOL    HW237284   1.814   3.476   8.020 -0.1274 -0.7309  1.8123
 8550SOL     OW37285   1.650   1.830   3.793  0.5801  0.4147  0.1257
 8550SOL    HW137286   1.745   1.835   3.802  0.4756  0.3247  1.3153
 8550SOL    HW237287   1.618   1.889   3.861  1.2998  0.7585  0.1634
 8551SOL     OW37288   2.230   4.285   5.517  0.4314  0.0916  0.2745
 8551SOL    HW137289   2.278   4.212   5.555 -0.6361 -1.0505 -0.5766
 8551SOL    HW237290   2.294   4.355   5.503  0.2431 -0.5154 -3.5061
 8552SOL     OW37291   0.343   0.916   7.125 -0.3410  0.0493  0.1082
 8552SOL    HW137292   0.374   0.831   7.157  0.3845  0.7749  1.3555
 8552SOL    HW237293   0.259   0.904   7.170 -1.0216 -0.4079 -1.2710
 8553SOL     OW37294   0.366   1.294  15.540 -0.0135 -0.1177  0.1202
 8553SOL    HW137295   0.358   1.349  15.462  0.2831 -2.0738 -1.2668
 8553SOL    HW237296   0.434   1.338  15.593 -0.1734  0.5860 -0.2538
 8554SOL     OW37297   2.316   2.081   3.550 -0.4020 -0.3175 -0.2217
 8554SOL    HW137298   2.256   2.138   3.503 -0.9795  1.2032  2.3329
 8554SOL    HW237299   2.396   2.130   3.532  0.2927 -0.5879  2.0299
 8555SOL     OW37300   3.158   1.378  16.782 -0.2576  0.2237  0.0719
 8555SOL    HW137301   3.125   1.465  16.759  0.9208  0.7902  0.5217
 8555SOL    HW237302   3.225   1.366  16.715  0.5285 -1.7855  1.1911
 8556SOL     OW37303   2.907   1.098   5.706  0.0045  0.4319  0.0464
 8556SOL    HW137304   2.970   1.138   5.646  1.2766 -1.4702  0.0736
 8556SOL    HW237305   2.957   1.023   5.739 -0.2453  1.4972  2.8201
 8557SOL     OW37306   0.849   3.891  11.808 -0.0537 -0.0409  0.1111
 8557SOL    HW137307   0.895   3.974  11.817  1.2203 -0.6911 -0.3428
 8557SOL    HW237308   0.900   3.839  11.869 -1.0504 -0.5960  0.4841
 8558SOL     OW37309   1.152   3.279   3.792  0.1158 -0.0562  0.0119
 8558SOL    HW137310   1.077   3.306   3.738  0.3221  1.7821  0.6243
 8558SOL    HW237311   1.203   3.355   3.821 -1.1851  1.2738 -1.2011
 8559SOL     OW37312   0.271   3.371  10.192  0.5405  0.1865  0.1643
 8559SOL    HW137313   0.332   3.336  10.257  1.1138  0.0931 -0.4224
 8559SOL    HW237314   0.207   3.300  10.192  0.6297  0.0733  3.7531
 8560SOL     OW37315   0.137   0.229   3.463  0.0091 -0.2083 -0.8021
 8560SOL    HW137316   0.169   0.145   3.430 -0.6655 -0.1901 -1.5020
 8560SOL    HW237317   0.178   0.294   3.406  1.2023  0.2041  0.5344
 8561SOL     OW37318   2.607   1.573   4.741  0.7855  0.3428 -1.2697
 8561SOL    HW137319   2.665   1.635   4.784 -3.2472  1.8714  1.9716
 8561SOL    HW237320   2.638   1.491   4.779 -0.3924 -1.1829 -3.5582
 8562SOL     OW37321   1.128   3.214   7.428  0.3511 -0.7057  0.1194
 8562SOL    HW137322   1.139   3.120   7.441  3.3313 -0.3496  0.1833
 8562SOL    HW237323   1.032   3.213   7.424  0.3543 -0.7407  0.0450
 8563SOL     OW37324   0.359   0.401  13.518  0.3746 -0.0885 -0.0058
 8563SOL    HW137325   0.332   0.424  13.607  0.0363 -0.5523  0.0102
 8563SOL    HW237326   0.293   0.453  13.473  1.1392  2.2412  1.5735
 8564SOL     OW37327   1.859   2.854   2.975  0.6914  0.4880 -0.2977
 8564SOL    HW137328   1.785   2.880   2.920 -1.4250 -0.2987  2.2019
 8564SOL    HW237329   1.862   2.762   2.950  0.5678  0.5488 -0.5421
 8565SOL     OW37330   0.026   2.101   3.044 -0.2605 -0.4275 -0.3953
 8565SOL    HW137331   4.722   2.159   3.109  0.5416 -0.3803  0.0787
 8565SOL    HW237332   4.690   2.049   3.011  0.2851 -0.7814 -1.0433
 8566SOL     OW37333   0.522   2.199   8.548  0.2425 -0.3995  0.3241
 8566SOL    HW137334   0.573   2.278   8.531 -0.7517  0.5844  1.9143
 8566SOL    HW237335   0.432   2.222   8.527  0.6870  0.3455 -0.7523
 8567SOL     OW37336   4.059   1.646   6.107 -0.4004  0.3861 -0.4027
 8567SOL    HW137337   4.096   1.558   6.098  1.8656  1.4438 -1.5574
 8567SOL    HW237338   4.117   1.666   6.180  1.9212 -1.0098 -1.8525
 8568SOL     OW37339   1.925   1.293   3.410  0.2873  0.2847  0.3542
 8568SOL    HW137340   1.837   1.271   3.381 -0.8989  2.0188  2.6877
 8568SOL    HW237341   1.927   1.262   3.500 -0.6089 -1.7965 -0.3582
 8569SOL     OW37342   3.891   0.902   9.594 -0.0481  0.2748 -0.1211
 8569SOL    HW137343   3.901   0.997   9.586  2.5378 -0.0648 -0.9414
 8569SOL    HW237344   3.979   0.880   9.625  0.2045 -0.0853 -1.0682
 8570SOL     OW37345   4.206   0.054   6.512 -0.1209 -0.2603 -0.0275
 8570SOL    HW137346   4.113   0.029   6.507 -0.0082 -0.2977 -1.8965
 8570SOL    HW237347   4.239   4.737   6.442  0.3633 -0.2178  0.1664
 8571SOL     OW37348   3.921   2.900   4.063 -0.0134  0.2832 -0.5768
 8571SOL    HW137349   3.954   2.989   4.074 -2.6185  1.2328 -0.5661
 8571SOL    HW237350   3.915   2.894   3.968 -1.2165  0.3523 -0.5107
 8572SOL     OW37351   2.204   1.323   3.461  0.4880  0.3106 -0.1574
 8572SOL    HW137352   2.213   1.370   3.544  0.2716 -0.6096  0.3853
 8572SOL    HW237353   2.111   1.322   3.436  0.2136 -0.2380  0.9064
 8573SOL     OW37354   1.080   2.090   5.555 -0.2838  0.4615  0.3083
 8573SOL    HW137355   1.170   2.086   5.589 -0.1753  0.4514  0.0226
 8573SOL    HW237356   1.101   2.135   5.473 -0.0428 -0.5660 -0.1899
 8574SOL     OW37357   2.968   2.075   8.452  0.3328 -0.0825  0.6798
 8574SOL    HW137358   2.919   1.998   8.481  1.1778 -0.5634  0.8317
 8574SOL    HW237359   2.954   2.137   8.524  0.8375 -0.2344  0.9164
 8575SOL     OW37360   1.176   2.010   8.447  0.0326 -0.5104 -0.0188
 8575SOL    HW137361   1.124   2.056   8.381  0.0231  0.6079  0.7514
 8575SOL    HW237362   1.155   2.062   8.525 -2.2833  0.3041 -1.1770
 8576SOL     OW37363   0.969   0.686  17.579 -0.2498 -0.5189  0.9090
 8576SOL    HW137364   0.919   0.768  17.583  1.0125  0.3494 -1.1074
 8576SOL    HW237365   0.906   0.631  17.534 -0.3300  1.0827 -0.9624
 8577SOL     OW37366   1.560   3.527   8.246  0.3443  0.1694  0.8546
 8577SOL    HW137367   1.646   3.517   8.206  0.4974 -0.4074  1.3305
 8577SOL    HW237368   1.542   3.435   8.266  0.8751 -0.3457 -1.0985
 8578SOL     OW37369   3.776   3.169   1.684 -0.1097  0.3583 -0.2775
 8578SOL    HW137370   3.728   3.177   1.602  0.3882  0.1631 -0.5862
 8578SOL    HW237371   3.709   3.191   1.749  0.3598  0.9269  0.0070
 8579SOL     OW37372   3.622   3.946  15.666 -0.0865  0.0497 -0.3287
 8579SOL    HW137373   3.710   3.978  15.649 -0.3734 -0.8011 -3.3083
 8579SOL    HW237374   3.630   3.908  15.754  2.2444 -0.3344 -0.7242
 8580SOL     OW37375   1.930   1.621   2.130 -0.1966 -0.7974  0.3410
 8580SOL    HW137376   1.903   1.657   2.215  1.0162 -0.2698  0.5089
 8580SOL    HW237377   1.955   1.533   2.156 -0.6984 -0.9381  0.3349
 8581SOL     OW37378   4.392   0.965  13.426 -0.0051  0.8261  0.1170
 8581SOL    HW137379   4.487   0.975  13.436  0.5182 -2.1433 -1.8599
 8581SOL    HW237380   4.374   1.018  13.349 -0.9157 -0.6874 -0.6946
 8582SOL     OW37381   1.282   3.861   5.150 -0.2028  0.5234  0.4534
 8582SOL    HW137382   1.352   3.853   5.215  0.8440  0.1917 -0.7087
 8582SOL    HW237383   1.324   3.904   5.075 -1.6328  1.7171  0.3458
 8583SOL     OW37384   4.474   1.082   8.970 -0.1121  0.0534 -0.4816
 8583SOL    HW137385   4.568   1.064   8.974 -0.1688  0.3424  2.0726
 8583SOL    HW237386   4.473   1.174   8.997 -0.8319 -0.1652  0.2317
 8584SOL     OW37387   3.441   0.484   6.068  0.0792  0.1588 -0.3212
 8584SOL    HW137388   3.475   0.438   5.991  0.9102  3.8540 -2.1230
 8584SOL    HW237389   3.508   0.550   6.080  1.1914 -0.7913 -1.2349
 8585SOL     OW37390   4.092   0.560  12.746  0.0432  0.1273  0.3733
 8585SOL    HW137391   4.116   0.558  12.653 -2.7921  0.9967 -0.3877
 8585SOL    HW237392   4.142   0.633  12.781  0.2589 -0.0360  0.4010
 8586SOL     OW37393   0.733   0.144   4.087 -0.2029 -0.3651  0.5003
 8586SOL    HW137394   0.676   0.082   4.131 -1.0012  0.4785  0.6401
 8586SOL    HW237395   0.689   0.153   4.003  1.1830  0.4598 -0.1453
 8587SOL     OW37396   3.444   4.725   2.921  0.0638  0.1746 -0.9604
 8587SOL    HW137397   3.450   4.683   2.836 -0.0761 -1.7604 -0.0095
 8587SOL    HW237398   3.481   0.071   2.894 -0.2834  0.0736 -1.7393
 8588SOL     OW37399   3.918   1.366   5.036  0.8968  0.1936  0.0969
 8588SOL    HW137400   3.829   1.375   5.000  0.3180  1.1398  1.7332
 8588SOL    HW237401   3.938   1.274   5.023  1.9175  0.1388  2.1674
 8589SOL     OW37402   0.636   1.937   3.730 -0.2658  0.0792 -0.3771
 8589SOL    HW137403   0.731   1.945   3.722 -0.3079 -0.3846 -1.3840
 8589SOL    HW237404   0.613   2.019   3.687  0.7490 -0.5178 -2.0827
 8590SOL     OW37405   2.784   4.244   3.812  0.5159 -0.0233 -0.5945
 8590SOL    HW137406   2.745   4.186   3.877 -1.4578  1.4710 -0.4718
 8590SOL    HW237407   2.710   4.301   3.794  0.2331 -0.1457  0.1777
 8591SOL     OW37408   0.508   1.804   3.379 -0.3876 -0.1693 -0.1550
 8591SOL    HW137409   0.500   1.892   3.342 -1.3342  0.1503  0.8193
 8591SOL    HW237410   0.498   1.823   3.472 -0.0870 -2.2173  0.2868
 8592SOL     OW37411   0.552   0.634  11.371 -0.1640 -0.4159  0.7231
 8592SOL    HW137412   0.646   0.618  11.370  0.1448  1.4818 -1.3063
 8592SOL    HW237413   0.540   0.725  11.343 -1.3849 -0.4687  1.0360
 8593SOL     OW37414   0.828   1.215   0.079 -0.2795  0.0649 -0.4870
 8593SOL    HW137415   0.845   1.122   0.069 -1.0861 -0.2197  0.8587
 8593SOL    HW237416   0.897   1.250   0.023 -1.1154  0.8073 -1.0586
 8594SOL     OW37417   1.729   0.215  16.974 -0.0659  0.5581 -0.3096
 8594SOL    HW137418   1.713   0.130  16.933 -1.4019  0.9646 -0.6307
 8594SOL    HW237419   1.778   0.254  16.903 -0.9998  1.4303 -0.4645
 8595SOL     OW37420   0.394   2.192   6.067  0.2472  0.2916  0.4091
 8595SOL    HW137421   0.320   2.174   6.125  0.1958 -0.0315  0.2405
 8595SOL    HW237422   0.343   2.247   6.007  0.3275 -1.3082 -1.0993
 8596SOL     OW37423   3.574   1.493  15.160 -0.6135  0.0873 -0.2838
 8596SOL    HW137424   3.494   1.475  15.209  0.4937 -0.0475  1.4508
 8596SOL    HW237425   3.605   1.410  15.124  0.8623  0.9240 -0.9424
 8597SOL     OW37426   1.788   2.373   0.920 -0.2825 -0.4050 -0.6778
 8597SOL    HW137427   1.831   2.456   0.941 -3.2399  0.3578  2.3504
 8597SOL    HW237428   1.759   2.379   0.828 -1.7795  0.1849 -0.1719
 8598SOL     OW37429   2.220   1.020   5.685 -0.0761  0.2756 -0.0037
 8598SOL    HW137430   2.207   1.088   5.751 -1.9850  1.1038 -1.2472
 8598SOL    HW237431   2.136   1.024   5.640 -0.3598 -0.1287  0.4904
 8599SOL     OW37432   2.778   4.733  10.287 -0.5263  0.6005 -0.1500
 8599SOL    HW137433   2.783   4.641  10.312 -0.0492  0.9470  1.0361
 8599SOL    HW237434   2.795   4.729  10.192 -3.4460  1.5535 -0.7094
 8600SOL     OW37435   4.688   3.884  10.035  0.5134 -0.5036  0.3634
 8600SOL    HW137436   0.017   3.861   9.971  1.0154  0.7596  0.4447
 8600SOL    HW237437   4.738   3.922  10.107  1.6309  0.9165 -1.1599
 8601SOL     OW37438   4.683   1.969  14.474  0.0350 -0.1164 -0.1165
 8601SOL    HW137439   4.667   1.954  14.567 -0.0188  1.9719  0.1940
 8601SOL    HW237440   4.595   1.955  14.438  0.2148 -2.7448  0.4042
 8602SOL     OW37441   4.581   2.228   3.188  0.3030  0.1442  0.2041
 8602SOL    HW137442   4.520   2.208   3.116 -1.9904  2.5776  1.4597
 8602SOL    HW237443   4.557   2.321   3.197 -1.4264 -0.2679 -0.1482
 8603SOL     OW37444   0.003   2.659   5.778  0.2528 -0.2227 -0.6030
 8603SOL    HW137445   4.731   2.586   5.838  0.0721  0.1289 -0.2039
 8603SOL    HW237446   4.661   2.658   5.725  0.1339  0.2326 -0.4361
 8604SOL     OW37447   4.648   1.037   1.625 -0.1642  0.0276  0.6535
 8604SOL    HW137448   4.715   1.079   1.569 -0.3252 -1.6390 -0.7921
 8604SOL    HW237449   4.646   1.100   1.697  2.2073  1.0267 -0.1399
 8605SOL     OW37450   1.541   3.274   8.362  0.1329 -0.5335  0.4880
 8605SOL    HW137451   1.633   3.250   8.360  0.0126 -0.8549 -1.6360
 8605SOL    HW237452   1.506   3.251   8.448 -1.2975 -1.4513 -0.3344
 8606SOL     OW37453   3.890   3.860   0.797  0.0709  0.3527 -0.0351
 8606SOL    HW137454   3.947   3.886   0.870 -1.5980  0.3291  1.2821
 8606SOL    HW237455   3.817   3.823   0.846  1.0994  0.0118  1.2579
 8607SOL     OW37456   2.697   1.796   6.797  0.1518 -0.7092  0.0055
 8607SOL    HW137457   2.792   1.806   6.789  0.2265 -1.5840 -0.2104
 8607SOL    HW237458   2.683   1.703   6.779 -2.7180  0.0787 -1.9181
 8608SOL     OW37459   2.746   1.762   7.373  0.3510 -0.5535  0.5350
 8608SOL    HW137460   2.767   1.838   7.427  0.0107  0.5078 -0.8287
 8608SOL    HW237461   2.731   1.699   7.443  2.8437 -2.2141 -0.4192
 8609SOL     OW37462   2.688   0.122   7.328  0.1516  0.0126 -0.3066
 8609SOL    HW137463   2.749   0.196   7.326  0.7931 -0.4718  2.2891
 8609SOL    HW237464   2.746   0.048   7.346  1.3464  0.8863 -0.5582
 8610SOL     OW37465   0.126   1.270   9.512 -0.4223  0.6247 -0.0127
 8610SOL    HW137466   0.097   1.328   9.442  1.0192  0.3278 -0.8644
 8610SOL    HW237467   0.052   1.276   9.571 -1.1795 -2.2106 -0.6750
 8611SOL     OW37468   4.141   3.731   6.342  0.2760  0.5728 -0.1929
 8611SOL    HW137469   4.077   3.690   6.283  2.5067 -1.9330 -0.8886
 8611SOL    HW237470   4.207   3.662   6.339  1.5461  1.8500 -2.5493
 8612SOL     OW37471   1.079   1.414  11.786 -0.0572  0.4164 -0.7550
 8612SOL    HW137472   1.060   1.321  11.799  0.4233  0.5176  0.6854
 8612SOL    HW237473   1.088   1.422  11.691 -1.1239  0.4458 -0.8576
 8613SOL     OW37474   4.708   0.739  17.269  0.2331  0.2270  0.3765
 8613SOL    HW137475   4.661   0.695  17.197  0.7969 -0.3323  0.3551
 8613SOL    HW237476   4.644   0.716  17.336  0.4862  0.5493  0.7221
 8614SOL     OW37477   4.418   1.585   0.114  0.1381  0.4488  0.5670
 8614SOL    HW137478   4.354   1.640   0.069  0.5423  1.9113  1.7861
 8614SOL    HW237479   4.364   1.565   0.191  1.5500 -0.7336  1.2547
 8615SOL     OW37480   0.318   0.193   5.827 -0.0803  0.3785  0.2424
 8615SOL    HW137481   0.266   0.273   5.825 -1.7622 -0.7115  0.5911
 8615SOL    HW237482   0.370   0.207   5.747 -1.7368 -0.3205 -0.9460
 8616SOL     OW37483   3.414   0.243   6.629 -0.6157 -0.2042 -0.2072
 8616SOL    HW137484   3.463   0.178   6.579  1.1810  0.4614  0.7032
 8616SOL    HW237485   3.340   0.265   6.572  0.0824  0.5554 -0.8077
 8617SOL     OW37486   4.409   2.252  17.689  0.1416  0.0157  0.8427
 8617SOL    HW137487   4.491   2.214  17.719  0.0943  0.4037  1.4572
 8617SOL    HW237488   4.434   2.340  17.660  0.2385 -0.8290 -1.6692
 8618SOL     OW37489   4.379   4.270   4.298 -0.2851  0.3436  0.4087
 8618SOL    HW137490   4.457   4.216   4.285  1.0202  2.3741 -0.2657
 8618SOL    HW237491   4.342   4.260   4.210 -0.8262  1.2718  0.5207
 8619SOL     OW37492   0.127   2.973   0.719 -0.0540  0.1672 -0.3315
 8619SOL    HW137493   0.144   3.067   0.716  1.5826  0.0143  4.1470
 8619SOL    HW237494   0.104   2.966   0.812  3.1698 -0.7109  0.3955
 8620SOL     OW37495   1.521   2.156   1.545 -0.6762  0.2294 -0.0909
 8620SOL    HW137496   1.429   2.158   1.519 -0.3882 -0.6867 -1.1571
 8620SOL    HW237497   1.516   2.067   1.581  0.8077  0.2761  0.2380
 8621SOL     OW37498   0.813   2.172   4.028 -0.2976 -0.4915 -0.2132
 8621SOL    HW137499   0.834   2.265   4.035 -0.7417 -0.4466  0.5156
 8621SOL    HW237500   0.900   2.135   4.043  0.6060  1.7606  0.0397
 8622SOL     OW37501   4.435   3.866  11.504 -0.6550  0.3938 -0.8732
 8622SOL    HW137502   4.430   3.815  11.585  1.0023 -0.5194 -1.3437
 8622SOL    HW237503   4.484   3.942  11.532 -0.5949  0.2677 -0.6362
 8623SOL     OW37504   1.546   1.109   8.396  0.2365 -0.0315  0.1549
 8623SOL    HW137505   1.468   1.136   8.346 -0.3058 -0.7182  0.6268
 8623SOL    HW237506   1.584   1.051   8.330 -1.1241  0.4167 -1.0415
 8624SOL     OW37507   1.536   3.954   8.627 -0.4972 -0.2212 -0.2418
 8624SOL    HW137508   1.460   3.900   8.648 -0.1582 -0.0404  1.3920
 8624SOL    HW237509   1.514   3.994   8.542  0.2676 -0.7005 -0.6685
 8625SOL     OW37510   1.045   4.603   8.849  0.1506  0.6640  0.3860
 8625SOL    HW137511   1.091   4.643   8.776  0.9759 -0.8521  0.0850
 8625SOL    HW237512   0.966   4.657   8.860 -0.0395  0.4978 -0.1902
 8626SOL     OW37513   1.729   3.898  10.673  0.1300 -0.2471 -0.0209
 8626SOL    HW137514   1.803   3.866  10.622  1.7582  0.5875  1.7950
 8626SOL    HW237515   1.689   3.821  10.714  0.3248 -0.0366  0.5646
 8627SOL     OW37516   2.008   1.911   5.166  0.3400  0.3388 -0.6724
 8627SOL    HW137517   1.978   1.822   5.184  1.3173 -0.1691 -1.5263
 8627SOL    HW237518   2.086   1.932   5.219 -0.4277 -2.9619  1.7604
 8628SOL     OW37519   0.370   0.811   5.187 -0.1511  0.6559  0.1663
 8628SOL    HW137520   0.400   0.875   5.123 -0.2813  1.9742  1.4358
 8628SOL    HW237521   0.407   0.831   5.273 -0.0945 -0.8520  0.4958
 8629SOL     OW37522   4.276   3.251   3.396 -0.0345 -0.0275  0.3753
 8629SOL    HW137523   4.187   3.214   3.398 -0.5817  1.4263  3.1581
 8629SOL    HW237524   4.319   3.193   3.333 -0.9284 -0.3027  0.0174
 8630SOL     OW37525   4.055   1.513   1.384  0.2271  0.1251  0.3226
 8630SOL    HW137526   4.059   1.596   1.432  3.7903  1.4731 -2.3933
 8630SOL    HW237527   4.001   1.536   1.309 -0.3845 -0.3742  0.6085
 8631SOL     OW37528   2.901   0.029   3.993 -0.1694 -0.4127  0.4163
 8631SOL    HW137529   2.821   0.012   3.943 -0.1255 -1.5873  0.7292
 8631SOL    HW237530   2.887   4.717   4.075 -1.6233 -0.0079  0.4239
 8632SOL     OW37531   1.458   3.770  10.396 -0.0580  0.0156 -0.3083
 8632SOL    HW137532   1.547   3.797  10.372 -0.2430 -1.5186 -2.6842
 8632SOL    HW237533   1.411   3.803  10.320  0.6267 -1.0316 -1.2001
 8633SOL     OW37534   4.446   2.080   2.635  0.1929 -0.0075 -0.0141
 8633SOL    HW137535   4.463   2.172   2.655  0.3166  1.0573 -4.9887
 8633SOL    HW237536   4.364   2.084   2.585 -0.2404 -1.9049  0.5444
 8634SOL     OW37537   1.550   0.994   4.782 -0.2792  0.2228 -0.6943
 8634SOL    HW137538   1.626   1.038   4.820 -0.7609  0.1080  0.3952
 8634SOL    HW237539   1.576   0.979   4.691  1.0702 -0.2317 -0.2437
 8635SOL     OW37540   3.461   0.947  15.610 -0.3898 -0.1638 -0.0052
 8635SOL    HW137541   3.453   0.921  15.702  1.9539  0.6509  0.4437
 8635SOL    HW237542   3.410   1.028  15.613  0.4380  0.2637  3.0742
 8636SOL     OW37543   3.221   2.015  15.024  0.0334  0.2400 -0.3077
 8636SOL    HW137544   3.300   2.035  15.073  1.0900  1.1322 -2.3564
 8636SOL    HW237545   3.252   1.991  14.937 -0.3066 -2.1980  0.2488
 8637SOL     OW37546   2.992   2.553  11.033 -0.4233 -0.6388  0.3663
 8637SOL    HW137547   3.057   2.578  11.099 -0.8710 -1.2402  1.0397
 8637SOL    HW237548   3.031   2.590  10.954 -1.5248 -0.7601 -0.2276
 8638SOL     OW37549   1.367   3.454   7.184  0.7476 -0.1074 -0.2351
 8638SOL    HW137550   1.462   3.451   7.169  0.6349  1.4533 -1.2572
 8638SOL    HW237551   1.363   3.469   7.278  2.7408  1.5603 -0.4094
 8639SOL     OW37552   3.692   1.761   3.688  0.0973  0.1134  0.1728
 8639SOL    HW137553   3.657   1.817   3.757 -1.3602  1.6192 -1.7546
 8639SOL    HW237554   3.704   1.816   3.610  0.1630 -2.3656 -1.5639
 8640SOL     OW37555   1.195   1.892   6.197 -0.8302 -0.4219  0.2815
 8640SOL    HW137556   1.187   1.987   6.211 -0.6389 -0.0811 -1.9280
 8640SOL    HW237557   1.210   1.866   6.288 -2.0334 -0.3089  0.5102
 8641SOL     OW37558   0.618   3.185   4.005  0.3630  0.4986  0.2939
 8641SOL    HW137559   0.553   3.177   4.075 -1.3563  2.3644 -1.1180
 8641SOL    HW237560   0.679   3.116   4.032 -0.9279 -0.4464  0.8113
 8642SOL     OW37561   4.379   4.095  17.270 -0.3021  0.1586 -0.0066
 8642SOL    HW137562   4.409   4.100  17.179  1.0426  0.8503  0.4821
 8642SOL    HW237563   4.464   4.098  17.313 -0.0957 -1.9575 -0.2815
 8643SOL     OW37564   2.566   3.330   7.034 -0.4402  0.1947 -0.1459
 8643SOL    HW137565   2.630   3.296   6.973 -0.0388  1.8163 -0.6391
 8643SOL    HW237566   2.613   3.401   7.078 -0.8096  0.1337  0.3474
 8644SOL     OW37567   3.230   1.957  16.430  0.1401  0.0344  0.1934
 8644SOL    HW137568   3.164   1.962  16.500  0.7883 -3.2865  1.0227
 8644SOL    HW237569   3.254   2.050  16.428  4.0430 -1.0015 -1.6149
 8645SOL     OW37570   2.908   3.174  17.508 -0.4962 -0.3621 -0.4474
 8645SOL    HW137571   2.877   3.256  17.469 -2.6088 -0.7767  0.3770
 8645SOL    HW237572   2.928   3.125  17.428  0.0721 -0.7998 -0.0401
 8646SOL     OW37573   0.782   3.698   3.493  0.1604  0.0038 -0.2442
 8646SOL    HW137574   0.763   3.607   3.515 -0.6065 -0.3750 -2.5321
 8646SOL    HW237575   0.761   3.740   3.577  4.6715 -0.3351  1.0389
 8647SOL     OW37576   2.348   1.260   8.382 -0.2057 -0.0808  0.1266
 8647SOL    HW137577   2.353   1.333   8.443  1.2102 -0.5312  0.5519
 8647SOL    HW237578   2.337   1.182   8.437  0.2961 -1.4330 -1.6797
 8648SOL     OW37579   2.669   3.843   2.162  0.4268 -0.0081  0.2497
 8648SOL    HW137580   2.666   3.906   2.234 -0.6177 -0.0497  0.2452
 8648SOL    HW237581   2.739   3.878   2.107  0.5414 -2.0068 -0.8952
 8649SOL     OW37582   3.783   2.479   3.433 -0.4306 -0.0103 -0.5552
 8649SOL    HW137583   3.719   2.410   3.422  0.2838 -1.0924  2.0778
 8649SOL    HW237584   3.788   2.504   3.340  2.2053  2.0396  0.1157
 8650SOL     OW37585   1.984   3.728   0.982 -0.1824 -0.0700  0.4224
 8650SOL    HW137586   1.971   3.787   1.056 -1.7167  1.4619 -1.0714
 8650SOL    HW237587   1.907   3.753   0.930 -1.2277 -1.0795  1.4833
 8651SOL     OW37588   3.732   2.849   0.269 -0.1479 -0.5569  0.6558
 8651SOL    HW137589   3.750   2.819   0.180 -0.5176  2.2062 -0.3273
 8651SOL    HW237590   3.754   2.766   0.313 -1.6129 -1.1415  0.3021
 8652SOL     OW37591   1.947   3.288   6.704 -0.0091  0.1617  0.6169
 8652SOL    HW137592   2.008   3.216   6.689 -0.5718  0.0614 -1.1842
 8652SOL    HW237593   2.005   3.359   6.733  0.3226  0.7044 -1.3287
 8653SOL     OW37594   1.171   2.326   3.559  0.2835  0.0527 -0.0812
 8653SOL    HW137595   1.099   2.347   3.498  1.3482 -0.9249 -1.6938
 8653SOL    HW237596   1.225   2.404   3.548  0.0031  0.3108  0.3748
 8654SOL     OW37597   0.055   3.140  14.513  0.3616  0.3620  0.3741
 8654SOL    HW137598   0.083   3.057  14.477  1.8593 -0.1321  2.6510
 8654SOL    HW237599   4.699   3.124  14.514  0.4600 -0.2807 -2.9755
 8655SOL     OW37600   1.357   3.582   8.710  0.3112 -0.1170 -0.0566
 8655SOL    HW137601   1.305   3.659   8.733  1.2819  1.5115 -3.3182
 8655SOL    HW237602   1.293   3.536   8.655  0.3792 -0.4435  0.1410
 8656SOL     OW37603   2.525   2.864  13.811 -0.2913 -0.1180  0.0751
 8656SOL    HW137604   2.582   2.807  13.760  0.5477  0.8949 -0.1249
 8656SOL    HW237605   2.540   2.945  13.762  2.5760 -0.5229  0.3040
 8657SOL     OW37606   3.068   3.672   4.277 -0.6867  0.1297  0.2955
 8657SOL    HW137607   3.111   3.718   4.349  0.3810 -1.8690  0.9373
 8657SOL    HW237608   3.148   3.648   4.230 -1.5669  0.0887 -1.1937
 8658SOL     OW37609   4.549   2.405  16.065  0.4804 -0.2582 -0.2676
 8658SOL    HW137610   4.624   2.447  16.107 -0.2084  0.8929 -0.1791
 8658SOL    HW237611   4.473   2.456  16.094  2.2775  2.6575 -0.6007
 8659SOL     OW37612   3.461   1.200   7.673 -0.1022  0.0005  0.2550
 8659SOL    HW137613   3.535   1.150   7.640  0.0174  0.6839 -0.4983
 8659SOL    HW237614   3.507   1.279   7.703  1.4363 -0.3021 -1.3113
 8660SOL     OW37615   3.839   0.575   5.265 -0.0900  0.3463 -0.1363
 8660SOL    HW137616   3.896   0.651   5.263  0.1352  0.2191  1.7579
 8660SOL    HW237617   3.809   0.571   5.174  2.1970 -0.7620 -0.8347
 8661SOL     OW37618   2.453   0.696   0.468 -0.0652  0.1587 -0.0323
 8661SOL    HW137619   2.487   0.721   0.554 -0.9847 -1.7191  0.8748
 8661SOL    HW237620   2.477   0.770   0.413 -1.6693  0.7461  0.0826
 8662SOL     OW37621   3.313   0.715   7.223 -0.3369  0.0930  0.1601
 8662SOL    HW137622   3.371   0.772   7.173  0.2410 -1.2407 -0.7186
 8662SOL    HW237623   3.236   0.771   7.222  0.7936  1.6452 -0.3116
 8663SOL     OW37624   3.582   2.690   1.851  0.4326 -0.3133 -0.2272
 8663SOL    HW137625   3.584   2.752   1.778  1.3072 -2.5791 -2.1804
 8663SOL    HW237626   3.537   2.618   1.806 -0.7231  1.0219 -1.2140
 8664SOL     OW37627   3.165   1.326   4.205  0.7855  0.6424  0.1536
 8664SOL    HW137628   3.155   1.232   4.224  3.5744  0.5281  1.0511
 8664SOL    HW237629   3.092   1.341   4.145  3.5817  2.3099 -2.8038
 8665SOL     OW37630   2.535   0.490   2.118  0.4181 -0.0046 -0.2629
 8665SOL    HW137631   2.558   0.479   2.026  1.7547  1.1982 -0.0646
 8665SOL    HW237632   2.542   0.586   2.118  1.4022 -0.0830 -0.4881
 8666SOL     OW37633   3.704   1.968  10.085  0.1447  0.1845  0.3362
 8666SOL    HW137634   3.610   1.960  10.070  0.2472  2.6799 -1.5513
 8666SOL    HW237635   3.706   2.063  10.099  2.2995  0.4689 -1.9958
 8667SOL     OW37636   0.446   1.649   6.508 -0.1286  0.0788 -0.6162
 8667SOL    HW137637   0.518   1.683   6.455 -0.9423  1.6968 -0.6647
 8667SOL    HW237638   0.472   1.660   6.599 -0.8790  1.5855 -0.6035
 8668SOL     OW37639   2.178   0.761   1.478  0.0569  0.1776 -0.4186
 8668SOL    HW137640   2.124   0.812   1.417  2.3911  0.3949 -2.2738
 8668SOL    HW237641   2.179   0.674   1.438  2.0364 -1.1119  2.4818
 8669SOL     OW37642   1.772   3.815   3.421  0.7767  0.4124  0.3594
 8669SOL    HW137643   1.726   3.886   3.465  0.5875  0.0092  0.8193
 8669SOL    HW237644   1.703   3.754   3.395  1.0034  0.0600  0.5800
 8670SOL     OW37645   3.238   3.934   1.220 -0.1697 -0.3041 -0.1312
 8670SOL    HW137646   3.197   4.017   1.199  0.0390 -0.5711 -1.5937
 8670SOL    HW237647   3.187   3.882   1.158 -3.5979  2.1363  0.6550
 8671SOL     OW37648   4.155   3.231  16.281  0.5133 -0.6275 -0.2363
 8671SOL    HW137649   4.108   3.148  16.280 -0.7000  0.0418  0.9583
 8671SOL    HW237650   4.228   3.212  16.223  2.0897  2.8565  0.6071
 8672SOL     OW37651   3.124   1.473  11.447 -0.0933 -0.8242  0.5935
 8672SOL    HW137652   3.134   1.491  11.354  1.0726  0.6052  0.9901
 8672SOL    HW237653   3.119   1.557  11.493  0.5618  0.8662 -2.4857
 8673SOL     OW37654   3.324   0.677   6.442  0.2717 -0.3361  0.8037
 8673SOL    HW137655   3.349   0.768   6.428 -0.0456 -0.2352  0.8965
 8673SOL    HW237656   3.315   0.671   6.537 -0.8254 -3.1758  0.5442
 8674SOL     OW37657   0.011   3.004   4.906 -0.0902 -0.0521  0.4559
 8674SOL    HW137658   0.062   3.078   4.874  1.0547 -0.4434  1.3591
 8674SOL    HW237659   4.695   2.980   4.831  2.6937  1.0338 -1.9003
 8675SOL     OW37660   2.216   1.167   0.930 -0.2300 -0.3241  0.0747
 8675SOL    HW137661   2.133   1.198   0.964 -0.4133 -1.5733  0.7959
 8675SOL    HW237662   2.280   1.229   0.964 -1.9059  1.3880  0.0630
 8676SOL     OW37663   0.695   3.689   9.383 -0.0090  0.4521 -0.0999
 8676SOL    HW137664   0.612   3.707   9.426 -0.4450 -0.3426 -0.6139
 8676SOL    HW237665   0.747   3.715   9.460  0.5840  2.5941 -1.2287
 8677SOL     OW37666   2.186   0.784  17.470  0.1501  0.7268  0.1192
 8677SOL    HW137667   2.268   0.742  17.443 -0.2603  0.6067 -0.9554
 8677SOL    HW237668   2.215   0.807  17.558  0.1078 -1.7169  0.7927
 8678SOL     OW37669   1.749   4.498   6.644 -0.0867 -1.0312 -0.4100
 8678SOL    HW137670   1.704   4.581   6.634  1.1246 -0.3960 -0.5499
 8678SOL    HW237671   1.694   4.453   6.580 -1.8361 -0.0160  0.3794
 8679SOL     OW37672   2.870   1.156   5.258  0.7950  0.5074 -0.3555
 8679SOL    HW137673   2.878   1.210   5.336 -0.0109 -1.6953  1.2506
 8679SOL    HW237674   2.900   1.068   5.280  0.2182  0.7207  1.2487
 8680SOL     OW37675   3.625   0.878   7.291 -0.2556  0.0008  0.2443
 8680SOL    HW137676   3.708   0.830   7.288 -0.1226  0.2268  0.3174
 8680SOL    HW237677   3.600   0.860   7.200 -2.2907 -1.4612  1.1064
 8681SOL     OW37678   2.314   1.921   8.132 -0.4238  0.6637  0.0193
 8681SOL    HW137679   2.248   1.876   8.185  1.1786 -0.8358  0.7287
 8681SOL    HW237680   2.353   1.990   8.186 -1.4271  1.5396 -0.3687
 8682SOL     OW37681   0.542   4.603  10.988  0.4374 -0.6117  0.0237
 8682SOL    HW137682   0.621   4.549  10.980 -1.0708 -3.0022  1.2337
 8682SOL    HW237683   0.510   4.570  11.072  0.1547 -1.2623 -0.3423
 8683SOL     OW37684   2.208   0.276   9.604  0.5746  0.8878 -0.3851
 8683SOL    HW137685   2.220   0.184   9.579 -1.4664 -0.2958  2.9457
 8683SOL    HW237686   2.210   0.283   9.700 -2.3459  1.4345 -0.3860
 8684SOL     OW37687   0.038   0.273   7.071 -0.0492 -0.1389  0.3260
 8684SOL    HW137688   0.007   0.277   6.981 -0.4839  0.3517  0.5016
 8684SOL    HW237689   4.698   0.242   7.116 -0.8604  1.1624 -0.1876
 8685SOL     OW37690   1.473   0.949   2.934  0.2112 -0.4820  0.8134
 8685SOL    HW137691   1.478   0.857   2.907  0.2898 -0.3945  0.5342
 8685SOL    HW237692   1.404   0.978   2.874  0.3631 -0.3912  0.6818
 8686SOL     OW37693   2.763   1.254   3.000  0.7141  0.0437  0.0062
 8686SOL    HW137694   2.756   1.288   3.089 -1.0476 -0.5349  0.0798
 8686SOL    HW237695   2.761   1.158   3.002  1.0264  0.0337 -0.0648
 8687SOL     OW37696   2.191   1.751   6.512  0.1940  0.7063  0.0626
 8687SOL    HW137697   2.107   1.713   6.537  1.1254 -1.0393  0.5150
 8687SOL    HW237698   2.174   1.772   6.420  1.5439 -1.4432 -0.6670
 8688SOL     OW37699   1.430   1.515   8.898 -0.3899  0.8982  0.8552
 8688SOL    HW137700   1.370   1.510   8.823  1.8003  2.4801 -0.9900
 8688SOL    HW237701   1.388   1.454   8.959  1.1221 -2.2977 -1.3238
 8689SOL     OW37702   0.744   1.337   2.632 -0.4697  0.1041 -0.1370
 8689SOL    HW137703   0.772   1.330   2.541  0.0773 -0.3719  0.0688
 8689SOL    HW237704   0.747   1.431   2.650 -0.7430  0.2933 -1.0679
 8690SOL     OW37705   3.877   3.733  10.597 -0.0270  0.1826  0.2244
 8690SOL    HW137706   3.845   3.770  10.679  1.8395  0.3923  0.8683
 8690SOL    HW237707   3.800   3.683  10.571 -0.9196  1.6426  0.0658
 8691SOL     OW37708   4.628   1.866  11.066 -0.2958  0.1682 -0.1467
 8691SOL    HW137709   4.563   1.936  11.063 -2.1002 -1.4931 -0.2341
 8691SOL    HW237710   4.575   1.798  11.024  0.7638 -1.1496  0.6462
 8692SOL     OW37711   0.054   3.413  11.249  0.1540 -0.9821  0.9037
 8692SOL    HW137712   0.125   3.445  11.305  0.9567 -1.5309  0.2048
 8692SOL    HW237713   0.023   3.496  11.214 -0.4923 -0.8513  1.7836
 8693SOL     OW37714   0.928   2.186   1.375 -0.1930 -0.5974  0.3744
 8693SOL    HW137715   1.001   2.178   1.314 -0.3954 -3.8071  0.5853
 8693SOL    HW237716   0.941   2.098   1.410  0.5670  0.2635  2.2541
 8694SOL     OW37717   4.547   1.862   6.467 -0.4862  0.0649  0.0684
 8694SOL    HW137718   4.571   1.789   6.523 -1.3346 -2.5240 -2.9504
 8694SOL    HW237719   4.605   1.851   6.391 -0.4406  0.2283  0.0793
 8695SOL     OW37720   4.363   0.750   4.857  0.6355  0.6970 -0.1017
 8695SOL    HW137721   4.364   0.665   4.813  0.7301  0.4745  0.3259
 8695SOL    HW237722   4.354   0.805   4.780  0.3164 -1.2309 -1.4372
 8696SOL     OW37723   0.894   2.164  14.886  0.0920 -0.8377 -0.0762
 8696SOL    HW137724   0.930   2.081  14.917  1.1861 -0.7040 -1.0106
 8696SOL    HW237725   0.972   2.198  14.843  0.3191 -2.1296 -0.6868
 8697SOL     OW37726   1.032   0.802   7.737 -0.2056 -0.4601 -0.1675
 8697SOL    HW137727   1.047   0.890   7.773 -1.0248 -0.3193 -0.1622
 8697SOL    HW237728   0.949   0.785   7.781  0.1409 -1.4828  0.0923
 8698SOL     OW37729   3.514   0.827   5.054  0.3132 -0.2937  0.0783
 8698SOL    HW137730   3.519   0.757   5.120  1.1017 -0.9321 -0.6520
 8698SOL    HW237731   3.461   0.889   5.103  1.2588  1.4732 -1.1618
 8699SOL     OW37732   1.853   4.677   3.789  0.3285  0.0105 -0.2931
 8699SOL    HW137733   1.785   0.001   3.762  0.0385 -1.3023 -2.5497
 8699SOL    HW237734   1.811   4.646   3.869 -0.7229  2.3676  0.0619
 8700SOL     OW37735   1.894   0.283  11.544 -0.2951  0.0455 -0.3116
 8700SOL    HW137736   1.954   0.356  11.560  1.4229 -1.7292  1.3571
 8700SOL    HW237737   1.951   0.226  11.492  2.5396  2.2352  0.3654
 8701SOL     OW37738   0.697   2.379   5.131 -0.1335  0.5796  0.1806
 8701SOL    HW137739   0.695   2.454   5.071  1.2475  1.2071  0.9181
 8701SOL    HW237740   0.704   2.420   5.217  0.4501  1.9425 -0.5071
 8702SOL     OW37741   3.091   2.532   4.373 -0.2878 -0.1862 -0.4452
 8702SOL    HW137742   3.057   2.515   4.460  0.5365  0.5432  0.0254
 8702SOL    HW237743   3.015   2.522   4.316  0.1429  0.2603 -1.1018
 8703SOL     OW37744   4.505   0.423  17.321 -0.6526  0.3070 -0.0381
 8703SOL    HW137745   4.448   0.348  17.338 -1.0143  0.4984 -0.4249
 8703SOL    HW237746   4.482   0.452  17.233 -1.4521  0.2135  0.1486
 8704SOL     OW37747   2.651   4.473  16.200 -0.7430 -0.5835 -0.0302
 8704SOL    HW137748   2.691   4.416  16.265 -1.6099  1.2928  2.1411
 8704SOL    HW237749   2.644   4.553  16.253 -2.3552 -1.2279  0.7389
 8705SOL     OW37750   2.191   4.458   5.858  0.7617 -0.1131  0.2191
 8705SOL    HW137751   2.165   4.379   5.906 -0.1153  1.2952  2.0676
 8705SOL    HW237752   2.102   4.473   5.826  0.9517  1.4317  0.4215
 8706SOL     OW37753   0.990   2.345   6.891 -0.0057 -0.4279  0.4371
 8706SOL    HW137754   0.957   2.271   6.942  0.4473  0.4404  2.0040
 8706SOL    HW237755   1.066   2.306   6.847  0.8131 -1.5244  2.8278
 8707SOL     OW37756   4.577   1.453   5.512  0.0209  0.3137 -0.2336
 8707SOL    HW137757   4.494   1.424   5.475 -0.0064 -0.3287  0.3215
 8707SOL    HW237758   4.567   1.424   5.603  0.1692  0.6644 -0.1067
 8708SOL     OW37759   3.569   4.525   7.942  0.5338  0.0227 -0.1497
 8708SOL    HW137760   3.578   4.586   8.016 -1.1913  0.4293 -0.2844
 8708SOL    HW237761   3.581   4.578   7.863  0.6482 -0.2091 -0.2853
 8709SOL     OW37762   2.437   2.061   7.353  0.3546 -0.5784  0.2025
 8709SOL    HW137763   2.442   1.971   7.319 -0.8256 -0.4764 -0.2285
 8709SOL    HW237764   2.522   2.082   7.315 -0.9672 -1.0981 -3.0519
 8710SOL     OW37765   0.642   3.463   3.991 -0.1095  0.0709  0.0341
 8710SOL    HW137766   0.568   3.495   4.044 -1.0188 -0.1671 -1.1084
 8710SOL    HW237767   0.640   3.371   4.018  2.2228  0.2480  0.7989
 8711SOL     OW37768   3.645   3.976   8.309 -0.2396  0.0226 -0.1106
 8711SOL    HW137769   3.552   3.974   8.331 -0.0021  0.7196  0.9589
 8711SOL    HW237770   3.676   4.049   8.363  2.6461 -1.9965  0.9471
 8712SOL     OW37771   0.848   0.530  16.523  0.0740  0.1651 -0.0118
 8712SOL    HW137772   0.925   0.536  16.580 -0.2121  0.7659  0.3193
 8712SOL    HW237773   0.808   0.613  16.550 -2.2064 -1.0475  0.2862
 8713SOL     OW37774   2.495   2.563   3.553  0.4191 -0.4025 -0.3548
 8713SOL    HW137775   2.422   2.584   3.610  1.1865  0.5254  0.2766
 8713SOL    HW237776   2.563   2.607   3.604 -1.5403  1.8135  0.3417
 8714SOL     OW37777   0.292   3.081  10.228  0.6279  0.3412 -0.0727
 8714SOL    HW137778   0.350   3.067  10.303  2.3943  1.1042 -1.3162
 8714SOL    HW237779   0.241   3.000  10.228  0.5899  0.3652 -0.1477
 8715SOL     OW37780   0.365   2.000   6.438  0.4327 -0.4544  0.4699
 8715SOL    HW137781   0.349   1.956   6.521  2.0251 -0.7521  0.6103
 8715SOL    HW237782   0.438   2.060   6.450  0.4808 -0.6302  1.0497
 8716SOL     OW37783   2.713   2.482   1.114 -0.3446 -0.0310  0.1550
 8716SOL    HW137784   2.784   2.432   1.075 -1.6709 -0.3400 -1.8558
 8716SOL    HW237785   2.675   2.531   1.041  0.2847 -0.3173 -0.3613
 8717SOL     OW37786   4.676   2.175   2.046  0.5804  0.3854  0.0969
 8717SOL    HW137787   4.723   2.227   1.980  0.8499 -0.7836 -0.6289
 8717SOL    HW237788   4.634   2.106   1.995  0.0409  0.6725  0.1478
 8718SOL     OW37789   4.161   3.921  11.442 -0.0011 -0.0514 -0.3520
 8718SOL    HW137790   4.203   4.004  11.418  2.3804 -1.8785 -2.4742
 8718SOL    HW237791   4.097   3.913  11.372 -1.1815 -1.2380  0.8792
 8719SOL     OW37792   1.615   2.829   5.493  0.2757  0.0260  0.7426
 8719SOL    HW137793   1.689   2.879   5.529  1.2326 -0.4524 -0.5639
 8719SOL    HW237794   1.551   2.899   5.477  0.3882 -0.2260 -0.7693
 8720SOL     OW37795   4.516   1.674   3.915 -0.3754 -0.1447  0.4784
 8720SOL    HW137796   4.571   1.725   3.974 -0.7536  0.5242  0.2608
 8720SOL    HW237797   4.475   1.613   3.977 -0.9061 -2.0529 -1.7578
 8721SOL     OW37798   3.199   2.907   4.725 -0.5440 -0.0932 -0.3981
 8721SOL    HW137799   3.280   2.856   4.723 -0.2443  0.3449  1.6166
 8721SOL    HW237800   3.208   2.971   4.654  0.9214 -0.2140 -0.3201
 8722SOL     OW37801   4.568   1.139   3.260 -0.0743  0.0505 -0.0482
 8722SOL    HW137802   4.485   1.094   3.275 -1.1226  1.2110 -2.4019
 8722SOL    HW237803   4.635   1.077   3.229  1.5005  2.6464 -1.8448
 8723SOL     OW37804   3.292   2.826   8.398  0.3094 -0.1007  0.6268
 8723SOL    HW137805   3.260   2.801   8.312 -0.4003  1.7224  0.3619
 8723SOL    HW237806   3.258   2.755   8.451  0.6068  0.5439  1.6958
 8724SOL     OW37807   2.978   3.656   3.155 -0.3574 -0.5872  0.2882
 8724SOL    HW137808   3.057   3.632   3.204 -0.9725 -2.1737  0.5219
 8724SOL    HW237809   2.958   3.737   3.202  0.5542 -0.0304 -0.2833
 8725SOL     OW37810   1.765   1.593   3.637  0.3413  0.1490 -0.0204
 8725SOL    HW137811   1.669   1.598   3.631  0.3854 -0.5912 -1.5043
 8725SOL    HW237812   1.772   1.522   3.701  1.0885 -1.6123 -2.0280
 8726SOL     OW37813   1.122   3.468   8.585  0.1826 -0.4340  0.0294
 8726SOL    HW137814   1.027   3.484   8.590  0.2394 -0.1801  0.3652
 8726SOL    HW237815   1.136   3.451   8.492 -1.6554  0.6472 -0.4513
 8727SOL     OW37816   0.228   2.810   6.552  0.2454 -0.1414  0.1859
 8727SOL    HW137817   0.310   2.760   6.547  1.6905  2.0158  2.9085
 8727SOL    HW237818   0.161   2.742   6.542 -1.9858  2.3374 -1.5738
 8728SOL     OW37819   4.183   2.402  12.668 -0.0608  0.6536  0.3913
 8728SOL    HW137820   4.201   2.436  12.756  1.5827  1.7403 -0.3640
 8728SOL    HW237821   4.254   2.427  12.609  0.4991 -0.4757  0.5812
 8729SOL     OW37822   1.690   0.515   9.356  0.3225  0.6301  0.2857
 8729SOL    HW137823   1.707   0.604   9.323 -1.2651  1.1736  0.9061
 8729SOL    HW237824   1.772   0.494   9.401  1.0126  1.4227 -0.6009
 8730SOL     OW37825   0.272   0.398   7.602 -0.2013 -0.0359  0.3930
 8730SOL    HW137826   0.274   0.332   7.671 -0.9802 -0.0828  0.3706
 8730SOL    HW237827   0.325   0.468   7.638 -0.0457  0.3922 -0.6526
 8731SOL     OW37828   2.752   4.444   1.296 -0.2269 -0.0657  0.5238
 8731SOL    HW137829   2.678   4.396   1.258 -0.6133  0.2277  0.9034
 8731SOL    HW237830   2.787   4.490   1.219  0.0876 -0.5664  0.3656
 8732SOL     OW37831   3.908   4.425   3.247 -0.7140  0.4746 -0.0058
 8732SOL    HW137832   3.897   4.430   3.152  2.1254 -0.1158 -0.3434
 8732SOL    HW237833   3.928   4.334   3.269 -0.8177  1.1634  2.8706
 8733SOL     OW37834   2.596   2.618   2.638  0.0450  0.0288 -0.1975
 8733SOL    HW137835   2.582   2.684   2.570 -0.4876 -0.8836 -0.9825
 8733SOL    HW237836   2.531   2.557   2.603 -2.0325  1.9932  0.2348
 8734SOL     OW37837   0.755   1.961   0.872  0.2379 -0.5018  0.2578
 8734SOL    HW137838   0.750   2.007   0.788  3.5107 -0.5555  0.0519
 8734SOL    HW237839   0.746   2.034   0.932  0.7660 -1.1728  1.1436
 8735SOL     OW37840   1.846   3.078   4.834  0.5391 -0.8384 -0.2043
 8735SOL    HW137841   1.927   3.033   4.859 -1.7693 -3.8303  1.9392
 8735SOL    HW237842   1.777   3.038   4.888 -1.1585  1.3647 -0.7307
 8736SOL     OW37843   1.644   0.149  11.570 -0.3849  0.1626  0.4418
 8736SOL    HW137844   1.705   0.176  11.502 -1.0423  0.6613  0.0508
 8736SOL    HW237845   1.694   0.138  11.651 -1.4779 -0.3639  1.0518
 8737SOL     OW37846   3.403   0.501   4.180 -0.2902 -0.3442  0.8490
 8737SOL    HW137847   3.355   0.550   4.113  0.1515 -2.1405 -0.7792
 8737SOL    HW237848   3.390   0.414   4.143  0.5400 -0.8463  1.7546
 8738SOL     OW37849   4.157   2.118  13.567  0.1819 -0.0971 -0.0658
 8738SOL    HW137850   4.224   2.125  13.635 -2.2162 -0.1487  2.3089
 8738SOL    HW237851   4.144   2.209  13.542  0.5378 -0.5134 -1.8145
 8739SOL     OW37852   0.257   2.891   3.792 -0.2611 -0.1986  0.4857
 8739SOL    HW137853   0.188   2.950   3.762 -0.7842 -0.9924  0.1351
 8739SOL    HW237854   0.204   2.812   3.796  0.3516 -0.4772  2.9099
 8740SOL     OW37855   2.914   1.119  13.781 -0.2539  0.8606  0.5588
 8740SOL    HW137856   2.998   1.148  13.744 -0.8137  2.8126  0.8171
 8740SOL    HW237857   2.937   1.059  13.851  0.3940 -1.0604 -1.3048
 8741SOL     OW37858   2.193   3.787   8.762  0.2526  0.0246  0.2892
 8741SOL    HW137859   2.188   3.799   8.667 -4.3115  1.4718  0.7188
 8741SOL    HW237860   2.286   3.806   8.778  0.6952 -0.4463 -1.6277
 8742SOL     OW37861   2.787   4.178   1.717  0.0260 -0.0773 -0.0336
 8742SOL    HW137862   2.703   4.191   1.674  0.9785  3.9029 -0.7134
 8742SOL    HW237863   2.821   4.268   1.715  2.2004 -0.8989  0.4726
 8743SOL     OW37864   0.097   3.934  13.303  0.3094 -0.4682  0.5183
 8743SOL    HW137865   0.135   4.017  13.333  1.6485 -0.4668 -1.1530
 8743SOL    HW237866   0.034   3.961  13.236  0.3291 -1.0110  0.2825
 8744SOL     OW37867   2.737   2.840   3.288 -0.3161  0.2328 -0.4910
 8744SOL    HW137868   2.822   2.812   3.252  0.4813  1.1464  0.6618
 8744SOL    HW237869   2.703   2.902   3.224 -0.7124  0.3139 -0.2001
 8745SOL     OW37870   0.894   2.269  11.588  0.3230  0.0678  0.0827
 8745SOL    HW137871   0.871   2.241  11.499 -2.3145  0.6123  0.5937
 8745SOL    HW237872   0.956   2.205  11.624 -1.2456 -0.7662  1.3064
 8746SOL     OW37873   3.454   1.946   1.212 -0.3550  0.4155 -0.0310
 8746SOL    HW137874   3.407   1.918   1.134  0.9648  1.0618 -1.0614
 8746SOL    HW237875   3.435   1.871   1.269  0.4009  0.0771 -0.2322
 8747SOL     OW37876   2.015   2.626   3.828 -0.1958 -0.1726 -0.9068
 8747SOL    HW137877   1.976   2.576   3.756 -0.8818 -1.0861  0.0843
 8747SOL    HW237878   1.970   2.585   3.903  2.1072  1.9442  1.6346
 8748SOL     OW37879   1.661   1.249   2.320  0.4868 -0.2210  0.2299
 8748SOL    HW137880   1.754   1.245   2.297  0.3610 -2.5889  0.1241
 8748SOL    HW237881   1.653   1.174   2.378 -0.5487 -1.3682 -1.4148
 8749SOL     OW37882   4.542   1.639   3.652 -0.5146  0.3296 -0.0607
 8749SOL    HW137883   4.535   1.732   3.631 -1.2757  0.5830  1.2955
 8749SOL    HW237884   4.531   1.642   3.747  2.2856  2.8851  0.1557
 8750SOL     OW37885   4.617   3.758   6.655  0.4614 -1.0076  0.0645
 8750SOL    HW137886   4.682   3.690   6.638  0.1525 -1.1724 -0.4847
 8750SOL    HW237887   4.660   3.843   6.653  0.7347 -1.1243  1.4998
 8751SOL     OW37888   0.462   2.488   0.013  0.7141 -0.5775 -0.2727
 8751SOL    HW137889   0.412   2.569   0.014 -2.2963 -2.4119 -2.1046
 8751SOL    HW237890   0.427   2.445   0.091  1.2054 -0.0089  0.2481
 8752SOL     OW37891   4.469   2.073   8.820  0.2305 -0.4656 -0.0338
 8752SOL    HW137892   4.532   2.058   8.891  0.6825  0.2042 -0.2920
 8752SOL    HW237893   4.493   2.161   8.791  0.3498 -0.5006 -0.0422
 8753SOL     OW37894   4.262   0.362   6.460  0.0280 -0.1038 -0.2329
 8753SOL    HW137895   4.338   0.347   6.403  0.7050 -0.9097  0.8712
 8753SOL    HW237896   4.217   0.278   6.451 -0.9380  0.6269 -2.1220
 8754SOL     OW37897   0.650   3.974   8.854  0.3299  0.1593 -0.0782
 8754SOL    HW137898   0.556   3.967   8.873  0.7718  1.5404  2.5198
 8754SOL    HW237899   0.679   3.984   8.944  0.9732 -1.5995 -0.0826
 8755SOL     OW37900   0.457   3.392   3.707 -0.3805 -0.4405 -0.1945
 8755SOL    HW137901   0.465   3.426   3.796 -0.3664  1.3252 -0.8688
 8755SOL    HW237902   0.374   3.346   3.695 -0.2887  0.1916 -3.2272
 8756SOL     OW37903   3.978   2.439   9.647  0.5677 -0.3162 -0.5314
 8756SOL    HW137904   4.047   2.495   9.684  0.0112 -0.8162  1.2342
 8756SOL    HW237905   3.910   2.496   9.611 -0.7849 -2.5790 -1.5287
 8757SOL     OW37906   3.907   3.528   4.296  0.4252  0.1350  0.4372
 8757SOL    HW137907   3.953   3.496   4.218  1.6420  2.3036  0.2846
 8757SOL    HW237908   3.953   3.484   4.368 -2.4507 -0.1065  2.1006
 8758SOL     OW37909   4.591   4.531   8.867 -0.1797  0.1055  0.3777
 8758SOL    HW137910   4.539   4.573   8.799 -0.5509  0.2667  0.7627
 8758SOL    HW237911   4.597   4.443   8.830 -0.6329  0.7404 -1.1801
 8759SOL     OW37912   3.486   3.275   4.049  0.3855  0.5454  0.3092
 8759SOL    HW137913   3.540   3.254   3.973 -0.5223 -0.8997  0.0567
 8759SOL    HW237914   3.485   3.202   4.111  0.0766  0.5308  0.2883
 8760SOL     OW37915   4.013   2.979   0.813 -0.3426  0.4196 -0.0893
 8760SOL    HW137916   4.079   2.923   0.854 -1.3680 -0.9945 -0.3748
 8760SOL    HW237917   3.929   2.961   0.854  0.4388  0.9111  1.7227
 8761SOL     OW37918   0.671   0.899   4.818 -0.3968  0.0071  0.0458
 8761SOL    HW137919   0.627   0.816   4.831 -0.6242 -0.1859 -1.9081
 8761SOL    HW237920   0.715   0.907   4.903 -0.4363  0.7829 -0.0075
 8762SOL     OW37921   1.169   2.983   3.499  0.1202 -0.4127 -0.0086
 8762SOL    HW137922   1.245   3.026   3.460  0.2767 -1.4180 -0.8083
 8762SOL    HW237923   1.188   2.894   3.471  0.9799 -0.7707  1.7742
 8763SOL     OW37924   2.873   3.221   0.848 -0.3241 -0.1246 -0.1852
 8763SOL    HW137925   2.892   3.142   0.899  2.2404  1.1533  0.8551
 8763SOL    HW237926   2.813   3.262   0.910 -1.0312  0.7938 -1.4784
 8764SOL     OW37927   3.349   2.525   3.824  0.0804  0.0202  0.7961
 8764SOL    HW137928   3.443   2.503   3.828  0.4427  0.7663 -3.6254
 8764SOL    HW237929   3.355   2.611   3.864 -2.8746  0.5528  0.0689
 8765SOL     OW37930   0.636   3.318  16.034  0.2456  0.4418 -0.1370
 8765SOL    HW137931   0.602   3.407  16.019  2.7579  1.4495  0.2140
 8765SOL    HW237932   0.705   3.305  15.969 -0.2699  1.2892 -0.8715
 8766SOL     OW37933   3.372   1.882   8.909  0.1206 -0.2171 -0.0033
 8766SOL    HW137934   3.338   1.971   8.921 -0.9463 -0.7446  0.9014
 8766SOL    HW237935   3.392   1.863   9.000 -2.9679  2.4869  1.2328
 8767SOL     OW37936   1.780   0.310   4.840 -0.4256 -0.5119  0.3014
 8767SOL    HW137937   1.853   0.254   4.811 -0.3169 -0.8401  1.2153
 8767SOL    HW237938   1.827   0.356   4.909 -2.5459  0.7354  0.9076
 8768SOL     OW37939   2.877   2.215   6.592  0.2088  0.6447  0.1038
 8768SOL    HW137940   2.957   2.185   6.635  1.0131  1.3484 -0.8976
 8768SOL    HW237941   2.809   2.151   6.613  0.8905 -0.2578 -0.4141
 8769SOL     OW37942   2.113   4.383   0.350  0.2506 -0.5802 -0.7383
 8769SOL    HW137943   2.063   4.342   0.279 -0.3148 -0.0923 -0.6273
 8769SOL    HW237944   2.109   4.316   0.418 -2.9738 -0.2309 -0.5428
 8770SOL     OW37945   1.749   3.076   2.251  0.5610 -0.1817 -0.3359
 8770SOL    HW137946   1.712   3.025   2.323  1.3344 -0.8739 -0.4347
 8770SOL    HW237947   1.681   3.068   2.185 -0.7355  2.5461  0.6883
 8771SOL     OW37948   2.949   0.773  12.807  0.6467  0.2088  0.3146
 8771SOL    HW137949   2.960   0.762  12.901  0.1701 -1.1695  0.2156
 8771SOL    HW237950   2.915   0.862  12.802 -1.0180 -0.4721 -0.4978
 8772SOL     OW37951   1.929   3.602   8.732  0.1534 -0.9161  0.1472
 8772SOL    HW137952   1.850   3.655   8.738  0.7925  0.2085 -1.4120
 8772SOL    HW237953   1.994   3.665   8.701 -0.7141  0.2712  0.7717
 8773SOL     OW37954   4.431   1.739   8.826  0.0081 -0.2798 -0.1668
 8773SOL    HW137955   4.466   1.817   8.783 -1.5707  1.2725  1.3826
 8773SOL    HW237956   4.350   1.738   8.776 -0.2955  2.0477  0.2625
 8774SOL     OW37957   4.277   4.146   6.242 -0.3987 -0.1257  0.6583
 8774SOL    HW137958   4.298   4.066   6.291 -0.9239 -2.1609 -2.4467
 8774SOL    HW237959   4.350   4.198   6.277 -0.9628  0.6940  0.6004
 8775SOL     OW37960   0.186   2.397   3.806  0.3895  0.4845 -0.5802
 8775SOL    HW137961   0.186   2.308   3.840 -1.6113  0.3885 -0.8144
 8775SOL    HW237962   0.279   2.415   3.818  0.3434 -0.4877  1.0913
 8776SOL     OW37963   3.797   2.981   9.563  0.5912 -0.3660 -0.0105
 8776SOL    HW137964   3.821   2.940   9.479 -1.8247  1.6996 -1.7171
 8776SOL    HW237965   3.704   2.999   9.552  1.3848  2.7664 -1.4911
 8777SOL     OW37966   2.349   1.407   1.697  0.3536 -0.0545  0.1900
 8777SOL    HW137967   2.380   1.382   1.609 -1.5151 -1.6679 -0.0053
 8777SOL    HW237968   2.266   1.452   1.682 -0.3634 -0.8373  1.9418
 8778SOL     OW37969   3.100   0.822  10.146 -0.8808 -0.1214  0.5283
 8778SOL    HW137970   3.146   0.893  10.102 -0.8350 -0.8510 -0.6184
 8778SOL    HW237971   3.167   0.754  10.145 -0.4539  0.2938  0.7728
 8779SOL     OW37972   2.226   4.209   1.476  0.5611  0.0964  0.5363
 8779SOL    HW137973   2.218   4.273   1.548 -0.8237 -1.2059  1.5577
 8779SOL    HW237974   2.165   4.141   1.507 -1.0167  1.1000 -0.3886
 8780SOL     OW37975   2.011   2.017  13.880  0.0952  0.2246 -0.3679
 8780SOL    HW137976   1.931   1.963  13.879  0.0692  0.2309  1.0468
 8780SOL    HW237977   2.074   1.955  13.844 -1.3741 -1.7560  0.4107
 8781SOL     OW37978   0.598   0.343  14.031 -0.0606  0.3355  0.1267
 8781SOL    HW137979   0.613   0.436  14.016 -0.5915  0.7496  2.1093
 8781SOL    HW237980   0.687   0.318  14.056 -0.1791  1.0661  1.2615
 8782SOL     OW37981   0.712   2.471   4.212 -0.0558  0.1079 -0.1135
 8782SOL    HW137982   0.653   2.474   4.137 -0.8215  0.8005  0.5177
 8782SOL    HW237983   0.687   2.558   4.243 -2.5456 -0.3781 -0.7353
 8783SOL     OW37984   2.979   3.574   4.937  0.0938  0.2739 -0.4363
 8783SOL    HW137985   2.947   3.528   5.015  1.1816  0.5939  0.1947
 8783SOL    HW237986   3.017   3.502   4.888  2.1893  0.6268  0.6993
 8784SOL     OW37987   2.787   2.924  15.890  0.1411 -0.1272 -0.1142
 8784SOL    HW137988   2.769   2.843  15.939 -1.1441 -0.8622 -1.7944
 8784SOL    HW237989   2.848   2.894  15.823 -0.9208  0.7275 -1.4548
 8785SOL     OW37990   0.208   1.269   2.082  0.1461  0.3821  0.7800
 8785SOL    HW137991   0.214   1.183   2.041 -3.6205  1.6032 -2.2970
 8785SOL    HW237992   0.246   1.251   2.168  1.4723 -0.1776  0.0913
 8786SOL     OW37993   4.546   3.736   9.855  0.2821  0.5188 -0.6802
 8786SOL    HW137994   4.456   3.767   9.841  0.2079  0.7666  0.4096
 8786SOL    HW237995   4.582   3.809   9.905  2.6469  0.4676 -2.3181
 8787SOL     OW37996   1.014   1.456   4.217 -0.2737  0.0179 -0.0003
 8787SOL    HW137997   1.034   1.517   4.287  0.3252 -0.8785  0.6099
 8787SOL    HW237998   1.051   1.376   4.255  1.6238  0.7535 -0.3251
 8788SOL     OW37999   3.483   1.193   0.792 -0.4195 -0.2566  0.6219
 8788SOL    HW138000   3.554   1.226   0.737 -0.7915  0.2480  0.4441
 8788SOL    HW238001   3.529   1.135   0.853  1.8901  1.3735  0.4280
 8789SOL     OW38002   1.749   2.148   4.662  0.1296 -0.3822 -0.8534
 8789SOL    HW138003   1.836   2.130   4.698 -0.6809  0.2090  1.4442
 8789SOL    HW238004   1.720   2.065   4.624 -0.6150 -0.7106  0.3943
 8790SOL     OW38005   3.622   3.146   2.270 -0.3877  0.0205  0.0764
 8790SOL    HW138006   3.696   3.126   2.326  0.7190 -0.2022 -1.4612
 8790SOL    HW238007   3.584   3.214   2.326  3.1381  1.3372  0.8347
 8791SOL     OW38008   2.899   0.961  10.564 -0.2885 -0.8050 -0.1011
 8791SOL    HW138009   2.971   0.984  10.622  0.1285  1.4279 -1.4819
 8791SOL    HW238010   2.848   1.042  10.566  2.4454  0.9676 -1.7137
 8792SOL     OW38011   1.522   4.456   9.631  0.2564  0.5200 -0.5520
 8792SOL    HW138012   1.596   4.399   9.608  0.4266  1.1708 -1.6167
 8792SOL    HW238013   1.561   4.533   9.670  2.1281 -0.6442 -0.1267
 8793SOL     OW38014   4.218   1.990   9.327  0.4858  0.3699  0.3275
 8793SOL    HW138015   4.227   2.077   9.365  1.6604  0.1921  0.4494
 8793SOL    HW238016   4.255   2.015   9.243 -0.1640 -0.8179 -0.3078
 8794SOL     OW38017   3.307   3.175   1.196 -0.5241  0.6688 -0.1101
 8794SOL    HW138018   3.277   3.126   1.272 -0.8417  2.8683  1.1813
 8794SOL    HW238019   3.298   3.262   1.235  0.7561  0.3984  0.8069
 8795SOL     OW38020   3.715   4.717   5.913  0.8055 -0.0158 -0.3740
 8795SOL    HW138021   3.808   4.735   5.903  1.0011 -0.0233  1.5031
 8795SOL    HW238022   3.683   4.695   5.825 -1.1802 -1.6135  0.7384
 8796SOL     OW38023   2.804   3.146  12.466 -0.0315 -0.2502  0.0798
 8796SOL    HW138024   2.871   3.166  12.532 -0.0717 -1.4736  0.5014
 8796SOL    HW238025   2.855   3.158  12.386  0.1797  1.2932  0.4529
 8797SOL     OW38026   4.582   3.014   4.149 -1.0346  0.1043 -0.3916
 8797SOL    HW138027   4.593   3.074   4.076 -0.8590  0.5787  0.0201
 8797SOL    HW238028   4.524   2.948   4.111 -0.2019 -0.2030 -1.1172
 8798SOL     OW38029   2.321   0.166   6.051 -0.1875  0.0412  0.5457
 8798SOL    HW138030   2.277   0.190   6.132 -0.7527  0.1859  0.1993
 8798SOL    HW238031   2.331   0.071   6.056  2.5495  0.3311  0.5688
 8799SOL     OW38032   2.413   3.666   6.768  0.5236 -0.0796  0.0991
 8799SOL    HW138033   2.418   3.570   6.768  2.0275 -0.0017  1.2953
 8799SOL    HW238034   2.447   3.686   6.855  0.3415  1.0709 -0.0960
 8800SOL     OW38035   3.595   3.481   9.390 -0.5442 -0.1762 -0.0662
 8800SOL    HW138036   3.661   3.414   9.374 -0.7755 -0.0777 -1.4302
 8800SOL    HW238037   3.513   3.439   9.362 -0.9578  1.2665 -1.0547
 8801SOL     OW38038   2.813   3.869   6.485  0.3852  0.2964 -0.0748
 8801SOL    HW138039   2.770   3.932   6.427  1.1781 -1.8657 -3.0295
 8801SOL    HW238040   2.881   3.930   6.514 -0.3469  1.2527 -0.3766
 8802SOL     OW38041   4.420   0.688   8.632  0.1056 -0.4385 -0.0064
 8802SOL    HW138042   4.467   0.675   8.550  2.9981  2.6926  1.1639
 8802SOL    HW238043   4.333   0.693   8.593 -0.0712 -2.3840  0.1476
 8803SOL     OW38044   2.474   0.944   5.293 -0.4816 -0.0398 -0.9114
 8803SOL    HW138045   2.415   0.904   5.358  0.0673  1.9914  0.8377
 8803SOL    HW238046   2.414   0.958   5.220  1.5274 -0.7092 -2.6987
 8804SOL     OW38047   1.764   4.270   2.023  0.2005  0.2851 -0.4232
 8804SOL    HW138048   1.729   4.185   1.994  0.1953  0.5708 -1.2462
 8804SOL    HW238049   1.854   4.265   1.992 -0.3994  1.3911 -2.3412
 8805SOL     OW38050   3.379   1.490  14.013 -0.2883  0.5486 -0.5393
 8805SOL    HW138051   3.344   1.564  14.062 -1.5811 -3.0626  3.9018
 8805SOL    HW238052   3.351   1.412  14.059 -0.4327  0.1105 -1.3754
 8806SOL     OW38053   2.996   0.671   9.587 -0.2480  0.8239 -0.1043
 8806SOL    HW138054   2.977   0.729   9.661  1.0062  0.6818  0.3370
 8806SOL    HW238055   2.948   0.594   9.615 -0.9713  0.7944 -1.4304
 8807SOL     OW38056   0.253   1.763  14.526 -0.3728 -0.0955 -0.1224
 8807SOL    HW138057   0.203   1.752  14.607 -0.6903 -0.4689 -0.3702
 8807SOL    HW238058   0.209   1.693  14.478 -3.5366  1.9913 -0.2795
 8808SOL     OW38059   1.066   1.690   7.806 -0.0099 -0.6556  0.4427
 8808SOL    HW138060   1.150   1.695   7.851 -0.3660  0.4170  0.9822
 8808SOL    HW238061   1.013   1.659   7.880 -0.2191 -1.4042 -0.0203
 8809SOL     OW38062   4.193   0.959   5.884  0.0203  0.0648 -0.1753
 8809SOL    HW138063   4.256   0.935   5.952 -1.0352  0.9161  1.1012
 8809SOL    HW238064   4.190   1.054   5.897  2.1761  0.0692  0.3492
 8810SOL     OW38065   1.999   1.773  17.513  0.0317  0.5480 -0.2980
 8810SOL    HW138066   1.970   1.842  17.454 -1.1650 -0.8228 -1.3279
 8810SOL    HW238067   2.088   1.804  17.530 -0.0239  0.4876  0.0850
 8811SOL     OW38068   4.604   0.418   9.038  0.1984 -0.0054 -0.2025
 8811SOL    HW138069   4.624   0.337   9.085 -1.0322 -0.8285 -1.1110
 8811SOL    HW238070   4.656   0.477   9.093  0.2930  0.2346 -0.5519
 8812SOL     OW38071   3.244   2.780   2.370 -0.2464 -0.0995  0.0717
 8812SOL    HW138072   3.284   2.866   2.383 -1.1698  0.1231  1.4913
 8812SOL    HW238073   3.199   2.788   2.286  0.1301 -3.8334 -0.5100
 8813SOL     OW38074   2.238   1.559   8.827  0.3277  0.0484  0.4169
 8813SOL    HW138075   2.186   1.636   8.852  1.0318  0.8963 -0.7244
 8813SOL    HW238076   2.189   1.495   8.877  0.8014  0.2719  1.1634
 8814SOL     OW38077   3.668   3.381   1.250  0.0467  0.1703  0.8849
 8814SOL    HW138078   3.631   3.468   1.239 -0.4828 -0.2170 -0.4206
 8814SOL    HW238079   3.636   3.332   1.174  0.0387 -0.8145  1.5194
 8815SOL     OW38080   0.886   1.819   6.033 -0.0569 -0.3751  0.0602
 8815SOL    HW138081   0.849   1.800   5.947  0.4381  0.1251 -0.2627
 8815SOL    HW238082   0.922   1.907   6.023  0.9966 -0.9728 -1.3537
 8816SOL     OW38083   3.470   2.758   1.458  0.3214  0.5559  0.1962
 8816SOL    HW138084   3.559   2.781   1.429  0.7299 -2.3258 -0.8996
 8816SOL    HW238085   3.466   2.812   1.537 -1.9573  1.2192 -0.3961
 8817SOL     OW38086   3.191   1.044  10.041  0.2451  0.0153 -0.2620
 8817SOL    HW138087   3.249   1.084   9.976 -0.2607  1.6452  0.2894
 8817SOL    HW238088   3.185   1.119  10.101 -1.3848 -0.2052 -0.1562
 8818SOL     OW38089   1.445   3.229   3.987 -0.2044 -0.5315  0.0599
 8818SOL    HW138090   1.457   3.134   3.994  0.6815 -0.5110 -1.2300
 8818SOL    HW238091   1.352   3.225   3.967 -0.4654 -4.3874  2.0643
 8819SOL     OW38092   3.810   2.404  11.130 -0.0838 -0.2541  0.0318
 8819SOL    HW138093   3.889   2.408  11.074  1.2417 -3.4026  1.7095
 8819SOL    HW238094   3.811   2.489  11.173 -0.1666 -0.9263  1.3331
 8820SOL     OW38095   3.471   2.894   5.956  0.2364  0.2745  0.1735
 8820SOL    HW138096   3.497   2.969   6.009 -0.7353  1.0081 -0.3638
 8820SOL    HW238097   3.385   2.936   5.949  1.0165  1.8242 -0.2547
 8821SOL     OW38098   4.182   4.456   9.843  0.3877  0.4529 -0.0156
 8821SOL    HW138099   4.261   4.434   9.793 -0.0480 -1.3713  0.0743
 8821SOL    HW238100   4.157   4.547   9.828  2.3890  1.0200  0.0664
 8822SOL     OW38101   3.727   4.630  16.602  0.5019 -0.4223 -0.1148
 8822SOL    HW138102   3.731   4.719  16.567  0.4966 -0.1071  0.6818
 8822SOL    HW238103   3.641   4.600  16.571  0.6839  0.7230 -1.7070
 8823SOL     OW38104   0.577   3.601   9.736 -0.2034  0.4777  0.2304
 8823SOL    HW138105   0.667   3.577   9.714 -0.2284  0.0232  0.6225
 8823SOL    HW238106   0.542   3.597   9.647  0.6107  1.2413 -0.1207
 8824SOL     OW38107   3.855   4.102   9.457  0.1474  0.0176  0.1516
 8824SOL    HW138108   3.863   4.110   9.362  4.2049 -1.1122  0.3947
 8824SOL    HW238109   3.771   4.061   9.474  0.3802 -0.6297 -0.2742
 8825SOL     OW38110   1.972   2.764   2.663  0.0368 -0.3207  0.0288
 8825SOL    HW138111   1.962   2.845   2.612  0.3882  1.0876  2.2051
 8825SOL    HW238112   1.882   2.759   2.695  0.2388  0.6653  0.7378
 8826SOL     OW38113   1.027   4.354   5.606  0.0888  0.1012  0.1093
 8826SOL    HW138114   1.110   4.392   5.578 -0.1545  0.6698  0.1646
 8826SOL    HW238115   1.064   4.288   5.665  0.2062 -0.2692 -0.3717
 8827SOL     OW38116   3.247   3.461   2.348  0.1301 -0.3458 -0.3872
 8827SOL    HW138117   3.234   3.511   2.429 -1.6393  0.3329 -1.0899
 8827SOL    HW238118   3.210   3.513   2.277 -1.9662  0.8745  1.5918
 8828SOL     OW38119   0.857   1.188   6.114  0.3050 -0.6843 -0.2989
 8828SOL    HW138120   0.851   1.283   6.127 -3.1946 -1.0703  0.8994
 8828SOL    HW238121   0.924   1.182   6.046  0.5421 -0.6403 -0.0686
 8829SOL     OW38122   0.627   0.147   7.458 -0.0998 -0.8730  0.1863
 8829SOL    HW138123   0.540   0.118   7.485 -0.4410  1.2400  1.3547
 8829SOL    HW238124   0.688   0.090   7.504  1.5792 -0.5766 -1.6487
 8830SOL     OW38125   1.364   4.058  15.626 -0.0974 -0.5491  0.4411
 8830SOL    HW138126   1.297   3.990  15.617 -1.2397  0.4868  1.1403
 8830SOL    HW238127   1.316   4.131  15.585 -0.3350 -0.8977  0.0934
 8831SOL     OW38128   1.556   0.049   2.310 -0.3312 -0.3451  0.1731
 8831SOL    HW138129   1.649   0.074   2.314 -0.2078 -0.3782 -2.7817
 8831SOL    HW238130   1.552   0.013   2.399  0.7386 -3.2506 -0.9692
 8832SOL     OW38131   0.042   2.272   4.122 -0.1299 -0.1105 -0.3038
 8832SOL    HW138132   0.013   2.206   4.185  0.0328 -0.7299 -0.8842
 8832SOL    HW238133   0.075   2.223   4.047 -1.0256 -0.7652 -0.2663
 8833SOL     OW38134   4.569   0.391   0.539  0.2017  0.0431  0.3483
 8833SOL    HW138135   4.600   0.354   0.621 -0.5429 -0.9637  0.1785
 8833SOL    HW238136   4.478   0.360   0.533  0.0716  0.4523  0.1776
 8834SOL     OW38137   1.956   2.532   1.118  0.0030 -0.0548  0.3837
 8834SOL    HW138138   1.981   2.516   1.209  0.6216 -1.3230  0.0003
 8834SOL    HW238139   2.038   2.519   1.071  0.0916  3.0280 -0.2805
 8835SOL     OW38140   4.226   3.901   7.116  0.5250  0.7777  0.1111
 8835SOL    HW138141   4.237   3.882   7.209  1.5180  2.3719  0.3243
 8835SOL    HW238142   4.315   3.909   7.082  0.8830 -2.5784  0.2954
 8836SOL     OW38143   4.007   4.573   5.612 -0.5927 -0.4134 -0.3349
 8836SOL    HW138144   3.927   4.558   5.561  0.2947  0.5482 -2.0084
 8836SOL    HW238145   4.059   4.607   5.540 -1.9646  0.7965 -0.7580
 8837SOL     OW38146   4.266   4.487  13.711 -0.5059 -0.0353  0.1272
 8837SOL    HW138147   4.204   4.466  13.780  1.1272 -0.0053  1.5928
 8837SOL    HW238148   4.276   4.582  13.719 -2.1993  0.0929  0.7864
 8838SOL     OW38149   0.241   0.301  16.416  0.0100  0.0818  0.2568
 8838SOL    HW138150   0.214   0.293  16.508 -0.9248  0.1188 -0.0108
 8838SOL    HW238151   0.287   0.219  16.404 -1.0382 -0.4122 -0.3847
 8839SOL     OW38152   0.878   4.665   4.268  0.0355  0.2295 -0.1138
 8839SOL    HW138153   0.896   4.698   4.356  1.2539 -1.4326  0.2737
 8839SOL    HW238154   0.839   4.582   4.295 -0.8088  1.3419  2.0564
 8840SOL     OW38155   0.197   1.182  12.504 -0.7357  0.1357 -0.2661
 8840SOL    HW138156   0.222   1.217  12.590 -1.0792 -0.2599 -0.0025
 8840SOL    HW238157   0.223   1.091  12.521 -1.1882  0.2008  0.8157
 8841SOL     OW38158   4.706   1.664   6.106 -0.2998  0.0981 -0.0756
 8841SOL    HW138159   4.645   1.736   6.124  1.9263  2.0059 -0.2266
 8841SOL    HW238160   0.025   1.658   6.183  0.6533 -2.8017 -1.0403
 8842SOL     OW38161   4.444   4.635   4.077  0.3605 -0.5579 -0.3324
 8842SOL    HW138162   4.501   4.578   4.026 -0.9840  0.0173 -2.5031
 8842SOL    HW238163   4.491   4.718   4.076 -2.0297  0.7956 -1.1832
 8843SOL     OW38164   1.773   4.663   4.723  0.3310 -0.7414 -0.3399
 8843SOL    HW138165   1.799   4.723   4.653  1.5557  1.4778  2.0417
 8843SOL    HW238166   1.716   4.603   4.675  2.4029 -0.2916 -3.3613
 8844SOL     OW38167   3.585   0.967  10.541  0.0624  0.0650 -0.0418
 8844SOL    HW138168   3.580   0.922  10.457 -0.9324  1.4761 -0.7295
 8844SOL    HW238169   3.582   0.895  10.604  1.6237  0.1473  0.1311
 8845SOL     OW38170   3.064   1.711   0.483 -0.0824 -0.2635 -0.0577
 8845SOL    HW138171   3.131   1.681   0.545  2.8530  1.3136 -2.4279
 8845SOL    HW238172   2.989   1.681   0.534 -1.2769  1.4608 -0.8329
 8846SOL     OW38173   0.758   3.358   1.944 -0.0942 -0.2664 -0.4980
 8846SOL    HW138174   0.835   3.302   1.928 -0.0956 -1.3215  3.2352
 8846SOL    HW238175   0.690   3.304   1.905 -0.2537 -0.1323 -0.4022
 8847SOL     OW38176   2.365   1.383   0.263  0.7063 -0.3335  0.3367
 8847SOL    HW138177   2.408   1.305   0.299 -0.9966 -2.2258 -1.7522
 8847SOL    HW238178   2.313   1.415   0.337  0.4585 -0.5607  0.2605
 8848SOL     OW38179   0.708   2.398   6.457 -0.0264  0.1776 -0.4079
 8848SOL    HW138180   0.717   2.400   6.553  2.3648 -2.0044 -0.5777
 8848SOL    HW238181   0.784   2.448   6.429  0.0068  0.6820  0.5881
 8849SOL     OW38182   4.305   2.344   4.828  0.1449 -0.5832 -0.4636
 8849SOL    HW138183   4.345   2.390   4.902  0.1862 -0.6336 -0.4546
 8849SOL    HW238184   4.238   2.406   4.799  0.8213 -0.3658 -1.5493
 8850SOL     OW38185   4.344   3.262   4.084  0.0091 -0.5877 -0.1757
 8850SOL    HW138186   4.383   3.271   3.997  1.6719 -1.0526  0.5168
 8850SOL    HW238187   4.322   3.353   4.103  1.0660 -0.4109  0.2316
 8851SOL     OW38188   3.325   4.126   1.620  0.0589  0.7839 -0.4331
 8851SOL    HW138189   3.342   4.056   1.557 -1.2269  0.6225 -0.6040
 8851SOL    HW238190   3.234   4.140   1.593 -0.4918  1.2150  1.6119
 8852SOL     OW38191   0.731   4.535  14.967 -0.5513  0.1341  0.7499
 8852SOL    HW138192   0.709   4.452  14.926 -1.0806  0.7100 -0.1309
 8852SOL    HW238193   0.802   4.493  15.016  1.1773  0.8502 -1.1524
 8853SOL     OW38194   0.632   0.823   5.650 -0.0660  0.6869 -0.2602
 8853SOL    HW138195   0.674   0.909   5.642 -1.2174  1.3452  0.9156
 8853SOL    HW238196   0.699   0.765   5.687 -2.2437 -0.9519  1.0931
 8854SOL     OW38197   0.055   2.649   7.411  0.5655  0.4255  0.0162
 8854SOL    HW138198   0.106   2.702   7.472 -1.0397 -0.0659  1.7627
 8854SOL    HW238199   0.074   2.702   7.333  3.7746 -2.3750 -1.1226
 8855SOL     OW38200   2.632   4.565   3.496 -0.3942 -0.0601 -0.0442
 8855SOL    HW138201   2.699   4.619   3.538  0.3882 -0.5093 -0.7012
 8855SOL    HW238202   2.577   4.530   3.566 -0.8591 -1.7641 -1.2688
 8856SOL     OW38203   2.174   2.014   9.159  0.5532 -0.2921 -0.3888
 8856SOL    HW138204   2.213   1.944   9.106 -0.2983  0.4881 -2.0788
 8856SOL    HW238205   2.228   2.033   9.235 -1.4989 -2.1979  1.5096
 8857SOL     OW38206   0.897   3.951   6.031  0.4875 -0.4206 -0.7530
 8857SOL    HW138207   0.854   3.875   6.070  1.4195 -0.7321 -0.3332
 8857SOL    HW238208   0.898   4.010   6.107 -3.0169 -0.2791 -0.8361
 8858SOL     OW38209   3.860   3.943  16.306  0.4705 -0.4102 -0.3018
 8858SOL    HW138210   3.772   3.915  16.330 -1.2012  3.3237 -2.1517
 8858SOL    HW238211   3.917   3.866  16.298  1.9056  0.6613 -0.4041
 8859SOL     OW38212   1.841   3.087   6.894  0.0463  0.1006  0.5680
 8859SOL    HW138213   1.879   3.167   6.859  0.0943 -0.7693 -1.4038
 8859SOL    HW238214   1.826   3.039   6.812 -1.0582  0.5382  0.5189
 8860SOL     OW38215   4.006   0.466   5.682 -0.0947  0.2163 -0.0588
 8860SOL    HW138216   4.095   0.441   5.657 -1.2263 -3.2843 -0.5262
 8860SOL    HW238217   3.958   0.453   5.600  1.6282  2.1777 -1.3863
 8861SOL     OW38218   2.855   2.694   2.034  0.6471  0.0098 -0.4966
 8861SOL    HW138219   2.770   2.682   2.076  0.9302  0.9391  0.3438
 8861SOL    HW238220   2.839   2.659   1.947 -1.7511 -1.2860  0.4894
 8862SOL     OW38221   2.434   2.305   9.800 -0.2225  0.4052 -0.2969
 8862SOL    HW138222   2.508   2.266   9.845 -1.5434 -0.4832  1.0972
 8862SOL    HW238223   2.359   2.248   9.819 -1.2835  1.4659 -1.2475
 8863SOL     OW38224   1.902   0.436   3.161  0.4556  0.7494 -0.0885
 8863SOL    HW138225   1.816   0.394   3.166  0.6787  0.3459  0.4413
 8863SOL    HW238226   1.931   0.397   3.244  0.2190  2.0398  0.6010
 8864SOL     OW38227   1.965   3.866   5.204 -0.2994 -0.1752 -0.1830
 8864SOL    HW138228   2.033   3.802   5.223 -1.4480 -1.0903  0.7880
 8864SOL    HW238229   2.009   3.917   5.135 -0.3180  0.2843  0.1505
 8865SOL     OW38230   4.146   3.883  12.265  0.1145  0.1824  0.1885
 8865SOL    HW138231   4.131   3.977  12.268  1.2380  0.4480 -2.1297
 8865SOL    HW238232   4.241   3.883  12.274  0.1239  0.0984  0.0994
 8866SOL     OW38233   0.235   4.143   2.814 -0.6114  0.0249  0.2605
 8866SOL    HW138234   0.191   4.059   2.826 -1.3186  0.7680  3.0112
 8866SOL    HW238235   0.320   4.111   2.785  0.1469  2.1125  0.1881
 8867SOL     OW38236   3.151   1.050  15.930  0.2005 -0.5142 -0.3446
 8867SOL    HW138237   3.080   1.000  15.971  0.6276  0.3717  1.5131
 8867SOL    HW238238   3.163   1.129  15.983  0.1277 -0.4329 -0.4500
 8868SOL     OW38239   4.280   1.073   3.952 -0.2621 -0.0794  0.3121
 8868SOL    HW138240   4.233   1.051   4.032 -0.1154  1.2854  0.7732
 8868SOL    HW238241   4.289   0.986   3.915  0.6848  0.5696 -0.9986
 8869SOL     OW38242   2.002   2.020   4.724 -0.0735  0.3189 -0.0860
 8869SOL    HW138243   2.033   1.955   4.787  1.3366  1.0122 -0.0665
 8869SOL    HW238244   2.047   1.993   4.644 -1.9338  0.9523 -1.3376
 8870SOL     OW38245   3.345   2.229   9.418 -0.0954 -0.2624 -0.4439
 8870SOL    HW138246   3.439   2.211   9.416 -0.1066 -0.5940  1.5988
 8870SOL    HW238247   3.358   2.266   9.506  0.2892 -0.7223 -0.3071
 8871SOL     OW38248   1.155   2.560   2.652  0.3987 -0.8530  0.1284
 8871SOL    HW138249   1.100   2.612   2.712  0.2328 -0.0307 -0.7288
 8871SOL    HW238250   1.103   2.483   2.631 -0.1786 -1.0071  2.0913
 8872SOL     OW38251   3.560   0.592  12.061 -0.0615 -0.1959  0.1289
 8872SOL    HW138252   3.627   0.593  11.993 -0.9073 -1.2391 -0.7267
 8872SOL    HW238253   3.497   0.642  12.009  1.9366 -1.0766 -3.1462
 8873SOL     OW38254   2.118   1.228   1.777 -0.4846  0.0904 -0.4240
 8873SOL    HW138255   2.114   1.259   1.687  2.9613  1.4047 -0.1112
 8873SOL    HW238256   2.035   1.182   1.791 -1.2351  0.5514 -3.3393
 8874SOL     OW38257   0.227   3.930   7.853 -0.1636 -0.3107 -0.3347
 8874SOL    HW138258   0.232   3.855   7.795 -1.6723  0.0960 -0.9944
 8874SOL    HW238259   0.269   4.009   7.819 -0.1439  1.0208  2.6973
 8875SOL     OW38260   1.966   2.215   8.640  0.0194  0.1826  0.1855
 8875SOL    HW138261   1.922   2.272   8.703  1.1834  1.1091  0.1626
 8875SOL    HW238262   1.911   2.216   8.561 -0.0966 -0.7535  0.2593
 8876SOL     OW38263   3.487   2.450   1.757 -0.2899 -0.0795  0.4415
 8876SOL    HW138264   3.476   2.373   1.813 -2.5509 -0.6506 -0.8056
 8876SOL    HW238265   3.459   2.422   1.670  0.0920  0.2649  0.2073
 8877SOL     OW38266   1.726   3.456   7.734  0.3833  0.1576  0.3255
 8877SOL    HW138267   1.652   3.513   7.713  0.3219  0.0510  0.2537
 8877SOL    HW238268   1.800   3.509   7.703 -0.4499  0.7637 -0.6386
 8878SOL     OW38269   0.344   2.301   7.471 -0.3348  0.5262  0.0884
 8878SOL    HW138270   0.353   2.268   7.561  1.1398  2.1565  0.5305
 8878SOL    HW238271   0.255   2.268   7.457  0.1837 -1.2209  0.9498
 8879SOL     OW38272   2.337   2.282   3.863  0.1918  0.1694 -0.2999
 8879SOL    HW138273   2.252   2.288   3.821  0.2198  0.3389 -0.3320
 8879SOL    HW238274   2.381   2.364   3.839  1.8628 -0.8810 -0.8757
 8880SOL     OW38275   0.750   4.382   3.450  1.0325 -0.8746  0.1794
 8880SOL    HW138276   0.731   4.307   3.506  1.0742 -0.1843  1.1100
 8880SOL    HW238277   0.693   4.371   3.373  1.0039 -0.5217  0.1470
 8881SOL     OW38278   1.029   1.238   6.390 -0.1155 -0.5458  0.4046
 8881SOL    HW138279   0.988   1.304   6.446 -2.4592 -0.8476 -0.9541
 8881SOL    HW238280   1.093   1.294   6.347 -1.3678 -0.9081 -1.9320
 8882SOL     OW38281   2.211   1.581   9.318 -0.1336 -0.2276  0.0690
 8882SOL    HW138282   2.303   1.557   9.304  0.2965  1.6459 -0.2102
 8882SOL    HW238283   2.181   1.515   9.381 -2.9921  1.9440  0.9621
 8883SOL     OW38284   0.722   2.827   3.886 -0.1189  0.2943  0.1015
 8883SOL    HW138285   0.641   2.809   3.933 -2.4335  1.4941 -3.5127
 8883SOL    HW238286   0.793   2.802   3.945 -0.5066  0.0647  0.4706
 8884SOL     OW38287   3.397   1.061   3.600  0.4446 -0.2985  0.9636
 8884SOL    HW138288   3.428   1.150   3.582 -1.7159  0.0274 -1.2664
 8884SOL    HW238289   3.302   1.073   3.599  0.6853  1.9901  4.6337
 8885SOL     OW38290   3.748   2.790   7.544 -0.1432 -0.5412  0.2833
 8885SOL    HW138291   3.729   2.726   7.476  0.8356 -0.0213 -0.4939
 8885SOL    HW238292   3.728   2.873   7.500 -0.2173 -0.7358 -0.0494
 8886SOL     OW38293   3.230   4.158   8.292 -0.8677 -0.1342 -0.3333
 8886SOL    HW138294   3.269   4.240   8.262  2.7221 -2.1198 -1.0848
 8886SOL    HW238295   3.289   4.134   8.363  0.1112 -0.4960 -1.2560
 8887SOL     OW38296   1.762   0.689   1.436 -0.5039 -0.1197  0.4576
 8887SOL    HW138297   1.815   0.638   1.497 -0.7555 -0.2079  0.6013
 8887SOL    HW238298   1.682   0.636   1.437 -0.3628 -0.3435 -0.0947
 8888SOL     OW38299   2.975   3.715   8.628 -0.8260 -0.0449  0.5913
 8888SOL    HW138300   2.936   3.636   8.664 -1.4053 -1.4757 -3.1453
 8888SOL    HW238301   3.070   3.705   8.635 -0.7142  1.0539  0.6554
 8889SOL     OW38302   1.774   1.305  12.912  0.1009  0.2406 -0.3389
 8889SOL    HW138303   1.767   1.352  12.829 -0.7756  1.1302  0.2397
 8889SOL    HW238304   1.786   1.217  12.878  0.6232  0.2084 -0.0746
 8890SOL     OW38305   3.064   4.561   4.928  0.0381  0.8301 -0.1848
 8890SOL    HW138306   3.123   4.629   4.895  0.4000  0.0444 -1.1617
 8890SOL    HW238307   3.006   4.556   4.852 -1.0647  0.3433  0.6849
 8891SOL     OW38308   1.706   1.928   2.312  0.6230  0.2606  0.3179
 8891SOL    HW138309   1.761   1.851   2.328  1.1488  1.0124  2.0773
 8891SOL    HW238310   1.636   1.915   2.376  0.4865 -0.0924  0.0998
 8892SOL     OW38311   0.827   1.482   6.089  0.1788  0.0389  0.0412
 8892SOL    HW138312   0.736   1.494   6.117  0.9216  0.5387  2.2450
 8892SOL    HW238313   0.868   1.536   6.157 -1.9885  2.2781 -0.4164
 8893SOL     OW38314   4.601   2.617  12.671  0.1159 -0.1120  0.0597
 8893SOL    HW138315   4.691   2.584  12.672 -0.0663 -0.6080  0.2304
 8893SOL    HW238316   4.615   2.705  12.637 -0.4622  0.0958  0.3650
 8894SOL     OW38317   3.695   1.936   2.670  0.0744 -0.4026 -0.2266
 8894SOL    HW138318   3.607   1.900   2.683 -0.1134 -0.6720 -2.3205
 8894SOL    HW238319   3.664   2.014   2.623  0.6417  1.3843  2.3291
 8895SOL     OW38320   3.778   1.436   6.603  0.2391 -0.5024  0.3265
 8895SOL    HW138321   3.849   1.500   6.601  0.0409 -0.2725  0.7359
 8895SOL    HW238322   3.823   1.364   6.646  3.1689  1.9025  1.2638
 8896SOL     OW38323   1.972   0.117  14.065 -0.4563  0.0034 -0.3986
 8896SOL    HW138324   1.942   0.091  13.978  0.9149 -1.8343 -0.3122
 8896SOL    HW238325   1.949   0.210  14.057  0.7159  0.3593  0.3728
 8897SOL     OW38326   0.234   2.984   6.787 -0.3381  0.7178 -0.6154
 8897SOL    HW138327   0.226   2.898   6.745 -2.1244  0.5247  0.1248
 8897SOL    HW238328   0.144   3.014   6.775 -0.4244 -0.4979 -3.0262
 8898SOL     OW38329   3.937   4.406   8.097 -0.1431 -0.3105 -0.3686
 8898SOL    HW138330   3.865   4.432   8.154 -0.3952 -3.1125  0.6266
 8898SOL    HW238331   3.979   4.344   8.157  2.3221  1.6104 -0.1316
 8899SOL     OW38332   2.693   2.846  17.746 -0.4182 -1.0410 -0.0248
 8899SOL    HW138333   2.710   2.937  17.721  3.9570 -1.8993 -0.2203
 8899SOL    HW238334   2.730   2.852   0.084  0.4283  0.4011 -0.4800
 8900SOL     OW38335   0.242   3.523   6.216 -0.2740  0.0829  0.0614
 8900SOL    HW138336   0.218   3.442   6.171 -0.7180  0.6394 -0.7137
 8900SOL    HW238337   0.300   3.497   6.287  0.5221  1.0701 -0.2262
 8901SOL     OW38338   0.580   4.650   9.024 -0.1236 -0.3579 -0.3765
 8901SOL    HW138339   0.543   4.607   9.101 -1.4221  0.9072 -0.2900
 8901SOL    HW238340   0.498   4.666   8.977  1.1364  0.6341 -2.2350
 8902SOL     OW38341   1.644   2.283   4.965  0.7851 -0.1677  0.3049
 8902SOL    HW138342   1.733   2.318   4.953 -0.2384  1.4087 -2.8486
 8902SOL    HW238343   1.630   2.234   4.884  1.9454  0.7068 -0.4433
 8903SOL     OW38344   2.307   3.575   0.291  0.1993 -0.6878 -0.8946
 8903SOL    HW138345   2.325   3.663   0.259 -0.1311  0.2878  1.6058
 8903SOL    HW238346   2.379   3.551   0.349 -0.3067 -1.9141 -0.7726
 8904SOL     OW38347   1.577   0.868   5.784  0.5216 -0.4354 -0.3130
 8904SOL    HW138348   1.672   0.858   5.774  0.3526 -1.0633 -1.3518
 8904SOL    HW238349   1.572   0.916   5.867 -1.8923 -2.5331  0.7430
 8905SOL     OW38350   2.689   1.916   2.088 -0.2855 -0.2056  0.4001
 8905SOL    HW138351   2.712   1.944   1.999  1.2467  0.0911  0.8935
 8905SOL    HW238352   2.775   1.903   2.128  0.4931  1.2598 -0.8190
 8906SOL     OW38353   2.418   4.033   4.156  0.0345  0.7397  0.0946
 8906SOL    HW138354   2.337   4.051   4.204 -0.5593  0.9638 -0.9858
 8906SOL    HW238355   2.463   4.116   4.140 -0.7966  0.8023 -2.0174
 8907SOL     OW38356   1.697   0.537  12.443  0.3349  0.5761  0.1036
 8907SOL    HW138357   1.686   0.540  12.348 -2.6917 -2.9372  0.3445
 8907SOL    HW238358   1.721   0.627  12.464  0.2049  1.0312 -1.6655
 8908SOL     OW38359   2.246   0.684  11.374 -0.5089  0.2968  0.3002
 8908SOL    HW138360   2.163   0.692  11.422 -0.7297 -0.0480 -0.0219
 8908SOL    HW238361   2.304   0.650  11.443  2.2388  0.9535 -1.6951
 8909SOL     OW38362   2.563   2.048   8.247 -0.3940 -0.3892 -0.2567
 8909SOL    HW138363   2.569   2.138   8.279 -0.1509 -1.6493  3.1791
 8909SOL    HW238364   2.553   1.996   8.326 -1.5682 -1.0697 -0.8397
 8910SOL     OW38365   0.362   4.491   9.989  0.1218  0.2824  0.0944
 8910SOL    HW138366   0.387   4.516   9.900  2.6405 -4.6014 -0.5641
 8910SOL    HW238367   0.270   4.471   9.973  0.1987  0.5788 -0.7159
 8911SOL     OW38368   0.531   4.683   4.506 -0.0550 -0.1037  0.0081
 8911SOL    HW138369   0.548   0.039   4.503 -0.1839 -0.1511 -1.9731
 8911SOL    HW238370   0.579   4.660   4.426  1.0983  1.3866  0.2743
 8912SOL     OW38371   2.893   2.899  12.152  0.0169  0.0343  0.4260
 8912SOL    HW138372   2.841   2.857  12.084  3.0209 -1.7857 -0.7634
 8912SOL    HW238373   2.980   2.889  12.113 -0.3032  0.1093 -0.2943
 8913SOL     OW38374   2.030   2.291  15.777 -0.2648 -0.2436 -0.6548
 8913SOL    HW138375   1.942   2.264  15.801  0.6248 -3.5169 -1.0622
 8913SOL    HW238376   2.072   2.213  15.741 -0.5305 -1.4325  1.6098
 8914SOL     OW38377   0.081   3.926   2.839  0.2586 -0.4647  0.0603
 8914SOL    HW138378   0.065   3.846   2.890  0.4558  0.0662  0.9447
 8914SOL    HW238379   0.100   3.881   2.757 -0.9609  0.6737 -0.8436
 8915SOL     OW38380   0.414   3.669  14.330  0.3373 -0.0597 -0.3052
 8915SOL    HW138381   0.489   3.652  14.274  0.4109 -1.2568  0.1586
 8915SOL    HW238382   0.437   3.744  14.386 -3.0804 -0.7213  2.0092
 8916SOL     OW38383   4.088   4.148   9.579 -0.3968  0.1012  0.1621
 8916SOL    HW138384   4.143   4.176   9.505 -0.8141  1.9394  0.5597
 8916SOL    HW238385   4.001   4.149   9.539  0.0677 -1.8744 -0.8880
 8917SOL     OW38386   1.325   0.864   5.652 -0.0596  0.8121  0.1339
 8917SOL    HW138387   1.304   0.771   5.662 -0.1962  0.7267 -1.0320
 8917SOL    HW238388   1.420   0.861   5.663  0.0449 -0.9866 -1.3177
 8918SOL     OW38389   4.603   0.218  14.944 -0.4552 -0.1933 -0.2037
 8918SOL    HW138390   4.651   0.216  14.861  0.2863  0.3700  0.2031
 8918SOL    HW238391   4.520   0.255  14.915 -1.2814 -1.9140 -0.0058
 8919SOL     OW38392   0.694   0.361   6.983 -0.0932  0.1461  0.0025
 8919SOL    HW138393   0.685   0.285   6.926 -0.9686  0.1273  0.1534
 8919SOL    HW238394   0.786   0.367   7.008 -0.6199  1.6172  1.5790
 8920SOL     OW38395   1.992   0.397   1.841 -0.2594  0.2010 -0.1001
 8920SOL    HW138396   2.071   0.344   1.831  1.1332  2.4716 -0.8719
 8920SOL    HW238397   2.021   0.462   1.904 -0.1495  0.3250 -0.2789
 8921SOL     OW38398   2.164   3.257  12.875 -0.1792  0.0019  0.2231
 8921SOL    HW138399   2.073   3.234  12.856 -0.0025  0.6502 -1.4571
 8921SOL    HW238400   2.165   3.341  12.829  1.8178 -0.6350 -0.8980
 8922SOL     OW38401   4.319   3.078   8.989 -0.2988  0.4085  0.2336
 8922SOL    HW138402   4.382   3.007   8.975 -2.2956 -1.6154  1.3920
 8922SOL    HW238403   4.248   3.028   9.029 -1.5681  1.3494 -0.8265
 8923SOL     OW38404   1.478   0.698   2.582  0.7320 -0.4604 -0.2376
 8923SOL    HW138405   1.478   0.608   2.551 -1.4199 -0.7179  0.4950
 8923SOL    HW238406   1.423   0.744   2.518 -0.6868 -1.3864  0.3226
 8924SOL     OW38407   1.451   3.423  11.954  0.0382  0.2416  0.0669
 8924SOL    HW138408   1.488   3.334  11.950  1.0434  0.7019 -0.9579
 8924SOL    HW238409   1.432   3.424  12.048  3.4648  1.6837  0.7814
 8925SOL     OW38410   2.289   2.247   6.674  0.9311 -0.0781 -0.0704
 8925SOL    HW138411   2.378   2.259   6.642  0.9650 -0.6393 -0.1966
 8925SOL    HW238412   2.264   2.165   6.630  1.5264 -0.3154  0.0341
 8926SOL     OW38413   2.917   1.720   5.851  0.4779  0.4260  0.4342
 8926SOL    HW138414   2.935   1.739   5.943 -1.1223  1.5730  0.5132
 8926SOL    HW238415   2.900   1.809   5.820 -1.4752  0.0516  0.4268
 8927SOL     OW38416   3.386   1.286   4.731  0.5828  0.8350 -0.5864
 8927SOL    HW138417   3.357   1.198   4.707  0.5282 -0.1422  3.1010
 8927SOL    HW238418   3.350   1.295   4.818  0.7108  1.8768 -0.6451
 8928SOL     OW38419   3.728   3.742   7.175 -0.1959  0.4076 -1.1851
 8928SOL    HW138420   3.745   3.734   7.269 -2.9680  1.2576 -0.6365
 8928SOL    HW238421   3.638   3.712   7.170 -0.6153  1.5988 -0.7839
 8929SOL     OW38422   2.663   1.322  11.792 -0.3541  0.4513 -0.0550
 8929SOL    HW138423   2.648   1.354  11.881  1.2632 -1.0346  0.7457
 8929SOL    HW238424   2.612   1.382  11.737 -3.4705 -0.3710  1.9047
 8930SOL     OW38425   3.556   0.992   8.490 -0.1940  0.1131 -0.0686
 8930SOL    HW138426   3.557   0.927   8.419  0.0728 -0.6189  0.6045
 8930SOL    HW238427   3.485   1.049   8.462  0.3356  0.3252 -0.9770
 8931SOL     OW38428   1.203   4.014   7.589 -0.4762 -0.4322 -0.0977
 8931SOL    HW138429   1.158   3.945   7.638 -1.5781  0.5180  0.2360
 8931SOL    HW238430   1.176   4.008   7.498 -0.9400 -2.2576  0.1694
 8932SOL     OW38431   2.121   0.009   2.688 -0.4450  0.2641  0.2388
 8932SOL    HW138432   2.105   0.052   2.771  1.5797  0.7300  0.3874
 8932SOL    HW238433   2.179   4.680   2.725  1.6888  1.1705 -1.4375
 8933SOL     OW38434   4.632   0.499  14.662  0.5920 -0.5253 -0.1778
 8933SOL    HW138435   4.703   0.514  14.724  2.9609  3.5374 -3.9560
 8933SOL    HW238436   4.659   0.422  14.612  1.1466  1.5259 -2.9583
 8934SOL     OW38437   4.138   1.979   8.930  0.3247  0.7688 -0.1068
 8934SOL    HW138438   4.058   2.003   8.976 -0.2496 -0.6028 -0.3901
 8934SOL    HW238439   4.133   2.024   8.845 -1.4476  2.8201  1.1042
 8935SOL     OW38440   0.460   4.603  13.641 -0.2884 -0.7796  0.6067
 8935SOL    HW138441   0.377   4.616  13.596  1.2634 -0.2423 -2.1195
 8935SOL    HW238442   0.501   4.686  13.617  2.9569 -1.8291  2.4555
 8936SOL     OW38443   2.297   1.740   5.898  0.1403  0.2944 -0.1198
 8936SOL    HW138444   2.345   1.815   5.863  0.3314 -0.1584 -0.8457
 8936SOL    HW238445   2.370   1.699   5.945 -1.8738 -3.6500 -0.3854
 8937SOL     OW38446   2.117   3.530  16.578 -0.9228  0.3768 -0.1468
 8937SOL    HW138447   2.037   3.511  16.529 -0.8861 -2.0474  0.7422
 8937SOL    HW238448   2.076   3.509  16.662  1.0214  0.5218  0.8274
 8938SOL     OW38449   4.070   1.391   9.219 -0.0487 -0.2548 -0.0273
 8938SOL    HW138450   3.978   1.410   9.201 -0.0089 -0.8554 -0.8680
 8938SOL    HW238451   4.080   1.304   9.182  0.3491  0.0291 -0.5910
 8939SOL     OW38452   1.745   2.241   1.770 -0.1727 -0.5398  0.4074
 8939SOL    HW138453   1.709   2.310   1.715 -0.3688  1.4770  3.0759
 8939SOL    HW238454   1.819   2.207   1.719  0.8734  1.7792  0.4015
 8940SOL     OW38455   0.382   3.178   9.139  0.1326  0.6916  0.0922
 8940SOL    HW138456   0.287   3.166   9.141  0.1597  0.6566  1.4985
 8940SOL    HW238457   0.404   3.094   9.100  0.3282  1.5614 -1.6399
 8941SOL     OW38458   3.926   1.593  14.412 -0.0341 -0.1864 -0.5232
 8941SOL    HW138459   3.885   1.564  14.330  1.9024  0.6030 -1.7686
 8941SOL    HW238460   3.924   1.688  14.401  0.7379 -0.0064  0.9256
 8942SOL     OW38461   2.454   0.384   1.394  0.0550 -0.1631 -0.2129
 8942SOL    HW138462   2.499   0.468   1.382  0.9991 -0.5369  0.7699
 8942SOL    HW238463   2.371   0.413   1.433  0.4332 -1.5189  1.5855
 8943SOL     OW38464   4.212   2.209   4.212 -0.6435  0.1400 -0.5623
 8943SOL    HW138465   4.188   2.126   4.254  2.5169 -1.4320 -1.9217
 8943SOL    HW238466   4.306   2.205   4.228 -0.3210  0.6093 -2.3242
 8944SOL     OW38467   0.452   4.291   1.433  0.6439 -0.1733 -0.2043
 8944SOL    HW138468   0.485   4.288   1.523 -0.1976 -0.8686  0.0858
 8944SOL    HW238469   0.440   4.199   1.408  0.6349  0.7955 -3.6334
 8945SOL     OW38470   3.207   0.429   3.188  0.0440  0.5018 -0.5608
 8945SOL    HW138471   3.260   0.454   3.113  0.8942 -0.3661 -0.2494
 8945SOL    HW238472   3.227   0.501   3.248  2.0186  0.2568 -0.9295
 8946SOL     OW38473   1.584   1.145   4.388 -0.3318  0.3979  0.4314
 8946SOL    HW138474   1.679   1.154   4.396 -0.1755  0.2652 -1.3521
 8946SOL    HW238475   1.572   1.126   4.295  0.5176 -0.8920  0.5919
 8947SOL     OW38476   2.618   1.474  14.176  0.3551 -0.4403  0.0792
 8947SOL    HW138477   2.675   1.408  14.136 -1.7419 -1.9201 -0.4158
 8947SOL    HW238478   2.533   1.478  14.132  0.0201 -1.5214  0.6470
 8948SOL     OW38479   0.373   3.051   6.487  0.0334 -0.5117  0.3141
 8948SOL    HW138480   0.350   3.144   6.492 -0.0418 -0.3991 -2.0797
 8948SOL    HW238481   0.308   3.022   6.551 -0.0372  1.3330  1.0889
 8949SOL     OW38482   4.253   1.244   4.555 -0.6291  0.1904 -0.8821
 8949SOL    HW138483   4.220   1.154   4.560 -1.6315  0.6570  1.1752
 8949SOL    HW238484   4.253   1.271   4.647  1.7108  1.5519 -1.3002
 8950SOL     OW38485   3.273   2.268   6.435 -0.7249  0.4365  0.1988
 8950SOL    HW138486   3.200   2.309   6.480  0.0901  1.0486  0.9737
 8950SOL    HW238487   3.245   2.274   6.344 -0.5945  1.3266  0.2223
 8951SOL     OW38488   2.245   1.221   8.044  0.3694 -0.5684 -0.0708
 8951SOL    HW138489   2.297   1.279   8.099 -0.1073  1.4898 -1.7878
 8951SOL    HW238490   2.171   1.280   8.027  1.3002  0.1124 -1.7397
 8952SOL     OW38491   0.419   0.436   2.442 -0.3332  0.0521 -0.2240
 8952SOL    HW138492   0.475   0.479   2.506 -2.3539 -1.5279  2.6295
 8952SOL    HW238493   0.351   0.409   2.504 -0.9388  0.9226 -0.5058
 8953SOL     OW38494   0.835   1.497   5.801 -0.4055 -0.0685 -0.1583
 8953SOL    HW138495   0.828   1.490   5.897  1.3255 -0.0059 -0.0279
 8953SOL    HW238496   0.784   1.576   5.786  0.5475  0.5445 -0.1566
 8954SOL     OW38497   1.797   3.869   8.016  0.0023  0.7295  0.0032
 8954SOL    HW138498   1.750   3.929   8.074 -2.7508  1.4537 -2.9816
 8954SOL    HW238499   1.887   3.870   8.049  0.6706  0.2032 -1.8027
 8955SOL     OW38500   0.866   3.259   6.909  0.0073 -0.0047  0.0706
 8955SOL    HW138501   0.864   3.181   6.965  1.6122  1.1416  1.7621
 8955SOL    HW238502   0.959   3.272   6.890  0.4867  0.0156  2.3371
 8956SOL     OW38503   3.995   4.416   8.607 -0.5160  0.6695 -0.8341
 8956SOL    HW138504   4.065   4.481   8.616 -0.2015  0.1916  0.1337
 8956SOL    HW238505   3.917   4.471   8.597  0.8849  2.9139  0.5337
 8957SOL     OW38506   0.347   1.818   0.598  0.0313 -0.2456 -0.0639
 8957SOL    HW138507   0.406   1.817   0.673  1.6175 -0.1532 -1.3125
 8957SOL    HW238508   0.371   1.904   0.564  1.8230 -1.7502 -2.7029
 8958SOL     OW38509   2.917   1.593   1.548  0.0157 -0.1362 -0.1076
 8958SOL    HW138510   3.008   1.568   1.567  0.7888  0.9492 -2.4317
 8958SOL    HW238511   2.921   1.667   1.487 -0.7720 -1.1524 -1.3835
 8959SOL     OW38512   0.699   0.109  10.495  0.2742  0.1115 -0.2948
 8959SOL    HW138513   0.784   0.155  10.492 -0.3198  1.1072 -1.9819
 8959SOL    HW238514   0.685   0.098  10.589 -1.3064 -2.8660 -0.8940
 8960SOL     OW38515   2.587   1.826   7.025 -0.0424  0.2454 -0.3808
 8960SOL    HW138516   2.517   1.855   6.967  0.4354  1.5994 -0.2801
 8960SOL    HW238517   2.654   1.812   6.958  0.5613 -1.3336  0.5536
 8961SOL     OW38518   0.628   2.529   9.009  0.0075 -0.4292  0.3506
 8961SOL    HW138519   0.680   2.585   9.066 -0.7260  0.1855  0.4094
 8961SOL    HW238520   0.700   2.480   8.970 -0.2121  0.4891 -1.1921
 8962SOL     OW38521   2.951   4.335   3.235  0.1189  0.3765 -0.3436
 8962SOL    HW138522   2.968   4.267   3.300 -0.3712  0.9925  0.4343
 8962SOL    HW238523   2.861   4.312   3.215 -0.9273  1.6731  2.7932
 8963SOL     OW38524   0.378   1.158   2.841  0.3078 -0.3592 -0.2732
 8963SOL    HW138525   0.378   1.196   2.754  0.0289  2.3200  0.8897
 8963SOL    HW238526   0.466   1.123   2.852  2.2098  4.1129 -1.1589
 8964SOL     OW38527   1.113   0.262   4.845 -0.2333 -0.2688 -0.7447
 8964SOL    HW138528   1.038   0.305   4.804  0.2201 -1.9585 -3.3598
 8964SOL    HW238529   1.138   0.332   4.905 -2.5677  1.1989 -1.5118
 8965SOL     OW38530   2.959   1.989  12.796 -0.0637 -0.9889 -0.0203
 8965SOL    HW138531   2.922   2.074  12.821  1.5143 -0.3167  0.0613
 8965SOL    HW238532   2.879   1.945  12.767  1.7413 -2.0823 -3.3946
 8966SOL     OW38533   0.526   0.950  10.414  0.1267  0.1654 -0.1379
 8966SOL    HW138534   0.433   0.927  10.419 -0.3503  1.6135 -2.6776
 8966SOL    HW238535   0.562   0.879  10.466 -1.1012 -0.9132 -0.7461
 8967SOL     OW38536   4.654   2.534   8.064 -0.4027 -0.1186 -0.1326
 8967SOL    HW138537   4.660   2.529   8.160  0.3729 -1.1117 -0.2293
 8967SOL    HW238538   4.700   2.455   8.037  0.7014  0.6719 -0.5983
 8968SOL     OW38539   3.961   3.913   0.544  0.4683  0.0029 -0.0151
 8968SOL    HW138540   3.946   3.908   0.638  0.4821  2.8385  0.1390
 8968SOL    HW238541   3.907   3.839   0.514 -0.2047 -0.2875  1.9178
 8969SOL     OW38542   4.076   3.024  11.816  0.4272  0.5694  0.2863
 8969SOL    HW138543   4.148   3.084  11.835 -0.1988  1.7041 -0.8765
 8969SOL    HW238544   4.052   3.064  11.732  2.3407  2.6390  0.7410
 8970SOL     OW38545   4.591   3.160  12.501 -0.2062  0.2367  0.4110
 8970SOL    HW138546   4.508   3.177  12.456  0.6374  0.9721 -0.8667
 8970SOL    HW238547   4.570   3.223  12.570 -0.8075  0.3055  0.1698
 8971SOL     OW38548   0.406   0.066   7.552  0.3848  0.0283 -0.3316
 8971SOL    HW138549   0.394   4.715   7.520 -2.0706 -1.3945  4.5685
 8971SOL    HW238550   0.316   0.100   7.554  1.1940  2.2257 -0.7800
 8972SOL     OW38551   1.818   0.158   8.691 -0.2096 -0.3920 -0.4190
 8972SOL    HW138552   1.793   0.171   8.599  0.2239  2.3032 -0.1620
 8972SOL    HW238553   1.751   0.093   8.713 -0.2000  0.5686  2.3797
 8973SOL     OW38554   2.109   2.650   3.261  0.0830 -0.2729  0.8635
 8973SOL    HW138555   2.148   2.578   3.212  1.5745  0.8006  0.4618
 8973SOL    HW238556   2.171   2.662   3.332 -1.8589 -0.1800  2.5344
 8974SOL     OW38557   4.670   1.889   8.508  0.1468  0.4507 -0.5232
 8974SOL    HW138558   4.727   1.815   8.485 -1.4664 -1.5459  1.7533
 8974SOL    HW238559   4.592   1.848   8.471  0.5565 -2.1970  1.4774
 8975SOL     OW38560   0.668   2.263   8.148 -0.0374  0.0538  0.0405
 8975SOL    HW138561   0.579   2.254   8.115  0.7329  0.5421 -2.2224
 8975SOL    HW238562   0.658   2.303   8.234  2.8626  0.4487  0.2122
 8976SOL     OW38563   3.823   3.677   5.888  0.3439  0.5160  0.2595
 8976SOL    HW138564   3.754   3.640   5.833  0.3027 -0.1652  0.7656
 8976SOL    HW238565   3.824   3.768   5.859 -0.6705  0.9059  1.4605
 8977SOL     OW38566   2.368   0.260   1.713  0.1330 -0.2203 -0.0004
 8977SOL    HW138567   2.409   0.219   1.638 -0.6593  0.7743 -0.9857
 8977SOL    HW238568   2.366   0.354   1.694  0.3935 -0.3534 -0.6576
 8978SOL     OW38569   1.607   2.049   3.967 -0.4679  0.1077 -0.2994
 8978SOL    HW138570   1.516   2.034   3.993 -0.5301 -2.0891 -1.8668
 8978SOL    HW238571   1.597   2.116   3.899 -0.5659  1.9556  1.5148
 8979SOL     OW38572   2.128   2.569   5.239 -0.7086 -0.3556  0.4253
 8979SOL    HW138573   2.096   2.499   5.296  0.1990  0.3035  1.7536
 8979SOL    HW238574   2.170   2.510   5.176 -0.7624  0.5748 -0.4715
 8980SOL     OW38575   2.951   0.196   9.145  0.4628 -0.3710 -0.4715
 8980SOL    HW138576   2.990   0.244   9.218  0.3439  0.6023 -1.0457
 8980SOL    HW238577   3.018   0.130   9.131  0.6564 -0.5279  1.1641
 8981SOL     OW38578   3.619   3.796   0.285  0.0118  0.2086  0.3631
 8981SOL    HW138579   3.583   3.856   0.219  2.9149 -1.5070 -2.8098
 8981SOL    HW238580   3.562   3.719   0.279 -0.2165  0.3891  0.2106
 8982SOL     OW38581   3.312   4.194  16.906  0.5469 -0.8703  0.0363
 8982SOL    HW138582   3.259   4.192  16.986  0.5397  1.0294  0.0901
 8982SOL    HW238583   3.311   4.287  16.882  3.1119 -0.8821 -0.1267
 8983SOL     OW38584   2.392   4.396   4.305 -0.0027 -0.0765 -0.0505
 8983SOL    HW138585   2.393   4.482   4.261 -2.5288  1.2289  2.5264
 8983SOL    HW238586   2.477   4.400   4.349 -0.2573 -5.6235  0.8735
 8984SOL     OW38587   1.952   3.896   1.188  0.6883 -0.0964  0.1341
 8984SOL    HW138588   2.037   3.940   1.195 -0.0032  1.2134  0.1685
 8984SOL    HW238589   1.889   3.948   1.237 -0.7022 -1.7839  0.1576
 8985SOL     OW38590   0.650   1.562   5.180  0.0404  0.8741 -0.3179
 8985SOL    HW138591   0.607   1.525   5.257 -1.8603 -0.3587 -1.9575
 8985SOL    HW238592   0.578   1.619   5.154  0.7316  1.1767 -1.5835
 8986SOL     OW38593   3.678   1.155   1.143  0.2248  0.5070 -0.2266
 8986SOL    HW138594   3.672   1.245   1.175  1.6774  0.9419 -1.1892
 8986SOL    HW238595   3.770   1.133   1.157  0.2015 -0.1280 -1.1001
 8987SOL     OW38596   0.987   0.398   2.262  0.3120  0.0646 -0.3592
 8987SOL    HW138597   0.902   0.363   2.288  0.1422  0.3424 -0.5399
 8987SOL    HW238598   1.039   0.362   2.333  0.0662  1.1257  0.3635
 8988SOL     OW38599   1.971   4.551   7.276  0.0951  0.4204  0.0005
 8988SOL    HW138600   2.037   4.598   7.326  0.1329 -0.9017  1.1855
 8988SOL    HW238601   1.998   4.461   7.297  3.0542  1.7679  1.8852
 8989SOL     OW38602   4.392   1.031   8.688 -0.0121  0.1122  0.2925
 8989SOL    HW138603   4.427   1.048   8.776  0.2876 -1.7555  0.5511
 8989SOL    HW238604   4.405   1.122   8.664  1.5905  0.1622  1.3316
 8990SOL     OW38605   0.260   4.279   3.046 -0.3301  0.3683  0.2230
 8990SOL    HW138606   0.295   4.230   3.120  2.2572  0.1340 -1.1789
 8990SOL    HW238607   0.250   4.212   2.978  0.6644 -0.7201  1.1721
 8991SOL     OW38608   2.571   2.799   3.016 -0.0037  0.3933 -0.1527
 8991SOL    HW138609   2.578   2.738   3.089  0.3712 -0.1374 -0.6321
 8991SOL    HW238610   2.482   2.774   2.990 -0.7862  0.1574  2.7495
 8992SOL     OW38611   0.374   0.435   8.265  0.8509 -0.0688  0.2211
 8992SOL    HW138612   0.303   0.397   8.316  0.7384  1.5446  1.2732
 8992SOL    HW238613   0.435   0.460   8.334  1.5826 -0.8514 -0.1462
 8993SOL     OW38614   0.081   0.322   5.310  0.7584  1.0220 -0.4530
 8993SOL    HW138615   0.167   0.289   5.334  0.1382 -0.6724 -0.5589
 8993SOL    HW238616   0.079   0.407   5.353  2.5297  1.9336 -2.1592
 8994SOL     OW38617   1.388   4.043  11.561 -0.1554  0.3228  0.5097
 8994SOL    HW138618   1.311   4.019  11.510  0.4510  1.3653 -0.8745
 8994SOL    HW238619   1.347   4.077  11.641 -1.8093 -1.9685  0.6424
 8995SOL     OW38620   1.451   3.480   1.775  0.0798  0.1568  0.1752
 8995SOL    HW138621   1.396   3.536   1.830  0.7090  0.9542 -0.0049
 8995SOL    HW238622   1.455   3.542   1.702 -1.1564 -0.7238 -0.6488
 8996SOL     OW38623   2.844   1.158  11.029 -0.2345 -0.1673 -0.1345
 8996SOL    HW138624   2.872   1.243  11.062  1.9802 -0.9995  0.1308
 8996SOL    HW238625   2.840   1.164  10.934 -1.5598 -2.1122 -0.1910
 8997SOL     OW38626   2.413   1.549   4.929  0.4338 -0.1024 -0.2574
 8997SOL    HW138627   2.473   1.605   4.978 -1.9498  2.7574 -0.5713
 8997SOL    HW238628   2.436   1.569   4.838  2.5178 -2.9152 -0.3626
 8998SOL     OW38629   0.676   3.252   4.556  0.2063 -0.5441 -0.0820
 8998SOL    HW138630   0.736   3.185   4.524  0.1222 -2.1600  3.1694
 8998SOL    HW238631   0.740   3.307   4.602  0.5618 -0.3003 -0.8614
 8999SOL     OW38632   0.215   1.584   5.977  0.2170  0.2060 -0.2227
 8999SOL    HW138633   0.251   1.620   5.896 -0.8807  0.2828 -0.6723
 8999SOL    HW238634   0.127   1.618   5.989  0.6482  0.7177  1.4772
 9000SOL     OW38635   2.742   4.683   8.189 -0.5501 -0.0749  0.5153
 9000SOL    HW138636   2.681   4.647   8.125  1.4293  1.0775 -2.0237
 9000SOL    HW238637   2.795   4.607   8.213  0.2984  0.1388 -0.6945
 9001SOL     OW38638   2.971   0.884   5.182 -0.6869  0.1509  0.3034
 9001SOL    HW138639   3.014   0.926   5.107  0.8740 -0.4557  0.8541
 9001SOL    HW238640   2.958   0.793   5.155 -0.2344  0.0927  0.2857
 9002SOL     OW38641   4.466   3.379   7.058  0.0264  0.3782 -0.1307
 9002SOL    HW138642   4.395   3.430   7.096 -0.2450 -0.7419  0.8762
 9002SOL    HW238643   4.481   3.442   6.988 -1.0250  2.1972  1.3002
 9003SOL     OW38644   4.149   0.043  17.371 -0.3090  0.4567 -0.5565
 9003SOL    HW138645   4.058   0.027  17.345 -0.2695 -1.8206  0.7181
 9003SOL    HW238646   4.190   4.698  17.347 -0.4623 -0.2024  1.4479
 9004SOL     OW38647   4.446   3.650  10.582  0.3289  0.0463 -0.1175
 9004SOL    HW138648   4.502   3.684  10.652 -2.4189  1.1945  1.5532
 9004SOL    HW238649   4.374   3.602  10.622  0.3465  1.6491  1.8766
 9005SOL     OW38650   2.667   1.204   5.833  0.2670  0.2116 -0.3730
 9005SOL    HW138651   2.589   1.179   5.783  1.5847  0.4454 -2.5681
 9005SOL    HW238652   2.726   1.130   5.816  0.9488  0.3777  1.3053
 9006SOL     OW38653   0.080   2.556   6.516  0.2361  0.2557 -0.0751
 9006SOL    HW138654   0.014   2.595   6.459  2.5657  2.8307 -0.9728
 9006SOL    HW238655   0.106   2.482   6.461 -1.5332 -0.1607 -0.3637
 9007SOL     OW38656   4.510   1.136   7.301 -0.7975 -0.0548  0.0544
 9007SOL    HW138657   4.594   1.165   7.267 -1.0802  1.3877  0.5637
 9007SOL    HW238658   4.468   1.090   7.229 -2.0074 -0.8960  1.2825
 9008SOL     OW38659   3.001   0.869  17.550 -0.2428  0.0993 -0.3108
 9008SOL    HW138660   3.025   0.947  17.499 -0.6351  0.6570  0.3593
 9008SOL    HW238661   2.911   0.863  17.518 -1.0470  0.4794  1.8629
 9009SOL     OW38662   0.631   3.456   3.258  0.2701  0.1187  0.7569
 9009SOL    HW138663   0.673   3.370   3.256 -1.3192 -0.6755  0.7355
 9009SOL    HW238664   0.617   3.463   3.353 -2.4933  1.9748  0.2271
 9010SOL     OW38665   3.839   4.326  10.278 -0.0573 -0.0551  0.1132
 9010SOL    HW138666   3.875   4.273  10.206 -2.3580 -1.8212  0.2677
 9010SOL    HW238667   3.908   4.391  10.292 -1.0813  1.0468  0.0417
 9011SOL     OW38668   1.023   3.653   8.846 -0.2301  0.3486 -0.5085
 9011SOL    HW138669   1.008   3.560   8.828 -0.1321  0.3986 -0.8464
 9011SOL    HW238670   0.997   3.695   8.764  1.2233  0.7311 -0.7683
 9012SOL     OW38671   2.288   4.126   5.191  0.2192 -0.3707 -0.0374
 9012SOL    HW138672   2.209   4.122   5.137  1.2610  1.5833 -1.6938
 9012SOL    HW238673   2.247   4.103   5.274  0.0346 -0.1209 -0.0593
 9013SOL     OW38674   3.855   0.570  15.579  0.1872 -0.1363  1.4206
 9013SOL    HW138675   3.777   0.580  15.525  0.6956  1.8969  1.0463
 9013SOL    HW238676   3.924   0.617  15.531 -1.6695  0.9351 -0.2053
 9014SOL     OW38677   2.739   4.167   4.655 -0.1291  0.1038  0.1152
 9014SOL    HW138678   2.674   4.104   4.623 -0.6467  0.2869  0.8043
 9014SOL    HW238679   2.793   4.176   4.577  0.3394  1.8811  0.6554
 9015SOL     OW38680   3.252   2.949   0.594  0.4320  0.4270  0.3115
 9015SOL    HW138681   3.262   3.032   0.641  0.9189 -0.4799  1.8197
 9015SOL    HW238682   3.242   2.985   0.506  0.6795  1.2360  0.6150
 9016SOL     OW38683   2.228   4.505   4.853 -0.0258 -0.1771  0.2050
 9016SOL    HW138684   2.236   4.470   4.764  0.4121  1.5069 -0.4148
 9016SOL    HW238685   2.143   4.547   4.836 -0.5073 -1.2341 -0.0077
 9017SOL     OW38686   4.505   2.588   0.453 -0.3017  0.0861  0.1454
 9017SOL    HW138687   4.525   2.650   0.383  0.3349 -0.4943 -0.1907
 9017SOL    HW238688   4.511   2.628   0.539  0.1971  1.6901 -0.6387
 9018SOL     OW38689   4.040   0.099   1.479 -0.9688  0.2011 -0.0441
 9018SOL    HW138690   4.077   0.121   1.393 -1.0725 -1.1018 -0.4224
 9018SOL    HW238691   4.066   0.186   1.511 -3.2914  0.2416  1.7195
 9019SOL     OW38692   1.988   4.336  12.020  0.1606 -0.4626 -0.6849
 9019SOL    HW138693   1.903   4.307  11.988 -0.4309 -1.4938  1.7911
 9019SOL    HW238694   2.027   4.391  11.952 -0.2083  1.0607  0.3311
 9020SOL     OW38695   3.588   4.493   7.171 -0.1559 -0.9668  0.2009
 9020SOL    HW138696   3.619   4.437   7.100 -0.5315  0.7526 -1.3416
 9020SOL    HW238697   3.510   4.445   7.198 -0.4399  0.2120  1.4989
 9021SOL     OW38698   1.421   1.208   5.125 -0.3467 -0.1119  0.0250
 9021SOL    HW138699   1.344   1.163   5.160  0.7041 -0.9965  1.1838
 9021SOL    HW238700   1.409   1.212   5.030 -0.9955 -2.4201  0.0201
 9022SOL     OW38701   1.200   2.723   8.186 -0.2500  0.0207 -0.1665
 9022SOL    HW138702   1.247   2.722   8.103  2.3195  1.8457  1.2894
 9022SOL    HW238703   1.234   2.807   8.216 -1.1652  0.4496 -0.3467
 9023SOL     OW38704   4.164   4.157   8.844 -0.1470 -0.0109 -0.0705
 9023SOL    HW138705   4.092   4.128   8.787 -1.0084  1.4672  0.2680
 9023SOL    HW238706   4.184   4.082   8.900  0.1860 -0.3324 -0.6223
 9024SOL     OW38707   2.993   0.378   2.790  0.0675  0.1129  0.1887
 9024SOL    HW138708   2.934   0.350   2.720 -3.6491  2.2221  2.4402
 9024SOL    HW238709   2.983   0.473   2.797  0.6874  0.2027 -0.2304
 9025SOL     OW38710   0.917   0.228   5.750  0.2604  0.1436  0.5708
 9025SOL    HW138711   0.925   0.138   5.718  0.8479 -0.3643  2.1120
 9025SOL    HW238712   1.010   0.252   5.750 -0.2911  2.2026 -2.1177
 9026SOL     OW38713   3.793   1.002  17.447  0.2249  0.1812 -0.4713
 9026SOL    HW138714   3.728   0.967  17.387 -0.4164  3.0468 -1.4029
 9026SOL    HW238715   3.873   0.951  17.432 -0.5352 -0.8442 -0.9990
 9027SOL     OW38716   2.603   0.522  17.629 -0.0591 -0.0259  0.0873
 9027SOL    HW138717   2.678   0.472  17.597 -0.6940 -1.5775  1.0106
 9027SOL    HW238718   2.621   0.530  17.723  0.1129 -0.0344  0.0536
 9028SOL     OW38719   1.506   4.132  12.202 -0.3380  0.1729 -0.1342
 9028SOL    HW138720   1.431   4.078  12.228 -1.2168  0.2670 -2.4597
 9028SOL    HW238721   1.545   4.055  12.161  1.0355  1.5269 -1.3903
 9029SOL     OW38722   4.209   2.247  16.891 -0.4702 -0.5995  0.1317
 9029SOL    HW138723   4.257   2.202  16.821  0.3400 -1.5466  1.2905
 9029SOL    HW238724   4.127   2.260  16.845 -1.2493  1.7964  2.1727
 9030SOL     OW38725   3.063   2.486   4.681  0.5193 -0.8882  0.2593
 9030SOL    HW138726   3.095   2.515   4.767  0.8673  0.5553 -0.3545
 9030SOL    HW238727   3.138   2.435   4.648  1.3646  0.4509  0.1127
 9031SOL     OW38728   2.357   3.085   4.336  0.3333 -0.5398 -0.2612
 9031SOL    HW138729   2.355   3.162   4.392  0.0623  0.3051 -1.4219
 9031SOL    HW238730   2.332   3.012   4.392  0.3161 -0.5173 -0.2395
 9032SOL     OW38731   1.497   1.155   5.529 -0.0341  0.4157 -0.3051
 9032SOL    HW138732   1.534   1.230   5.484 -0.2278  0.8848  0.3225
 9032SOL    HW238733   1.493   1.087   5.461 -0.0880  1.7377 -1.6094
 9033SOL     OW38734   2.143   3.669   2.288  0.5017 -0.4948 -0.5817
 9033SOL    HW138735   2.148   3.738   2.222 -3.6972  0.9316  0.5724
 9033SOL    HW238736   2.050   3.669   2.311  0.4897 -0.6098 -0.6270
 9034SOL     OW38737   4.561   2.377   0.798 -0.0158  0.1323  0.2343
 9034SOL    HW138738   4.624   2.430   0.749  0.0626 -0.3582 -0.1882
 9034SOL    HW238739   4.520   2.322   0.731  1.3836 -1.2815  0.5468
 9035SOL     OW38740   1.684   2.066   2.623  0.0569  0.3200 -0.3980
 9035SOL    HW138741   1.656   1.986   2.577 -0.8599  0.8662 -0.7876
 9035SOL    HW238742   1.616   2.122   2.586 -1.5091 -1.3386 -0.0471
 9036SOL     OW38743   4.458   4.110  17.013  0.4463  0.0819  0.2539
 9036SOL    HW138744   4.517   4.179  16.984  1.0182 -0.8767 -0.8211
 9036SOL    HW238745   4.487   4.040  16.956 -1.6469 -0.7807  0.2285
 9037SOL     OW38746   4.275   2.249   3.711  0.1689  0.4463 -0.8053
 9037SOL    HW138747   4.222   2.233   3.789  1.7502  0.7592  0.3286
 9037SOL    HW238748   4.312   2.332   3.742 -1.1561  1.1574 -1.1321
 9038SOL     OW38749   3.956   4.648   7.356  0.7400  0.2312 -0.1130
 9038SOL    HW138750   3.988   4.737   7.339  0.7503  0.2466 -0.0125
 9038SOL    HW238751   3.906   4.658   7.437  0.8607  1.3368 -0.1809
 9039SOL     OW38752   1.535   0.076   3.112  0.2559  0.0033 -0.1914
 9039SOL    HW138753   1.589   0.047   3.185  1.0054 -1.5334 -1.3704
 9039SOL    HW238754   1.448   0.078   3.152  0.6844  0.8045  0.7129
 9040SOL     OW38755   3.667   3.571   4.562  0.1596  0.3280 -0.1441
 9040SOL    HW138756   3.624   3.627   4.627 -0.7289  0.2535 -0.6729
 9040SOL    HW238757   3.627   3.626   4.495 -1.1232 -0.6978 -0.2277
 9041SOL     OW38758   2.880   4.305   7.918  0.3147 -0.1782  0.3413
 9041SOL    HW138759   2.807   4.300   7.856 -0.0942 -2.9077  1.0631
 9041SOL    HW238760   2.848   4.365   7.986 -0.4422  1.0711 -1.1023
 9042SOL     OW38761   0.859   4.672  10.195 -0.2247  0.7871 -0.0586
 9042SOL    HW138762   0.846   4.581  10.171  0.1790  0.7266 -0.0592
 9042SOL    HW238763   0.778   4.694  10.240 -0.8523  0.6642 -1.1354
 9043SOL     OW38764   2.445   3.095   6.730  0.1964  0.3595  0.2251
 9043SOL    HW138765   2.498   3.132   6.659  0.8794 -0.7470  0.1663
 9043SOL    HW238766   2.512   3.042   6.773  0.0598  0.6108  0.7408
 9044SOL     OW38767   3.689   3.767   0.961  0.0146  0.3754 -0.5313
 9044SOL    HW138768   3.647   3.696   0.913 -1.4617  0.2416  0.9613
 9044SOL    HW238769   3.627   3.791   1.030 -0.8315 -2.0860 -0.4686
 9045SOL     OW38770   0.927   4.446   5.231 -0.3172 -0.2153  0.0964
 9045SOL    HW138771   0.926   4.352   5.248  0.6681  0.0427  1.5952
 9045SOL    HW238772   1.014   4.470   5.265 -0.6831  1.4736 -0.1931
 9046SOL     OW38773   3.542   1.782   7.886  0.4800  0.2190  0.0830
 9046SOL    HW138774   3.557   1.699   7.933 -0.6697 -0.3837 -0.6215
 9046SOL    HW238775   3.584   1.850   7.938  2.0058  0.4836 -1.4982
 9047SOL     OW38776   0.177   3.540  13.454  0.3471  0.6534  0.5320
 9047SOL    HW138777   0.101   3.488  13.482  0.6435 -0.3304 -0.4818
 9047SOL    HW238778   0.167   3.610  13.518 -0.6591 -0.5913  1.7326
 9048SOL     OW38779   1.317   1.712   7.175 -0.0642  0.0767  0.1704
 9048SOL    HW138780   1.245   1.775   7.172  1.0512  1.3061 -0.5009
 9048SOL    HW238781   1.336   1.725   7.268  0.6716  0.7062 -0.0715
 9049SOL     OW38782   0.105   2.159   7.398 -0.2715 -0.1579 -0.4633
 9049SOL    HW138783   0.095   2.076   7.352 -1.3775 -1.3320  1.9366
 9049SOL    HW238784   0.015   2.170   7.430 -0.2698  1.8188 -1.1473
 9050SOL     OW38785   2.342   3.695  17.229 -0.1770  0.3358 -0.2771
 9050SOL    HW138786   2.393   3.775  17.220 -0.0621  0.1547 -1.2379
 9050SOL    HW238787   2.359   3.667  17.319 -1.9469 -0.4332 -0.1744
 9051SOL     OW38788   4.484   1.417   1.830  0.4723  0.6667 -0.2462
 9051SOL    HW138789   4.438   1.453   1.754 -0.1107  0.2254 -0.0969
 9051SOL    HW238790   4.444   1.331   1.834 -0.9807  1.2970 -1.1307
 9052SOL     OW38791   0.516   4.049   1.304 -0.3730  0.2266  0.8005
 9052SOL    HW138792   0.551   3.964   1.331 -1.2753 -0.2908  0.3225
 9052SOL    HW238793   0.583   4.072   1.241  1.1691 -1.2863  1.8780
 9053SOL     OW38794   3.417   3.952   8.820 -0.3095 -0.3992  0.4625
 9053SOL    HW138795   3.342   3.894   8.805  0.3535 -1.4662  1.2740
 9053SOL    HW238796   3.481   3.908   8.764 -1.6372  0.9992 -2.1525
 9054SOL     OW38797   2.828   2.240   6.977  0.3234 -0.2344 -0.3372
 9054SOL    HW138798   2.851   2.189   7.054  0.6537 -1.9830 -1.5841
 9054SOL    HW238799   2.743   2.212   6.944 -1.5441  4.2487  0.7511
 9055SOL     OW38800   1.328   0.652   6.713 -0.0493 -0.5741  0.4219
 9055SOL    HW138801   1.281   0.714   6.769  0.0624 -0.1399  0.0359
 9055SOL    HW238802   1.255   0.627   6.656  1.0127  1.7768 -1.9663
 9056SOL     OW38803   0.031   4.423   7.109 -0.0216  0.1382  0.0339
 9056SOL    HW138804   0.007   4.402   7.019 -0.4408 -0.9606  0.3999
 9056SOL    HW238805   4.729   4.509   7.118  1.1034  0.7155 -0.4853
 9057SOL     OW38806   2.233   3.871   2.792  0.2601 -0.4451 -0.0484
 9057SOL    HW138807   2.208   3.781   2.812  1.6474 -0.7092  0.4796
 9057SOL    HW238808   2.260   3.859   2.701 -1.3094  0.5745 -0.6603
 9058SOL     OW38809   2.109   4.232   0.745  0.1283 -0.3294 -0.1710
 9058SOL    HW138810   2.129   4.326   0.740  0.0649 -0.1936  1.9768
 9058SOL    HW238811   2.060   4.208   0.667 -0.8079 -1.4506  0.7597
 9059SOL     OW38812   2.843   1.302   1.750  0.0358 -0.0976  0.1327
 9059SOL    HW138813   2.832   1.320   1.844  1.5870  0.2496  0.2524
 9059SOL    HW238814   2.937   1.317   1.741  0.3397 -2.4582 -0.4636
 9060SOL     OW38815   3.960   4.034   7.651 -0.8609  0.4975 -0.0883
 9060SOL    HW138816   3.984   4.102   7.588  0.4014  2.8743  2.9460
 9060SOL    HW238817   3.903   4.078   7.714  1.1888 -0.2475  2.2908
 9061SOL     OW38818   3.257   4.714   7.349  0.1034 -0.0392 -0.3466
 9061SOL    HW138819   3.314   4.729   7.273 -0.9844  1.3627 -0.8974
 9061SOL    HW238820   3.216   4.631   7.325  0.8791 -0.9721  1.5654
 9062SOL     OW38821   1.842   2.881  15.740 -0.0927 -0.0113  0.3843
 9062SOL    HW138822   1.835   2.847  15.651  0.1616 -2.2182  1.1944
 9062SOL    HW238823   1.750   2.886  15.766 -0.7824 -0.6439 -1.9004
 9063SOL     OW38824   0.782   1.561   2.757  0.1515  0.4559 -0.4183
 9063SOL    HW138825   0.848   1.500   2.789 -0.2483 -0.7412 -1.9178
 9063SOL    HW238826   0.747   1.590   2.841  2.5247  0.5396  0.5355
 9064SOL     OW38827   1.778   2.050   5.109  0.3478  0.0946  0.2480
 9064SOL    HW138828   1.758   1.984   5.042  0.1269 -1.0278  1.3977
 9064SOL    HW238829   1.873   2.040   5.119  0.4647  0.0719 -0.9895
 9065SOL     OW38830   2.680   2.918   5.525  0.2731 -0.0456  0.0370
 9065SOL    HW138831   2.669   2.957   5.439 -0.8969 -1.3533 -0.4118
 9065SOL    HW238832   2.654   2.992   5.580  1.2972  0.3412  0.0118
 9066SOL     OW38833   2.342   4.682   1.865 -0.3000 -0.1964  0.2819
 9066SOL    HW138834   2.420   4.679   1.809 -0.2485 -0.3068  0.3595
 9066SOL    HW238835   2.381   4.679   1.952 -2.6285  3.0938  1.4184
 9067SOL     OW38836   2.300   4.696  15.826  0.9204 -0.0441 -0.4945
 9067SOL    HW138837   2.382   4.734  15.857 -0.1075  1.1590  0.7851
 9067SOL    HW238838   2.325   4.650  15.746 -0.4782  2.4159 -2.3141
 9068SOL     OW38839   0.728   4.190   9.664  0.0692  0.2577 -0.0354
 9068SOL    HW138840   0.634   4.190   9.682  0.4079  1.2791  1.7482
 9068SOL    HW238841   0.757   4.208   9.753 -0.5159 -2.5070  0.7074
 9069SOL     OW38842   3.848   3.982  14.870 -0.5768 -0.4467  0.0381
 9069SOL    HW138843   3.813   3.893  14.875  1.1827 -1.1221  0.4133
 9069SOL    HW238844   3.924   3.966  14.815 -1.1330 -1.4279 -0.4493
 9070SOL     OW38845   0.098   2.834   2.300  0.2021  0.7750  0.7057
 9070SOL    HW138846   0.061   2.826   2.212 -0.1068  0.0427  0.9076
 9070SOL    HW238847   0.155   2.907   2.274  0.2171  0.9891  1.3233
 9071SOL     OW38848   1.880   2.939   3.242 -0.4538  0.1806  0.5244
 9071SOL    HW138849   1.919   3.026   3.254 -1.3053  0.7490 -0.7425
 9071SOL    HW238850   1.890   2.905   3.153 -0.4625  1.3781  0.0628
 9072SOL     OW38851   4.050   3.179   7.222 -0.0760  0.5089 -0.1612
 9072SOL    HW138852   3.977   3.223   7.267  0.3299  0.6814  0.3373
 9072SOL    HW238853   4.011   3.095   7.199 -2.2638  1.1106  1.2890
 9073SOL     OW38854   0.831   3.315   6.410  0.1146 -0.6075  0.2294
 9073SOL    HW138855   0.782   3.236   6.388  0.9369 -1.7019  2.2775
 9073SOL    HW238856   0.824   3.313   6.506 -1.1265 -0.0785  0.1460
 9074SOL     OW38857   3.907   1.305   9.987 -0.3065 -0.1120  0.5648
 9074SOL    HW138858   3.855   1.247   9.932  0.8577 -0.0963 -0.5478
 9074SOL    HW238859   3.927   1.248  10.061  1.1908 -0.2877  0.0360
 9075SOL     OW38860   4.711   2.972  12.141  0.3894 -0.4664 -0.1924
 9075SOL    HW138861   4.623   3.002  12.116  0.3296  0.4316  1.0988
 9075SOL    HW238862   0.002   2.927  12.062 -2.2845  0.8493 -1.9301
 9076SOL     OW38863   1.383   4.534  17.710 -0.4371 -0.0657  0.1735
 9076SOL    HW138864   1.377   4.590   0.038 -2.0920  0.1395 -0.1096
 9076SOL    HW238865   1.324   4.461  17.726 -0.5719 -0.4674 -2.1888
 9077SOL     OW38866   4.165   3.016   6.816 -0.1918 -0.5999 -0.0354
 9077SOL    HW138867   4.228   2.983   6.752 -0.6236 -1.0509 -0.2225
 9077SOL    HW238868   4.224   3.031   6.891  0.3515 -0.8735 -0.4067
 9078SOL     OW38869   3.940   1.799   5.124  0.0444  0.3275  0.6760
 9078SOL    HW138870   3.992   1.731   5.083 -1.1657  0.8688 -1.7809
 9078SOL    HW238871   3.888   1.752   5.189  0.7282  1.1125  1.7823
 9079SOL     OW38872   1.203   2.402   8.868 -0.3356 -0.4491 -0.3170
 9079SOL    HW138873   1.226   2.431   8.780 -0.8929 -1.1165 -0.6839
 9079SOL    HW238874   1.250   2.461   8.927 -0.5287 -1.3501  0.7305
 9080SOL     OW38875   1.005   0.823   2.970  0.0362  0.2818  0.1275
 9080SOL    HW138876   1.060   0.890   3.010 -1.8530  1.3389  0.9312
 9080SOL    HW238877   0.956   0.876   2.907 -0.9867 -0.4351  0.3225
 9081SOL     OW38878   0.734   0.413  10.031 -1.0342  0.1573  0.4761
 9081SOL    HW138879   0.738   0.318  10.031 -2.5363  0.0854 -0.4263
 9081SOL    HW238880   0.683   0.421  10.112 -2.2404  2.1880 -0.4873
 9082SOL     OW38881   1.121   4.307   7.415 -0.4066  0.5806  0.3651
 9082SOL    HW138882   1.175   4.229   7.403  0.2291  1.0372  0.2037
 9082SOL    HW238883   1.182   4.366   7.369  1.0788 -3.4100 -2.7906
 9083SOL     OW38884   3.765   4.287   5.603 -0.9320  0.0423 -0.0680
 9083SOL    HW138885   3.828   4.303   5.532 -2.0332 -2.6986 -1.6591
 9083SOL    HW238886   3.683   4.252   5.569 -0.1553 -1.1333 -0.7572
 9084SOL     OW38887   2.371   0.264   9.260  0.0589 -0.5730  0.2321
 9084SOL    HW138888   2.465   0.283   9.250 -0.3156  1.0266 -0.1086
 9084SOL    HW238889   2.344   0.285   9.171  0.3569  1.6641  0.6824
 9085SOL     OW38890   0.204   4.305  14.948 -0.0893  0.1556  0.3484
 9085SOL    HW138891   0.157   4.317  15.030 -1.3193 -2.7228  0.0394
 9085SOL    HW238892   0.266   4.378  14.943  0.4546 -0.5540 -3.1752
 9086SOL     OW38893   0.565   1.529   3.908 -0.0433 -0.0489 -0.1829
 9086SOL    HW138894   0.588   1.525   3.815 -0.1846  3.6227 -0.3850
 9086SOL    HW238895   0.584   1.621   3.929  0.9259 -0.5337  0.9972
 9087SOL     OW38896   4.046   1.504   4.726 -0.4171 -0.2219 -0.0108
 9087SOL    HW138897   4.013   1.418   4.700  2.3729 -2.2206  3.1094
 9087SOL    HW238898   4.140   1.498   4.740 -0.6237 -2.2514  0.4170
 9088SOL     OW38899   0.542   1.648   7.800  0.2688 -0.0857  0.1002
 9088SOL    HW138900   0.558   1.555   7.819 -0.7742 -0.3803 -0.4389
 9088SOL    HW238901   0.555   1.692   7.884  1.7319 -2.1678  0.9603
 9089SOL     OW38902   3.470   2.913   5.135 -0.0874 -0.2146 -0.6759
 9089SOL    HW138903   3.548   2.959   5.168 -0.2528  0.1213 -0.7479
 9089SOL    HW238904   3.398   2.955   5.182 -0.5865 -2.6735  0.7494
 9090SOL     OW38905   3.104   4.517   7.227 -0.6173  0.2648 -1.2307
 9090SOL    HW138906   3.054   4.440   7.255 -1.1168  1.9184  2.3845
 9090SOL    HW238907   3.047   4.570   7.171 -3.0560 -3.0070 -1.8077
 9091SOL     OW38908   1.693   2.571   2.770 -0.5634 -0.5973 -0.4489
 9091SOL    HW138909   1.612   2.551   2.724  0.2119  0.2112 -2.1542
 9091SOL    HW238910   1.702   2.660   2.735  2.9630  0.5247  3.3546
 9092SOL     OW38911   1.017   4.024   8.351  0.3405 -0.2720 -0.4346
 9092SOL    HW138912   1.006   3.930   8.357  0.5280 -0.3819 -1.8142
 9092SOL    HW238913   0.937   4.061   8.390  1.7400 -0.2953  2.4822
 9093SOL     OW38914   2.287   3.839   7.674  0.5264 -0.4908 -0.0038
 9093SOL    HW138915   2.359   3.894   7.643  0.7659  0.3158  1.9434
 9093SOL    HW238916   2.212   3.898   7.680  2.8036  2.2762  1.6057
 9094SOL     OW38917   3.040   0.793  15.640 -0.3265  0.0582  0.4106
 9094SOL    HW138918   3.126   0.810  15.678  0.1034  0.6977 -0.8564
 9094SOL    HW238919   2.990   0.859  15.688 -0.3540  2.2396 -2.6074
 9095SOL     OW38920   2.497   0.131   4.019  0.2810 -0.1887 -0.4858
 9095SOL    HW138921   2.511   0.221   4.049 -2.4594 -0.1681  0.7802
 9095SOL    HW238922   2.403   0.143   4.008 -0.0248 -1.5130  0.6646
 9096SOL     OW38923   1.856   3.994  15.636 -0.1762  0.1556 -0.1518
 9096SOL    HW138924   1.880   4.084  15.658  2.4408 -0.3855 -0.7569
 9096SOL    HW238925   1.937   3.955  15.602 -0.8029 -2.5468  1.4736
 9097SOL     OW38926   0.954   4.631   9.308 -0.1223 -0.4810 -0.1884
 9097SOL    HW138927   1.033   4.611   9.358 -0.6720 -1.1258  0.4225
 9097SOL    HW238928   0.993   4.693   9.246  0.6442 -1.8457 -1.0837
 9098SOL     OW38929   1.192   2.875   4.295  0.7467 -0.2971  0.1238
 9098SOL    HW138930   1.236   2.821   4.229 -3.6803 -2.1653 -1.3261
 9098SOL    HW238931   1.257   2.933   4.334  1.0372  0.6915 -1.8361
 9099SOL     OW38932   0.775   2.904   7.462 -0.0559 -0.3539  0.2401
 9099SOL    HW138933   0.778   2.874   7.372 -2.9330 -2.2104  0.7373
 9099SOL    HW238934   0.857   2.872   7.499  0.5877  0.6953 -0.2905
 9100SOL     OW38935   1.516   0.717   3.501 -0.1822 -0.1738  0.2132
 9100SOL    HW138936   1.472   0.789   3.545  0.6798  0.4242  0.1046
 9100SOL    HW238937   1.482   0.715   3.411 -0.2636  1.0820  0.2141
 9101SOL     OW38938   0.376   2.410   8.978  0.5672  0.3539  0.3444
 9101SOL    HW138939   0.420   2.339   8.932 -1.9114 -0.3248 -0.9932
 9101SOL    HW238940   0.457   2.453   9.006  1.0483 -0.3426  0.0024
 9102SOL     OW38941   3.839   0.421   2.465 -0.0651 -0.3814 -0.0620
 9102SOL    HW138942   3.763   0.475   2.487 -0.8911 -1.4407 -0.3534
 9102SOL    HW238943   3.802   0.334   2.478  2.6683 -0.9535  3.7212
 9103SOL     OW38944   0.995   2.272  16.149  0.1870 -0.1795  0.3090
 9103SOL    HW138945   0.925   2.292  16.210  0.9228 -1.6979  1.6728
 9103SOL    HW238946   1.007   2.177  16.160 -5.1131 -0.6412  1.9687
 9104SOL     OW38947   1.795   1.828  12.971  0.0798  0.4749 -0.1401
 9104SOL    HW138948   1.868   1.885  12.994 -1.0706  2.4931 -1.4550
 9104SOL    HW238949   1.825   1.747  13.011  0.4940  1.9572  2.5219
 9105SOL     OW38950   0.264   3.328   6.487  0.1466  0.2617  0.5315
 9105SOL    HW138951   0.287   3.400   6.545 -0.2981  0.4633  0.4588
 9105SOL    HW238952   0.170   3.336   6.500  0.2185  0.5841  0.8320
 9106SOL     OW38953   0.249   2.628   3.574 -0.9337  0.6787  0.2684
 9106SOL    HW138954   0.257   2.532   3.577 -0.4652  0.7610  1.6837
 9106SOL    HW238955   0.342   2.646   3.566 -0.7378  0.1534  1.4285
 9107SOL     OW38956   1.913   3.972   1.794  0.3418 -0.2054  0.1239
 9107SOL    HW138957   1.860   4.024   1.854  2.3052  0.6056  1.1904
 9107SOL    HW238958   1.999   3.964   1.837 -0.2717 -1.1421  1.1821
 9108SOL     OW38959   2.515   2.808   6.044  0.5843 -0.2083  0.3253
 9108SOL    HW138960   2.491   2.846   5.959  1.1625  1.1390  0.7599
 9108SOL    HW238961   2.610   2.802   6.049  0.7542  1.6726 -0.5132
 9109SOL     OW38962   0.807   1.115   7.374  0.7932  0.8009 -0.4095
 9109SOL    HW138963   0.825   1.107   7.281 -0.7979 -2.4967 -0.4420
 9109SOL    HW238964   0.806   1.021   7.394  1.9730  0.8688  0.0006
 9110SOL     OW38965   0.983   2.445  11.892 -0.0504 -0.2375 -0.2643
 9110SOL    HW138966   0.981   2.482  11.804 -2.3153 -1.8106 -0.8640
 9110SOL    HW238967   0.928   2.368  11.879  1.1646 -1.6012  2.6628
 9111SOL     OW38968   0.632   4.418  10.496 -0.6858  0.4418  0.1950
 9111SOL    HW138969   0.723   4.412  10.525 -0.5710  0.9885 -0.0591
 9111SOL    HW238970   0.641   4.487  10.431 -3.0768 -0.3130 -0.9447
 9112SOL     OW38971   3.988   1.577   5.722  0.3455  0.5343 -0.4794
 9112SOL    HW138972   3.974   1.483   5.710 -1.6767  0.7371  0.3609
 9112SOL    HW238973   4.068   1.572   5.776 -0.4923 -2.1930  0.5195
 9113SOL     OW38974   2.205   1.670  11.838 -0.4540  0.1743 -0.3201
 9113SOL    HW138975   2.209   1.595  11.897 -0.5847  0.1710 -0.3151
 9113SOL    HW238976   2.221   1.750  11.890  3.5835 -0.3731 -0.7363
 9114SOL     OW38977   3.043   0.390   6.558 -0.2057 -0.0795  0.1300
 9114SOL    HW138978   3.021   0.466   6.505  0.3227  0.4508  0.6741
 9114SOL    HW238979   3.073   0.430   6.640 -1.0326  0.8178 -0.0067
 9115SOL     OW38980   4.698   2.790   8.285  0.8159 -0.3870 -0.1629
 9115SOL    HW138981   4.688   2.694   8.286  1.5678 -0.4659 -0.2838
 9115SOL    HW238982   4.724   2.801   8.376 -2.8102  0.0344  0.8316
 9116SOL     OW38983   4.453   0.972   2.995 -0.2576  0.7453  0.0788
 9116SOL    HW138984   4.374   0.952   3.044 -0.6231 -0.3913 -0.9748
 9116SOL    HW238985   4.431   0.938   2.908  0.9283 -0.8505  0.3896
 9117SOL     OW38986   1.744   1.163   6.251 -0.3866  0.1445 -0.6446
 9117SOL    HW138987   1.669   1.208   6.213  0.0658  1.6888  0.2747
 9117SOL    HW238988   1.749   1.213   6.333 -0.5458  0.6247 -0.9260
 9118SOL     OW38989   1.091   2.541   6.078  0.4381 -0.1520  0.3090
 9118SOL    HW138990   1.180   2.546   6.115  0.5505 -2.4266  0.3571
 9118SOL    HW238991   1.039   2.516   6.155  1.3566  0.5583  1.1707
 9119SOL     OW38992   4.453   0.642   3.310  0.4232 -0.1609 -0.1700
 9119SOL    HW138993   4.470   0.549   3.325 -0.3685 -0.6129 -2.0240
 9119SOL    HW238994   4.523   0.662   3.248  0.3488  0.0703 -0.1795
 9120SOL     OW38995   1.631   3.382   2.247 -0.4020  0.6020 -0.2199
 9120SOL    HW138996   1.663   3.305   2.200  1.8461 -0.5482  3.1860
 9120SOL    HW238997   1.603   3.434   2.171  2.4938 -1.1715 -2.5349
 9121SOL     OW38998   3.740   4.145   7.828  0.4365  0.2816 -0.9611
 9121SOL    HW138999   3.731   4.093   7.908 -1.1566 -1.0364 -2.0178
 9121SOL    HW239000   3.656   4.191   7.825  0.4501  0.2881 -1.2568
 9122SOL     OW39001   2.032   2.343   2.250  0.6747 -0.2671  0.0784
 9122SOL    HW139002   2.078   2.265   2.282  0.4976  0.1349  1.3053
 9122SOL    HW239003   1.947   2.316   2.282 -0.3501  2.9690  0.0830
 9123SOL     OW39004   4.342   3.546   8.361 -0.0180 -0.1502  0.3322
 9123SOL    HW139005   4.364   3.596   8.439  0.4490  1.9919 -1.1932
 9123SOL    HW239006   4.389   3.598   8.296 -0.8569  0.7801  0.4843
 9124SOL     OW39007   3.435   3.435   5.822 -0.1736 -0.8019  0.6707
 9124SOL    HW139008   3.505   3.498   5.805 -1.1791  0.3903  0.8656
 9124SOL    HW239009   3.454   3.361   5.765 -2.6054 -0.2196 -0.9275
 9125SOL     OW39010   2.716   1.554  14.414 -0.8115  0.0129  0.1067
 9125SOL    HW139011   2.662   1.543  14.336  1.1148  0.8025 -1.3393
 9125SOL    HW239012   2.804   1.536  14.382  0.1550  4.0656  0.4027
 9126SOL     OW39013   2.304   2.712   7.805 -0.1178 -0.1195 -0.3748
 9126SOL    HW139014   2.356   2.700   7.884 -0.4916  2.8072  0.3369
 9126SOL    HW239015   2.366   2.755   7.746  0.1117  3.5821  2.5222
 9127SOL     OW39016   3.658   1.791   2.070 -0.2317 -0.6066 -0.7194
 9127SOL    HW139017   3.730   1.808   2.009  0.5381 -2.0322 -0.2192
 9127SOL    HW239018   3.701   1.800   2.155 -1.1374 -2.0774 -0.0957
 9128SOL     OW39019   4.398   4.223   1.569  0.2845 -0.0188  0.3562
 9128SOL    HW139020   4.317   4.222   1.620  0.1222  0.1186  0.1033
 9128SOL    HW239021   4.387   4.137   1.530  1.0890 -0.8261  1.9546
 9129SOL     OW39022   2.688   2.604   5.401  0.1553 -0.0075 -0.0091
 9129SOL    HW139023   2.668   2.697   5.387  0.0715 -0.4625 -2.9684
 9129SOL    HW239024   2.611   2.582   5.454 -0.0582  2.1037  0.5305
 9130SOL     OW39025   0.835   3.957  14.561 -0.0315 -0.5087 -0.0103
 9130SOL    HW139026   0.788   3.911  14.491  0.8142  1.1872 -1.6959
 9130SOL    HW239027   0.873   3.877  14.596 -1.8731 -0.7746  1.3989
 9131SOL     OW39028   2.573   3.179   5.585  0.2138 -0.1458 -0.3842
 9131SOL    HW139029   2.551   3.182   5.679 -0.6742 -0.2012 -0.5918
 9131SOL    HW239030   2.496   3.140   5.545  0.0250 -1.0931  0.9111
 9132SOL     OW39031   1.778   2.230  15.815 -0.3635 -0.2850  0.3612
 9132SOL    HW139032   1.721   2.299  15.781 -0.3711 -0.0721  0.8175
 9132SOL    HW239033   1.708   2.170  15.840 -1.1369  0.5708  0.2311
 9133SOL     OW39034   0.601   3.986   8.455  0.3543  0.6019 -0.2467
 9133SOL    HW139035   0.520   3.935   8.463  1.6084 -1.1653  1.3677
 9133SOL    HW239036   0.651   3.931   8.394  1.5926  0.8819  0.5187
 9134SOL     OW39037   1.996   0.482   2.620  0.6249 -0.4487 -0.1792
 9134SOL    HW139038   2.028   0.438   2.698 -2.1396  0.0226  1.2099
 9134SOL    HW239039   1.974   0.566   2.659 -0.3312 -1.8683  2.3244
 9135SOL     OW39040   0.349   1.513   5.635 -0.4649  0.0330  0.1038
 9135SOL    HW139041   0.343   1.576   5.564 -2.0738  0.3727  0.5470
 9135SOL    HW239042   0.367   1.574   5.707  1.9129 -0.6781  0.1256
 9136SOL     OW39043   1.580   3.722   2.561 -0.3105  0.0951  1.1467
 9136SOL    HW139044   1.609   3.687   2.646  1.7408 -1.2715 -0.1193
 9136SOL    HW239045   1.649   3.700   2.498 -1.3965  0.5931 -0.2092
 9137SOL     OW39046   4.107   0.475   2.541 -0.5279 -0.1760 -0.0421
 9137SOL    HW139047   4.041   0.407   2.525 -0.6071 -0.4346  1.4205
 9137SOL    HW239048   4.053   0.553   2.548  0.1363  0.2373  0.4073
 9138SOL     OW39049   3.388   0.710  11.862  0.0190  0.1067 -0.0440
 9138SOL    HW139050   3.340   0.649  11.918 -2.4275  1.2131 -0.9039
 9138SOL    HW239051   3.395   0.659  11.781 -1.3510  0.3832 -0.3403
 9139SOL     OW39052   1.071   2.711   3.191 -0.5040 -0.0899 -0.1259
 9139SOL    HW139053   1.013   2.719   3.267  1.0061 -2.6756  1.3147
 9139SOL    HW239054   1.132   2.644   3.224 -0.0587 -0.5925 -1.9816
 9140SOL     OW39055   3.525   0.834   8.270 -0.3347 -0.2447  0.0402
 9140SOL    HW139056   3.486   0.765   8.324  0.8368 -2.1589 -1.5432
 9140SOL    HW239057   3.472   0.821   8.192  1.3015 -0.2211 -1.0902
 9141SOL     OW39058   3.715   1.135   7.571 -0.3347  0.1291 -0.0060
 9141SOL    HW139059   3.800   1.169   7.600  1.2521 -0.0257 -4.3999
 9141SOL    HW239060   3.688   1.198   7.505  2.8105 -1.3562 -2.7746
 9142SOL     OW39061   2.637   1.302   3.656  0.1940  0.2970  0.2490
 9142SOL    HW139062   2.611   1.380   3.607  0.1403 -0.1534 -0.4265
 9142SOL    HW239063   2.573   1.236   3.633 -0.8068  0.7704  1.7076
 9143SOL     OW39064   4.365   3.324   8.914 -0.3547  0.3533 -0.1942
 9143SOL    HW139065   4.332   3.238   8.940  1.1992 -0.4447 -0.8487
 9143SOL    HW239066   4.444   3.318   8.968  0.0360  0.1999 -0.7826
 9144SOL     OW39067   0.162   0.598   2.228  0.3061 -0.5803 -0.1631
 9144SOL    HW139068   0.086   0.630   2.276 -0.5520  0.8004 -2.4352
 9144SOL    HW239069   0.119   0.600   2.143 -1.6343  0.7150  0.8669
 9145SOL     OW39070   1.167   3.642   9.505  0.5430 -0.3883 -0.6591
 9145SOL    HW139071   1.107   3.700   9.551  0.1639 -2.1692  1.1218
 9145SOL    HW239072   1.107   3.567   9.503 -2.2798  1.7887  1.3420
 9146SOL     OW39073   2.118   2.522   8.394  0.6007 -0.6044  0.3099
 9146SOL    HW139074   2.043   2.474   8.358 -0.1635 -0.5277  1.8242
 9146SOL    HW239075   2.087   2.565   8.473 -0.5618  1.5007 -1.2729
 9147SOL     OW39076   4.150   3.354   6.899 -0.1833  0.2744 -0.0362
 9147SOL    HW139077   4.099   3.434   6.911  1.3852  0.9077  2.2735
 9147SOL    HW239078   4.179   3.332   6.987 -2.3130 -0.2419  0.5464
 9148SOL     OW39079   3.402   3.751  12.266 -0.4864 -0.0351 -0.1458
 9148SOL    HW139080   3.468   3.748  12.335  0.9377 -0.9992 -1.5477
 9148SOL    HW239081   3.379   3.843  12.251 -2.2145 -0.2382  1.2669
 9149SOL     OW39082   3.976   3.633   6.161  0.1994  0.0674 -0.2196
 9149SOL    HW139083   3.993   3.702   6.096  1.2447 -0.3770 -0.4141
 9149SOL    HW239084   3.927   3.576   6.102  0.0355 -0.1562  0.1363
 9150SOL     OW39085   4.489   2.404   4.277 -0.5385 -0.2177  0.0405
 9150SOL    HW139086   4.567   2.452   4.248 -1.3959  0.5413 -0.9765
 9150SOL    HW239087   4.422   2.428   4.213  0.2016  0.2723 -0.5481
 9151SOL     OW39088   1.927   2.060   2.685  0.1494 -0.5399 -0.6680
 9151SOL    HW139089   1.834   2.067   2.665 -0.1640 -2.1424  0.2677
 9151SOL    HW239090   1.949   1.974   2.649 -1.9200 -1.7192  0.8819
 9152SOL     OW39091   1.096   0.197  11.114  0.4664  0.2863  0.7247
 9152SOL    HW139092   1.191   0.206  11.107  0.6891 -3.3790 -0.8905
 9152SOL    HW239093   1.077   0.123  11.057 -0.7085  2.8869 -2.2465
 9153SOL     OW39094   4.394   3.096   6.975  0.1581  0.4166  0.0573
 9153SOL    HW139095   4.436   3.036   7.037 -0.7668  0.0934  0.3629
 9153SOL    HW239096   4.396   3.177   7.027 -1.8489 -0.3321  1.2976
 9154SOL     OW39097   1.306   1.898   9.667  0.2538 -0.0828  0.3139
 9154SOL    HW139098   1.381   1.948   9.698  0.8714 -0.4723 -0.5678
 9154SOL    HW239099   1.271   1.951   9.595 -3.0767 -1.0589  1.2081
 9155SOL     OW39100   4.566   2.215   7.426 -0.0439 -0.1141 -0.2044
 9155SOL    HW139101   4.573   2.302   7.387 -1.7106 -1.0415 -2.5302
 9155SOL    HW239102   4.498   2.178   7.369 -1.1540 -1.5455  2.0368
 9156SOL     OW39103   2.704   2.265   7.434  0.1308  0.2533  0.3655
 9156SOL    HW139104   2.676   2.183   7.475  0.4029  0.4778  0.9856
 9156SOL    HW239105   2.782   2.283   7.485 -1.2735  1.8754  1.9275
 9157SOL     OW39106   2.500   1.419   5.548  0.0672  0.2838  0.4227
 9157SOL    HW139107   2.567   1.487   5.547 -1.3847  1.6877 -0.3271
 9157SOL    HW239108   2.528   1.354   5.484 -0.3736 -0.2237  0.7430
 9158SOL     OW39109   0.167   0.509  15.849 -0.4778 -0.2501  0.2420
 9158SOL    HW139110   0.093   0.570  15.855 -0.5695 -0.2381 -0.9883
 9158SOL    HW239111   0.127   0.428  15.817 -2.2355 -0.3476  2.6418
 9159SOL     OW39112   3.728   0.192  16.935  0.3019  0.0544  0.0376
 9159SOL    HW139113   3.689   0.274  16.904  1.4078 -1.1822 -4.5991
 9159SOL    HW239114   3.764   0.212  17.021  0.4865 -0.4281  0.0705
 9160SOL     OW39115   3.518   1.083   5.764  0.0261 -0.5216  0.3135
 9160SOL    HW139116   3.497   1.081   5.858 -0.7734  1.5966  0.1997
 9160SOL    HW239117   3.497   0.993   5.742 -3.6029  0.1219  1.0562
 9161SOL     OW39118   3.759   1.389  14.837  0.2464  0.4244 -0.0414
 9161SOL    HW139119   3.754   1.433  14.752  0.6316 -1.7393 -1.1637
 9161SOL    HW239120   3.832   1.440  14.873  0.4976 -0.7256  1.0821
 9162SOL     OW39121   0.535   2.155   2.172 -0.2066  0.3773  0.0831
 9162SOL    HW139122   0.450   2.198   2.186 -0.5275  0.2324 -1.4453
 9162SOL    HW239123   0.509   2.064   2.187  1.4457 -0.0881  0.0506
 9163SOL     OW39124   0.781   3.943   9.581  0.0486  0.3101  0.1403
 9163SOL    HW139125   0.801   4.035   9.602  0.3407  0.4686 -0.8621
 9163SOL    HW239126   0.687   3.939   9.599 -0.0616  0.0039 -0.5348
 9164SOL     OW39127   2.512   4.267   8.275 -0.2187 -0.3216 -0.2950
 9164SOL    HW139128   2.506   4.175   8.248  1.0480 -0.2726 -0.7204
 9164SOL    HW239129   2.534   4.254   8.367  0.7197  1.7590 -0.2171
 9165SOL     OW39130   3.865   1.869   7.141 -0.2540 -0.7480 -0.6490
 9165SOL    HW139131   3.789   1.835   7.093 -0.8137  2.7885 -2.1843
 9165SOL    HW239132   3.888   1.945   7.089 -1.6262  0.7283  0.8885
 9166SOL     OW39133   0.605   4.354   6.148  0.4533  0.0469 -0.2927
 9166SOL    HW139134   0.667   4.425   6.132 -0.6197  1.5976  2.3939
 9166SOL    HW239135   0.584   4.316   6.062  0.5748  1.1631 -0.8142
 9167SOL     OW39136   0.723   3.717   3.240 -0.0503 -0.4144  0.1755
 9167SOL    HW139137   0.717   3.622   3.233  1.0375 -0.6381  2.3032
 9167SOL    HW239138   0.744   3.723   3.333  0.1785 -4.3620  0.3637
 9168SOL     OW39139   2.725   4.352   6.160  0.0575 -0.7814 -0.6667
 9168SOL    HW139140   2.794   4.414   6.183 -0.7754 -1.0909  2.6489
 9168SOL    HW239141   2.743   4.332   6.068  1.3401 -1.9904 -0.1415
 9169SOL     OW39142   2.849   4.026  10.468 -0.2642 -0.0629 -0.5919
 9169SOL    HW139143   2.895   3.954  10.424  0.4092  1.3476 -2.2114
 9169SOL    HW239144   2.850   4.005  10.561 -0.6260  0.7949 -0.3907
 9170SOL     OW39145   3.282   0.146   5.385 -0.4105 -0.6121  0.1609
 9170SOL    HW139146   3.326   0.150   5.300 -0.1047  1.5077  0.4215
 9170SOL    HW239147   3.223   0.220   5.369 -1.3659 -0.9891  1.9746
 9171SOL     OW39148   2.191   0.260   8.082 -0.0599 -0.1679  0.4946
 9171SOL    HW139149   2.151   0.176   8.103 -0.6973  0.1784  0.6753
 9171SOL    HW239150   2.246   0.228   8.010 -1.4313 -1.3595 -0.0209
 9172SOL     OW39151   2.921   2.694   5.969  0.6278  0.2971  0.1913
 9172SOL    HW139152   2.903   2.602   5.948 -1.6992  0.0145  3.4838
 9172SOL    HW239153   2.911   2.743   5.887 -0.1678  1.0636  0.7506
 9173SOL     OW39154   3.386   3.564  15.256  0.0725 -0.2781 -0.5719
 9173SOL    HW139155   3.322   3.556  15.326 -1.0215 -2.6764 -1.8249
 9173SOL    HW239156   3.335   3.579  15.176 -2.6755 -1.1591  1.0209
 9174SOL     OW39157   3.560   4.273   3.192 -0.1114  0.0699  0.0828
 9174SOL    HW139158   3.563   4.213   3.118  1.1271 -2.2838  2.0536
 9174SOL    HW239159   3.580   4.354   3.145  1.0019  0.5621  1.4380
 9175SOL     OW39160   2.480   4.584  13.895 -0.8848 -0.3022  0.2301
 9175SOL    HW139161   2.492   4.508  13.838  2.0751  1.1819 -1.1283
 9175SOL    HW239162   2.403   4.551  13.940 -2.3926  3.0269  0.0319
 9176SOL     OW39163   2.671   2.483   0.022 -0.6952 -0.0830  0.1664
 9176SOL    HW139164   2.627   2.542   0.083 -1.5180 -0.7259  0.1897
 9176SOL    HW239165   2.621   2.498  17.692  0.1343  1.0525 -0.1239
 9177SOL     OW39166   2.106   0.962   3.245 -0.8491 -0.0250  0.0848
 9177SOL    HW139167   2.120   0.930   3.334  0.5008 -2.1242 -0.8666
 9177SOL    HW239168   2.011   0.968   3.237 -0.9867 -1.6027  0.5975
 9178SOL     OW39169   1.416   1.756   9.179 -0.6653 -0.2603  0.1150
 9178SOL    HW139170   1.484   1.784   9.241 -1.2643  1.3025  0.0836
 9178SOL    HW239171   1.394   1.672   9.219  2.2198 -1.7104 -1.3237
 9179SOL     OW39172   1.908   1.164   9.917 -1.0785 -0.1470  0.2624
 9179SOL    HW139173   1.891   1.072   9.938 -0.1821 -0.8656 -2.1930
 9179SOL    HW239174   1.987   1.151   9.866 -0.2588 -0.7818  1.6819
 9180SOL     OW39175   2.038   3.545   9.234  0.0009  0.4569 -0.3548
 9180SOL    HW139176   1.963   3.491   9.256  1.5558 -2.3394 -1.9552
 9180SOL    HW239177   2.008   3.636   9.231 -1.0062  0.1370  0.1103
 9181SOL     OW39178   1.893   0.888   9.893 -0.1131 -0.2321 -0.3003
 9181SOL    HW139179   1.802   0.859   9.887 -0.3378  0.1805  1.0931
 9181SOL    HW239180   1.925   0.852   9.809  4.1340  1.9017  0.4059
 9182SOL     OW39181   0.722   0.400   7.417  0.6772 -0.0732 -0.3049
 9182SOL    HW139182   0.674   0.321   7.437  0.9758 -0.4356 -1.0183
 9182SOL    HW239183   0.809   0.361   7.411 -0.2739 -2.2528  0.3051
 9183SOL     OW39184   2.214   3.830  17.575 -0.6131  0.0485 -0.4999
 9183SOL    HW139185   2.149   3.900  17.572  0.0201  0.8165  3.8056
 9183SOL    HW239186   2.297   3.872  17.598 -0.9043 -0.0358  0.7116
 9184SOL     OW39187   0.302   2.812   7.312 -0.4232 -0.2838 -0.2614
 9184SOL    HW139188   0.344   2.747   7.369  0.9052  0.4402 -0.4116
 9184SOL    HW239189   0.354   2.791   7.235  0.0722 -0.5531  0.1393
 9185SOL     OW39190   1.470   3.999  15.864  0.0196 -0.1967  0.5599
 9185SOL    HW139191   1.488   4.090  15.887  1.9813  0.2532 -2.7847
 9185SOL    HW239192   1.420   4.016  15.784  0.1431  0.9783  0.7287
 9186SOL     OW39193   1.329   2.699   7.351  0.4761  0.0418 -0.1486
 9186SOL    HW139194   1.379   2.627   7.314  1.5195  0.9545 -0.5128
 9186SOL    HW239195   1.395   2.739   7.407 -0.6667 -0.4227  1.5182
 9187SOL     OW39196   1.474   3.653   1.546 -0.2659  0.2869  0.0334
 9187SOL    HW139197   1.523   3.733   1.566 -2.7497  1.5920  1.0439
 9187SOL    HW239198   1.444   3.667   1.457  0.7911 -2.6190 -0.7813
 9188SOL     OW39199   0.498   1.409   2.378  0.3451 -0.0201  0.0513
 9188SOL    HW139200   0.591   1.387   2.375 -0.2225 -2.5074  0.9021
 9188SOL    HW239201   0.507   1.493   2.424 -0.4191  1.0989 -1.8018
 9189SOL     OW39202   1.739   0.048   7.178 -0.0716  0.2734 -0.5340
 9189SOL    HW139203   1.786   0.131   7.186 -1.7739  1.2835 -0.9636
 9189SOL    HW239204   1.810   4.724   7.161  0.5109  1.1867 -1.4087
 9190SOL     OW39205   4.277   2.116   1.597  0.5947  0.1879  0.0112
 9190SOL    HW139206   4.241   2.177   1.532 -0.0406 -1.4938 -1.2415
 9190SOL    HW239207   4.364   2.091   1.565  0.0610 -0.8601 -0.6298
 9191SOL     OW39208   2.533   0.068  10.377  0.1113  0.0730 -0.5601
 9191SOL    HW139209   2.560   0.116  10.456 -0.0082  1.3759 -1.3179
 9191SOL    HW239210   2.619   0.042  10.346  0.2087  0.0751 -0.2951
 9192SOL     OW39211   3.933   1.351   2.215 -0.2931 -0.2976  0.1758
 9192SOL    HW139212   3.997   1.381   2.280 -0.2553 -0.0809  0.0383
 9192SOL    HW239213   3.985   1.365   2.136 -0.0320  0.8557  0.5527
 9193SOL     OW39214   3.934   4.418  16.505  0.3712  0.1688 -0.0607
 9193SOL    HW139215   3.969   4.335  16.471  0.6509  0.1503  0.2781
 9193SOL    HW239216   3.870   4.383  16.567  2.1612  0.0499  1.6964
 9194SOL     OW39217   3.142   1.219  12.927  0.0680 -0.1385 -0.1728
 9194SOL    HW139218   3.149   1.223  12.832 -0.3308 -1.3786 -0.2503
 9194SOL    HW239219   3.231   1.194  12.951 -0.4193 -0.5324  1.2563
 9195SOL     OW39220   1.913   3.443   0.103  0.1740 -0.0009  0.3730
 9195SOL    HW139221   1.999   3.457   0.063 -0.0125 -2.0530 -0.7772
 9195SOL    HW239222   1.861   3.398   0.036 -2.0765 -0.6675  2.5510
 9196SOL     OW39223   0.789   3.761   7.030 -0.6310 -0.1955  0.0734
 9196SOL    HW139224   0.832   3.740   7.113 -0.5169 -0.0596  0.0498
 9196SOL    HW239225   0.774   3.677   6.988 -0.1704  0.3074 -1.1106
 9197SOL     OW39226   1.125   2.255   9.367  0.3369 -0.1865 -0.5700
 9197SOL    HW139227   1.064   2.299   9.307 -0.1791 -0.9624 -0.6175
 9197SOL    HW239228   1.179   2.329   9.395  2.9275 -1.8572 -1.1638
 9198SOL     OW39229   3.969   4.223   1.302 -0.6102  0.2816 -0.1547
 9198SOL    HW139230   3.932   4.292   1.356 -1.6603  0.8104 -1.5671
 9198SOL    HW239231   4.033   4.267   1.245 -0.5822  1.6914  0.9888
 9199SOL     OW39232   4.689   1.403  11.019  0.0452 -0.4283  0.0049
 9199SOL    HW139233   4.607   1.439  10.984 -0.2767 -0.9939  0.1651
 9199SOL    HW239234   4.653   1.317  11.044 -2.3558  0.2444 -1.0860
 9200SOL     OW39235   2.312   2.349   2.304 -0.5699  0.2490 -0.6691
 9200SOL    HW139236   2.221   2.367   2.329  0.2205  0.4235  2.0919
 9200SOL    HW239237   2.307   2.254   2.299 -1.6800  0.3247 -0.9936
 9201SOL     OW39238   3.631   0.041   6.526 -0.2126  0.1393 -0.1617
 9201SOL    HW139239   3.611   0.049   6.432 -1.0407 -0.6430 -0.0491
 9201SOL    HW239240   3.549   0.001   6.555 -0.6917  0.8558 -0.5294
 9202SOL     OW39241   1.130   4.459   6.562  0.2234 -0.0685  0.0241
 9202SOL    HW139242   1.105   4.551   6.556 -2.3847 -0.7000  1.2577
 9202SOL    HW239243   1.166   4.456   6.650  0.3017 -0.2105 -0.0127
 9203SOL     OW39244   2.061   2.386   9.735 -0.0475  0.6729 -0.3558
 9203SOL    HW139245   2.091   2.320   9.673 -0.2069 -1.3364  1.7138
 9203SOL    HW239246   2.101   2.462   9.691  1.8926 -0.4284 -0.4881
 9204SOL     OW39247   3.964   2.273  16.775  0.0483 -0.4835 -0.3612
 9204SOL    HW139248   3.869   2.284  16.781  0.0560 -0.9836  0.7562
 9204SOL    HW239249   3.976   2.206  16.708 -0.4606 -0.2623 -0.6773
 9205SOL     OW39250   2.632   2.407   7.679  0.1891  0.2511  0.7533
 9205SOL    HW139251   2.695   2.348   7.721  2.4240  3.2741  1.6761
 9205SOL    HW239252   2.569   2.341   7.651  1.7369 -0.8760 -0.1036
 9206SOL     OW39253   1.034   3.909   0.492  0.3130  0.1912  0.4599
 9206SOL    HW139254   1.035   4.004   0.492  0.6230  0.1982 -1.2824
 9206SOL    HW239255   1.106   3.889   0.552  0.0863 -0.6507  0.4465
 9207SOL     OW39256   1.354   3.592   2.428 -0.6443 -0.0724  0.4694
 9207SOL    HW139257   1.342   3.631   2.342  0.8116 -0.8362 -0.0718
 9207SOL    HW239258   1.418   3.654   2.464 -0.6687 -0.1610  0.6662
 9208SOL     OW39259   4.106   3.811   7.580  0.0079  0.7039 -0.0117
 9208SOL    HW139260   4.055   3.891   7.589  0.7222  1.0861  0.6852
 9208SOL    HW239261   4.048   3.740   7.605 -1.0070  0.9602 -1.6352
 9209SOL     OW39262   3.232   2.083  12.696 -0.2475  0.2349  0.0888
 9209SOL    HW139263   3.193   2.062  12.782 -0.5174  0.0999 -0.0663
 9209SOL    HW239264   3.319   2.043  12.704 -1.2335 -1.7686  0.9805
 9210SOL     OW39265   1.397   3.093   2.972 -0.4950 -0.1553 -0.1895
 9210SOL    HW139266   1.305   3.117   2.983 -1.2927 -2.5322 -1.6760
 9210SOL    HW239267   1.427   3.052   3.053 -1.2592  0.1249  0.2348
 9211SOL     OW39268   2.832   0.783  13.082 -0.7269  0.0979 -0.0188
 9211SOL    HW139269   2.826   0.864  13.133 -2.3637  1.0548 -1.7278
 9211SOL    HW239270   2.918   0.751  13.108 -0.8019 -0.1074 -0.0176
 9212SOL     OW39271   0.763   2.153   2.345  0.0395 -0.4655 -0.7312
 9212SOL    HW139272   0.683   2.140   2.293 -1.2962 -0.5971  1.3582
 9212SOL    HW239273   0.757   2.080   2.408 -0.6897  0.1090 -0.1351
 9213SOL     OW39274   2.764   0.439   5.844 -0.5224 -0.4857  0.0602
 9213SOL    HW139275   2.770   0.376   5.772 -0.7389 -0.6910  0.2188
 9213SOL    HW239276   2.671   0.436   5.867 -0.6536 -1.3705 -0.6282
 9214SOL     OW39277   3.736   2.688   3.647  0.1627 -0.4613  0.4267
 9214SOL    HW139278   3.776   2.620   3.593 -2.4392 -1.2244 -0.5388
 9214SOL    HW239279   3.714   2.637   3.725  0.8884  0.7297  1.4121
 9215SOL     OW39280   2.485   4.005   8.307  0.2273 -0.4712 -0.1550
 9215SOL    HW139281   2.503   4.025   8.398 -0.0058  2.7199 -0.8096
 9215SOL    HW239282   2.486   3.910   8.314  0.3299 -0.2987  2.0102
 9216SOL     OW39283   0.719   2.718   8.218  0.5384 -0.4345  0.3596
 9216SOL    HW139284   0.765   2.761   8.146 -0.0281  0.8115  0.7326
 9216SOL    HW239285   0.718   2.785   8.287  0.9166 -0.1941  0.1288
 9217SOL     OW39286   3.118   2.054   5.831 -0.7216 -0.0843  0.0218
 9217SOL    HW139287   3.153   1.995   5.898 -3.2538 -2.6970 -0.9685
 9217SOL    HW239288   3.203   2.082   5.797 -2.0828  0.9676 -2.4817
 9218SOL     OW39289   3.372   3.792   0.893 -0.2246  0.3836 -0.2941
 9218SOL    HW139290   3.377   3.883   0.862 -4.5471  0.7745  0.0829
 9218SOL    HW239291   3.428   3.748   0.830 -0.4870 -0.4739  0.0798
 9219SOL     OW39292   4.501   0.704   8.374  0.3075 -0.0465  0.5212
 9219SOL    HW139293   4.483   0.610   8.366 -1.6769  0.6221 -2.8559
 9219SOL    HW239294   4.471   0.735   8.289  0.6435 -1.0385  0.0328
 9220SOL     OW39295   3.106   0.810   6.319 -0.3642 -0.1009  0.6410
 9220SOL    HW139296   3.011   0.808   6.335 -0.4509 -1.4294 -0.0885
 9220SOL    HW239297   3.138   0.723   6.343 -0.7742 -0.0224  1.5078
 9221SOL     OW39298   1.067   3.635   7.506  0.7460  0.1274  0.1529
 9221SOL    HW139299   1.005   3.694   7.550  1.1961  0.3262  0.5155
 9221SOL    HW239300   1.024   3.555   7.534  0.7747 -0.0103 -0.1949
 9222SOL     OW39301   0.375   0.728   9.860 -0.1486 -0.5569 -0.5855
 9222SOL    HW139302   0.351   0.668   9.931 -1.1187  1.7327  1.0389
 9222SOL    HW239303   0.460   0.755   9.894  0.0395 -0.8469 -0.8234
 9223SOL     OW39304   2.001   3.750   3.537 -0.6586 -0.0616  0.1376
 9223SOL    HW139305   1.974   3.658   3.537  2.6435 -1.0400  1.6063
 9223SOL    HW239306   1.920   3.792   3.510 -1.7433 -2.4385 -0.3037
 9224SOL     OW39307   3.774   4.021   1.253  0.7606 -0.1009 -0.1974
 9224SOL    HW139308   3.851   4.078   1.260  0.7511 -0.2106  0.8440
 9224SOL    HW239309   3.779   3.986   1.164 -0.3953 -0.2545 -0.1957
 9225SOL     OW39310   3.933   2.846   6.707  0.2775  0.2521  0.1975
 9225SOL    HW139311   3.978   2.927   6.731  0.4051 -0.4957  2.4782
 9225SOL    HW239312   3.952   2.842   6.613  3.2716 -0.0565  0.8051
 9226SOL     OW39313   1.047   4.093   5.855  0.0001 -0.4552  0.0982
 9226SOL    HW139314   1.119   4.110   5.916 -0.0221  0.8371 -0.2525
 9226SOL    HW239315   0.977   4.061   5.913 -0.4865 -1.3984 -1.0066
 9227SOL     OW39316   2.659   2.480   1.555  0.2453  0.4599  0.4175
 9227SOL    HW139317   2.654   2.425   1.633 -0.1462  0.7200  0.5760
 9227SOL    HW239318   2.713   2.552   1.587  2.3280 -1.5129  1.3023
 9228SOL     OW39319   1.033   0.312   7.641 -0.0946  0.1658 -0.1161
 9228SOL    HW139320   1.037   0.406   7.624 -1.2001  0.3069  0.3793
 9228SOL    HW239321   1.018   0.277   7.554 -0.2386  2.0249 -0.8416
 9229SOL     OW39322   1.891   0.182   6.668  0.1773  0.1601  0.1970
 9229SOL    HW139323   1.904   0.272   6.698 -0.8526  0.4685 -0.2592
 9229SOL    HW239324   1.839   0.153   6.743  0.5018  1.0869  0.7768
 9230SOL     OW39325   2.915   3.148   3.826 -0.6391  0.3019 -0.1310
 9230SOL    HW139326   2.826   3.170   3.853 -0.1688  0.2218  1.4724
 9230SOL    HW239327   2.967   3.213   3.873 -0.3313 -1.4701  1.9780
 9231SOL     OW39328   0.014   2.151   5.762  0.3811  0.3392 -0.1293
 9231SOL    HW139329   4.662   2.158   5.729  0.9172 -0.6598 -1.8233
 9231SOL    HW239330   0.010   2.057   5.778 -0.6557  0.3501 -0.3317
 9232SOL     OW39331   4.554   0.201   2.906 -0.0206  0.1919 -0.8263
 9232SOL    HW139332   4.545   0.120   2.956 -2.2148  0.5118 -0.7268
 9232SOL    HW239333   4.523   0.270   2.966 -4.2576 -1.2982 -1.3212
 9233SOL     OW39334   2.947   4.281   7.295 -0.5093 -0.2803 -0.2503
 9233SOL    HW139335   3.028   4.233   7.278  1.0647  2.5455 -0.5887
 9233SOL    HW239336   2.888   4.246   7.228 -1.5351 -1.2421  1.1437
 9234SOL     OW39337   1.420   0.033  14.059 -0.4215 -0.3344 -0.0223
 9234SOL    HW139338   1.421   4.723  14.142  2.0728  1.0770  0.7353
 9234SOL    HW239339   1.326   0.025  14.041 -0.0586 -0.8462 -1.7168
 9235SOL     OW39340   2.795   3.176   5.100  0.0814 -0.2877  0.6307
 9235SOL    HW139341   2.722   3.237   5.098  0.5861  0.3007  0.2494
 9235SOL    HW239342   2.823   3.174   5.008 -0.3343  0.8392  0.4861
 9236SOL     OW39343   3.158   1.911   4.207 -0.6214  0.0203  0.1960
 9236SOL    HW139344   3.179   1.823   4.238 -1.5923 -0.8761 -1.6973
 9236SOL    HW239345   3.200   1.931   4.123  0.2078  1.2038  0.9061
 9237SOL     OW39346   0.502   2.634   3.556 -0.1777 -0.1912 -0.1874
 9237SOL    HW139347   0.575   2.573   3.544 -0.7912 -0.9853  0.1166
 9237SOL    HW239348   0.536   2.705   3.501 -1.1614 -0.3999 -1.0714
 9238SOL     OW39349   2.067   4.347   8.628 -0.3843  0.2566 -0.3147
 9238SOL    HW139350   2.145   4.292   8.634 -1.1301 -0.9784 -1.8274
 9238SOL    HW239351   2.053   4.374   8.719 -1.4080 -0.0058 -0.3865
 9239SOL     OW39352   1.314   4.496   2.586  0.3690 -0.4055 -0.2957
 9239SOL    HW139353   1.317   4.461   2.497 -2.9403 -2.3925  0.3913
 9239SOL    HW239354   1.274   4.419   2.627 -0.9477 -0.0131 -0.8570
 9240SOL     OW39355   0.386   0.366   9.997  0.2839  0.0371  0.1269
 9240SOL    HW139356   0.342   0.311  10.062  1.4685 -0.9178  0.1221
 9240SOL    HW239357   0.384   0.455  10.031 -1.4835  0.5893 -1.4548
 9241SOL     OW39358   3.743   4.145   7.279 -0.4446 -0.0273 -0.2440
 9241SOL    HW139359   3.817   4.158   7.338  0.5562 -1.1862 -1.2334
 9241SOL    HW239360   3.785   4.105   7.202 -1.1333 -2.0620  0.4299
 9242SOL     OW39361   1.905   0.208   0.949 -0.3466 -0.1164  0.1124
 9242SOL    HW139362   1.896   0.122   0.989 -0.1591 -0.7813 -1.2768
 9242SOL    HW239363   1.864   0.251   1.025 -1.9532  0.7106 -1.2140
 9243SOL     OW39364   2.811   4.209   2.829  0.7534  0.0348  0.4759
 9243SOL    HW139365   2.746   4.189   2.897 -1.4947  1.6857 -1.1759
 9243SOL    HW239366   2.778   4.158   2.754 -1.0765 -0.5111  1.6540
 9244SOL     OW39367   0.455   3.056   9.449 -0.3348  0.1621  0.0592
 9244SOL    HW139368   0.512   2.993   9.406 -2.7809 -0.7041 -1.9412
 9244SOL    HW239369   0.375   3.004   9.460  0.0123 -0.1903  0.9463
 9245SOL     OW39370   3.866   0.608  13.190 -0.0409  0.3900 -0.0023
 9245SOL    HW139371   3.944   0.577  13.143 -0.2669 -0.1439 -0.0167
 9245SOL    HW239372   3.883   0.703  13.187 -0.4246  0.4760  0.7013
 9246SOL     OW39373   3.482   2.973   7.919  0.1415 -0.1378  0.1659
 9246SOL    HW139374   3.570   2.975   7.958  0.2587 -0.6191 -0.0773
 9246SOL    HW239375   3.485   3.062   7.883 -1.9198 -0.0495  0.2154
 9247SOL     OW39376   4.362   1.399   7.215 -0.0725 -0.1977  0.3265
 9247SOL    HW139377   4.441   1.417   7.164  0.2611 -1.8708  0.2555
 9247SOL    HW239378   4.297   1.417   7.147 -0.4990 -2.2813  0.1900
 9248SOL     OW39379   1.596   3.880   1.597  0.2858  0.3945  0.4124
 9248SOL    HW139380   1.535   3.921   1.659  1.1436  0.1135  1.4331
 9248SOL    HW239381   1.654   3.849   1.666  0.0122  0.1604  0.5410
 9249SOL     OW39382   2.650   1.626  15.704 -0.3543 -0.6071 -0.3345
 9249SOL    HW139383   2.705   1.607  15.780 -3.1680 -2.4534  1.2654
 9249SOL    HW239384   2.683   1.714  15.686  0.6763 -1.3275 -1.9866
 9250SOL     OW39385   4.254   0.825   1.434 -0.4795  0.1980 -0.0759
 9250SOL    HW139386   4.266   0.730   1.423 -0.1147 -0.1168  3.0226
 9250SOL    HW239387   4.341   0.866   1.428 -1.0662  1.5383  0.7267
 9251SOL     OW39388   4.691   1.090  10.761  0.0832 -0.0923 -0.2419
 9251SOL    HW139389   4.671   1.154  10.693  1.0359  1.2897  0.7817
 9251SOL    HW239390   0.004   1.027  10.710  0.2538  1.9950 -2.6562
 9252SOL     OW39391   2.882   1.549   4.442 -0.3729  0.4554  0.0663
 9252SOL    HW139392   2.814   1.586   4.386  0.1138  1.3364  0.0608
 9252SOL    HW239393   2.883   1.592   4.527  3.9298 -0.0050  0.2182
 9253SOL     OW39394   0.803   0.728   7.840 -0.0755  0.1738  0.0595
 9253SOL    HW139395   0.799   0.634   7.857 -0.0559  0.1468 -0.0810
 9253SOL    HW239396   0.720   0.745   7.796  0.5196  0.3542 -1.0062
 9254SOL     OW39397   3.546   1.401   8.046 -0.1333 -0.3338 -0.2040
 9254SOL    HW139398   3.457   1.366   8.051  0.2223 -1.1990  0.0966
 9254SOL    HW239399   3.545   1.473   8.109 -1.0809  0.5505 -1.2397
 9255SOL     OW39400   2.260   0.702  10.859  0.1571 -0.9059 -0.0723
 9255SOL    HW139401   2.267   0.662  10.946 -0.3744 -0.6113  0.1048
 9255SOL    HW239402   2.168   0.693  10.834 -0.4346 -0.4201  1.9095
 9256SOL     OW39403   0.964   4.366   9.951 -0.1402  0.4666 -0.2130
 9256SOL    HW139404   1.027   4.435   9.974 -1.0404 -0.1218  4.0161
 9256SOL    HW239405   0.905   4.369  10.027 -1.3594  0.3643 -1.1568
 9257SOL     OW39406   0.010   1.403  15.264 -0.0745 -0.1657 -0.2634
 9257SOL    HW139407   0.090   1.448  15.292 -0.3494 -0.7941  1.5629
 9257SOL    HW239408   0.046   1.315  15.255 -0.1848  0.0035 -2.3334
 9258SOL     OW39409   1.304   3.389  12.188  0.0836  0.0574  0.1309
 9258SOL    HW139410   1.289   3.335  12.265 -0.5397 -2.2144 -1.5935
 9258SOL    HW239411   1.239   3.353  12.127 -1.2639 -0.0626  1.6424
 9259SOL     OW39412   4.736   3.488   5.502  0.0978  0.3317 -0.4035
 9259SOL    HW139413   0.040   3.470   5.586  1.0849 -0.5292 -1.0724
 9259SOL    HW239414   4.717   3.398   5.475 -1.9370  0.6943 -0.1228
 9260SOL     OW39415   0.472   2.788  12.289 -0.0003 -0.1386  0.6455
 9260SOL    HW139416   0.538   2.840  12.335  0.1898 -0.7507  1.0605
 9260SOL    HW239417   0.424   2.851  12.235  3.3836  0.7178 -1.3190
 9261SOL     OW39418   3.903   0.813   5.139 -0.2801 -0.0686  0.0321
 9261SOL    HW139419   3.833   0.820   5.073  0.2337  0.8835 -0.4098
 9261SOL    HW239420   3.984   0.801   5.089 -1.7356 -1.0995 -2.0921
 9262SOL     OW39421   2.507   3.715   6.489  0.3372 -0.4973 -0.7900
 9262SOL    HW139422   2.469   3.772   6.556 -1.4912 -1.0705 -1.3325
 9262SOL    HW239423   2.557   3.660   6.549  0.6994 -0.7664 -1.3387
 9263SOL     OW39424   3.466   4.055   0.735 -0.0521 -0.0532  0.4165
 9263SOL    HW139425   3.466   4.015   0.648 -0.3705 -0.0820  0.4311
 9263SOL    HW239426   3.561   4.065   0.745  0.2091 -3.4927  1.1329
 9264SOL     OW39427   3.607   1.048   1.765 -0.2362 -0.1265  0.5484
 9264SOL    HW139428   3.581   1.002   1.686  1.6734  1.8306 -1.2168
 9264SOL    HW239429   3.619   0.976   1.826 -0.4880  1.5081  2.5555
 9265SOL     OW39430   3.238   3.715   1.977 -0.1755 -0.0074  0.0741
 9265SOL    HW139431   3.195   3.744   1.896  1.8160  1.0935 -0.6049
 9265SOL    HW239432   3.320   3.764   1.965  0.6200 -1.6600 -1.1928
 9266SOL     OW39433   4.453   4.314  11.411  0.0222 -0.1063 -0.2780
 9266SOL    HW139434   4.465   4.379  11.480 -0.1359  1.6471 -1.9140
 9266SOL    HW239435   4.476   4.350  11.325 -1.1603 -0.1830 -0.6285
 9267SOL     OW39436   2.213   2.616   9.607 -0.0999  0.2562 -0.2392
 9267SOL    HW139437   2.308   2.618   9.613 -0.0557 -1.1202 -0.5455
 9267SOL    HW239438   2.191   2.683   9.672  2.2114  0.3104  0.4920
 9268SOL     OW39439   3.753   4.151   6.599  0.2744 -0.6318 -0.1221
 9268SOL    HW139440   3.834   4.132   6.647  1.4564  2.0524 -1.0692
 9268SOL    HW239441   3.684   4.107   6.648 -0.4538 -1.0604 -1.5381
 9269SOL     OW39442   4.512   4.659  17.109  0.2531  0.3550  0.1715
 9269SOL    HW139443   4.541   4.666  17.019 -0.6280  1.8936 -0.0062
 9269SOL    HW239444   4.422   4.690  17.099 -0.0416 -0.9674 -1.1482
 9270SOL     OW39445   0.223   2.390   5.217  0.3972 -0.3465  0.0852
 9270SOL    HW139446   0.293   2.382   5.152 -0.2988 -3.3267 -0.2898
 9270SOL    HW239447   0.273   2.403   5.297  0.5423  1.4015 -0.2814
 9271SOL     OW39448   2.771   0.986   3.059  0.5010  0.6828  0.2972
 9271SOL    HW139449   2.816   0.979   3.143 -0.3671 -1.0470  0.6216
 9271SOL    HW239450   2.779   0.897   3.025  0.5696  0.1207  1.7855
 9272SOL     OW39451   2.225   3.960  13.948  0.1773  0.0049 -0.1093
 9272SOL    HW139452   2.284   4.019  13.900 -0.7141  0.5180 -0.5855
 9272SOL    HW239453   2.149   4.018  13.959  0.3242 -0.7311  4.6476
 9273SOL     OW39454   3.557   2.082   8.559 -0.4001 -0.8094 -0.2461
 9273SOL    HW139455   3.611   2.160   8.546 -1.9656  0.1801 -0.8073
 9273SOL    HW239456   3.469   2.119   8.555  1.4589  3.2125 -3.1495
 9274SOL     OW39457   2.270   2.134   0.379  0.0528  0.3190 -0.4693
 9274SOL    HW139458   2.317   2.211   0.349  1.3774  0.3063  1.5566
 9274SOL    HW239459   2.279   2.072   0.307  2.0423 -0.0190  0.0752
 9275SOL     OW39460   4.486   3.720  11.714 -0.5676  0.4193  0.0971
 9275SOL    HW139461   4.576   3.749  11.700 -0.5256  1.2363  2.0523
 9275SOL    HW239462   4.481   3.655  11.784 -0.2054 -2.8413 -2.9031
 9276SOL     OW39463   4.383   3.812  10.360 -0.5061 -0.3547 -0.2983
 9276SOL    HW139464   4.300   3.851  10.386 -1.4864 -2.1464 -0.7789
 9276SOL    HW239465   4.389   3.731  10.410  0.3307 -0.4780 -0.5850
 9277SOL     OW39466   2.329   3.222   1.204 -0.4965  0.4651  0.1530
 9277SOL    HW139467   2.344   3.315   1.220  0.0730  0.0858  1.7201
 9277SOL    HW239468   2.237   3.223   1.176 -0.6421 -1.3975  0.5389
 9278SOL     OW39469   2.721   0.576   9.368 -0.2849 -0.0535 -0.0576
 9278SOL    HW139470   2.733   0.670   9.355  1.3690  0.1431  2.9214
 9278SOL    HW239471   2.743   0.535   9.284  1.9520  0.6534  0.1873
 9279SOL     OW39472   1.703   1.572   7.819  0.0945 -0.5204  0.0588
 9279SOL    HW139473   1.797   1.585   7.831  0.0229  0.2886 -0.3081
 9279SOL    HW239474   1.687   1.516   7.895  0.2902  0.0512  0.5191
 9280SOL     OW39475   4.405   4.137  13.323 -0.1026  0.0528 -0.4699
 9280SOL    HW139476   4.327   4.085  13.344 -0.0794  0.8572  1.5878
 9280SOL    HW239477   4.389   4.207  13.386 -1.7709  0.5598 -1.4603
 9281SOL     OW39478   4.299   0.235  17.258 -0.1789  0.3769  0.3069
 9281SOL    HW139479   4.238   0.168  17.288  1.0003 -0.3136  1.1854
 9281SOL    HW239480   4.302   0.223  17.163 -0.3784 -1.8023  0.5780
 9282SOL     OW39481   2.900   3.429   3.037  0.6642 -0.3767 -0.8358
 9282SOL    HW139482   2.929   3.513   3.073  0.6001 -0.8872  0.3908
 9282SOL    HW239483   2.861   3.390   3.115 -1.0444 -0.0759 -1.5437
 9283SOL     OW39484   2.343   0.536   5.097 -0.2428  0.0770 -0.2909
 9283SOL    HW139485   2.377   0.447   5.107  0.3564  0.4158  0.7076
 9283SOL    HW239486   2.425   0.585   5.087 -0.2225 -0.1636 -1.2807
 9284SOL     OW39487   0.807   4.681   5.273  0.0594 -1.1366  0.5131
 9284SOL    HW139488   0.889   4.728   5.259 -1.0095 -0.0325 -1.8626
 9284SOL    HW239489   0.828   4.588   5.284  1.9782 -0.7358  0.1352
 9285SOL     OW39490   2.178   0.785   4.838 -0.6199 -0.1639 -0.7402
 9285SOL    HW139491   2.238   0.804   4.766 -0.1825  2.6524  0.3853
 9285SOL    HW239492   2.172   0.690   4.823  0.5383 -0.0394 -1.9738
 9286SOL     OW39493   4.679   0.242   5.637 -0.0837 -0.0968  0.5443
 9286SOL    HW139494   4.632   0.189   5.573  0.8129 -0.7000  0.3713
 9286SOL    HW239495   0.033   0.246   5.610 -0.7081  0.8536 -1.4243
 9287SOL     OW39496   2.941   3.990   9.647 -0.6230  0.6254  0.1077
 9287SOL    HW139497   3.021   3.951   9.682 -1.0001 -0.9209 -0.7416
 9287SOL    HW239498   2.883   3.915   9.633  2.5001 -1.9537  1.1250
 9288SOL     OW39499   2.713   0.790   3.517 -0.1673  0.2418  0.3462
 9288SOL    HW139500   2.648   0.842   3.563 -0.2372 -0.4790  1.0540
 9288SOL    HW239501   2.734   0.727   3.586 -1.0991  2.0579  2.2821
 9289SOL     OW39502   0.126   0.258   6.377 -0.0250 -0.6946  0.2145
 9289SOL    HW139503   0.077   0.182   6.345 -2.9717  0.4973  1.8688
 9289SOL    HW239504   0.198   0.200   6.402  0.9064  0.1720 -0.4824
 9290SOL     OW39505   4.107   4.719   4.691  0.8053 -0.3295  0.2401
 9290SOL    HW139506   4.147   4.725   4.778  1.3764 -0.6407 -0.0093
 9290SOL    HW239507   4.113   0.071   4.660  3.9284 -1.9498 -3.7918
 9291SOL     OW39508   1.002   2.777   1.644  0.9291 -0.1750 -0.1155
 9291SOL    HW139509   1.039   2.698   1.682 -1.2099  0.4966  3.3946
 9291SOL    HW239510   1.078   2.810   1.596  1.1696  0.2454  0.5513
 9292SOL     OW39511   3.847   0.848   7.936  0.2185  0.4918  0.6368
 9292SOL    HW139512   3.853   0.775   7.875 -2.5612  0.4155  0.4307
 9292SOL    HW239513   3.779   0.899   7.890  1.2047  0.8255 -0.4471
 9293SOL     OW39514   3.388   2.325   4.092  0.5836 -0.0744  0.0429
 9293SOL    HW139515   3.316   2.335   4.030 -0.5940  0.5487  1.5068
 9293SOL    HW239516   3.418   2.416   4.090 -3.5277  1.2530 -0.8799
 9294SOL     OW39517   0.197   2.933  16.883 -0.5504 -0.5058  0.1974
 9294SOL    HW139518   0.149   2.878  16.820 -0.3151 -0.7901  0.2672
 9294SOL    HW239519   0.276   2.880  16.890  0.5275  1.0874  0.1070
 9295SOL     OW39520   3.432   1.509   9.226 -0.1871 -0.2310  0.9014
 9295SOL    HW139521   3.470   1.595   9.241 -0.4430 -0.5272  3.3664
 9295SOL    HW239522   3.424   1.513   9.131  0.8370  4.0456  0.9839
 9296SOL     OW39523   4.109   1.485   2.401 -0.5135  0.1026 -0.5573
 9296SOL    HW139524   4.065   1.442   2.474 -0.0803  2.4762  1.1111
 9296SOL    HW239525   4.149   1.567   2.430  0.4095 -0.4420 -0.2782
 9297SOL     OW39526   4.232   1.320  17.313 -0.2295  0.4030 -0.0726
 9297SOL    HW139527   4.244   1.284  17.225 -3.2408  0.8963 -0.7137
 9297SOL    HW239528   4.146   1.282  17.334  0.7405 -2.3049 -1.0220
 9298SOL     OW39529   3.087   2.536   3.641  0.2453 -0.0547  0.5612
 9298SOL    HW139530   3.022   2.549   3.709  1.0786 -0.2905  1.4052
 9298SOL    HW239531   3.109   2.444   3.655 -1.8199 -0.4839  0.9772
 9299SOL     OW39532   2.198   2.060   6.042  0.1397  0.0696 -0.4062
 9299SOL    HW139533   2.283   2.026   6.015  0.3099 -0.1345  0.3945
 9299SOL    HW239534   2.127   2.024   5.989 -1.4263 -1.0708  2.4839
 9300SOL     OW39535   1.524   1.563   5.668 -0.2512 -0.3584  0.1918
 9300SOL    HW139536   1.518   1.658   5.660  0.8505 -0.3833 -0.8637
 9300SOL    HW239537   1.479   1.537   5.588  0.5118  1.3704 -0.7864
 9301SOL     OW39538   4.649   1.434   3.505  0.3737  0.1634 -0.5419
 9301SOL    HW139539   4.616   1.504   3.562  0.0604 -0.8800  0.5736
 9301SOL    HW239540   4.721   1.407   3.562 -0.0284  1.3710  0.5363
 9302SOL     OW39541   4.502   0.689   2.550 -0.9177  0.4928 -0.1758
 9302SOL    HW139542   4.472   0.738   2.627  1.4073 -0.2707  1.2016
 9302SOL    HW239543   4.525   0.760   2.490  0.2947 -0.7686 -1.2020
 9303SOL     OW39544   4.574   2.840   1.826  0.2168  0.2291 -0.2268
 9303SOL    HW139545   4.533   2.902   1.767 -0.3430  1.4710  1.4544
 9303SOL    HW239546   4.558   2.759   1.777  1.3601 -0.1956  0.0934
 9304SOL     OW39547   4.133   4.520   1.423 -0.0193 -0.5837 -0.6845
 9304SOL    HW139548   4.163   4.492   1.337  2.2860 -0.6840  0.1425
 9304SOL    HW239549   4.042   4.542   1.405 -0.3984 -1.6653 -0.0653
 9305SOL     OW39550   1.329   3.799   6.947 -0.9560  0.8754  0.9948
 9305SOL    HW139551   1.303   3.860   7.016 -2.2414 -0.6499  1.8698
 9305SOL    HW239552   1.420   3.776   6.966 -0.3145  1.3183 -1.4976
 9306SOL     OW39553   1.559   4.573   9.315  0.1367 -0.1809 -0.7141
 9306SOL    HW139554   1.494   4.610   9.255 -2.6286 -2.4297  0.8379
 9306SOL    HW239555   1.571   4.647   9.375  1.5406 -0.2882 -0.8764
 9307SOL     OW39556   1.328   1.461   4.324  0.2980 -0.2814 -0.1227
 9307SOL    HW139557   1.360   1.383   4.278  0.9862 -1.1740  1.8957
 9307SOL    HW239558   1.253   1.422   4.369 -0.4916  0.0823 -1.1175
 9308SOL     OW39559   0.712   1.850   2.838  0.0232  0.1134 -0.0720
 9308SOL    HW139560   0.642   1.915   2.826 -1.2454 -1.5947 -1.7889
 9308SOL    HW239561   0.775   1.910   2.878 -0.6447  0.8219 -0.0684
 9309SOL     OW39562   2.910   0.254   7.743  0.0720  0.0195  0.6944
 9309SOL    HW139563   2.957   0.194   7.801  0.3269  1.7778  2.3065
 9309SOL    HW239564   2.821   0.220   7.748 -0.4935  1.2521 -1.2697
 9310SOL     OW39565   3.238   1.492   8.014  0.0674 -0.8034  0.5788
 9310SOL    HW139566   3.199   1.435   7.948 -1.7859  1.5696 -0.3695
 9310SOL    HW239567   3.180   1.475   8.089  2.9789 -0.1278  2.9709
 9311SOL     OW39568   4.692   3.729   5.747  0.1119  0.1639  0.6301
 9311SOL    HW139569   0.042   3.707   5.716 -0.5070 -0.6697 -0.5260
 9311SOL    HW239570   4.655   3.642   5.759 -1.8949  1.0596  1.0362
 9312SOL     OW39571   0.629   3.872  16.957 -0.2436 -0.5146 -0.3097
 9312SOL    HW139572   0.712   3.825  16.967  0.1780  0.2848 -0.0306
 9312SOL    HW239573   0.642   3.910  16.870  0.4381 -0.9714 -0.4110
 9313SOL     OW39574   0.607   4.546   4.937 -0.3105 -0.3593  0.0742
 9313SOL    HW139575   0.694   4.507   4.944 -1.1815 -1.9934  1.8977
 9313SOL    HW239576   0.616   4.632   4.977 -0.1920 -0.5854  0.5434
 9314SOL     OW39577   4.114   3.185   3.043  0.2482 -0.4780 -0.2256
 9314SOL    HW139578   4.051   3.144   3.103  0.2317 -1.6295 -1.0334
 9314SOL    HW239579   4.067   3.257   3.000 -1.0011 -0.9808  0.3088
 9315SOL     OW39580   2.561   3.712   5.269  0.0525  0.2928 -0.2022
 9315SOL    HW139581   2.625   3.697   5.339  0.7300  0.6062 -0.7579
 9315SOL    HW239582   2.565   3.807   5.258  2.0720  0.2186 -0.0758
 9316SOL     OW39583   3.731   0.207   1.293  0.9246  0.4549 -0.1100
 9316SOL    HW139584   3.792   0.257   1.348  0.7147 -0.4054  0.9090
 9316SOL    HW239585   3.747   0.118   1.324  3.8331  0.0376 -2.8232
 9317SOL     OW39586   1.415   4.205   3.948  0.6406 -0.0675 -0.4486
 9317SOL    HW139587   1.333   4.247   3.923 -0.1893 -0.3881  1.7550
 9317SOL    HW239588   1.475   4.236   3.879 -0.5378  0.4908 -1.2137
 9318SOL     OW39589   2.211   4.719   4.651 -0.1546  0.2725  0.2792
 9318SOL    HW139590   2.225   4.625   4.641  3.8725  1.4219 -4.4263
 9318SOL    HW239591   2.239   4.726   4.742  3.1118  2.6785 -0.9114
 9319SOL     OW39592   3.444   2.807   0.060  0.0578  0.2224  0.1095
 9319SOL    HW139593   3.480   2.801  17.721  1.0629 -2.0911  0.6765
 9319SOL    HW239594   3.435   2.714   0.082  0.4888  0.4122  1.1031
 9320SOL     OW39595   1.654   3.865   5.810 -0.2387 -0.2728  0.3844
 9320SOL    HW139596   1.679   3.783   5.852  1.3372 -0.5223 -1.0706
 9320SOL    HW239597   1.728   3.869   5.749 -0.3376  2.3095  0.4381
 9321SOL     OW39598   3.265   4.482  15.729 -0.0433  0.0753 -0.0203
 9321SOL    HW139599   3.235   4.463  15.641 -1.8279 -0.5656  0.7257
 9321SOL    HW239600   3.336   4.546  15.722  0.6740 -0.7312 -0.1103
 9322SOL     OW39601   3.695   1.706   6.300 -0.2432 -0.3896  0.4309
 9322SOL    HW139602   3.783   1.741   6.318  0.8041 -2.8009 -0.0033
 9322SOL    HW239603   3.714   1.616   6.273 -1.2283 -0.1903 -0.8875
 9323SOL     OW39604   1.217   3.101   1.300 -0.1018 -0.0348 -0.0750
 9323SOL    HW139605   1.149   3.044   1.263 -0.2542 -1.0046  1.6776
 9323SOL    HW239606   1.217   3.060   1.387 -0.7779 -0.6910 -0.3769
 9324SOL     OW39607   3.487   3.856   6.508  0.2310  0.2527 -0.1352
 9324SOL    HW139608   3.561   3.864   6.447  0.8218  2.1921  0.8423
 9324SOL    HW239609   3.501   3.932   6.564 -1.5057 -1.1760  2.2341
 9325SOL     OW39610   0.549   2.352  12.755 -0.1978 -0.4585 -0.2218
 9325SOL    HW139611   0.510   2.291  12.693  1.4285 -0.9101 -0.8086
 9325SOL    HW239612   0.481   2.370  12.820  0.7665 -1.7056  1.1123
 9326SOL     OW39613   2.182   0.148   6.319 -0.6391  0.1203 -0.0574
 9326SOL    HW139614   2.136   0.085   6.375  0.7267  0.4628  1.4450
 9326SOL    HW239615   2.211   0.211   6.385 -2.4178  0.5162  0.3639
 9327SOL     OW39616   2.416   0.543   9.596  0.0882  0.0516 -0.0944
 9327SOL    HW139617   2.338   0.489   9.578  0.5353  0.1487 -2.3608
 9327SOL    HW239618   2.474   0.466   9.597  2.2396  1.7170  2.2801
 9328SOL     OW39619   0.544   2.862   1.812  0.1508  0.3048  0.2609
 9328SOL    HW139620   0.531   2.771   1.784  1.5154 -0.0039  0.6399
 9328SOL    HW239621   0.464   2.898   1.852 -1.0356  0.3545 -2.1388
 9329SOL     OW39622   0.865   0.312  11.210 -0.6135 -0.0931 -0.7946
 9329SOL    HW139623   0.881   0.406  11.224  2.6280 -0.2505 -3.4591
 9329SOL    HW239624   0.951   0.276  11.190  0.1439  2.3442 -1.9590
 9330SOL     OW39625   2.439   4.098   2.763 -0.0821 -0.2806  0.0476
 9330SOL    HW139626   2.494   4.045   2.705  1.1710 -0.7724  1.7042
 9330SOL    HW239627   2.361   4.042   2.767  0.6547 -1.3419 -0.5068
 9331SOL     OW39628   0.154   1.526   3.252 -0.5079  0.0874 -0.3712
 9331SOL    HW139629   0.100   1.507   3.175  0.0783 -1.2838 -0.4462
 9331SOL    HW239630   0.097   1.497   3.324 -1.4936 -1.1239 -1.6308
 9332SOL     OW39631   1.550   4.255  13.729 -0.4591 -0.5850  0.3063
 9332SOL    HW139632   1.591   4.317  13.668 -0.9941  0.7351  1.2948
 9332SOL    HW239633   1.555   4.176  13.675  0.6193  1.2405 -2.3014
 9333SOL     OW39634   2.992   1.811  16.910 -0.0685 -0.2442 -0.4658
 9333SOL    HW139635   2.936   1.754  16.963 -1.2062  1.5128  0.2182
 9333SOL    HW239636   2.991   1.881  16.975 -3.2049 -0.7296  0.0052
 9334SOL     OW39637   0.179   4.661   5.879 -0.3052 -0.1730 -0.4506
 9334SOL    HW139638   0.222   0.002   5.846 -0.6047  0.3058  0.3161
 9334SOL    HW239639   0.245   4.592   5.866  0.9721  0.4793  2.4716
 9335SOL     OW39640   0.515   2.120  12.540 -0.6568 -0.5085 -0.8550
 9335SOL    HW139641   0.576   2.049  12.517 -0.1725 -0.5576  0.5800
 9335SOL    HW239642   0.547   2.195  12.491 -0.2454 -0.4361 -0.4754
 9336SOL     OW39643   3.334   2.279   0.085 -0.2485  0.0623 -0.2894
 9336SOL    HW139644   3.384   2.216   0.138  1.8346  3.1540  1.4323
 9336SOL    HW239645   3.242   2.264   0.107 -0.3589  1.0319 -0.0672
 9337SOL     OW39646   1.921   1.385   7.135 -0.0827  0.4480 -0.0503
 9337SOL    HW139647   1.884   1.452   7.193 -1.6245  0.2131 -0.7590
 9337SOL    HW239648   1.855   1.369   7.067  0.5724  1.0667 -0.8205
 9338SOL     OW39649   3.660   4.079   1.483  0.4737  0.0213 -0.0083
 9338SOL    HW139650   3.584   4.115   1.438  1.0863  0.2305 -0.8746
 9338SOL    HW239651   3.706   4.047   1.406 -0.9579 -0.8344 -0.5070
 9339SOL     OW39652   2.764   2.572   3.667 -0.1797 -0.2307 -0.7064
 9339SOL    HW139653   2.844   2.614   3.636 -0.2539 -0.9184 -1.8339
 9339SOL    HW239654   2.735   2.638   3.729 -0.3252 -1.2633  0.3147
 9340SOL     OW39655   3.605   2.555   5.610  0.3730  0.4041 -0.3775
 9340SOL    HW139656   3.512   2.550   5.631  0.5859 -2.3056 -0.1109
 9340SOL    HW239657   3.633   2.620   5.674 -0.2939 -1.0562  1.4062
 9341SOL     OW39658   2.882   0.914   4.063  0.0636  0.3454 -0.1002
 9341SOL    HW139659   2.922   0.830   4.041 -0.2616  0.4318 -1.0002
 9341SOL    HW239660   2.958   0.971   4.057  0.5766 -0.4314 -0.9271
 9342SOL     OW39661   2.414   0.831  16.521 -0.1749  0.1747  0.1071
 9342SOL    HW139662   2.338   0.868  16.567  0.4455  3.1497 -1.2736
 9342SOL    HW239663   2.366   0.822  16.439 -1.4652  0.2119  0.8489
 9343SOL     OW39664   0.206   1.873  11.325 -0.0177 -0.4100  0.0365
 9343SOL    HW139665   0.265   1.941  11.293 -0.0493 -0.2350  0.3456
 9343SOL    HW239666   0.212   1.801  11.262  1.4333  0.3339 -0.6554
 9344SOL     OW39667   2.797   3.185   8.219  0.0136  0.0863 -0.2597
 9344SOL    HW139668   2.823   3.276   8.200 -0.3454  0.2634  0.0914
 9344SOL    HW239669   2.704   3.199   8.239  0.0687  0.1001 -0.0128
 9345SOL     OW39670   1.099   2.751   6.540  0.1965  0.0702  0.0429
 9345SOL    HW139671   1.012   2.782   6.515  0.8780  1.3520 -0.7723
 9345SOL    HW239672   1.084   2.705   6.622  1.9478 -0.0085  0.3227
 9346SOL     OW39673   2.226   4.104   1.225 -0.2381  0.0679 -0.4099
 9346SOL    HW139674   2.239   4.133   1.316  0.3771 -3.3014  0.5823
 9346SOL    HW239675   2.137   4.135   1.207 -1.0829 -2.4286 -0.5854
 9347SOL     OW39676   1.793   4.545   8.627  0.0589  0.3482 -0.0003
 9347SOL    HW139677   1.739   4.475   8.590  2.0430 -3.0277  3.3496
 9347SOL    HW239678   1.772   4.533   8.719 -0.9929 -2.3819 -0.5832
 9348SOL     OW39679   1.428   3.513   7.658 -0.1222 -0.0483 -0.1789
 9348SOL    HW139680   1.419   3.606   7.640 -0.6990  0.4675  2.8352
 9348SOL    HW239681   1.379   3.483   7.581 -1.3297 -0.9136  0.9364
 9349SOL     OW39682   2.333   3.252   6.276  0.7631  0.0479  0.0854
 9349SOL    HW139683   2.397   3.323   6.266 -2.5049  2.9023 -0.3529
 9349SOL    HW239684   2.387   3.172   6.282  1.5010  0.2438 -4.1533
 9350SOL     OW39685   3.677   0.250   3.872 -0.1138 -0.3767  0.0965
 9350SOL    HW139686   3.722   0.168   3.856 -0.5244 -0.3790 -1.0591
 9350SOL    HW239687   3.735   0.283   3.941 -1.1169  1.3764  0.1107
 9351SOL     OW39688   0.971   3.790  16.664  0.3798 -0.0374 -1.0006
 9351SOL    HW139689   0.961   3.885  16.673  1.8237  0.1505 -1.3979
 9351SOL    HW239690   0.886   3.759  16.694  0.7934 -0.2489 -0.0551
 9352SOL     OW39691   2.616   0.485   1.851 -0.7956  0.4661 -0.0890
 9352SOL    HW139692   2.557   0.474   1.776 -2.3647  0.0771  1.2031
 9352SOL    HW239693   2.701   0.447   1.825 -0.9532 -2.0738  3.0422
 9353SOL     OW39694   3.162   1.590   6.839 -0.1643  0.1586 -0.4785
 9353SOL    HW139695   3.123   1.601   6.752 -0.1709 -0.6832 -0.5827
 9353SOL    HW239696   3.244   1.640   6.838  1.3711 -2.4057 -3.1004
 9354SOL     OW39697   0.406   0.238   3.165  0.1979  0.0702 -0.1187
 9354SOL    HW139698   0.436   0.226   3.255 -0.0578 -0.5791 -0.1221
 9354SOL    HW239699   0.484   0.283   3.133  1.0885 -1.0533  0.5165
 9355SOL     OW39700   0.777   2.683   3.281 -0.1387 -0.4532  0.1874
 9355SOL    HW139701   0.830   2.722   3.350 -0.1212  0.5287 -0.3690
 9355SOL    HW239702   0.711   2.749   3.257 -0.1431 -0.3674  0.4370
 9356SOL     OW39703   4.212   4.587   2.597 -0.0233 -0.1597  0.9084
 9356SOL    HW139704   4.283   4.544   2.549 -1.4975 -1.6442  0.0545
 9356SOL    HW239705   4.264   4.653   2.644 -0.5395  1.6328 -1.0355
 9357SOL     OW39706   0.665   0.589  13.970 -0.3194 -0.2795  0.5797
 9357SOL    HW139707   0.722   0.545  13.907 -0.9181 -1.0529  0.5690
 9357SOL    HW239708   0.700   0.678  13.978 -2.1804  0.5214 -0.1391
 9358SOL     OW39709   1.443   1.962   5.979 -0.6969  0.5550 -0.7048
 9358SOL    HW139710   1.384   2.031   6.009  0.8544  0.7418  1.9601
 9358SOL    HW239711   1.471   1.984   5.891 -0.1211  0.6406 -0.5030
 9359SOL     OW39712   3.422   4.653   6.738  0.3492  0.1078  0.3887
 9359SOL    HW139713   3.386   4.567   6.715 -0.2654  1.0804 -2.2774
 9359SOL    HW239714   3.358   4.707   6.783 -1.7739 -2.3414  0.2983
 9360SOL     OW39715   3.836   2.025   7.883 -0.0145  0.3945  0.2186
 9360SOL    HW139716   3.856   2.100   7.826  0.0421  0.2481  0.0450
 9360SOL    HW239717   3.745   2.037   7.909 -0.2630  1.1373 -0.9637
 9361SOL     OW39718   1.421   3.006   8.804  0.3028 -0.2106  0.4370
 9361SOL    HW139719   1.340   3.030   8.848 -0.5798 -0.2579 -1.1446
 9361SOL    HW239720   1.417   2.912   8.789  1.2776 -0.1590 -0.1878
 9362SOL     OW39721   0.596   3.169   6.904  0.1367  0.2758 -0.1282
 9362SOL    HW139722   0.619   3.079   6.930  1.4284  0.4392 -0.6913
 9362SOL    HW239723   0.683   3.208   6.893  1.1958 -1.0068  3.6630
 9363SOL     OW39724   4.043   2.609   1.006 -0.6696 -0.2037 -0.0174
 9363SOL    HW139725   3.958   2.632   0.969 -0.5351  1.7878  0.9307
 9363SOL    HW239726   4.016   2.582   1.093 -1.4523 -0.8966 -0.4719
 9364SOL     OW39727   0.966   3.756   9.659  0.4469 -0.2517 -0.1306
 9364SOL    HW139728   0.916   3.837   9.653 -0.2801 -0.7448 -0.6543
 9364SOL    HW239729   0.942   3.719   9.745 -0.2430 -0.3357 -0.3589
 9365SOL     OW39730   3.714   0.592   9.937 -0.3538  0.3016 -0.0810
 9365SOL    HW139731   3.805   0.618   9.926  0.1049 -1.1021  0.3417
 9365SOL    HW239732   3.686   0.553   9.854 -2.8095  1.2239  0.2913
 9366SOL     OW39733   1.754   2.152   7.612  0.4125  0.5583 -0.1906
 9366SOL    HW139734   1.799   2.071   7.590  0.3719  0.1167  1.3579
 9366SOL    HW239735   1.806   2.208   7.553 -1.5992  2.6129 -0.0049
 9367SOL     OW39736   4.364   0.926  11.728  0.4406  0.4817 -0.4803
 9367SOL    HW139737   4.334   0.995  11.787 -0.4640  0.0926 -0.4803
 9367SOL    HW239738   4.426   0.977  11.676  0.3965  0.4286 -0.5865
 9368SOL     OW39739   1.544   3.194   6.183  0.3150 -0.4590  0.3182
 9368SOL    HW139740   1.542   3.288   6.201  0.1934 -0.5841  0.9297
 9368SOL    HW239741   1.518   3.152   6.265 -2.7454 -2.4682 -1.6930
 9369SOL     OW39742   2.187   2.519   8.841  0.1283  0.2734  0.2717
 9369SOL    HW139743   2.103   2.480   8.819  0.3050  0.8644 -1.4680
 9369SOL    HW239744   2.174   2.531   8.935 -3.0406 -0.6011 -0.0612
 9370SOL     OW39745   1.090   4.375  10.768 -0.0285  0.2107  0.1993
 9370SOL    HW139746   1.168   4.402  10.816 -0.2745 -0.8127  1.1481
 9370SOL    HW239747   1.100   4.280  10.767 -2.7535 -0.0567 -0.5997
 9371SOL     OW39748   3.126   1.804  11.529  0.2168 -0.2796  0.4044
 9371SOL    HW139749   3.189   1.850  11.473 -1.0381 -0.3647 -1.0797
 9371SOL    HW239750   3.194   1.764  11.583 -1.4149 -0.0926  2.5695
 9372SOL     OW39751   2.445   1.368   8.152  0.0404  0.4544 -0.0939
 9372SOL    HW139752   2.414   1.330   8.234 -0.7539 -1.0122 -1.0745
 9372SOL    HW239753   2.464   1.456   8.183  0.6957  0.1502  0.3672
 9373SOL     OW39754   1.259   1.939   5.342 -0.6332  0.3504 -0.0659
 9373SOL    HW139755   1.257   2.035   5.346  0.3639  0.3115  1.6031
 9373SOL    HW239756   1.168   1.925   5.319 -0.8263  1.4237  0.0400
 9374SOL     OW39757   2.304   3.828   7.958  0.1517 -0.1955  0.1587
 9374SOL    HW139758   2.266   3.905   8.000 -0.7748  0.1279 -1.2472
 9374SOL    HW239759   2.299   3.845   7.864  0.0452 -1.4612 -0.0633
 9375SOL     OW39760   2.626   4.529   6.456 -0.5143 -0.1068 -0.0293
 9375SOL    HW139761   2.588   4.611   6.489 -0.5301 -1.2413  2.7638
 9375SOL    HW239762   2.711   4.563   6.429 -0.4252 -1.1106 -0.9992
 9376SOL     OW39763   2.745   3.657   4.213 -0.3769  0.3336 -0.0916
 9376SOL    HW139764   2.653   3.672   4.191  0.2701  1.3711 -2.0583
 9376SOL    HW239765   2.792   3.697   4.140 -1.8854  0.9712 -0.7130
 9377SOL     OW39766   2.575   3.002   7.553 -0.3920  0.1014  0.0266
 9377SOL    HW139767   2.612   2.981   7.467 -0.3764 -2.1884  0.5956
 9377SOL    HW239768   2.654   3.041   7.593  0.0899 -0.6217 -0.2192
 9378SOL     OW39769   4.256   3.844  17.326  0.5233  0.3600  0.4657
 9378SOL    HW139770   4.168   3.879  17.315  0.8738  0.0997 -3.0765
 9378SOL    HW239771   4.306   3.921  17.300  1.8235 -1.1189 -1.4112
 9379SOL     OW39772   2.223   2.233  10.093 -0.1758  0.3737 -0.4647
 9379SOL    HW139773   2.190   2.144  10.098 -2.1368  1.2031  1.0643
 9379SOL    HW239774   2.278   2.231  10.014 -2.7724  2.0606 -2.3409
 9380SOL     OW39775   4.098   0.708   4.996  0.0220 -0.0067  0.6896
 9380SOL    HW139776   4.126   0.631   5.045  2.1058 -0.7134 -1.6208
 9380SOL    HW239777   4.168   0.729   4.934  1.3180 -0.4874  2.0156
 9381SOL     OW39778   0.605   0.245   1.279  0.1051 -0.9207 -0.3829
 9381SOL    HW139779   0.513   0.271   1.288  0.8822  1.5908  0.2397
 9381SOL    HW239780   0.593   0.151   1.261  0.6956 -0.9299 -0.7401
 9382SOL     OW39781   3.649   4.470   9.113 -0.1718  0.0270  0.0975
 9382SOL    HW139782   3.696   4.542   9.155 -0.8779 -0.9066  2.5154
 9382SOL    HW239783   3.583   4.456   9.180  0.7352  0.9070  1.1922
 9383SOL     OW39784   2.413   0.076   7.351 -0.5964  0.3411 -0.6297
 9383SOL    HW139785   2.488   0.118   7.308  0.4810  0.3685  1.3109
 9383SOL    HW239786   2.460   0.019   7.411 -1.9712 -1.0873 -0.9194
 9384SOL     OW39787   3.793   3.584   0.001  0.7319 -0.6869 -0.1695
 9384SOL    HW139788   3.865   3.581   0.063  1.3149  0.8702 -0.7766
 9384SOL    HW239789   3.836   3.566  17.667 -1.3334 -0.2417 -1.3346
 9385SOL     OW39790   1.141   0.504   1.491  0.7011  0.7633 -0.0919
 9385SOL    HW139791   1.084   0.434   1.460  2.0290  0.7977 -2.6241
 9385SOL    HW239792   1.127   0.576   1.429 -0.2383 -1.0132 -1.9283
 9386SOL     OW39793   2.674   2.509   6.042 -0.0765  0.1087 -0.1530
 9386SOL    HW139794   2.762   2.482   6.014  0.8227  1.2644  1.5808
 9386SOL    HW239795   2.696   2.561   6.119 -2.4276 -0.4878  0.9248
 9387SOL     OW39796   2.724   3.114  17.725  0.5804 -0.1281 -0.7845
 9387SOL    HW139797   2.785   3.154  17.663  0.7000  2.6370  1.0904
 9387SOL    HW239798   2.684   3.187   0.023  1.0399 -0.3112 -0.1264
 9388SOL     OW39799   1.490   3.481   5.965 -0.6459  0.2218  0.3925
 9388SOL    HW139800   1.463   3.526   6.046 -0.2904  0.5447  0.3331
 9388SOL    HW239801   1.585   3.492   5.965 -0.1710 -3.9263  1.3116
 9389SOL     OW39802   2.462   3.836   6.226 -0.4504 -0.4704  0.2398
 9389SOL    HW139803   2.390   3.899   6.237  0.9837  1.0460  0.8679
 9389SOL    HW239804   2.469   3.796   6.313  4.0226 -0.2646 -0.0340
 9390SOL     OW39805   3.040   1.981   3.315  0.3063 -0.3636 -0.4500
 9390SOL    HW139806   3.079   1.967   3.228  2.8942  1.1842  0.4503
 9390SOL    HW239807   3.107   2.038   3.352  0.1595 -0.0890 -0.6073
 9391SOL     OW39808   1.365   1.293   6.495 -0.3691 -0.1543 -0.3342
 9391SOL    HW139809   1.413   1.225   6.541 -0.8760 -0.4090 -0.1787
 9391SOL    HW239810   1.297   1.239   6.454 -0.6939  0.2421 -0.3227
 9392SOL     OW39811   0.198   0.142   3.025  0.2071  0.2524 -0.2819
 9392SOL    HW139812   0.238   0.058   3.000 -1.2517 -0.1923 -1.0864
 9392SOL    HW239813   0.274   0.185   3.064  0.0825  2.1242 -2.1442
 9393SOL     OW39814   1.300   4.395   9.184  0.0707  0.3978 -0.3732
 9393SOL    HW139815   1.225   4.349   9.145  0.5911 -0.3853 -0.4561
 9393SOL    HW239816   1.362   4.383   9.112  1.7778  1.9207  0.8519
 9394SOL     OW39817   1.140   2.071   1.261  0.2195 -0.8938  0.1623
 9394SOL    HW139818   1.167   2.110   1.178 -2.6280  0.0482 -0.3227
 9394SOL    HW239819   1.155   1.978   1.242  1.4734 -1.1060  2.1753
 9395SOL     OW39820   4.726   2.242  17.710 -0.1498 -0.2971 -0.0514
 9395SOL    HW139821   0.066   2.233   0.015  3.0926  1.0415 -4.3319
 9395SOL    HW239822   4.734   2.337  17.700 -0.5114 -0.2739 -0.1061
 9396SOL     OW39823   3.447   4.267   5.421 -0.4007  0.2975  0.2000
 9396SOL    HW139824   3.482   4.184   5.388  0.9190  0.9446 -0.0284
 9396SOL    HW239825   3.427   4.258   5.514 -1.4002 -0.3211 -0.0776
 9397SOL     OW39826   3.227   1.102  14.249 -0.2592  0.2313  0.6527
 9397SOL    HW139827   3.293   1.080  14.315  0.7987 -2.3001 -1.2271
 9397SOL    HW239828   3.193   1.013  14.234  0.6669  0.0846 -0.5801
 9398SOL     OW39829   0.918   4.574   7.834  0.3006  0.0496 -0.5347
 9398SOL    HW139830   0.954   4.538   7.754  1.6809  1.1088 -0.3950
 9398SOL    HW239831   0.934   4.668   7.826 -0.7184  0.4337  1.8547
 9399SOL     OW39832   4.298   0.262   3.847  0.0156  0.9235 -0.4306
 9399SOL    HW139833   4.250   0.282   3.767  0.4173  0.3291 -0.8266
 9399SOL    HW239834   4.255   0.188   3.892  1.6114  0.4265  0.2630
 9400SOL     OW39835   3.130   1.189  13.616  0.2594  0.2614  0.2116
 9400SOL    HW139836   3.206   1.133  13.602 -0.6365 -0.7241 -0.7119
 9400SOL    HW239837   3.164   1.274  13.590  0.8849 -0.2524 -0.6658
 9401SOL     OW39838   4.424   2.990  13.161 -0.1771  0.1271 -0.6746
 9401SOL    HW139839   4.347   3.033  13.198 -0.4423 -0.6555 -0.3135
 9401SOL    HW239840   4.400   2.903  13.193  0.8368  0.0456 -0.1328
 9402SOL     OW39841   1.582   0.639  12.156  0.0179 -0.0409  0.1932
 9402SOL    HW139842   1.494   0.650  12.193  0.3086  0.2584  0.8041
 9402SOL    HW239843   1.570   0.589  12.076 -3.3815 -1.3841  1.5555
 9403SOL     OW39844   1.017   4.236   4.148  0.0098 -0.1051  0.1135
 9403SOL    HW139845   0.980   4.274   4.068 -0.5615 -0.6000  0.1423
 9403SOL    HW239846   1.015   4.314   4.204 -3.2894  0.1740 -0.3965
 9404SOL     OW39847   0.192   0.458  10.346 -0.3937 -0.6642  0.5717
 9404SOL    HW139848   0.107   0.421  10.369 -1.4505 -1.0230 -3.8845
 9404SOL    HW239849   0.231   0.373  10.322  0.8357  0.7086 -2.3657
 9405SOL     OW39850   2.739   1.909   2.984 -0.1541 -0.3037 -0.1180
 9405SOL    HW139851   2.741   1.970   3.058  1.5328  0.2738 -0.6483
 9405SOL    HW239852   2.676   1.946   2.922  1.3914  2.0398 -0.2975
 9406SOL     OW39853   4.518   1.590   2.287  0.5790  0.2817 -0.1508
 9406SOL    HW139854   4.565   1.660   2.332 -0.1093 -0.5760  1.8847
 9406SOL    HW239855   4.583   1.520   2.278 -0.8254 -0.9580 -0.6665
 9407SOL     OW39856   4.530   2.131   0.635  0.0319  0.0850 -0.3222
 9407SOL    HW139857   4.454   2.079   0.661 -0.2272  1.0549  0.8600
 9407SOL    HW239858   4.596   2.062   0.634  0.1599  0.1998  0.4665
 9408SOL     OW39859   0.931   1.253   0.546 -0.6151  0.2010 -0.5491
 9408SOL    HW139860   0.888   1.188   0.603  1.1482 -0.8969 -0.4830
 9408SOL    HW239861   1.017   1.211   0.547 -0.9919 -0.5801 -0.9550
 9409SOL     OW39862   0.835   0.413   4.671 -0.0586  0.2656 -0.7833
 9409SOL    HW139863   0.769   0.354   4.707 -0.2547  0.4559 -0.8340
 9409SOL    HW239864   0.794   0.499   4.662  0.6024  0.7515  0.7718
 9410SOL     OW39865   3.891   1.758   2.634  0.1626 -0.3963 -0.1842
 9410SOL    HW139866   3.865   1.694   2.568  2.5549 -2.0733  0.4708
 9410SOL    HW239867   3.816   1.815   2.650 -1.1511 -1.8130 -1.2863
 9411SOL     OW39868   3.128   1.120   3.570 -0.0952  0.1448  0.4267
 9411SOL    HW139869   3.112   1.188   3.636  0.2370  1.0973 -0.4830
 9411SOL    HW239870   3.038   1.107   3.541  0.3443 -1.3513 -0.2877
 9412SOL     OW39871   4.224   0.828   8.225  0.3067  0.3438  0.0082
 9412SOL    HW139872   4.224   0.751   8.168 -1.8546 -0.2321  0.7789
 9412SOL    HW239873   4.129   0.840   8.220  0.4079  1.6350  0.9229
 9413SOL     OW39874   0.315   0.249   3.833  0.0104 -0.2592  0.2618
 9413SOL    HW139875   0.225   0.262   3.806  0.2000 -0.9083 -0.6827
 9413SOL    HW239876   0.336   0.171   3.782  3.1701 -0.2461  1.5296
 9414SOL     OW39877   4.118   3.429   7.444 -0.5769 -0.0573  0.6072
 9414SOL    HW139878   4.099   3.461   7.356  0.7518  0.3127  0.4506
 9414SOL    HW239879   4.038   3.460   7.485 -3.2304 -1.5387 -3.4864
 9415SOL     OW39880   3.845   2.893  10.671 -1.0738  0.4107  0.5619
 9415SOL    HW139881   3.865   2.862  10.759 -0.3623 -0.5689  0.0630
 9415SOL    HW239882   3.899   2.970  10.654 -1.0064 -0.1200 -1.7132
 9416SOL     OW39883   0.293   3.212   5.524 -0.3741  0.4698  0.9304
 9416SOL    HW139884   0.290   3.308   5.518  2.4992  0.4373 -1.5721
 9416SOL    HW239885   0.294   3.194   5.429  1.5840  0.4009  0.9615
 9417SOL     OW39886   1.032   1.013   4.724 -0.4901  0.0255 -0.0210
 9417SOL    HW139887   0.996   0.930   4.693 -3.4293  0.3317  2.5168
 9417SOL    HW239888   1.045   0.997   4.818 -0.8036 -1.0505 -0.1540
 9418SOL     OW39889   1.378   4.079   1.260 -0.5288  0.2480  0.1209
 9418SOL    HW139890   1.362   3.989   1.289  0.0064 -0.2565 -1.1131
 9418SOL    HW239891   1.289   4.106   1.238  0.0099  3.2715  1.7521
 9419SOL     OW39892   2.402   4.046   3.798 -0.2487  0.2164  0.9392
 9419SOL    HW139893   2.308   4.049   3.810 -0.3357 -1.1383  0.6384
 9419SOL    HW239894   2.431   3.994   3.874 -1.2154 -0.0946  1.0905
 9420SOL     OW39895   0.621   1.669  11.454 -0.0463  0.3596  0.0939
 9420SOL    HW139896   0.569   1.700  11.528 -0.2132 -2.9371  1.3376
 9420SOL    HW239897   0.622   1.574  11.462  0.0436  0.1311 -2.5186
 9421SOL     OW39898   3.558   0.124   4.789  0.3826 -0.0716 -0.4026
 9421SOL    HW139899   3.606   0.118   4.707  0.5260 -0.8084 -0.2599
 9421SOL    HW239900   3.501   0.051   4.765 -0.5054  0.1212  1.1263
 9422SOL     OW39901   3.706   2.050  10.606  0.0666  0.2958 -0.4680
 9422SOL    HW139902   3.697   1.958  10.628 -1.4766  0.9667  1.7183
 9422SOL    HW239903   3.781   2.070  10.662 -0.0074  2.5472 -1.1376
 9423SOL     OW39904   3.606   4.290  10.413 -0.2594 -0.1732  0.4181
 9423SOL    HW139905   3.585   4.348  10.339  0.2654 -0.0178  0.3919
 9423SOL    HW239906   3.699   4.285  10.392 -0.3414  0.1476 -0.0273
 9424SOL     OW39907   3.319   3.552   0.126 -0.0347  0.4883 -0.0274
 9424SOL    HW139908   3.397   3.584   0.081 -0.8840  1.9198 -0.4855
 9424SOL    HW239909   3.331   3.458   0.137  0.1132  0.8014  2.4239
 9425SOL     OW39910   2.166   4.603   3.703  0.2798  0.0263 -0.1821
 9425SOL    HW139911   2.099   4.545   3.739  1.2278 -2.7981 -3.0272
 9425SOL    HW239912   2.128   4.643   3.625 -4.4991  0.0080  2.1544
 9426SOL     OW39913   2.775   1.391   6.363  0.4024  0.0502  0.2072
 9426SOL    HW139914   2.684   1.411   6.386  0.1229 -4.4857  2.9017
 9426SOL    HW239915   2.746   1.366   6.275  0.4635 -0.1462  0.2423
 9427SOL     OW39916   1.399   0.691   6.286  0.1211  0.2673 -0.1049
 9427SOL    HW139917   1.441   0.729   6.209  2.2496 -1.1237  0.3926
 9427SOL    HW239918   1.422   0.760   6.349 -0.3575  0.3244  0.0136
 9428SOL     OW39919   0.267   3.871   4.821  0.2676 -0.1108  0.3623
 9428SOL    HW139920   0.213   3.807   4.775  0.2060  0.7215 -0.7158
 9428SOL    HW239921   0.349   3.823   4.815 -0.8661 -2.1527  1.1732
 9429SOL     OW39922   2.630   4.085   9.551  0.4331 -0.1692  0.8447
 9429SOL    HW139923   2.710   4.033   9.546  0.1702 -0.7810  3.0875
 9429SOL    HW239924   2.606   4.126   9.467 -0.3123 -1.0062  0.6512
 9430SOL     OW39925   0.417   2.595   7.501  0.2204  0.9028 -0.3620
 9430SOL    HW139926   0.404   2.501   7.504  2.1906  0.6233 -0.6819
 9430SOL    HW239927   0.421   2.617   7.594 -1.3093  0.6401 -0.2254
 9431SOL     OW39928   3.599   1.888   4.523  0.2283  0.3891 -0.3198
 9431SOL    HW139929   3.517   1.880   4.571  0.0704 -0.6877 -0.7621
 9431SOL    HW239930   3.625   1.803   4.485 -3.7863 -0.7911 -0.4154
 9432SOL     OW39931   4.149   1.140   8.301  0.1686 -0.1196  0.3552
 9432SOL    HW139932   4.209   1.200   8.258 -1.6741  1.5323  0.1094
 9432SOL    HW239933   4.205   1.077   8.347 -1.6372 -2.1738 -0.2314
 9433SOL     OW39934   0.834   1.479   9.827  0.3157 -0.3064 -0.0793
 9433SOL    HW139935   0.802   1.548   9.768  0.3010 -0.9396 -0.8129
 9433SOL    HW239936   0.836   1.395   9.782  0.0059  0.5553 -1.7130
 9434SOL     OW39937   3.895   1.306  14.444  0.1809  0.7664 -0.2288
 9434SOL    HW139938   3.982   1.268  14.431  0.5239  0.9868  1.4204
 9434SOL    HW239939   3.909   1.401  14.438 -2.9473  1.3275  0.8541
 9435SOL     OW39940   4.656   4.502  10.050  0.6282  0.0003 -0.0627
 9435SOL    HW139941   4.630   4.587  10.014 -0.0953 -0.3405 -0.3443
 9435SOL    HW239942   4.701   4.459   9.977  2.3187 -1.1625  1.6586
 9436SOL     OW39943   2.238   0.170   5.788  0.2067  0.1217  0.3922
 9436SOL    HW139944   2.145   0.153   5.775  0.6327 -1.7098 -0.3506
 9436SOL    HW239945   2.247   0.182   5.883 -2.3751 -2.1941  0.9266
 9437SOL     OW39946   0.136   1.321   5.655 -0.1651 -0.5744 -0.4331
 9437SOL    HW139947   0.115   1.361   5.571  1.6181  2.0877  0.3717
 9437SOL    HW239948   0.225   1.353   5.674 -0.2300 -0.3015 -0.5880
 9438SOL     OW39949   4.418   1.991  15.122 -0.6079 -0.0295 -0.4305
 9438SOL    HW139950   4.387   1.906  15.091 -0.8027 -0.5919  1.3354
 9438SOL    HW239951   4.383   2.042  15.049 -0.4641 -1.1863 -1.3126
 9439SOL     OW39952   0.342   3.146   6.996 -0.4111 -0.3926  0.2017
 9439SOL    HW139953   0.307   3.104   6.917 -1.7202 -3.0617  2.1690
 9439SOL    HW239954   0.432   3.167   6.974  0.0327  0.5990  2.9927
 9440SOL     OW39955   0.973   0.474   0.342  0.0535  0.0326  0.4225
 9440SOL    HW139956   1.066   0.453   0.354  0.5426  1.2584 -1.2921
 9440SOL    HW239957   0.958   0.522   0.423  0.8357 -2.1014  1.8429
 9441SOL     OW39958   3.526   3.841   1.987  0.0123  0.1421 -0.2492
 9441SOL    HW139959   3.483   3.920   1.955  0.4227 -1.4953 -4.7350
 9441SOL    HW239960   3.605   3.884   2.020 -0.2873 -0.6133  1.4706
 9442SOL     OW39961   2.190   1.421   1.944 -0.2565 -0.5808  0.2437
 9442SOL    HW139962   2.149   1.361   1.882  0.0696  1.1981 -1.7013
 9442SOL    HW239963   2.210   1.487   1.877 -0.5687 -1.2094 -0.4630
 9443SOL     OW39964   1.949   3.263  10.948  0.0239  0.0803 -0.2873
 9443SOL    HW139965   1.886   3.296  10.884  0.3270  0.8421 -0.1819
 9443SOL    HW239966   1.956   3.339  11.006 -2.0117  0.1610 -0.1345
 9444SOL     OW39967   1.932   4.521   2.564 -0.3666 -0.1403 -0.8764
 9444SOL    HW139968   1.986   4.524   2.643 -0.4529  2.3244 -0.8866
 9444SOL    HW239969   1.890   4.437   2.580 -0.5505 -0.2375 -1.8479
 9445SOL     OW39970   3.885   2.373   2.286  0.4688  0.2191 -0.3966
 9445SOL    HW139971   3.832   2.442   2.245  1.2890  0.3390 -1.2747
 9445SOL    HW239972   3.824   2.299   2.287  0.4716  0.2253 -0.0291
 9446SOL     OW39973   0.126   3.076   7.142  0.2634  0.0295 -0.1544
 9446SOL    HW139974   0.081   3.123   7.072  0.0666  0.6009  0.3530
 9446SOL    HW239975   0.217   3.092   7.120 -0.3813  0.6644 -2.3661
 9447SOL     OW39976   2.947   0.704   8.177 -0.4032  0.4889  0.1466
 9447SOL    HW139977   3.000   0.724   8.100  0.7067  0.3183  0.8646
 9447SOL    HW239978   2.882   0.649   8.134 -0.5545  1.2365 -0.5665
 9448SOL     OW39979   1.227   2.762  14.018  0.2578 -0.4859 -0.3647
 9448SOL    HW139980   1.306   2.720  14.052  0.9149  0.0185 -1.2750
 9448SOL    HW239981   1.202   2.811  14.096  1.9852  0.6630 -0.5250
 9449SOL     OW39982   3.045   1.933  16.636  0.0417 -0.0093 -0.0847
 9449SOL    HW139983   2.958   1.896  16.626  1.2161 -2.7687  0.0398
 9449SOL    HW239984   3.048   1.909  16.729  0.6944 -1.9060 -0.6094
 9450SOL     OW39985   2.825   1.428   9.864  0.5309 -0.0457  0.1846
 9450SOL    HW139986   2.887   1.368   9.823  2.5721  2.1765  0.0199
 9450SOL    HW239987   2.827   1.503   9.805  2.0844  0.9693  1.5439
 9451SOL     OW39988   1.103   1.362   7.751  0.2364 -0.4357 -0.7563
 9451SOL    HW139989   1.187   1.383   7.792  0.5795  0.4863 -1.9348
 9451SOL    HW239990   1.053   1.442   7.769  0.5188 -0.4471  0.0444
 9452SOL     OW39991   3.157   3.431   4.559 -0.4240  0.4223 -0.2357
 9452SOL    HW139992   3.201   3.479   4.630  1.3757 -0.7319 -0.5468
 9452SOL    HW239993   3.206   3.466   4.485 -1.1145  2.6112  0.3563
 9453SOL     OW39994   2.586   1.161   9.942  0.0722 -0.2757 -0.0437
 9453SOL    HW139995   2.619   1.120   9.862 -2.2400  1.0294 -1.6693
 9453SOL    HW239996   2.657   1.132  10.000 -0.0037  0.5642  0.4646
 9454SOL     OW39997   4.402   3.792   3.630  0.0962  0.2742 -0.5921
 9454SOL    HW139998   4.333   3.729   3.607  0.2627  0.3339 -1.2599
 9454SOL    HW239999   4.431   3.760   3.716 -1.4149  2.0775  0.6029
 9455SOL     OW40000   2.560   4.198   7.474  0.4533  0.1460  0.2423
 9455SOL    HW140001   2.508   4.263   7.427  1.3371  0.4878 -0.2658
 9455SOL    HW240002   2.569   4.244   7.558  0.3980  0.4235  0.0966
 9456SOL     OW40003   1.939   0.258   5.505  0.8771  0.4660 -0.4684
 9456SOL    HW140004   1.918   0.232   5.595  4.5168  1.4814  0.6922
 9456SOL    HW240005   1.858   0.243   5.457 -0.5659 -0.1367  2.1735
 9457SOL     OW40006   1.187   2.841   7.170  0.7450  0.3916 -0.0262
 9457SOL    HW140007   1.185   2.769   7.107  0.9893 -0.1198  0.5484
 9457SOL    HW240008   1.227   2.794   7.244 -0.1224  0.7834  0.6968
 9458SOL     OW40009   2.006   2.626   7.294 -0.2213  0.3034  0.0720
 9458SOL    HW140010   2.077   2.580   7.340  0.5977  1.1501 -0.3306
 9458SOL    HW240011   2.035   2.623   7.202  1.4600  1.5233  0.5572
 9459SOL     OW40012   0.261   3.781  15.533  0.2743  0.2476 -0.4880
 9459SOL    HW140013   0.273   3.862  15.484 -0.9632  1.8623  1.8517
 9459SOL    HW240014   0.242   3.720  15.462  0.7158  0.4401 -0.7728
 9460SOL     OW40015   4.073   1.483   2.916  0.1720  0.0567  0.1070
 9460SOL    HW140016   4.086   1.517   3.005  0.4907 -0.4123  0.2350
 9460SOL    HW240017   3.995   1.432   2.938  1.5630 -2.7542 -1.5887
 9461SOL     OW40018   4.103   0.387   3.315 -0.1473  0.4204  0.5336
 9461SOL    HW140019   4.161   0.335   3.259 -3.1796 -1.1722 -1.1017
 9461SOL    HW240020   4.030   0.329   3.334 -0.2358  0.2998 -0.1884
 9462SOL     OW40021   0.296   2.253   1.235  0.0405 -0.2975  0.1717
 9462SOL    HW140022   0.368   2.255   1.172 -1.0464  2.3403 -1.0215
 9462SOL    HW240023   0.337   2.267   1.320 -0.0699  0.2745  0.1347
 9463SOL     OW40024   4.080   2.641   1.338 -0.1092  0.2782  0.2625
 9463SOL    HW140025   4.130   2.623   1.417  1.4575  0.4579 -0.6730
 9463SOL    HW240026   4.107   2.732   1.320 -0.4822  0.5529  1.1003
 9464SOL     OW40027   2.083   0.626   8.201 -0.0905  0.5321 -0.2273
 9464SOL    HW140028   2.143   0.572   8.148 -1.8960  0.3264 -2.0610
 9464SOL    HW240029   2.106   0.594   8.288 -1.9361  1.3451  0.5500
 9465SOL     OW40030   2.942   0.637   7.244 -0.1640 -0.2616 -0.0696
 9465SOL    HW140031   2.897   0.702   7.191  0.9885  0.0830 -0.6299
 9465SOL    HW240032   2.974   0.689   7.318 -0.0938 -1.6330  0.8699
 9466SOL     OW40033   1.681   1.210   3.311  0.2044  0.5986 -0.1192
 9466SOL    HW140034   1.716   1.121   3.309  1.7670  1.2320 -0.4455
 9466SOL    HW240035   1.612   1.211   3.378 -0.3814  1.7821 -0.7293
 9467SOL     OW40036   2.140   4.213   3.594  0.2127 -0.2916 -0.1837
 9467SOL    HW140037   2.074   4.257   3.540  0.8847 -0.1663 -0.9017
 9467SOL    HW240038   2.091   4.131   3.608 -0.7677  0.4404  0.6260
 9468SOL     OW40039   2.395   2.542   6.118 -0.4506 -0.4459 -0.9487
 9468SOL    HW140040   2.452   2.481   6.071  0.6267 -0.0416 -0.1762
 9468SOL    HW240041   2.455   2.616   6.124  0.5434 -1.2347 -1.1127
 9469SOL     OW40042   0.377   2.957   0.509  0.1338 -0.0914 -0.3064
 9469SOL    HW140043   0.416   2.966   0.596 -0.9103  2.0914 -0.0631
 9469SOL    HW240044   0.405   3.036   0.463 -2.1679  0.7299 -0.2944
 9470SOL     OW40045   2.922   3.008   6.523 -0.1020  0.5989 -0.0371
 9470SOL    HW140046   2.973   3.086   6.545  0.4793 -0.1873  1.4506
 9470SOL    HW240047   2.991   2.954   6.484 -1.1092  0.1792 -1.2244
 9471SOL     OW40048   3.976   1.281  17.388  0.1703  0.1702 -0.1079
 9471SOL    HW140049   3.984   1.323  17.474 -2.7192 -2.2954  1.3360
 9471SOL    HW240050   3.882   1.266  17.383 -0.0913  1.4146  1.1121
 9472SOL     OW40051   3.584   0.902   4.635  0.1095 -0.3180  0.0573
 9472SOL    HW140052   3.587   0.808   4.649  2.5806 -0.1489  0.7513
 9472SOL    HW240053   3.667   0.920   4.591  1.1378  1.4526  2.6355
 9473SOL     OW40054   4.126   1.573   3.170 -0.1900 -0.0894  0.2911
 9473SOL    HW140055   4.068   1.608   3.238  1.6201  1.7003  0.9496
 9473SOL    HW240056   4.210   1.615   3.192  0.5915 -1.1431 -0.6876
 9474SOL     OW40057   0.038   3.050   2.845 -0.1728 -0.1773  0.0218
 9474SOL    HW140058   0.098   2.977   2.851  0.6117  0.5167  0.6648
 9474SOL    HW240059   0.063   3.102   2.921  0.1605 -0.2002 -0.0737
 9475SOL     OW40060   4.720   3.462   8.906 -0.3433  0.6199 -0.0736
 9475SOL    HW140061   0.049   3.475   8.973 -0.1406  4.0598 -0.9316
 9475SOL    HW240062   4.683   3.381   8.940 -0.2773  0.6268  0.0150
 9476SOL     OW40063   1.070   2.433   3.085 -0.5629 -0.7571  0.2491
 9476SOL    HW140064   1.037   2.523   3.087  2.7365  0.4946 -2.0945
 9476SOL    HW240065   1.062   2.413   2.992 -0.9502  2.7074 -0.4574
 9477SOL     OW40066   3.947   0.306   4.798  0.1437  0.1502 -0.2467
 9477SOL    HW140067   3.924   0.279   4.887 -0.5677  0.7711 -0.2431
 9477SOL    HW240068   3.896   0.387   4.788  2.4061  1.4616 -1.1367
 9478SOL     OW40069   0.566   0.472  12.543  0.0176 -0.0837 -0.5522
 9478SOL    HW140070   0.594   0.503  12.458 -1.3693 -0.8080 -1.2746
 9478SOL    HW240071   0.591   0.556  12.581 -0.6801 -0.3478  0.5081
 9479SOL     OW40072   2.496   2.322   5.588  0.1961  0.1752  0.6823
 9479SOL    HW140073   2.478   2.406   5.547 -0.4170  0.5064  1.6186
 9479SOL    HW240074   2.418   2.279   5.554  0.9963 -1.6717  1.1688
 9480SOL     OW40075   2.158   3.161   5.082 -0.1642  0.0405  0.6396
 9480SOL    HW140076   2.103   3.098   5.035 -0.9960  0.8527  0.5154
 9480SOL    HW240077   2.235   3.162   5.026 -0.2185  0.1652  0.5685
 9481SOL     OW40078   0.873   3.590   0.650  0.3327  0.1150 -0.3670
 9481SOL    HW140079   0.938   3.595   0.581 -2.2163  3.6522 -2.5398
 9481SOL    HW240080   0.928   3.559   0.721  0.0445  1.1852  0.3352
 9482SOL     OW40081   4.222   1.112  11.907 -0.7799  0.3362 -0.0127
 9482SOL    HW140082   4.177   1.029  11.924 -1.0594  0.5159  0.1386
 9482SOL    HW240083   4.168   1.178  11.951 -1.6657  1.8795 -3.3973
 9483SOL     OW40084   2.141   2.517   5.707  0.2469 -0.0344 -0.2707
 9483SOL    HW140085   2.134   2.570   5.628  1.4294  1.4817  0.6292
 9483SOL    HW240086   2.203   2.577   5.749  0.5070 -0.8502  0.5185
 9484SOL     OW40087   3.621   0.449   6.575 -0.5495 -0.3225 -0.1796
 9484SOL    HW140088   3.688   0.382   6.568  0.4431  0.9081 -2.7278
 9484SOL    HW240089   3.543   0.411   6.535 -0.2027  0.2976 -1.4536
 9485SOL     OW40090   1.969   3.393   4.009  0.3343 -0.5313  0.2843
 9485SOL    HW140091   2.038   3.451   3.976  0.4293 -0.3488  0.8037
 9485SOL    HW240092   2.009   3.346   4.082 -0.4063 -2.3685 -0.4921
 9486SOL     OW40093   3.658   0.003   4.460 -0.2057  0.0898  0.4326
 9486SOL    HW140094   3.665   0.097   4.475  3.0098  0.2435 -1.7403
 9486SOL    HW240095   3.726   4.705   4.516 -1.8960  0.2482  2.5516
 9487SOL     OW40096   3.055   3.294   5.171 -0.2365  0.5761  0.3207
 9487SOL    HW140097   2.991   3.365   5.182  0.5859  1.2254  0.9449
 9487SOL    HW240098   2.998   3.220   5.192  3.1306 -2.5073 -1.7758
 9488SOL     OW40099   3.688   3.718   3.306 -0.0119  0.1845  0.2240
 9488SOL    HW140100   3.634   3.788   3.343 -0.9179 -1.4709  2.0359
 9488SOL    HW240101   3.728   3.782   3.247 -1.8428 -1.0158 -2.3071
 9489SOL     OW40102   3.392   3.799  13.773  0.1812 -0.0727  0.3796
 9489SOL    HW140103   3.307   3.841  13.763  0.2857  0.1350  0.3632
 9489SOL    HW240104   3.407   3.821  13.865 -0.9921  1.4643  0.1930
 9490SOL     OW40105   0.930   2.432   5.863 -0.0280  0.1782  0.0459
 9490SOL    HW140106   1.004   2.468   5.913 -0.4235 -0.9113  1.4201
 9490SOL    HW240107   0.933   2.484   5.783  0.6675  1.2801  0.7731
 9491SOL     OW40108   0.707   3.017   3.070 -0.3216 -0.2717  0.1002
 9491SOL    HW140109   0.781   2.977   3.023  1.5634  4.0765 -0.6792
 9491SOL    HW240110   0.642   2.948   3.064  1.4478 -2.1188  2.0408
 9492SOL     OW40111   1.450   2.544  13.739 -0.0020  0.2379 -0.1978
 9492SOL    HW140112   1.360   2.512  13.732  0.3947 -0.9963  0.2801
 9492SOL    HW240113   1.437   2.616  13.802 -0.7722 -1.2217  1.3094
 9493SOL     OW40114   3.301   1.282  12.471 -0.2351  0.2108 -0.0821
 9493SOL    HW140115   3.323   1.198  12.511  2.9460  1.4008  0.6721
 9493SOL    HW240116   3.250   1.240  12.402 -0.5979  1.3783 -0.5204
 9494SOL     OW40117   1.274   3.638   1.914  0.4464 -0.1631  0.3163
 9494SOL    HW140118   1.277   3.710   1.851  0.4156 -1.4236 -1.1077
 9494SOL    HW240119   1.183   3.618   1.936  0.0565  1.3915  0.1119
 9495SOL     OW40120   0.352   2.571  12.369  0.4448 -0.2828  0.0858
 9495SOL    HW140121   0.268   2.611  12.390  0.2106 -0.1361 -1.1420
 9495SOL    HW240122   0.415   2.641  12.355 -1.0005  1.2243  1.1755
 9496SOL     OW40123   4.258   1.540   8.271 -0.3931 -0.1048 -0.3901
 9496SOL    HW140124   4.222   1.551   8.183 -0.7563  0.7286 -0.1325
 9496SOL    HW240125   4.192   1.585   8.322 -0.3084 -2.1116  1.4872
 9497SOL     OW40126   3.603   1.430   7.783 -0.1761  0.5289 -1.0008
 9497SOL    HW140127   3.699   1.429   7.784 -0.1750  2.4275 -0.1654
 9497SOL    HW240128   3.582   1.412   7.874 -0.3898 -1.3093 -1.4248
 9498SOL     OW40129   4.219   3.463   5.140 -0.0424 -1.1911 -0.0449
 9498SOL    HW140130   4.198   3.376   5.105  2.3920 -1.4108 -0.9629
 9498SOL    HW240131   4.267   3.438   5.219  0.4504  0.0740  0.0563
 9499SOL     OW40132   1.721   1.185   5.687  0.3128 -0.1263  0.2281
 9499SOL    HW140133   1.635   1.146   5.676  0.3165 -0.5899  1.8515
 9499SOL    HW240134   1.706   1.258   5.747  1.0155 -0.9041  1.3525
 9500SOL     OW40135   2.829   4.191  13.643 -0.4061  0.3143 -0.2420
 9500SOL    HW140136   2.888   4.258  13.608 -1.6687  1.1794 -0.7188
 9500SOL    HW240137   2.860   4.107  13.611  1.8357  0.6912  0.9306
 9501SOL     OW40138   2.261   3.078   2.149  0.3750 -0.1150 -0.0222
 9501SOL    HW140139   2.277   3.017   2.221  1.5370 -0.6039 -0.7037
 9501SOL    HW240140   2.315   3.044   2.077 -0.2607 -1.0970 -0.0333
 9502SOL     OW40141   2.693   1.774   0.499 -0.3399 -0.7196  0.4234
 9502SOL    HW140142   2.679   1.869   0.495  0.3389 -0.6634 -0.6673
 9502SOL    HW240143   2.731   1.748   0.415  1.3619  0.4961  0.8005
 9503SOL     OW40144   0.017   4.558   1.699 -0.0934 -0.0585 -0.1497
 9503SOL    HW140145   4.693   4.497   1.658 -0.0159  0.5854 -1.2259
 9503SOL    HW240146   4.701   4.627   1.738 -0.6366  1.6303 -3.8793
 9504SOL     OW40147   2.107   0.527   4.790 -0.3368 -0.0748  0.0309
 9504SOL    HW140148   2.142   0.438   4.790  2.0360  0.8790 -1.0158
 9504SOL    HW240149   2.087   0.536   4.696  1.4315  1.3851 -0.2167
 9505SOL     OW40150   4.622   3.314   2.936 -0.5344  0.2955  0.9525
 9505SOL    HW140151   4.677   3.348   2.865 -3.0225 -0.5965 -1.4173
 9505SOL    HW240152   4.686   3.275   2.996  0.2365  0.2622  0.1166
 9506SOL     OW40153   3.565   1.747  12.466 -0.3351 -0.1183  0.0489
 9506SOL    HW140154   3.508   1.782  12.535  0.7088  2.6182 -0.4823
 9506SOL    HW240155   3.542   1.655  12.477 -0.8463 -0.1731 -1.5258
 9507SOL     OW40156   0.818   4.452   2.103  0.4348 -0.2845 -0.3630
 9507SOL    HW140157   0.766   4.525   2.069 -1.1109 -0.9399  0.5888
 9507SOL    HW240158   0.756   4.381   2.085  0.8748 -0.7426 -0.0388
 9508SOL     OW40159   2.679   2.905   6.423  0.1807  0.2296  0.6159
 9508SOL    HW140160   2.761   2.937   6.460 -0.0015  0.5009  0.7887
 9508SOL    HW240161   2.644   2.847   6.491  0.7417 -0.5825  0.2063
 9509SOL     OW40162   4.158   2.377   1.472 -0.0351  0.0121  0.0071
 9509SOL    HW140163   4.132   2.433   1.545 -0.0117  0.0443 -0.0094
 9509SOL    HW240164   4.093   2.396   1.405  0.6831 -1.9182 -1.2375
 9510SOL     OW40165   2.079   0.752   5.574  0.2083  0.0197 -0.2186
 9510SOL    HW140166   2.026   0.832   5.570  1.5526  0.8841 -0.5965
 9510SOL    HW240167   2.023   0.680   5.603  0.4749  0.4570  1.4258
 9511SOL     OW40168   3.709   0.900  13.382 -0.5600 -0.6089  0.4503
 9511SOL    HW140169   3.748   0.857  13.306 -1.3278 -1.7101  0.6913
 9511SOL    HW240170   3.774   0.899  13.452 -1.8543  2.2712  1.7088
 9512SOL     OW40171   4.005   2.072  10.943  0.4219 -0.1979 -0.0363
 9512SOL    HW140172   3.990   2.052  11.035 -0.1897 -0.3198 -0.1624
 9512SOL    HW240173   3.963   2.157  10.927 -0.5250 -0.6202  0.1882
 9513SOL     OW40174   0.844   3.611   4.870  0.4748 -0.1008 -0.2961
 9513SOL    HW140175   0.931   3.636   4.839  0.8371  0.7529  1.4166
 9513SOL    HW240176   0.839   3.648   4.958  1.5617 -1.2091  0.2403
 9514SOL     OW40177   0.762   4.109   9.958 -0.2983  0.1965  0.5487
 9514SOL    HW140178   0.757   4.018   9.988 -0.3844  0.8162  2.4038
 9514SOL    HW240179   0.857   4.119   9.961 -0.1562 -1.0747  0.3285
 9515SOL     OW40180   3.174   2.225   3.622  0.8813 -0.2444  0.4280
 9515SOL    HW140181   3.240   2.219   3.691  0.3272 -0.4502  0.9393
 9515SOL    HW240182   3.107   2.175   3.669 -1.9456  3.1179 -0.0515
 9516SOL     OW40183   1.316   2.062   7.292  0.1649 -0.5866 -0.3666
 9516SOL    HW140184   1.362   2.076   7.375 -3.6013  4.7739  0.8107
 9516SOL    HW240185   1.265   1.982   7.301 -0.2030 -0.2390  0.6594
 9517SOL     OW40186   4.323   0.380   2.719  0.5593 -0.1332 -0.4447
 9517SOL    HW140187   4.315   0.431   2.800 -0.8021  1.4613 -1.5896
 9517SOL    HW240188   4.261   0.419   2.658 -2.0290 -0.6121  1.8273
 9518SOL     OW40189   4.671   0.698   6.087  0.1877  0.2244  0.1354
 9518SOL    HW140190   4.726   0.749   6.027  0.6560 -0.8453 -0.3605
 9518SOL    HW240191   4.730   0.647   6.143  0.2959  0.2828  0.0751
 9519SOL     OW40192   3.786   2.136   8.961  0.1211 -0.5066  0.4304
 9519SOL    HW140193   3.825   2.101   9.041 -0.0304 -0.7617  0.3938
 9519SOL    HW240194   3.735   2.061   8.930  1.0435 -0.0116 -2.2995
 9520SOL     OW40195   1.786   2.233   2.271 -0.0605  0.4306  0.0783
 9520SOL    HW140196   1.791   2.142   2.301 -0.7546  0.5490  0.5594
 9520SOL    HW240197   1.740   2.227   2.187 -1.5206  2.5159  0.7211
 9521SOL     OW40198   0.993   3.561  15.369  0.5637  0.0426  0.0826
 9521SOL    HW140199   0.926   3.505  15.331  2.7884 -1.3942 -1.7405
 9521SOL    HW240200   1.069   3.560  15.310 -1.0144 -0.2703 -1.9192
 9522SOL     OW40201   2.198   2.704   0.643  0.0293 -0.2216 -0.1154
 9522SOL    HW140202   2.131   2.702   0.712 -1.3333 -1.2852 -1.4491
 9522SOL    HW240203   2.276   2.705   0.697  0.5927  0.6147 -0.9391
 9523SOL     OW40204   3.172   1.355   8.453  0.2341  0.7193 -0.1102
 9523SOL    HW140205   3.082   1.358   8.486  0.5794  3.1051  0.6410
 9523SOL    HW240206   3.201   1.438   8.490  2.3816 -1.3297  2.8679
 9524SOL     OW40207   1.574   2.001   5.747 -0.4167  0.2715 -0.2138
 9524SOL    HW140208   1.592   1.918   5.702  0.5619  0.3925 -0.0598
 9524SOL    HW240209   1.653   2.052   5.730  0.2553 -0.4466  0.7460
 9525SOL     OW40210   0.123   0.538  14.827  0.0017  0.4694  0.2357
 9525SOL    HW140211   0.184   0.526  14.755 -0.7695  1.7314 -0.6434
 9525SOL    HW240212   0.142   0.626  14.859 -0.6209  0.2658  1.1816
 9526SOL     OW40213   2.892   3.254   1.983  0.8532 -0.2595  0.3126
 9526SOL    HW140214   2.962   3.189   1.990 -0.0954 -1.4044 -0.7993
 9526SOL    HW240215   2.931   3.311   2.049 -0.9658  1.4559 -0.0580
 9527SOL     OW40216   0.476   1.728  15.659 -0.1283 -0.3047 -0.3398
 9527SOL    HW140217   0.409   1.793  15.683  0.7486  0.9126 -1.1455
 9527SOL    HW240218   0.489   1.737  15.565 -0.8131  0.4631 -0.3628
 9528SOL     OW40219   0.373   1.876  15.119  0.2877 -0.0888  0.2329
 9528SOL    HW140220   0.338   1.937  15.184 -3.1031  0.1876 -1.8636
 9528SOL    HW240221   0.314   1.802  15.128 -1.0046  0.6524 -2.1778
 9529SOL     OW40222   4.639   0.188  14.669 -0.5877  0.6813 -0.1296
 9529SOL    HW140223   4.653   0.135  14.591  1.7226 -2.8684  2.7300
 9529SOL    HW240224   4.726   0.201  14.705 -0.8819  0.9683  0.4856
 9530SOL     OW40225   3.457   3.621   7.223 -0.2677 -0.2847  0.0225
 9530SOL    HW140226   3.382   3.629   7.163  0.6386  0.0975 -1.0578
 9530SOL    HW240227   3.432   3.677   7.296  1.7150 -1.4245  1.5836
 9531SOL     OW40228   1.963   0.878   9.397 -0.1996  0.0882 -0.5646
 9531SOL    HW140229   2.053   0.889   9.365  0.4840  0.1686  1.3581
 9531SOL    HW240230   1.955   0.948   9.463 -1.1711  0.3058 -0.9200
 9532SOL     OW40231   4.688   0.510  17.683  0.8141  0.1488  0.5827
 9532SOL    HW140232   4.663   0.428  17.727 -0.9959  0.9655  1.0946
 9532SOL    HW240233   0.009   0.548  17.748  1.2657  2.0486 -0.9319
 9533SOL     OW40234   0.173   1.678   4.265  0.6928 -0.2184 -0.5906
 9533SOL    HW140235   0.251   1.722   4.299 -1.8023  1.5385  2.9049
 9533SOL    HW240236   0.203   1.589   4.279  1.9576  0.2276 -0.4752
 9534SOL     OW40237   1.644   3.019  12.985 -0.3302  0.1320  0.2357
 9534SOL    HW140238   1.660   2.999  13.078  0.7783  2.4279  0.5408
 9534SOL    HW240239   1.590   2.943  12.965 -0.2155  0.1150 -0.0083
 9535SOL     OW40240   1.024   2.272   4.965 -0.3837  0.6170  0.3314
 9535SOL    HW140241   1.093   2.243   5.024  0.9780  1.7158 -0.7382
 9535SOL    HW240242   1.070   2.340   4.915 -2.1321  0.4936 -1.4647
 9536SOL     OW40243   4.205   0.429   6.067 -0.1366 -0.3951 -0.1663
 9536SOL    HW140244   4.224   0.372   5.993 -1.9427 -1.0184 -0.1451
 9536SOL    HW240245   4.149   0.374   6.121 -0.5984  0.9999  0.7966
 9537SOL     OW40246   4.084   3.028   5.124  0.2660  0.1091 -0.0700
 9537SOL    HW140247   4.161   2.980   5.094  1.6550  1.1852  1.7680
 9537SOL    HW240248   4.019   2.958   5.118 -0.2675  0.5557  0.5836
 9538SOL     OW40249   0.798   3.664   5.471  0.0979 -0.0761  0.3673
 9538SOL    HW140250   0.854   3.736   5.443 -0.6550  0.3178 -0.1263
 9538SOL    HW240251   0.861   3.594   5.452 -0.4713  0.0149 -1.8959
 9539SOL     OW40252   4.574   2.208   7.810 -0.0682 -0.4433 -0.0930
 9539SOL    HW140253   4.485   2.175   7.818  0.2591 -1.0733  0.8855
 9539SOL    HW240254   4.554   2.276   7.745  1.8865 -0.8013 -1.0945
 9540SOL     OW40255   0.081   1.739   7.816 -0.3477 -0.0535  0.0912
 9540SOL    HW140256   0.166   1.731   7.773  0.5135 -1.0372  1.9546
 9540SOL    HW240257   0.024   1.780   7.751 -0.9475  0.8981  1.2117
 9541SOL     OW40258   3.333   1.243   3.320  0.7679 -0.0265 -0.3591
 9541SOL    HW140259   3.375   1.266   3.403  0.6224  0.9617 -0.5555
 9541SOL    HW240260   3.260   1.304   3.316 -0.5098 -1.6163 -1.1756
 9542SOL     OW40261   1.808   2.646   8.104 -0.1082 -0.0673  1.2000
 9542SOL    HW140262   1.842   2.576   8.049  0.5461  0.6625  0.6696
 9542SOL    HW240263   1.882   2.682   8.152  0.8263  0.9367 -0.9876
 9543SOL     OW40264   4.278   1.580  11.888  0.6193  0.5447 -0.1161
 9543SOL    HW140265   4.330   1.500  11.886  1.4034  1.1018 -1.6589
 9543SOL    HW240266   4.257   1.598  11.797  0.0544 -0.6138 -0.2087
 9544SOL     OW40267   4.718   3.510   2.738  0.6466 -0.6427  0.1457
 9544SOL    HW140268   0.038   3.583   2.713  0.6894 -0.5152  0.6155
 9544SOL    HW240269   0.018   3.438   2.688 -0.9113 -0.9007 -0.6448
 9545SOL     OW40270   4.505   3.063   2.138  0.2740 -0.2935 -0.0304
 9545SOL    HW140271   4.553   3.087   2.218 -0.1630 -0.6876  0.3491
 9545SOL    HW240272   4.548   2.981   2.112 -0.7845 -1.1967  1.0972
 9546SOL     OW40273   2.386   1.210  11.656 -0.8913  0.7263  0.5893
 9546SOL    HW140274   2.313   1.179  11.603 -0.2690  0.1631  0.0674
 9546SOL    HW240275   2.448   1.198  11.585 -2.0076  2.0012 -0.6170
 9547SOL     OW40276   2.781   3.251   2.382 -0.0474 -0.1565 -0.4547
 9547SOL    HW140277   2.806   3.318   2.319 -1.4683  0.5570 -0.2585
 9547SOL    HW240278   2.700   3.215   2.345  0.8348 -0.7890 -1.7888
 9548SOL     OW40279   1.750   0.614   8.660 -0.2763  0.5045 -1.2071
 9548SOL    HW140280   1.755   0.569   8.745 -0.7741 -2.0217 -2.5111
 9548SOL    HW240281   1.797   0.692   8.690 -1.7279 -0.0695  2.6369
 9549SOL     OW40282   2.432   3.423   7.445  0.7270 -0.4947 -0.0171
 9549SOL    HW140283   2.348   3.431   7.398 -0.4515 -1.4914  1.9396
 9549SOL    HW240284   2.484   3.502   7.436  2.7089 -1.7470  0.4569
 9550SOL     OW40285   4.647   1.412   2.655  0.2058  0.0504  0.0446
 9550SOL    HW140286   4.559   1.428   2.620  0.5503 -0.2425 -0.9435
 9550SOL    HW240287   4.628   1.321   2.678 -0.4884 -0.2901 -1.9108
 9551SOL     OW40288   4.299   3.577   6.079  0.0347  0.6208  0.3698
 9551SOL    HW140289   4.226   3.637   6.066 -0.3552  0.0416 -0.0969
 9551SOL    HW240290   4.379   3.627   6.061 -0.6761  1.6267 -0.0054
 9552SOL     OW40291   3.176   2.511   2.112 -0.0727  0.0497 -0.2718
 9552SOL    HW140292   3.238   2.498   2.184  0.7410  0.8053 -0.8452
 9552SOL    HW240293   3.092   2.528   2.154  0.4154 -0.0233  0.7433
 9553SOL     OW40294   3.235   4.565   4.384  0.2145 -0.6964 -0.3343
 9553SOL    HW140295   3.327   4.554   4.407  0.4174  2.5337  0.3594
 9553SOL    HW240296   3.225   4.660   4.389 -0.6019 -0.8007  0.0255
 9554SOL     OW40297   3.934   0.499  16.393 -0.1763  0.2455 -0.3801
 9554SOL    HW140298   3.965   0.588  16.379 -0.3700  0.3853  0.0648
 9554SOL    HW240299   3.929   0.462  16.305  1.2844  0.2160 -0.4578
 9555SOL     OW40300   0.883   2.705   2.695 -0.2342  0.6086  0.0958
 9555SOL    HW140301   0.896   2.798   2.714 -1.1569  0.9392 -0.8832
 9555SOL    HW240302   0.881   2.702   2.599 -2.9817  3.2590  0.0647
 9556SOL     OW40303   3.578   2.149   1.626 -0.7225 -0.0352 -0.1852
 9556SOL    HW140304   3.652   2.204   1.654 -1.6339  0.5369  1.0943
 9556SOL    HW240305   3.530   2.210   1.570 -0.9504 -0.3462 -0.3262
 9557SOL     OW40306   4.179   2.449  17.068  0.3107  0.1367 -0.1129
 9557SOL    HW140307   4.142   2.532  17.037  0.4567 -1.1357 -3.7352
 9557SOL    HW240308   4.156   2.389  16.996  0.9576  0.6378 -0.7399
 9558SOL     OW40309   3.159   3.331   0.897  0.0702 -0.4778  0.6983
 9558SOL    HW140310   3.124   3.368   0.977 -1.6449  0.6923 -0.5999
 9558SOL    HW240311   3.074   3.320   0.856 -0.2116 -0.4967  1.2909
 9559SOL     OW40312   3.849   3.322   4.599 -0.4835 -0.2869 -0.0649
 9559SOL    HW140313   3.792   3.393   4.572  0.8399  0.4642 -0.8826
 9559SOL    HW240314   3.921   3.317   4.536 -0.9008 -1.4689 -0.4506
 9560SOL     OW40315   0.159   4.044   3.315 -0.1631  0.2487 -0.5412
 9560SOL    HW140316   0.244   4.066   3.275 -1.3179  3.5482 -1.2265
 9560SOL    HW240317   0.142   4.137   3.332 -4.1176 -0.5612 -0.1980
 9561SOL     OW40318   0.485   3.481   5.291  0.1799  0.0460 -1.0008
 9561SOL    HW140319   0.453   3.565   5.260  1.2666 -0.0019 -2.2388
 9561SOL    HW240320   0.423   3.424   5.246  0.8986 -0.7832 -0.9430
 9562SOL     OW40321   0.997   2.561  15.465  0.0842 -0.0339  0.1490
 9562SOL    HW140322   0.937   2.635  15.457 -0.8700 -0.9385 -1.1255
 9562SOL    HW240323   0.978   2.525  15.379 -0.3094  2.1579 -0.6801
 9563SOL     OW40324   1.716   2.601   6.383 -0.4239 -0.1644 -0.7236
 9563SOL    HW140325   1.668   2.684   6.373  1.5961  1.5240  3.6693
 9563SOL    HW240326   1.804   2.632   6.406  0.1346 -1.2973 -1.3087
 9564SOL     OW40327   3.230   4.432   5.885  0.4026 -0.3514 -0.5989
 9564SOL    HW140328   3.190   4.345   5.888  1.2157 -0.6159  2.7163
 9564SOL    HW240329   3.249   4.445   5.978  1.3355 -0.3536 -0.7899
 9565SOL     OW40330   4.399   1.421   5.935 -0.0570 -0.4464  0.5588
 9565SOL    HW140331   4.305   1.435   5.944 -0.3055 -0.7356 -1.6461
 9565SOL    HW240332   4.421   1.361   6.006  0.7248 -0.6646  0.1301
 9566SOL     OW40333   1.815   2.596   7.025  0.1551  0.0224  0.0212
 9566SOL    HW140334   1.830   2.654   6.950 -0.0210  0.0670  0.0206
 9566SOL    HW240335   1.801   2.649   7.103 -2.2357 -1.6401  0.7280
 9567SOL     OW40336   1.693   2.054   3.400 -0.2647  0.0517  0.1271
 9567SOL    HW140337   1.654   2.136   3.371 -1.7584 -1.1838 -1.3842
 9567SOL    HW240338   1.728   2.022   3.317  1.9243  0.3078  0.9689
 9568SOL     OW40339   2.185   4.482   1.801  0.5604 -0.3691 -0.3352
 9568SOL    HW140340   2.248   4.552   1.821  1.6288 -0.5866 -2.9566
 9568SOL    HW240341   2.252   4.413   1.793 -0.9203 -2.0112  1.3192
 9569SOL     OW40342   3.032   0.496   9.823  0.5365  0.8257 -0.2389
 9569SOL    HW140343   2.970   0.455   9.763 -0.2030 -0.1474  1.1857
 9569SOL    HW240344   3.119   0.484   9.785  1.5123  0.5909  2.0533
   4.73791   4.73791  17.74977
